Membrane in water
40167
    1TCq1    O1    1   3.913   2.947  10.894 -0.0169 -0.0641  0.8580
    1TCq1    C1    2   3.965   3.075  10.890 -0.8110  0.1276  0.4651
    1TCq1    O2    3   3.992   3.134  10.787  0.6815 -0.7724  0.2169
    1TCq1    C2    4   3.892   3.136  11.001 -0.2524  0.0886  0.0396
    1TCq1    C3    5   3.822   3.250  10.978  0.5323 -0.3486 -0.0082
    1TCq1    C4    6   3.750   3.301  11.080  0.8360  0.8058 -0.1754
    1TCq1    C5    7   3.749   3.250  11.205 -0.1756  0.0582  0.2869
    1TCq1    C6    8   3.815   3.130  11.215  0.4520  0.2635 -0.2212
    1TCq1    C7    9   3.889   3.069  11.116  0.2121 -0.7128 -0.0569
    1TCq1    C8   10   3.801   3.058  11.337 -0.5158 -0.1533 -0.3863
    1TCq1    O4   11   3.790   3.123  11.440 -0.0110 -0.3306  0.0091
    1TCq1    C9   12   3.676   3.423  11.056 -0.0678 -0.5090  0.2429
    1TCq1    O5   13   3.578   3.451  11.135 -0.1531 -0.4599 -0.4482
    1TCq1    O6   14   3.683   3.486  10.947 -0.2956 -0.4829 -0.1708
    1TCq1    H1   15   3.870   2.917  10.977  0.3451 -1.5804  0.4912
    1TCq1    H2   16   3.816   3.306  10.886  1.7852  0.9548  0.6885
    1TCq1    H3   17   3.706   3.299  11.291 -1.8711  0.6396 -0.8971
    1TCq1    H4   18   3.956   2.986  11.134  1.2051  0.0564 -0.2039
    2MPD2     C   19   3.678   2.645  11.594  0.1124 -0.0195  0.1416
    2MPD2    C1   20   3.698   2.776  11.633 -0.2923  0.0987 -0.0326
    2MPD2    C2   21   3.739   2.865  11.536  0.2477 -0.1687  0.3597
    2MPD2    C3   22   3.764   2.823  11.411 -0.4013  0.1895 -0.2106
    2MPD2    C4   23   3.762   2.690  11.376 -0.1575 -0.0907 -0.7046
    2MPD2    C5   24   3.708   2.605  11.468  0.1323 -0.3888  0.1599
    2MPD2     H   25   3.756   2.966  11.572  2.9640 -0.7380  0.6566
    2MPD2    H1   26   3.774   2.651  11.276 -0.7922  0.6393 -1.0653
    2MPD2    H2   27   3.653   2.570  11.668  0.2471 -3.3346 -3.2045
    2MPD2    H3   28   3.700   2.501  11.439 -1.1418 -1.0875  3.0312
    2MPD2     N   29   3.796   2.922  11.318  0.7028  0.1912 -0.5961
    2MPD2    H5   30   3.809   2.889  11.223  0.2912 -1.9984  0.1038
    2MPD2    N1   31   3.674   2.833  11.759 -0.2088  0.1685  0.3931
    2MPD2    H7   32   3.694   2.931  11.775 -0.0916  0.3373 -0.8055
    3TCq1    O1   33   3.670   4.439  10.321  0.5515 -1.1759 -0.8504
    3TCq1    C1   34   3.548   4.471  10.291 -0.1850  0.0392  0.0004
    3TCq1    O2   35   3.477   4.408  10.216  0.2261 -0.1720 -0.3183
    3TCq1    C2   36   3.508   4.569  10.389 -0.2642 -0.1281  0.5100
    3TCq1    C3   37   3.574   4.685  10.377  0.1239 -0.0860  0.1500
    3TCq1    C4   38   3.522   0.060  10.459 -0.0507 -0.0223 -0.5408
    3TCq1    C5   39   3.404   0.044  10.536 -0.0130  0.0433 -0.0912
    3TCq1    C6   40   3.335   4.654  10.512 -0.3244 -0.7678 -0.2359
    3TCq1    C7   41   3.387   4.549  10.442 -0.8612 -0.1824 -0.1839
    3TCq1    C8   42   3.206   4.624  10.583  0.5821  0.1506 -0.4341
    3TCq1    O4   43   3.185   4.504  10.595  0.4712  0.8081  0.1342
    3TCq1    C9   44   3.592   0.179  10.479 -0.2969 -0.3451 -0.2532
    3TCq1    O5   45   3.561   0.247  10.581  0.0087  0.1438 -0.4954
    3TCq1    O6   46   3.661   0.225  10.380 -0.2725 -1.1426  0.5906
    3TCq1    H1   47   3.686   4.477  10.409 -1.5220 -0.4424 -0.8103
    3TCq1    H2   48   3.668   4.693  10.324  0.2614 -2.2493  0.0413
    3TCq1    H3   49   3.362   0.135  10.577  1.3193  1.4193 -1.8000
    3TCq1    H4   50   3.337   4.453  10.435 -3.0491  0.9236  0.0676
    4MPD2     C   51   2.767   0.025  10.787 -0.7422  0.3224  0.6106
    4MPD2    C1   52   2.846   0.140  10.794  0.1547  0.1225  0.3003
    4MPD2    C2   53   2.974   0.136  10.744 -0.1350 -0.0962  0.0958
    4MPD2    C3   54   3.016   0.018  10.687  0.2400  0.2508  0.0743
    4MPD2    C4   55   2.930   4.637  10.671  0.0869 -0.5046 -0.2394
    4MPD2    C5   56   2.808   4.639  10.723  0.1801 -0.3448 -0.5284
    4MPD2     H   57   3.035   0.225  10.749  0.8499 -0.8650  1.8471
    4MPD2    H1   58   2.961   4.553  10.610  0.0163  1.0406 -2.4333
    4MPD2    H2   59   2.662   0.023  10.813 -0.4045 -2.1134  1.8113
    4MPD2    H3   60   2.739   4.556  10.710  1.4896 -1.5271  0.1207
    4MPD2     N   61   3.143   0.011  10.635 -0.1977  0.2054  0.1090
    4MPD2    H5   62   3.188   0.101  10.645 -0.8717  0.6424 -0.8331
    4MPD2    N1   63   2.796   0.256  10.862 -0.9077  0.3123  0.3441
    4MPD2    H7   64   2.854   0.339  10.872 -0.4776  0.1358 -0.8012
    5TCq1    O1   65   4.273   1.228  12.292 -0.1433 -0.3281 -0.1333
    5TCq1    C1   66   4.320   1.351  12.321 -0.4787 -0.5278  1.0661
    5TCq1    O2   67   4.421   1.379  12.386 -0.2264 -0.4079  0.4069
    5TCq1    C2   68   4.242   1.445  12.246  0.2276 -0.2291  0.2470
    5TCq1    C3   69   4.168   1.532  12.323 -0.1733  0.5315  0.1178
    5TCq1    C4   70   4.068   1.607  12.263 -0.3990  0.2128  0.2124
    5TCq1    C5   71   4.037   1.586  12.137  0.0035 -0.3620  0.0916
    5TCq1    C6   72   4.093   1.480  12.066  0.7559 -0.6080 -0.5063
    5TCq1    C7   73   4.199   1.414  12.123 -0.3268 -0.3037 -0.1135
    5TCq1    C8   74   4.046   1.440  11.933  0.1381 -0.3091 -0.4595
    5TCq1    O4   75   4.075   1.327  11.899  0.4324 -0.2628  0.2843
    5TCq1    C9   76   3.988   1.688  12.343  0.7200 -0.2836  0.1616
    5TCq1    O5   77   3.918   1.780  12.282  0.4188  0.4693 -0.1436
    5TCq1    O6   78   3.967   1.654  12.463 -1.1741 -0.3205 -0.4679
    5TCq1    H1   79   4.182   1.243  12.258 -0.7340 -0.9701  1.1588
    5TCq1    H2   80   4.183   1.541  12.430  3.7465 -0.2435 -0.3435
    5TCq1    H3   81   3.954   1.643  12.096  1.1717  1.7426  0.6942
    5TCq1    H4   82   4.258   1.347  12.062 -1.2194  1.1346 -2.5851
    6MPD2     C   83   3.882   1.651  11.664  1.2497  1.1562 -0.1640
    6MPD2    C1   84   3.928   1.532  11.728 -0.0649 -0.1503 -0.0455
    6MPD2    C2   85   3.904   1.406  11.667 -0.5585  0.2938  0.2719
    6MPD2    C3   86   3.854   1.399  11.540  0.1191 -0.9979 -0.2348
    6MPD2    C4   87   3.817   1.511  11.477  0.0533  0.3660 -0.0255
    6MPD2    C5   88   3.822   1.637  11.537 -0.2428  0.3998  0.4956
    6MPD2     H   89   3.911   1.316  11.726 -0.4938 -0.7411 -1.3096
    6MPD2    H1   90   3.784   1.506  11.374 -2.7677 -2.6837  1.0400
    6MPD2    H2   91   3.889   1.754  11.696 -0.4423  1.2091  0.0428
    6MPD2    H3   92   3.804   1.725  11.477  0.3721  0.7943  0.8937
    6MPD2     N   93   3.853   1.270  11.480  0.3429 -0.0120 -0.1363
    6MPD2    H5   94   3.899   1.195  11.530 -0.6941 -1.7567 -1.8525
    6MPD2    N1   95   3.987   1.547  11.859  1.0349  0.2482  0.4154
    6MPD2    H7   96   3.991   1.638  11.902  0.7997 -2.2273  5.6577
    7TCq1    O1   97   0.777   0.422  14.018  0.3765 -0.2869 -0.3215
    7TCq1    C1   98   0.677   0.488  13.954 -0.2327  0.2527 -0.0595
    7TCq1    O2   99   0.624   0.591  13.996  0.3475  0.2959  0.0198
    7TCq1    C2  100   0.683   0.445  13.813  0.0357  0.4017 -0.4043
    7TCq1    C3  101   0.640   0.532  13.721 -0.2031 -0.0931 -0.0918
    7TCq1    C4  102   0.672   0.522  13.585 -0.3513  0.3681  0.6125
    7TCq1    C5  103   0.756   0.417  13.549  0.0316 -0.0505  0.2423
    7TCq1    C6  104   0.786   0.323  13.646  0.1465  0.4405  0.6705
    7TCq1    C7  105   0.754   0.338  13.782 -0.8445 -0.1177 -0.3830
    7TCq1    C8  106   0.906   0.250  13.628 -0.6999  0.0859 -0.0184
    7TCq1    O4  107   0.969   0.233  13.731  0.2429 -0.8261 -0.2915
    7TCq1    C9  108   0.635   0.624  13.491  0.1798 -0.7211  0.0155
    7TCq1    O5  109   0.732   0.674  13.434 -0.0495 -0.3480  0.3330
    7TCq1    O6  110   0.517   0.668  13.491  0.0113 -0.5409 -0.2234
    7TCq1    H1  111   0.817   0.346  13.971  1.6349  0.4576 -0.4546
    7TCq1    H2  112   0.585   0.621  13.750  0.8081  0.0743  1.3157
    7TCq1    H3  113   0.783   0.409  13.445  0.2380 -3.4357  0.5627
    7TCq1    H4  114   0.790   0.269  13.857  1.2115  0.6770 -0.6414
    8MPD2     C  115   1.187   4.624  13.392 -0.1438 -1.1797  0.5968
    8MPD2    C1  116   1.186   4.669  13.518 -0.6573  0.9314 -0.4635
    8MPD2    C2  117   1.108   0.055  13.554 -0.0310 -0.1076  0.1985
    8MPD2    C3  118   1.027   0.115  13.462  0.1128  0.1339  0.5965
    8MPD2    C4  119   1.026   0.074  13.333 -1.4429 -0.3333 -0.5412
    8MPD2    C5  120   1.106   4.686  13.301  0.5337 -0.5237 -0.1300
    8MPD2     H  121   1.103   0.074  13.661 -0.7553  1.5892 -0.1474
    8MPD2    H1  122   0.958   0.119  13.262 -0.2969  0.2915 -1.2362
    8MPD2    H2  123   1.258   4.546  13.368  0.0710 -0.4047 -1.3249
    8MPD2    H3  124   1.097   4.655  13.198  2.4859 -2.7800  0.3837
    8MPD2     N  125   0.925   0.202  13.498  0.1801  0.2409 -1.0267
    8MPD2    H5  126   0.848   0.225  13.435 -1.3036 -1.4987  0.1523
    8MPD2    N1  127   1.265   4.594  13.611  0.6536  0.2802 -0.1408
    8MPD2    H7  128   1.295   4.502  13.581  2.8791  0.0189  2.9309
    9TCq1    O1  129   2.897   4.292  10.695  0.0666 -0.6462  0.1344
    9TCq1    C1  130   2.882   4.215  10.588  0.1530  0.7772  0.2402
    9TCq1    O2  131   2.781   4.220  10.524 -0.8772 -0.1589  0.9892
    9TCq1    C2  132   3.015   4.195  10.529  0.4218 -0.5199 -0.0023
    9TCq1    C3  133   3.027   4.205  10.394 -0.2150 -0.4179  0.3220
    9TCq1    C4  134   3.151   4.192  10.336 -0.1290  0.3572 -0.3918
    9TCq1    C5  135   3.262   4.179  10.414 -0.0188 -0.6208 -0.1099
    9TCq1    C6  136   3.248   4.182  10.551  0.8406 -0.0352 -0.4073
    9TCq1    C7  137   3.129   4.185  10.611 -0.9911 -1.0742  0.5631
    9TCq1    C8  138   3.374   4.197  10.633 -0.5606  0.2338  0.0263
    9TCq1    O4  139   3.479   4.230  10.571  0.2619 -0.3816 -0.4935
    9TCq1    C9  140   3.167   4.202  10.191 -0.1764 -0.4484  0.5148
    9TCq1    O5  141   3.277   4.188  10.137 -0.0546 -0.0886  0.0223
    9TCq1    O6  142   3.067   4.218  10.115  0.6040 -0.6445  0.3112
    9TCq1    H1  143   2.985   4.335  10.693 -0.3704  0.2302 -0.1210
    9TCq1    H2  144   2.940   4.211  10.331  0.1851 -2.5646 -0.4531
    9TCq1    H3  145   3.355   4.168  10.359  1.1799 -2.5577  2.3189
    9TCq1    H4  146   3.109   4.192  10.717 -0.0451 -0.2433  0.6940
   10MPD2     C  147   3.589   4.250  10.840 -0.4956  0.1932 -0.2697
   10MPD2    C1  148   3.467   4.189  10.867 -0.4727 -0.4074 -0.3620
   10MPD2    C2  149   3.458   4.133  10.997 -0.0560  0.6550  0.0298
   10MPD2    C3  150   3.559   4.141  11.093 -0.3645 -0.6650  0.6332
   10MPD2    C4  151   3.667   4.213  11.061  0.1959 -0.6185 -0.2201
   10MPD2    C5  152   3.682   4.271  10.941 -0.0051  0.4768  0.1815
   10MPD2     H  153   3.363   4.086  11.019  0.9502 -1.8327 -0.9477
   10MPD2    H1  154   3.743   4.238  11.134 -1.3471  0.7254  0.9161
   10MPD2    H2  155   3.610   4.289  10.741 -1.1306 -2.9547 -1.6553
   10MPD2    H3  156   3.776   4.321  10.922  0.3166 -0.3984 -0.5122
   10MPD2     N  157   3.544   4.092  11.224  0.4072 -0.3198  0.8432
   10MPD2    H5  158   3.624   4.110  11.283  2.3143 -1.7036 -1.3256
   10MPD2    N1  159   3.364   4.166  10.770 -0.0635 -0.1052  0.0988
   10MPD2    H7  160   3.282   4.120  10.806  0.7480 -1.7333 -0.1423
   11TCq1    O1  161   4.468   4.097  14.979 -0.2297 -0.4023  0.1504
   11TCq1    C1  162   4.556   4.183  14.914  0.4787  0.4385  0.0232
   11TCq1    O2  163   4.681   4.186  14.925  0.2161  0.0511  0.4896
   11TCq1    C2  164   4.492   4.278  14.829 -0.3029  0.1322 -0.7471
   11TCq1    C3  165   4.540   4.407  14.821  0.3992  0.3260  0.1410
   11TCq1    C4  166   4.458   4.505  14.762 -0.4880  0.5371 -0.0780
   11TCq1    C5  167   4.346   4.464  14.691 -0.2682  0.4038 -0.3028
   11TCq1    C6  168   4.307   4.328  14.688 -0.5645 -0.6135  0.1660
   11TCq1    C7  169   4.368   4.237  14.776 -0.5827 -0.1361  0.2286
   11TCq1    C8  170   4.166   4.303  14.658  1.2037  0.6016  0.5126
   11TCq1    O4  171   4.089   4.395  14.686 -0.2229 -0.3797  0.0311
   11TCq1    C9  172   4.513   4.644  14.752  0.1046 -0.4859  0.5887
   11TCq1    O5  173   4.621   4.655  14.814  0.2985 -0.1140  0.2653
   11TCq1    O6  174   4.474   0.006  14.671 -0.0100  0.2607 -0.6898
   11TCq1    H1  175   4.379   4.137  14.977  0.2144  0.6027  0.2961
   11TCq1    H2  176   4.637   4.429  14.864  1.0596 -1.5438 -0.3926
   11TCq1    H3  177   4.295   4.535  14.626 -0.4532  1.9831  1.5642
   11TCq1    H4  178   4.336   4.134  14.787  0.4309 -0.8103 -3.1396
   12MPD2     C  179   3.908   4.173  14.611 -0.0753 -0.3177 -1.0462
   12MPD2    C1  180   4.024   4.123  14.556 -0.2268  0.4857  0.1425
   12MPD2    C2  181   4.017   4.015  14.470  0.2671  0.3074 -0.6065
   12MPD2    C3  182   3.895   3.967  14.425 -0.8440 -0.1630 -0.1048
   12MPD2    C4  183   3.777   4.012  14.485 -0.7657  0.2616  0.1057
   12MPD2    C5  184   3.793   4.124  14.568  0.5993  1.2006 -0.8375
   12MPD2     H  185   4.110   3.976  14.431  1.2011  1.8145  0.1164
   12MPD2    H1  186   3.677   3.979  14.461 -0.0541 -1.1668 -1.0028
   12MPD2    H2  187   3.901   4.243  14.693 -0.8293 -2.2906  0.5900
   12MPD2    H3  188   3.700   4.166  14.604  0.6654 -0.6880  1.5492
   12MPD2     N  189   3.880   3.880  14.318  0.0500  0.2393 -0.2503
   12MPD2    H5  190   3.787   3.841  14.301 -1.0363  2.4660  0.6290
   12MPD2    N1  191   4.148   4.182  14.597 -0.2041 -0.4693  0.0282
   12MPD2    H7  192   4.235   4.145  14.561 -0.3028  1.2200 -1.9936
   13TCq1    O1  193   3.775   3.804  10.160 -0.0468 -0.1522 -0.2539
   13TCq1    C1  194   3.716   3.725  10.254 -0.5908 -0.4835 -0.5801
   13TCq1    O2  195   3.774   3.672  10.344 -0.2940 -0.8655  0.2530
   13TCq1    C2  196   3.573   3.760  10.249  0.2172 -0.2251 -0.3158
   13TCq1    C3  197   3.529   3.797  10.123 -0.8488  0.3421 -0.3493
   13TCq1    C4  198   3.401   3.835  10.122 -0.3342 -0.7431 -0.8502
   13TCq1    C5  199   3.330   3.866  10.235 -0.2670 -0.6207  0.6815
   13TCq1    C6  200   3.383   3.845  10.361 -0.4972  0.5201 -0.5076
   13TCq1    C7  201   3.508   3.789  10.367  0.6023 -0.5369  0.5069
   13TCq1    C8  202   3.303   3.846  10.481  0.6679 -0.2800  0.1817
   13TCq1    O4  203   3.361   3.844  10.594  0.1221 -0.2240  0.3184
   13TCq1    C9  204   3.332   3.838   9.995 -0.0862  1.1641  0.9682
   13TCq1    O5  205   3.393   3.775   9.905 -0.1798  0.3019 -0.2231
   13TCq1    O6  206   3.235   3.918   9.979  0.0166  0.5030  0.3216
   13TCq1    H1  207   3.706   3.844  10.102  0.9180  0.5638 -0.8994
   13TCq1    H2  208   3.578   3.767  10.031  1.1426  1.4098  0.3830
   13TCq1    H3  209   3.232   3.906  10.212 -0.8153 -0.2560  3.6445
   13TCq1    H4  210   3.557   3.764  10.460 -0.8890  1.3869  1.8082
   14MPD2     C  211   2.936   3.829  10.488 -0.0675 -0.2702 -1.1958
   14MPD2    C1  212   3.064   3.820  10.539  0.1201 -0.1683  0.2710
   14MPD2    C2  213   3.085   3.831  10.683  0.7144  0.1594 -0.1344
   14MPD2    C3  214   2.975   3.855  10.762  0.3116  0.7604 -1.1175
   14MPD2    C4  215   2.851   3.859  10.708  0.3304  0.2734 -0.0691
   14MPD2    C5  216   2.830   3.848  10.571  0.6700  0.2962  0.0640
   14MPD2     H  217   3.182   3.825  10.729  1.3048 -3.3789 -1.8354
   14MPD2    H1  218   2.762   3.854  10.770 -0.9078  1.1795 -1.7641
   14MPD2    H2  219   2.916   3.827  10.382 -0.7723 -1.5616 -1.0416
   14MPD2    H3  220   2.731   3.844  10.527  1.2305 -0.5798 -1.1092
   14MPD2     N  221   2.977   3.879  10.906 -0.1611  0.7278 -0.0616
   14MPD2    H5  222   2.891   3.863  10.958 -0.5958 -1.5131 -1.5021
   14MPD2    N1  223   3.167   3.828  10.450 -0.4145  0.3688 -0.3887
   14MPD2    H7  224   3.142   3.799  10.356  1.3681 -0.0625 -0.7181
   15TCq1    O1  225   0.086   2.834   2.186 -0.3906 -0.4632 -0.6222
   15TCq1    C1  226   0.167   2.881   2.089 -0.0681  0.6351 -0.6380
   15TCq1    O2  227   0.128   2.954   2.000  0.7015 -0.4166 -0.4908
   15TCq1    C2  228   0.274   2.778   2.077  0.4846  0.6149 -0.0216
   15TCq1    C3  229   0.345   2.735   2.181  0.3557  0.2405 -0.1271
   15TCq1    C4  230   0.427   2.623   2.167 -0.6720  0.0128  0.0119
   15TCq1    C5  231   0.426   2.552   2.048  0.0219 -0.8178  0.0954
   15TCq1    C6  232   0.354   2.600   1.947  0.5983 -0.4723  0.7751
   15TCq1    C7  233   0.282   2.716   1.958 -0.1765 -0.1444  0.0774
   15TCq1    C8  234   0.347   2.524   1.822 -0.2211 -0.5473  0.2575
   15TCq1    O4  235   0.395   2.414   1.823 -0.4065 -0.1815 -0.1390
   15TCq1    C9  236   0.489   2.580   2.282 -0.4706  0.1761  0.0247
   15TCq1    O5  237   0.581   2.493   2.272 -0.2078  0.8634 -0.4600
   15TCq1    O6  238   0.427   2.621   2.385 -0.9118  0.0348  0.0286
   15TCq1    H1  239   0.131   2.787   2.259 -0.8897 -0.7236 -0.4886
   15TCq1    H2  240   0.338   2.791   2.274  1.2003  0.8760 -0.4457
   15TCq1    H3  241   0.485   2.461   2.041 -0.9293 -1.2714 -1.9592
   15TCq1    H4  242   0.224   2.754   1.875  2.2716  0.2975 -1.4336
   16MPD2     C  243   0.276   2.655   1.490  0.0260 -0.2501  0.0494
   16MPD2    C1  244   0.337   2.570   1.580  0.1268 -0.8952  0.2877
   16MPD2    C2  245   0.432   2.473   1.537  0.5295  0.2531  0.3485
   16MPD2    C3  246   0.456   2.468   1.400 -0.5803  0.7229  0.3350
   16MPD2    C4  247   0.394   2.553   1.314 -0.1723  0.4000  0.2651
   16MPD2    C5  248   0.318   2.653   1.360 -0.2722  0.2933  0.6797
   16MPD2     H  249   0.487   2.414   1.609  3.1381 -0.6288 -2.3949
   16MPD2    H1  250   0.415   2.544   1.209 -0.6620 -1.1339  0.2969
   16MPD2    H2  251   0.205   2.726   1.530  1.0615 -0.2251  1.8362
   16MPD2    H3  252   0.274   2.723   1.290 -0.8664  0.2256  0.9825
   16MPD2     N  253   0.537   2.356   1.352  0.2104 -0.1004 -0.1149
   16MPD2    H5  254   0.586   2.301   1.422 -0.0583 -2.2861 -1.6730
   16MPD2    N1  255   0.310   2.600   1.712  0.3681 -0.8909 -0.2967
   16MPD2    H7  256   0.243   2.674   1.731  0.4976 -0.5449 -1.1656
   17TCq1    O1  257   2.744   3.229  10.847  0.7003  0.1652  0.3240
   17TCq1    C1  258   2.738   3.231  10.713  0.5128 -0.3266 -0.2503
   17TCq1    O2  259   2.673   3.319  10.651 -0.2217 -0.4172  0.2795
   17TCq1    C2  260   2.845   3.145  10.660 -0.5970  0.0939 -0.0401
   17TCq1    C3  261   2.952   3.106  10.739  0.1802 -0.2336  0.4055
   17TCq1    C4  262   3.063   3.065  10.677  0.4265 -0.4957 -0.1285
   17TCq1    C5  263   3.068   3.055  10.541  0.0487  0.2214 -0.7876
   17TCq1    C6  264   2.967   3.106  10.462 -0.3418  0.1628 -0.0781
   17TCq1    C7  265   2.850   3.149  10.522 -0.1368  0.1638  0.3385
   17TCq1    C8  266   2.980   3.135  10.320  0.7518  0.1643 -0.1443
   17TCq1    O4  267   2.873   3.162  10.267  0.3553  0.4559 -0.7725
   17TCq1    C9  268   3.175   3.029  10.754 -0.0868  0.2016  0.5888
   17TCq1    O5  269   3.283   2.997  10.696 -0.1894  0.0795 -0.2514
   17TCq1    O6  270   3.173   3.069  10.876 -0.4585  0.0968 -0.2878
   17TCq1    H1  271   2.766   3.145  10.893  0.1806 -0.2856 -0.2547
   17TCq1    H2  272   2.960   3.124  10.846  1.0876  2.4642 -0.1049
   17TCq1    H3  273   3.155   3.014  10.490  1.5787 -0.6583  2.5822
   17TCq1    H4  274   2.777   3.218  10.479 -0.2928 -1.2852 -1.7087
   18MPD2     C  275   3.070   3.230  10.053 -0.3612 -0.2268  0.3621
   18MPD2    C1  276   3.153   3.210  10.165  0.0608 -1.4051 -0.0001
   18MPD2    C2  277   3.284   3.245  10.161  0.2593 -0.0626  0.2187
   18MPD2    C3  278   3.345   3.288  10.041 -1.0142  0.9158 -0.0314
   18MPD2    C4  279   3.269   3.302   9.933 -0.0417  0.3814 -0.4666
   18MPD2    C5  280   3.134   3.274   9.944 -0.0339  0.4709 -0.0771
   18MPD2     H  281   3.340   3.227  10.253  2.1256  0.7247 -0.7537
   18MPD2    H1  282   3.319   3.336   9.842 -1.1487 -2.1091 -2.0094
   18MPD2    H2  283   2.964   3.206  10.043 -1.0328  1.6661  2.8877
   18MPD2    H3  284   3.073   3.284   9.855  2.3725 -2.2296 -2.0121
   18MPD2     N  285   3.480   3.331  10.036 -0.3421  0.0277 -0.0205
   18MPD2    H5  286   3.515   3.369   9.949  1.3116  0.6423  0.9083
   18MPD2    N1  287   3.110   3.145  10.281 -0.3520 -0.0570 -0.3053
   18MPD2    H7  288   3.179   3.133  10.355 -1.2869  2.5345  0.9734
   19TMC2    C1  289   0.598   3.525  13.555  0.0459 -0.1973 -0.2332
   19TMC2    C2  290   0.551   3.529  13.429 -0.3801 -1.2406 -0.0068
   19TMC2    C3  291   0.415   3.529  13.403 -0.4523 -0.0671 -0.3152
   19TMC2    C4  292   0.515   3.537  13.662 -0.0151 -0.0009 -0.1177
   19TMC2    C5  293   0.386   3.530  13.640  0.4657  0.7038 -0.4907
   19TMC2    C6  294   0.332   3.525  13.513 -0.3444  0.7177  0.2325
   19TMC2     C  295   0.740   3.534  13.585  1.0984 -0.3066 -0.4246
   19TMC2     O  296   0.806   3.568  13.488  0.8918 -0.4344  0.4740
   19TMC2     H  297   0.624   3.536  13.349 -1.8543  1.6680 -1.0600
   19TMC2    H1  298   0.539   3.554  13.766  1.5666 -0.4309 -0.4142
   19TMC2    H2  299   0.227   3.503  13.499 -0.1399  0.4803 -0.9335
   19TMC2    C7  300   0.288   3.519  13.745 -0.8645  0.0602  0.6639
   19TMC2    C8  301   0.365   3.459  13.286  0.0926  0.4247 -1.1472
   19TMC2    O1  302   0.176   3.479  13.711 -0.2529  0.1988  0.4239
   19TMC2    O2  303   0.248   3.417  13.276 -0.1880  0.9852 -0.0786
   19TMC2    O5  304   0.461   3.458  13.187 -0.3984  0.2712  0.4913
   19TMC2    H5  305   0.516   3.539  13.181 -0.6659  0.3712 -0.6287
   20MPD2     C  306   1.013   3.591  13.691 -0.2702 -0.2588 -0.0836
   20MPD2    C1  307   0.898   3.584  13.771  0.0401 -0.7724 -0.0186
   20MPD2    C2  308   0.908   3.594  13.908  0.3716  0.8772  0.3015
   20MPD2    C3  309   1.028   3.607  13.973  0.2316  0.6105 -0.0590
   20MPD2    C4  310   1.138   3.608  13.893 -0.6214  0.4504  0.4494
   20MPD2    C5  311   1.133   3.603  13.758 -0.4121 -0.1907 -0.1460
   20MPD2     H  312   0.814   3.575  13.958 -0.4781 -1.3909 -2.1588
   20MPD2    H1  313   1.233   3.633  13.939  0.2798  2.0926 -2.3084
   20MPD2    H2  314   1.005   3.593  13.583  0.0736  1.0496 -0.0923
   20MPD2    H3  315   1.228   3.616  13.708 -0.3633  2.6933  0.7337
   20MPD2     N  316   1.034   3.620  14.115 -0.7033  0.6182 -0.2538
   20MPD2    H5  317   1.126   3.641  14.153 -1.0115  1.1073  0.2132
   20MPD2    N1  318   0.770   3.556  13.717 -0.3801 -0.5599 -0.7546
   20MPD2    H7  319   0.700   3.528  13.785  0.2667 -0.8741 -0.2095
   21MPD2     C  320   2.531   4.089  14.568 -0.0006  0.2045 -0.6731
   21MPD2    C1  321   2.636   4.069  14.662  0.2084  0.6703  0.1787
   21MPD2    C2  322   2.600   4.074  14.799  0.0130 -0.1467 -0.3798
   21MPD2    C3  323   2.469   4.095  14.843 -0.1463  0.2129 -0.1546
   21MPD2    C4  324   2.372   4.122  14.745  0.5663  0.3234 -0.2832
   21MPD2    C5  325   2.402   4.103  14.613  0.2085 -0.1430  0.3878
   21MPD2     H  326   2.684   4.062  14.866 -0.5230  0.9924  0.4949
   21MPD2    H1  327   2.274   4.162  14.767 -1.1538 -2.4261 -2.9262
   21MPD2    H2  328   2.555   4.092  14.462 -2.4343 -1.9780 -1.2703
   21MPD2    H3  329   2.321   4.120  14.543 -0.4254 -2.5443  0.5161
   21MPD2     N  330   2.433   4.102  14.979 -0.3638  0.2926 -0.3752
   21MPD2    H5  331   2.337   4.133  14.991 -1.4138 -2.8842 -0.4938
   21MPD2    N1  332   2.766   4.029  14.626 -0.3747  0.2099  0.2800
   21MPD2    H7  333   2.825   4.006  14.707 -2.6795 -1.9490  1.3545
   22TCq2    C1  334   2.511   4.062  15.084  0.2840 -0.7392  0.5331
   22TCq2    O2  335   2.626   4.018  15.089  0.4117  0.6848 -0.0826
   22TCq2    C2  336   2.436   4.073  15.207 -0.0969  0.0418 -0.4463
   22TCq2    C3  337   2.440   3.970  15.292  0.0524  0.2539 -0.3179
   22TCq2    C4  338   2.338   3.959  15.386  0.3128 -0.0104  0.1955
   22TCq2    C5  339   2.232   4.051  15.384 -0.0790 -0.3311 -0.1399
   22TCq2    C6  340   2.238   4.155  15.302  0.1601 -0.2259 -0.1279
   22TCq2    C7  341   2.343   4.172  15.216 -0.0629  0.3047  0.8710
   22TCq2    C8  342   2.128   4.247  15.308  0.3361 -0.5106 -0.3213
   22TCq2    O4  343   2.072   4.260  15.414  0.0961  0.0452  0.9007
   22TCq2    C9  344   2.332   3.838  15.465  0.0665 -0.4571 -0.2819
   22TCq2    O5  345   2.407   3.746  15.426 -0.6797 -0.1813 -0.3364
   22TCq2    O6  346   2.236   3.827  15.547  0.0599 -0.4086 -0.1400
   22TCq2    H2  347   2.525   3.904  15.283 -1.4172 -1.6813  0.0057
   22TCq2    H3  348   2.154   4.042  15.458  1.2835  2.6655  1.6988
   22TCq2    H4  349   2.346   4.264  15.159 -0.7321 -0.5617 -0.5835
   23MPD2     C  350   4.191   0.578  15.242 -0.4416  0.2766  0.4214
   23MPD2    C1  351   4.204   0.442  15.278 -1.0539 -0.0265  0.0978
   23MPD2    C2  352   4.109   0.355  15.230 -0.6108 -0.5444  0.0016
   23MPD2    C3  353   4.010   0.404  15.144 -0.0528  0.3236  0.1217
   23MPD2    C4  354   3.999   0.536  15.113  0.8693  0.2023  0.4844
   23MPD2    C5  355   4.088   0.624  15.165  0.1452  0.0181 -0.8379
   23MPD2     H  356   4.131   0.251  15.251  1.4714  0.0621  0.8839
   23MPD2    H1  357   3.929   0.579  15.043  1.6345 -1.0684 -1.0480
   23MPD2    H2  358   4.256   0.653  15.286  3.0011 -1.6610 -1.4257
   23MPD2    H3  359   4.085   0.729  15.139 -0.3527  0.1037 -0.4285
   23MPD2     N  360   3.920   0.315  15.072 -0.7528  0.8087 -0.4655
   23MPD2    H5  361   3.859   0.363  15.007  1.1104  3.8487  0.0209
   23MPD2    N1  362   4.312   0.392  15.358  0.2476 -0.5552 -0.1674
   23MPD2    H7  363   4.310   0.292  15.376 -0.6726 -0.8017 -1.6303
   24TCq2    C1  364   3.897   0.186  15.108 -0.2064  0.7818 -0.0131
   24TCq2    O2  365   3.930   0.129  15.212  0.3037 -0.0780 -0.5878
   24TCq2    C2  366   3.834   0.117  15.005  0.3819 -1.2095 -0.9155
   24TCq2    C3  367   3.838   0.175  14.877 -0.0275  0.2801  0.9816
   24TCq2    C4  368   3.761   0.128  14.776 -0.2637  0.1134 -0.3840
   24TCq2    C5  369   3.672   0.032  14.806 -0.0678 -0.4350  0.1382
   24TCq2    C6  370   3.661   4.706  14.936  0.0444  0.2628 -0.2267
   24TCq2    C7  371   3.757   0.015  15.032 -0.3673  0.1829 -0.0989
   24TCq2    C8  372   3.532   4.707  15.002  0.2373  0.8420  0.5365
   24TCq2    O4  373   3.519   4.688  15.122  0.7865  0.3433 -0.4401
   24TCq2    C9  374   3.791   0.153  14.634 -0.1602  0.1276  0.4059
   24TCq2    O5  375   3.897   0.216  14.601 -0.1650  0.8014  0.0749
   24TCq2    O6  376   3.698   0.116  14.559  0.0460  0.5169 -0.0350
   24TCq2    H2  377   3.903   0.258  14.852 -2.6268  1.4835 -1.7112
   24TCq2    H3  378   3.600   0.007  14.729  1.8500  0.0122 -1.7967
   24TCq2    H4  379   3.755   4.696  15.132 -0.3444  1.3154  0.3799
   25TMC2    C1  380   3.421   2.871  11.413  0.2239  0.1724 -0.2225
   25TMC2    C2  381   3.456   2.996  11.357  0.5131  0.0214 -0.6713
   25TMC2    C3  382   3.452   3.101  11.446  0.1580  0.4971 -0.0520
   25TMC2    C4  383   3.379   2.860  11.542 -0.0900 -0.1758  0.1740
   25TMC2    C5  384   3.364   2.976  11.620  0.1906  0.3627 -0.1210
   25TMC2    C6  385   3.393   3.093  11.568  0.7355 -0.4863 -0.2548
   25TMC2     C  386   3.416   2.754  11.324  0.3287  0.4348  0.0090
   25TMC2     O  387   3.496   2.755  11.231 -0.3525 -0.4668 -0.2258
   25TMC2     H  388   3.479   3.028  11.256  0.3990 -3.0715 -1.6746
   25TMC2    H1  389   3.355   2.763  11.582 -0.3542 -0.5474 -0.9034
   25TMC2    H2  390   3.387   3.188  11.620  1.2865 -0.2389 -0.6489
   25TMC2    C7  391   3.278   2.969  11.733  0.6109  0.3710  0.7023
   25TMC2    C8  392   3.449   3.230  11.381 -0.4484 -0.2127 -0.2565
   25TMC2    O1  393   3.289   2.876  11.816 -0.0314  0.4588 -0.3337
   25TMC2    O2  394   3.397   3.253  11.274  0.1032 -0.0131 -0.4497
   25TMC2    O5  395   3.507   3.315  11.462  0.4600 -0.1736 -0.0187
   25TMC2    H5  396   3.547   3.268  11.538 -0.0651  1.5654  1.3456
   26MPD2     C  397   3.212   2.330  11.119  0.2588 -0.6618 -0.3172
   26MPD2    C1  398   3.118   2.421  11.171  0.3038  0.1634 -0.2261
   26MPD2    C2  399   3.163   2.519  11.260  0.4003 -0.7323  0.3293
   26MPD2    C3  400   3.296   2.549  11.268  0.8607 -0.3942 -0.0899
   26MPD2    C4  401   3.392   2.471  11.194 -0.7101  0.2629  0.3481
   26MPD2    C5  402   3.349   2.361  11.127  0.4481 -0.2700  0.1590
   26MPD2     H  403   3.102   2.584  11.321  0.5811 -0.2358 -0.0141
   26MPD2    H1  404   3.496   2.497  11.209 -0.5625 -0.5606  0.8275
   26MPD2    H2  405   3.174   2.247  11.061  0.4792 -1.5371  0.7893
   26MPD2    H3  406   3.416   2.289  11.080  2.7866  2.8641 -1.2656
   26MPD2     N  407   3.321   2.664  11.351  0.0442  0.0019  0.7596
   26MPD2    H5  408   3.244   2.696  11.409  0.0588  1.7748 -0.2006
   26MPD2    N1  409   2.981   2.400  11.149  0.4506 -0.2975  0.1626
   26MPD2    H7  410   2.945   2.330  11.085 -0.3636  2.1283 -2.0368
   27TMC2    C1  411   1.983   4.552  12.158 -0.1472 -0.1874  0.3011
   27TMC2    C2  412   2.099   4.579  12.223 -0.5366 -0.1392 -0.0164
   27TMC2    C3  413   2.130   4.707  12.254  0.5270 -0.6213  0.1817
   27TMC2    C4  414   1.895   4.653  12.120  0.5726  0.0573 -1.0162
   27TMC2    C5  415   1.926   0.059  12.149 -0.4325  0.0491 -0.0354
   27TMC2    C6  416   2.044   0.083  12.222 -0.4638 -0.4812 -0.8690
   27TMC2     C  417   1.916   4.446  12.228 -0.1005  0.6113 -0.4648
   27TMC2     O  418   1.989   4.350  12.254  0.3332  0.3509  0.9353
   27TMC2     H  419   2.158   4.493  12.253  0.4605  0.1997 -1.0145
   27TMC2    H1  420   1.815   4.636  12.049 -0.0050 -0.5799 -0.2274
   27TMC2    H2  421   2.060   0.187  12.247  1.9898 -0.8647 -0.8380
   27TMC2    C7  422   1.819   0.129  12.219 -0.1690 -0.4103  0.1124
   27TMC2    C8  423   2.248   0.009  12.329 -0.1561  0.3410  0.2104
   27TMC2    O1  424   1.722   0.160  12.152 -0.2727 -0.2009  0.3061
   27TMC2    O2  425   2.286   4.638  12.398 -0.0777 -0.6326 -0.0703
   27TMC2    O5  426   2.276   0.143  12.343 -0.0234  0.3689  0.3996
   27TMC2    H5  427   2.249   0.196  12.265  0.2427  1.8757  1.3511
   28MPD2     C  428   1.552   4.290  12.551  0.4595 -0.3059  0.6127
   28MPD2    C1  429   1.517   4.416  12.514  0.0704 -0.5560 -0.0844
   28MPD2    C2  430   1.596   4.477  12.417  0.7432  0.2100 -0.9281
   28MPD2    C3  431   1.711   4.416  12.365  0.0170  0.0804 -0.9546
   28MPD2    C4  432   1.743   4.289  12.404 -0.0313  0.0437  0.3157
   28MPD2    C5  433   1.669   4.235  12.501 -0.3369  0.0728 -0.0411
   28MPD2     H  434   1.573   4.580  12.391 -1.0119  0.0088 -0.2031
   28MPD2    H1  435   1.833   4.236  12.375  0.4203  1.2307 -0.4175
   28MPD2    H2  436   1.490   4.231  12.618  0.9984 -1.4896  0.0738
   28MPD2    H3  437   1.707   4.143  12.544  0.4895  1.0623  1.3486
   28MPD2     N  438   1.792   4.483  12.269  0.1488 -0.1100 -0.4452
   28MPD2    H5  439   1.750   4.571  12.242  0.4071  0.5785  1.3860
   28MPD2    N1  440   1.411   4.481  12.572 -0.3999  0.9181 -0.0568
   28MPD2    H7  441   1.375   4.438  12.657  2.1505  0.7083  0.9349
   29MPD2     C  442   1.625   2.113  14.138 -0.8449  0.5188 -0.0183
   29MPD2    C1  443   1.761   2.109  14.117  0.0773  0.1996 -0.5154
   29MPD2    C2  444   1.837   2.209  14.164  0.7050  0.3107 -0.0375
   29MPD2    C3  445   1.768   2.314  14.219 -0.4153  0.5911 -0.7502
   29MPD2    C4  446   1.630   2.320  14.231 -0.2033  0.4344  0.4378
   29MPD2    C5  447   1.553   2.219  14.188  0.0897  0.0571 -0.0494
   29MPD2     H  448   1.945   2.212  14.158  0.8481 -1.1557  1.6897
   29MPD2    H1  449   1.581   2.407  14.274 -0.3597  0.5531  0.0227
   29MPD2    H2  450   1.563   2.025  14.121 -1.3373  0.9467 -0.4554
   29MPD2    H3  451   1.448   2.211  14.217 -0.1943 -1.4409 -1.5400
   29MPD2     N  452   1.825   2.439  14.255  0.2672 -0.6663 -0.4569
   29MPD2    H5  453   1.759   2.512  14.277  0.1301 -0.7024 -0.7440
   29MPD2    N1  454   1.828   1.998  14.063 -0.0788 -0.1808  0.4181
   29MPD2    H7  455   1.928   2.009  14.072 -0.2401 -0.1842  2.3369
   30TCq2    C1  456   1.961   2.464  14.256 -0.2994 -0.1049 -0.4571
   30TCq2    O2  457   2.056   2.389  14.242  0.3438 -0.0192 -0.1145
   30TCq2    C2  458   1.988   2.600  14.290 -0.4139  0.4300  0.7349
   30TCq2    C3  459   1.892   2.673  14.357 -0.2469 -0.5298  0.0799
   30TCq2    C4  460   1.898   2.809  14.361 -0.1671  0.2279 -0.2999
   30TCq2    C5  461   2.001   2.872  14.298  0.1853  0.1242  0.1482
   30TCq2    C6  462   2.098   2.792  14.245 -0.7309 -0.0855 -0.6694
   30TCq2    C7  463   2.103   2.658  14.235  0.1799  0.5232  0.3313
   30TCq2    C8  464   2.224   2.857  14.208 -0.6148  0.4931 -0.9787
   30TCq2    O4  465   2.302   2.786  14.148  0.0365  0.1198  0.2898
   30TCq2    C9  466   1.782   2.883  14.417 -0.3101  0.5230 -0.2695
   30TCq2    O5  467   1.692   2.815  14.466 -0.7880  0.4445  0.2170
   30TCq2    O6  468   1.785   3.008  14.414  0.3619 -0.5543  0.5619
   30TCq2    H2  469   1.806   2.628  14.405  0.8533 -0.4460  2.1067
   30TCq2    H3  470   2.000   2.980  14.283  4.6344 -0.2147 -2.4648
   30TCq2    H4  471   2.189   2.605  14.194  0.4589 -0.2834  1.9541
   31MPD2     C  472   4.520   1.407  14.644 -1.2143 -0.0446  0.4374
   31MPD2    C1  473   4.412   1.419  14.561  0.1839 -0.4345  0.4394
   31MPD2    C2  474   4.295   1.352  14.594 -0.1738  0.4783 -0.5464
   31MPD2    C3  475   4.293   1.274  14.707  0.2096 -0.5978  0.1159
   31MPD2    C4  476   4.403   1.276  14.795  0.2532 -0.1551  0.0634
   31MPD2    C5  477   4.518   1.340  14.759 -0.4070  0.4589  0.2956
   31MPD2     H  478   4.208   1.362  14.529 -0.4141  0.7301 -0.1898
   31MPD2    H1  479   4.409   1.222  14.889  0.5426 -0.3652 -0.0736
   31MPD2    H2  480   4.617   1.452  14.623 -1.9585  2.2783  1.9576
   31MPD2    H3  481   4.604   1.355  14.824 -0.0413 -1.6619  0.2742
   31MPD2     N  482   4.186   1.193  14.744  0.3652  0.0285 -0.2154
   31MPD2    H5  483   4.207   1.141  14.829  0.2762 -1.0616 -0.8625
   31MPD2    N1  484   4.430   1.499  14.449  0.6934  0.0553  0.4392
   31MPD2    H7  485   4.522   1.519  14.412  0.9590 -0.3558  0.8805
   32TCq2    C1  486   4.072   1.174  14.667 -0.0877  0.0918 -0.6612
   32TCq2    O2  487   4.034   1.232  14.566 -0.2394 -0.2993 -0.2963
   32TCq2    C2  488   3.960   1.114  14.752  0.3077 -0.0320  0.8298
   32TCq2    C3  489   3.831   1.131  14.716  0.4155 -0.1272 -0.5625
   32TCq2    C4  490   3.726   1.092  14.786 -0.2923 -0.8882  0.3174
   32TCq2    C5  491   3.746   1.041  14.906  0.0229  0.0140 -0.3323
   32TCq2    C6  492   3.870   1.021  14.945 -0.3346  0.0477  0.0051
   32TCq2    C7  493   3.984   1.055  14.875  0.0531 -0.6390 -0.1374
   32TCq2    C8  494   3.892   0.939  15.070  0.2477  0.7288  0.3064
   32TCq2    O4  495   3.996   0.947  15.130  0.4613 -0.4440  0.2511
   32TCq2    C9  496   3.595   1.103  14.731 -0.1076 -0.0579  0.1304
   32TCq2    O5  497   3.591   1.095  14.609 -0.1750 -0.3224  0.0367
   32TCq2    O6  498   3.503   1.097  14.814 -0.1323 -0.1441  0.0862
   32TCq2    H2  499   3.814   1.172  14.617  2.4518  0.2989 -0.7220
   32TCq2    H3  500   3.659   1.020  14.967  0.0083 -0.3398 -0.4743
   32TCq2    H4  501   4.084   1.030  14.908 -0.1644  0.4979  1.3832
   33MPD2     C  502   3.654   3.652   9.535 -0.3645  0.1244 -0.2066
   33MPD2    C1  503   3.769   3.658   9.615  0.5810  0.3182 -0.4253
   33MPD2    C2  504   3.886   3.710   9.569  0.3293 -0.1507 -0.1527
   33MPD2    C3  505   3.886   3.768   9.442 -0.3703  0.6537 -0.0810
   33MPD2    C4  506   3.763   3.777   9.370 -0.6462  0.6126  0.3364
   33MPD2    C5  507   3.656   3.708   9.416 -0.0152 -0.0684 -0.1640
   33MPD2     H  508   3.969   3.719   9.638  0.1010  0.7523  0.0023
   33MPD2    H1  509   3.756   3.818   9.270 -0.9429  0.0083  0.1036
   33MPD2    H2  510   3.560   3.612   9.571 -0.2538  0.2584  0.2315
   33MPD2    H3  511   3.573   3.713   9.346 -0.6649 -1.9796  0.4749
   33MPD2     N  512   3.990   3.847   9.389  0.1760  0.0574  0.2435
   33MPD2    H5  513   3.965   3.907   9.311  1.4919  1.5535  0.9682
   33MPD2    N1  514   3.758   3.601   9.750  0.1024  0.0731  0.2353
   33MPD2    H7  515   3.665   3.568   9.772  0.7241 -2.1736 -0.4226
   34TCq2    C1  516   4.116   3.863   9.446  0.1489 -0.7687  0.6406
   34TCq2    O2  517   4.159   3.809   9.546 -0.4697  0.0710 -0.3364
   34TCq2    C2  518   4.205   3.949   9.366 -0.4349  0.0813 -0.1286
   34TCq2    C3  519   4.160   3.993   9.241  0.6748  0.6714 -0.4428
   34TCq2    C4  520   4.246   4.072   9.167 -0.5640  0.1350 -0.9971
   34TCq2    C5  521   4.351   4.129   9.229 -0.3020  0.5621 -0.2190
   34TCq2    C6  522   4.382   4.085   9.357 -0.3145 -0.0990 -0.2207
   34TCq2    C7  523   4.305   4.003   9.436 -0.3712 -0.4616 -0.8079
   34TCq2    C8  524   4.514   4.123   9.401  0.5316 -0.1669 -0.1193
   34TCq2    O4  525   4.598   4.158   9.318 -0.5682  0.5988  0.1805
   34TCq2    C9  526   4.215   4.106   9.035 -0.0046  0.6515 -0.4563
   34TCq2    O5  527   4.101   4.082   8.988 -0.3216  0.3122  0.5256
   34TCq2    O6  528   4.293   4.192   8.990 -0.1672  0.6702  0.7363
   34TCq2    H2  529   4.089   3.939   9.180  0.4787 -0.7481  1.0144
   34TCq2    H3  530   4.420   4.189   9.171 -1.2841 -0.0639 -2.0428
   34TCq2    H4  531   4.320   3.965   9.536  0.2733  0.5094 -0.5398
   35MPD2     C  532   0.882   0.629  11.977  0.3931 -0.1400 -0.5511
   35MPD2    C1  533   0.863   0.493  11.965  0.0878  0.1362  0.0575
   35MPD2    C2  534   0.813   0.446  11.846  0.2115  0.2490  0.0747
   35MPD2    C3  535   0.785   0.533  11.735  0.2960 -0.5118 -0.7169
   35MPD2    C4  536   0.807   0.668  11.755  0.2216 -0.2653 -0.4719
   35MPD2    C5  537   0.861   0.707  11.874  0.0922  0.4287  0.2904
   35MPD2     H  538   0.796   0.339  11.839 -1.3886  0.4269  1.1885
   35MPD2    H1  539   0.787   0.745  11.681  1.8814  2.6161  2.0849
   35MPD2    H2  540   0.929   0.670  12.065  0.3625 -0.4223 -0.4048
   35MPD2    H3  541   0.875   0.814  11.882 -1.8178  0.6447  0.9121
   35MPD2     N  542   0.722   0.483  11.623  0.3355  0.0594  0.2094
   35MPD2    H5  543   0.701   0.384  11.623 -0.0173  0.1331 -0.3102
   35MPD2    N1  544   0.884   0.415  12.081 -0.4239  0.2350  0.1495
   35MPD2    H7  545   0.913   0.461  12.166 -1.0463  1.2130 -0.1672
   36TCq2    C1  546   0.713   0.556  11.506 -0.5042 -0.0698  0.0469
   36TCq2    O2  547   0.754   0.664  11.472 -0.1032  0.3379  0.2940
   36TCq2    C2  548   0.633   0.491  11.403  0.9434 -1.0213 -1.5134
   36TCq2    C3  549   0.623   0.557  11.282 -0.5704 -0.3970  0.7418
   36TCq2    C4  550   0.523   0.524  11.197 -0.5206 -0.0016 -0.1762
   36TCq2    C5  551   0.422   0.434  11.232  0.4729 -0.7747  0.7461
   36TCq2    C6  552   0.438   0.367  11.352 -0.1817 -1.0161 -0.2401
   36TCq2    C7  553   0.549   0.388  11.427  0.3643  0.1981 -1.0242
   36TCq2    C8  554   0.335   0.284  11.407  0.2794 -0.9628  0.1819
   36TCq2    O4  555   0.356   0.213  11.506 -0.4180 -0.1317 -0.3356
   36TCq2    C9  556   0.519   0.582  11.062 -0.1583  0.5995  0.6309
   36TCq2    O5  557   0.401   0.593  11.011  0.2394  0.5472 -0.0671
   36TCq2    O6  558   0.631   0.628  11.022 -0.0313  0.0384 -0.2401
   36TCq2    H2  559   0.704   0.624  11.255 -0.8022 -1.2827 -2.2078
   36TCq2    H3  560   0.345   0.409  11.159 -0.3141  0.9864  0.9656
   36TCq2    H4  561   0.553   0.337  11.522  1.3902  1.5496 -0.3430
   37TMC2    C1  562   2.703   0.178  11.610  0.5374 -0.3596 -0.0346
   37TMC2    C2  563   2.625   0.234  11.510  0.2740 -0.8191  0.6208
   37TMC2    C3  564   2.696   0.300  11.415 -0.2647  0.6031  0.0619
   37TMC2    C4  565   2.835   0.164  11.601  0.3670  0.2317 -0.2159
   37TMC2    C5  566   2.897   0.234  11.502  0.5121  0.0597  0.1767
   37TMC2    C6  567   2.830   0.309  11.413  0.0838 -0.8222 -0.5105
   37TMC2     C  568   2.636   0.182  11.739  0.2140 -0.0071 -0.0838
   37TMC2     O  569   2.513   0.179  11.740  0.1137 -0.1780 -0.3406
   37TMC2     H  570   2.517   0.226  11.508  0.2702 -0.4378 -0.5626
   37TMC2    H1  571   2.891   0.110  11.675 -0.4169 -2.6942 -1.7612
   37TMC2    H2  572   2.876   0.349  11.323  1.9621  0.0085  0.8277
   37TMC2    C7  573   3.024   0.292  11.555  0.0636  0.0959 -0.1887
   37TMC2    C8  574   2.622   0.377  11.320 -0.2864 -0.0598 -1.1103
   37TMC2    O1  575   3.056   0.267  11.672 -0.3021  0.0220 -0.5296
   37TMC2    O2  576   2.544   0.473  11.352 -0.0813  0.6005  0.2539
   37TMC2    O5  577   2.580   0.282  11.230  0.1095 -0.2580 -0.2108
   37TMC2    H5  578   2.626   0.196  11.233 -0.7922 -0.7438 -0.0618
   38MPD2     C  579   2.661   0.187  12.250  0.2395  0.2677  0.6376
   38MPD2    C1  580   2.783   0.223  12.201  0.0371 -0.3589 -0.3014
   38MPD2    C2  581   2.803   0.232  12.066 -0.2865 -0.0805  0.1720
   38MPD2    C3  582   2.703   0.196  11.978  0.4311  0.5073 -0.2035
   38MPD2    C4  583   2.587   0.145  12.028  0.6083 -0.1938  0.0113
   38MPD2    C5  584   2.565   0.156  12.164 -0.6446 -0.8063 -0.1287
   38MPD2     H  585   2.897   0.267  12.026 -0.4480  0.1927  0.0283
   38MPD2    H1  586   2.509   0.106  11.963  0.6410  0.4021 -0.3870
   38MPD2    H2  587   2.636   0.173  12.355 -1.8324 -2.4671 -0.2162
   38MPD2    H3  588   2.476   0.105  12.198 -0.7252 -0.3068  0.4051
   38MPD2     N  589   2.729   0.196  11.841 -0.2572 -0.2745 -0.1804
   38MPD2    H5  590   2.822   0.217  11.808 -0.9275  0.6839 -1.4645
   38MPD2    N1  591   2.888   0.270  12.287  0.6899  0.0822  0.9092
   38MPD2    H7  592   2.973   0.294  12.238  0.8034 -0.2146  0.9575
   39MPD2     C  593   1.251   1.367   1.368 -0.1453 -0.7218  0.3327
   39MPD2    C1  594   1.138   1.351   1.453 -0.4160  0.1184  0.3888
   39MPD2    C2  595   1.019   1.406   1.409  0.0550 -0.0456  0.2583
   39MPD2    C3  596   1.012   1.459   1.279  0.0628  0.0979  0.2773
   39MPD2    C4  597   1.125   1.465   1.196  0.2927 -0.5581  0.1587
   39MPD2    C5  598   1.245   1.428   1.252  0.2337 -0.4605  0.2336
   39MPD2     H  599   0.933   1.393   1.473 -0.9841  0.8637 -0.9463
   39MPD2    H1  600   1.124   1.541   1.120 -0.7258 -0.6571  0.0747
   39MPD2    H2  601   1.347   1.333   1.407  0.1627  1.2163  1.2529
   39MPD2    H3  602   1.338   1.447   1.200  0.2812  0.4712  0.6598
   39MPD2     N  603   0.895   1.530   1.231 -0.1359  0.1443 -0.2623
   39MPD2    H5  604   0.900   1.566   1.136 -1.2378  3.5266  1.0023
   39MPD2    N1  605   1.159   1.288   1.576 -0.4591 -0.6497 -0.4017
   39MPD2    H7  606   1.254   1.257   1.593  0.7942  3.8213  0.9472
   40TCq2    C1  607   1.059   1.265   1.667  0.2207  1.2119 -0.3319
   40TCq2    O2  608   0.937   1.270   1.651  0.4785 -0.3444  0.1290
   40TCq2    C2  609   1.107   1.200   1.789 -0.5271 -0.0830  0.2494
   40TCq2    C3  610   1.014   1.135   1.866  0.0550  0.3465  0.4870
   40TCq2    C4  611   1.041   1.101   1.996 -0.5175 -0.0368 -0.0204
   40TCq2    C5  612   1.164   1.122   2.048 -0.3066 -0.7232 -0.1424
   40TCq2    C6  613   1.255   1.193   1.968  0.5407 -0.0998  0.1173
   40TCq2    C7  614   1.224   1.231   1.840  0.4293 -0.4870 -0.0860
   40TCq2    C8  615   1.378   1.237   2.024 -0.0321  0.3497  0.3826
   40TCq2    O4  616   1.423   1.178   2.121  0.2181 -0.1859  0.6621
   40TCq2    C9  617   0.937   1.030   2.075  0.4177  0.0391  0.1376
   40TCq2    O5  618   0.837   0.976   2.018  0.4692 -0.2174 -0.0102
   40TCq2    O6  619   0.960   1.033   2.199 -0.1510  0.0151  0.8286
   40TCq2    H2  620   0.910   1.122   1.838  0.6558 -1.3044 -0.9520
   40TCq2    H3  621   1.192   1.092   2.148  0.7896 -2.3911 -0.9454
   40TCq2    H4  622   1.290   1.289   1.777  1.5414 -0.0361  1.4956
   41TMC2    C1  623   0.281   0.395  13.558 -0.0718 -0.5631  0.9014
   41TMC2    C2  624   0.268   0.520  13.622 -0.2903  0.1381 -0.4823
   41TMC2    C3  625   0.202   0.614  13.548 -0.1527 -0.8295  0.2590
   41TMC2    C4  626   0.246   0.373  13.427  0.1216 -0.0933 -0.2580
   41TMC2    C5  627   0.182   0.472  13.357 -0.5495 -0.3712  0.7287
   41TMC2    C6  628   0.157   0.592  13.421 -0.0820 -0.0064 -0.8372
   41TMC2     C  629   0.353   0.285  13.625 -0.2982  0.6946  0.0529
   41TMC2     O  630   0.403   0.202  13.550  0.6194  0.9756 -0.1016
   41TMC2     H  631   0.294   0.541  13.725 -0.0736  0.4328 -0.5963
   41TMC2    H1  632   0.256   0.275  13.382  1.4292  0.5799 -1.4582
   41TMC2    H2  633   0.117   0.677  13.368  0.3010  2.2352  2.4706
   41TMC2    C7  634   0.126   0.466  13.218  0.0968 -0.1307  0.8975
   41TMC2    C8  635   0.193   0.749  13.594  0.4759  0.0975  0.2172
   41TMC2    O1  636   0.058   0.559  13.189  0.1088  0.4692  0.4471
   41TMC2    O2  637   0.087   0.805  13.593  0.0112 -0.3497  0.9867
   41TMC2    O5  638   0.312   0.806  13.595  0.2515  0.5755 -0.1537
   41TMC2    H5  639   0.381   0.739  13.574 -0.9829 -0.7364  0.0226
   42MPD2     C  640   0.514   0.111  13.825  0.3024 -0.2836 -0.3148
   42MPD2    C1  641   0.442   0.224  13.858 -0.0036  0.3291  1.2701
   42MPD2    C2  642   0.447   0.260  13.995 -0.6567  0.2092 -0.3492
   42MPD2    C3  643   0.523   0.192  14.092 -0.5965 -0.3510  0.3310
   42MPD2    C4  644   0.600   0.081  14.049  0.2391 -0.0394 -0.1084
   42MPD2    C5  645   0.584   0.044  13.918  0.1989 -0.5651 -0.0427
   42MPD2     H  646   0.390   0.349  14.021  1.6223  1.3831  0.5849
   42MPD2    H1  647   0.650   0.025  14.128  1.3679 -0.8296 -1.3836
   42MPD2    H2  648   0.508   0.073  13.723 -2.6797 -0.3193 -0.1121
   42MPD2    H3  649   0.631   4.677  13.882  0.2852 -1.1804  1.6205
   42MPD2     N  650   0.532   0.230  14.229  0.0585 -0.1261 -1.0333
   42MPD2    H5  651   0.591   0.177  14.292 -1.3230 -1.7492 -1.0935
   42MPD2    N1  652   0.370   0.305  13.766 -0.4210 -0.4329  0.1015
   42MPD2    H7  653   0.334   0.388  13.812  0.9816  0.0651  0.3182
   43MPD2     C  654   1.593   2.788   0.691 -0.3635 -0.5165  0.0448
   43MPD2    C1  655   1.616   2.693   0.789 -0.2946 -0.6742 -0.2627
   43MPD2    C2  656   1.560   2.709   0.908  0.3743  0.1572 -0.5570
   43MPD2    C3  657   1.492   2.825   0.945 -0.3295  0.1836  0.4339
   43MPD2    C4  658   1.494   2.930   0.854  0.3968  0.0699  0.0383
   43MPD2    C5  659   1.543   2.910   0.730 -0.4050 -0.8399 -0.1230
   43MPD2     H  660   1.589   2.650   0.994  3.0028  0.5870 -1.1557
   43MPD2    H1  661   1.462   3.030   0.880 -1.6935 -0.6165  0.0636
   43MPD2    H2  662   1.625   2.777   0.588 -0.5533  0.5717 -0.1363
   43MPD2    H3  663   1.544   2.990   0.657 -1.5063 -1.4728 -0.8248
   43MPD2     N  664   1.445   2.855   1.080  0.1787  0.0568  0.2766
   43MPD2    H5  665   1.405   2.946   1.100  1.1796  0.6374 -0.3335
   43MPD2    N1  666   1.689   2.583   0.752 -0.2760  0.7715  0.7168
   43MPD2    H7  667   1.737   2.583   0.663 -0.0717  0.8327  0.8275
   44TCq2    C1  668   1.442   2.723   1.667  0.0355  0.6591 -0.1942
   44TCq2    O2  669   1.540   2.653   1.649 -0.0360 -0.1874 -0.4997
   44TCq2    C2  670   1.403   2.802   1.552 -0.3133 -0.0972 -0.2423
   44TCq2    C3  671   1.351   2.925   1.562 -0.0393  0.1117 -0.0051
   44TCq2    C4  672   1.329   3.004   1.447 -0.5782 -0.4458  0.5829
   44TCq2    C5  673   1.353   2.950   1.317 -0.3166 -0.1810 -0.6299
   44TCq2    C6  674   1.415   2.827   1.313  0.0825  0.3254 -0.0769
   44TCq2    C7  675   1.428   2.752   1.427 -0.3201  0.1767  0.1407
   44TCq2    C8  676   1.457   2.770   1.185 -1.0054 -0.0842  0.0132
   44TCq2    O4  677   1.492   2.657   1.181 -0.1779 -0.7448  0.0637
   44TCq2    C9  678   1.295   3.139   1.457 -0.3437  0.8822  0.8102
   44TCq2    O5  679   1.287   3.185   1.574 -0.3495 -0.1858  0.1541
   44TCq2    O6  680   1.298   3.212   1.355 -0.2870  0.0464 -0.0443
   44TCq2    H2  681   1.350   2.970   1.660  3.4939 -0.9735  0.5212
   44TCq2    H3  682   1.354   3.024   1.238  3.1199  0.2352 -0.1916
   44TCq2    H4  683   1.458   2.649   1.410 -1.8656 -0.0618 -1.1184
   45TMC2    C1  684   1.487   1.272   9.809 -0.1365  0.0589  0.0277
   45TMC2    C2  685   1.355   1.255   9.778 -0.6108 -0.0279  0.4571
   45TMC2    C3  686   1.278   1.364   9.779 -0.3002 -0.0747  0.0122
   45TMC2    C4  687   1.536   1.396   9.845  0.5743  0.4505 -0.5891
   45TMC2    C5  688   1.458   1.507   9.849 -0.1709 -0.0962  0.0684
   45TMC2    C6  689   1.328   1.491   9.807  0.1642  0.2006  0.1023
   45TMC2     C  690   1.579   1.163   9.815  0.0390 -0.1239 -0.3466
   45TMC2     O  691   1.689   1.188   9.867 -0.6227 -0.3003  0.4218
   45TMC2     H  692   1.301   1.163   9.760  0.9047 -1.3338  2.5429
   45TMC2    H1  693   1.642   1.410   9.860  1.0009  0.1134 -3.3277
   45TMC2    H2  694   1.258   1.574   9.800 -1.2617 -1.0676 -1.0521
   45TMC2    C7  695   1.508   1.630   9.921 -0.2243  0.5400 -0.2918
   45TMC2    C8  696   1.135   1.358   9.742 -0.1700  0.2860 -0.3302
   45TMC2    O1  697   1.617   1.624   9.976 -0.3094 -0.0934  0.2036
   45TMC2    O2  698   1.052   1.267   9.751  0.4645  0.2304 -0.0018
   45TMC2    O5  699   1.134   1.443   9.633 -0.6372 -0.5132  0.0446
   45TMC2    H5  700   1.217   1.491   9.609 -0.4578 -1.3603 -1.0268
   46MPD2     C  701   1.710   0.895   9.832  0.5843 -0.2868 -0.0567
   46MPD2    C1  702   1.581   0.918   9.787 -0.8153 -0.7580 -0.6199
   46MPD2    C2  703   1.515   0.804   9.745 -0.3814 -0.1283  0.3992
   46MPD2    C3  704   1.571   0.679   9.749 -0.6106 -0.1436 -0.4276
   46MPD2    C4  705   1.705   0.658   9.784 -0.5864  0.5250  0.2634
   46MPD2    C5  706   1.770   0.768   9.835  0.4533 -1.2185 -0.0437
   46MPD2     H  707   1.412   0.826   9.717  0.5840  2.6108 -0.9800
   46MPD2    H1  708   1.756   0.563   9.773  0.0853  0.8305  0.7596
   46MPD2    H2  709   1.771   0.983   9.852  0.0284 -0.0515  0.5753
   46MPD2    H3  710   1.874   0.761   9.867  0.3069 -0.9208  0.4949
   46MPD2     N  711   1.485   0.567   9.721 -0.0884 -0.5268 -0.1176
   46MPD2    H5  712   1.388   0.590   9.703 -0.2391  0.6353  2.2305
   46MPD2    N1  713   1.521   1.045   9.781 -0.2995  0.5978 -0.0652
   46MPD2    H7  714   1.426   1.048   9.745 -0.8916  0.3991  1.4866
   47TMC2    C1  715   3.682   0.865   9.249 -0.2472  0.0894 -0.3905
   47TMC2    C2  716   3.608   0.890   9.138  0.2614  0.0984  0.1081
   47TMC2    C3  717   3.604   0.801   9.038 -0.7052  0.5851  0.3442
   47TMC2    C4  718   3.743   0.741   9.260 -0.7460  0.5316 -0.1727
   47TMC2    C5  719   3.726   0.646   9.155 -0.0006  0.5518 -0.1539
   47TMC2    C6  720   3.657   0.673   9.041  0.1393  0.4910 -0.0956
   47TMC2     C  721   3.738   0.986   9.310  0.7688  0.0972  0.7285
   47TMC2     O  722   3.665   1.082   9.315  0.1190 -0.0970 -0.1540
   47TMC2     H  723   3.562   0.984   9.108  1.4649  0.5682 -0.2526
   47TMC2    H1  724   3.801   0.719   9.349 -0.7039  1.0784 -0.0683
   47TMC2    H2  725   3.641   0.610   8.954 -2.2172  0.7176  0.1555
   47TMC2    C7  726   3.801   0.520   9.162  0.2314 -0.2696  0.3361
   47TMC2    C8  727   3.488   0.814   8.945 -0.2386 -0.0820  0.4074
   47TMC2    O1  728   3.757   0.416   9.110  0.5142  0.2683  0.4748
   47TMC2    O2  729   3.400   0.733   8.941  0.3271 -0.3588 -0.0837
   47TMC2    O5  730   3.557   0.860   8.837 -0.0437  0.6651 -0.2428
   47TMC2    H5  731   3.638   0.908   8.862  2.0850 -1.6854 -2.5864
   48MPD2     C  732   3.863   1.162   9.512 -0.7419 -0.1769  0.7850
   48MPD2    C1  733   3.929   1.055   9.447 -0.0417  0.5335 -0.0540
   48MPD2    C2  734   4.058   1.022   9.486  0.1344 -0.3378 -0.7792
   48MPD2    C3  735   4.131   1.102   9.572  0.1192  0.0088 -0.6117
   48MPD2    C4  736   4.065   1.217   9.624  0.8760 -0.0048  0.0397
   48MPD2    C5  737   3.928   1.240   9.596  0.7410 -0.6025 -0.3619
   48MPD2     H  738   4.110   0.936   9.445  1.0790 -0.6388  1.0396
   48MPD2    H1  739   4.094   1.279   9.708  0.6563  0.5511 -0.2943
   48MPD2    H2  740   3.760   1.185   9.491 -0.8559 -4.3232 -3.2330
   48MPD2    H3  741   3.870   1.314   9.649  2.9061  0.7055  0.1654
   48MPD2     N  742   4.254   1.058   9.618 -0.4767  0.0385 -0.0861
   48MPD2    H5  743   4.277   0.960   9.600 -1.9609 -0.0787 -1.2984
   48MPD2    N1  744   3.863   0.964   9.362 -0.3185 -0.8750 -0.2840
   48MPD2    H7  745   3.910   0.880   9.331  0.3017 -0.1894 -1.1985
   49MPD2     C  746   2.976   3.557   9.973  0.5568  0.3142 -0.4710
   49MPD2    C1  747   2.867   3.531  10.050  0.0122  0.8035 -0.4959
   49MPD2    C2  748   2.893   3.520  10.183 -0.2759  0.0074 -0.6886
   49MPD2    C3  749   3.017   3.533  10.243  0.4553  0.3839 -0.4681
   49MPD2    C4  750   3.123   3.567  10.161 -0.4312  0.3437 -0.2945
   49MPD2    C5  751   3.097   3.588  10.029 -0.1527  0.0899 -0.3504
   49MPD2     H  752   2.806   3.503  10.245  1.7371 -2.8719  1.3723
   49MPD2    H1  753   3.221   3.574  10.208 -0.1377  0.1038 -0.8752
   49MPD2    H2  754   2.971   3.552   9.865  0.5655  0.7518 -0.4904
   49MPD2    H3  755   3.179   3.617   9.965 -0.6095 -1.0970 -1.4771
   49MPD2     N  756   3.044   3.519  10.380 -0.5968  0.0330 -0.4043
   49MPD2    H5  757   3.141   3.529  10.409 -0.8447  1.3171 -0.0017
   49MPD2    N1  758   2.738   3.514   9.996 -0.3397 -0.4434 -0.5822
   49MPD2    H7  759   2.666   3.489  10.063  0.8487 -0.6049  0.6087
   50TCq2    C1  760   2.703   3.538   9.870 -0.7195  0.0023  0.4196
   50TCq2    O2  761   2.777   3.563   9.774 -0.0283 -0.0757 -0.0666
   50TCq2    C2  762   2.560   3.534   9.835  0.2552 -0.1434  0.3569
   50TCq2    C3  763   2.533   3.557   9.708  0.1027  0.1291  0.4825
   50TCq2    C4  764   2.407   3.540   9.663  0.5559  0.5717  0.2508
   50TCq2    C5  765   2.310   3.483   9.737  0.4219  0.6538  0.0104
   50TCq2    C6  766   2.336   3.469   9.876 -0.1192  0.2687  0.0003
   50TCq2    C7  767   2.469   3.480   9.919 -0.6838 -0.1543  0.4791
   50TCq2    C8  768   2.220   3.413   9.958  0.1322 -0.6671  0.1798
   50TCq2    O4  769   2.250   3.342  10.053  0.0579  0.2271  0.3398
   50TCq2    C9  770   2.391   3.553   9.522  0.2218  0.3999  0.0566
   50TCq2    O5  771   2.273   3.548   9.478  0.2179  0.3921 -0.4185
   50TCq2    O6  772   2.483   3.588   9.447  0.3568 -0.1274  0.2795
   50TCq2    H2  773   2.616   3.567   9.639  0.1497 -1.7688  0.2410
   50TCq2    H3  774   2.215   3.462   9.690 -0.0587  0.6645  0.9601
   50TCq2    H4  775   2.493   3.465  10.023  0.0570  1.1979  0.4992
   51MPD2     C  776   3.482   1.468   2.274  0.2571 -0.1159  0.6187
   51MPD2    C1  777   3.478   1.585   2.204  0.3571 -0.5129 -0.6611
   51MPD2    C2  778   3.537   1.695   2.249  0.0282  0.0106  0.0551
   51MPD2    C3  779   3.582   1.699   2.377 -0.3467  0.0330 -1.1224
   51MPD2    C4  780   3.569   1.583   2.451 -0.2874  0.1936 -0.1760
   51MPD2    C5  781   3.535   1.467   2.397  0.0624  0.2364  0.5001
   51MPD2     H  782   3.540   1.778   2.180  0.6061  1.4516  1.8240
   51MPD2    H1  783   3.615   1.587   2.549  2.6314 -0.9678 -1.4950
   51MPD2    H2  784   3.470   1.368   2.234 -0.0476  0.9988 -2.0820
   51MPD2    H3  785   3.545   1.374   2.451  1.3820 -0.0665 -0.2926
   51MPD2     N  786   3.639   1.819   2.436  0.2669  0.0326 -0.0651
   51MPD2    H5  787   3.652   1.814   2.536  0.2957 -1.9920 -0.1571
   51MPD2    N1  788   3.420   1.584   2.074  0.3593  0.0430 -0.1431
   51MPD2    H7  789   3.424   1.672   2.023  1.6032  0.1718  0.1872
   52TCq2    C1  790   3.680   1.928   2.363  0.3458 -0.5450 -0.0781
   52TCq2    O2  791   3.689   1.946   2.242  0.0458 -0.7782  0.6469
   52TCq2    C2  792   3.722   2.032   2.454  0.6505 -0.1663  0.0938
   52TCq2    C3  793   3.666   2.042   2.582 -0.6093 -0.8964  0.3567
   52TCq2    C4  794   3.716   2.131   2.669 -0.0330 -0.0825 -0.5446
   52TCq2    C5  795   3.823   2.206   2.637 -0.1718  0.5968  0.2222
   52TCq2    C6  796   3.881   2.210   2.512  0.0970 -0.1037  0.5136
   52TCq2    C7  797   3.835   2.113   2.428  0.1080 -0.1581  0.2923
   52TCq2    C8  798   4.019   2.261   2.504 -0.5585  0.0073 -0.0996
   52TCq2    O4  799   4.082   2.255   2.400  0.1499  0.1905 -0.1373
   52TCq2    C9  800   3.650   2.134   2.798  0.4564  0.0692 -0.6262
   52TCq2    O5  801   3.558   2.051   2.818 -0.1525  0.0262 -0.1454
   52TCq2    O6  802   3.713   2.197   2.888 -0.2903  0.3289  0.5268
   52TCq2    H2  803   3.575   1.988   2.603  0.7227 -3.0674  0.6020
   52TCq2    H3  804   3.845   2.275   2.718  2.4884  0.0995 -0.0918
   52TCq2    H4  805   3.885   2.105   2.332 -0.5853  1.3139 -0.1951
   53TMC2    C1  806   3.529   0.619  11.976 -0.5485  0.6866 -0.3391
   53TMC2    C2  807   3.643   0.659  12.042 -0.5433  0.0692 -0.3502
   53TMC2    C3  808   3.631   0.706  12.172 -0.8316 -0.5634  0.8392
   53TMC2    C4  809   3.406   0.626  12.039  0.1475 -0.1635 -0.1752
   53TMC2    C5  810   3.400   0.679  12.172  0.1997  0.5195  0.1861
   53TMC2    C6  811   3.515   0.709  12.242  0.9291  0.2538  0.5647
   53TMC2     C  812   3.534   0.601  11.835 -0.0247  0.7896 -0.3180
   53TMC2     O  813   3.641   0.629  11.784  0.8454 -0.0216  0.0466
   53TMC2     H  814   3.741   0.637  12.000  1.2872  1.5305  3.1342
   53TMC2    H1  815   3.311   0.602  11.992  0.7415  0.2041 -1.5590
   53TMC2    H2  816   3.526   0.748  12.343  2.1825 -0.2494  0.6284
   53TMC2    C7  817   3.280   0.656  12.255 -0.3733  1.3935  0.3085
   53TMC2    C8  818   3.745   0.681  12.261  0.0102  0.3141  0.2517
   53TMC2    O1  819   3.179   0.663  12.190 -0.1692  0.1847  0.0830
   53TMC2    O2  820   3.722   0.632  12.374 -0.1981 -0.3895  0.6274
   53TMC2    O5  821   3.861   0.692  12.193  0.0580  0.5696  0.2684
   53TMC2    H5  822   3.861   0.737  12.106 -1.1780 -1.1920 -0.6479
   54MPD2     C  823   3.480   0.534  11.543  0.0367 -0.8325 -0.1564
   54MPD2    C1  824   3.397   0.506  11.649 -0.3296  0.2487  0.2868
   54MPD2    C2  825   3.276   0.440  11.621  0.4016  0.4013 -0.1334
   54MPD2    C3  826   3.230   0.404  11.492 -0.6240  0.3055  0.0043
   54MPD2    C4  827   3.305   0.455  11.394  0.8637  0.0951  0.1034
   54MPD2    C5  828   3.430   0.513  11.420  0.4427  0.2095  0.6464
   54MPD2     H  829   3.206   0.443  11.704  0.5195 -1.7172  0.0323
   54MPD2    H1  830   3.265   0.462  11.294 -2.2829  0.5209  1.3842
   54MPD2    H2  831   3.581   0.573  11.548 -0.4895  0.7896 -2.3345
   54MPD2    H3  832   3.495   0.537  11.337 -4.0133  0.0666 -2.8737
   54MPD2     N  833   3.101   0.358  11.462  0.2925 -0.1593 -0.4886
   54MPD2    H5  834   3.075   0.347  11.365 -3.8170 -0.6241  0.6543
   54MPD2    N1  835   3.423   0.543  11.784  0.1198  0.3042 -0.2769
   54MPD2    H7  836   3.351   0.514  11.850  1.9097 -0.8689  1.1713
   55MPD2     C  837   4.183   2.305  17.161  0.4512  0.7816 -0.2501
   55MPD2    C1  838   4.186   2.303  17.298 -0.2728 -0.1102 -0.2668
   55MPD2    C2  839   4.130   2.404  17.364  0.0444 -0.0259  0.3602
   55MPD2    C3  840   4.085   2.518  17.303  0.0579  0.2659  0.5296
   55MPD2    C4  841   4.094   2.527  17.161  0.1018 -0.8990 -0.9152
   55MPD2    C5  842   4.139   2.415  17.091  0.2991 -0.3765 -0.3870
   55MPD2     H  843   4.122   2.404  17.472  0.2235 -1.9549  0.3800
   55MPD2    H1  844   4.046   2.611  17.112 -1.9589 -0.6775  1.4757
   55MPD2    H2  845   4.237   2.223  17.114  2.7912  2.3000 -0.2204
   55MPD2    H3  846   4.138   2.417  16.983  3.5317  0.2789 -0.3764
   55MPD2     N  847   4.051   2.630  17.388  0.1255 -0.3139  0.3742
   55MPD2    H5  848   4.038   2.612  17.487 -0.6278  1.6338  0.6213
   55MPD2    N1  849   4.271   2.203  17.356  0.1758 -0.5396 -0.0544
   55MPD2    H7  850   4.326   2.149  17.291  1.2484  1.3480 -0.7155
   56TCq2    C1  851   4.300   2.197  17.489 -0.7973  0.1000 -1.0484
   56TCq2    O2  852   4.250   2.261  17.580  0.4341  0.0376 -0.6197
   56TCq2    C2  853   4.419   2.114  17.514 -0.2475  0.5451  0.5429
   56TCq2    C3  854   4.482   2.043  17.415  0.4816 -0.4316  0.2815
   56TCq2    C4  855   4.599   1.985  17.444 -0.4220  0.0132  0.2211
   56TCq2    C5  856   4.639   1.961  17.567  0.1947  0.5287  0.1775
   56TCq2    C6  857   4.575   2.016  17.671 -0.7399  0.2714  0.2218
   56TCq2    C7  858   4.469   2.102  17.644 -0.2352  0.0739 -0.7759
   56TCq2    C8  859   4.646   2.013   0.104  0.3561 -0.0014  0.6182
   56TCq2    O4  860   4.719   1.914   0.129  1.0023  0.3468 -0.3806
   56TCq2    C9  861   4.674   1.919  17.341  0.3363 -0.1398 -1.2010
   56TCq2    O5  862   0.043   1.849  17.378  0.3154  0.1704  0.5554
   56TCq2    O6  863   4.656   1.964  17.226  0.0230  0.1677 -0.0803
   56TCq2    H2  864   4.460   2.040  17.309 -1.2629 -0.9178  0.6525
   56TCq2    H3  865   0.010   1.913  17.588  1.2532  2.1956 -0.7906
   56TCq2    H4  866   4.411   2.145   0.028 -1.0823 -0.7237 -0.9591
   57TMC2    C1  867   3.485   4.180  13.813  0.4584  0.2307 -1.4979
   57TMC2    C2  868   3.602   4.133  13.870  0.2483 -0.5488  0.1042
   57TMC2    C3  869   3.693   4.075  13.783 -0.3594  0.6016  0.0268
   57TMC2    C4  870   3.463   4.170  13.679 -0.4112 -0.8628  0.0812
   57TMC2    C5  871   3.553   4.112  13.596 -0.1103 -0.1267 -1.2547
   57TMC2    C6  872   3.674   4.055  13.649 -0.1027 -0.4985 -0.3680
   57TMC2     C  873   3.390   4.235  13.904  0.0098 -0.8774  0.6433
   57TMC2     O  874   3.435   4.276  14.011  0.3172 -0.1177  0.0305
   57TMC2     H  875   3.634   4.147  13.973  1.0295  2.7908 -0.5929
   57TMC2    H1  876   3.376   4.214  13.633  1.3548 -1.9189 -4.2712
   57TMC2    H2  877   3.753   4.014  13.588 -1.1754 -1.0719 -1.3876
   57TMC2    C7  878   3.527   4.123  13.448 -0.1890  0.1256 -0.5479
   57TMC2    C8  879   3.820   4.053  13.849 -0.5953 -0.0404  0.8998
   57TMC2    O1  880   3.459   4.218  13.410 -0.1792 -0.4108 -0.0162
   57TMC2    O2  881   3.848   4.087  13.963  0.2259  0.5337 -0.5067
   57TMC2    O5  882   3.905   3.969  13.781  0.1734  0.3159 -1.3549
   57TMC2    H5  883   3.872   3.909  13.711  0.5922 -0.5652 -0.7971
   58MPD2     C  884   2.939   4.154  14.156 -0.0960 -0.7568 -0.1623
   58MPD2    C1  885   3.052   4.228  14.193  0.3994 -0.4747 -1.0290
   58MPD2    C2  886   3.163   4.236  14.111  0.0450  0.6375  0.2183
   58MPD2    C3  887   3.154   4.191  13.984  0.2721 -0.1198  0.0555
   58MPD2    C4  888   3.040   4.132  13.942  0.1671  0.7519 -0.2234
   58MPD2    C5  889   2.931   4.102  14.029 -0.6571 -0.5393 -0.4721
   58MPD2     H  890   3.255   4.287  14.139 -0.2138  1.7749 -0.9526
   58MPD2    H1  891   3.035   4.097  13.839  0.0501  2.3654 -0.7551
   58MPD2    H2  892   2.855   4.146  14.224 -0.6528  0.9997 -0.6642
   58MPD2    H3  893   2.848   4.043  13.992 -1.4989  0.5488 -0.3167
   58MPD2     N  894   3.256   4.192  13.885  0.2841 -0.4832 -0.4459
   58MPD2    H5  895   3.242   4.146  13.796  2.8328 -1.2521 -0.4603
   58MPD2    N1  896   3.066   4.277  14.326 -0.2906  0.5976  0.4764
   58MPD2    H7  897   3.158   4.313  14.349  0.0226 -0.1506  0.3963
   59MPD2     C  898   1.204   3.726  13.326 -0.3557 -0.4095  1.4686
   59MPD2    C1  899   1.188   3.861  13.346 -0.2792 -0.3055 -0.5193
   59MPD2    C2  900   1.274   3.929  13.435  0.0078 -0.0144 -0.4809
   59MPD2    C3  901   1.366   3.852  13.510 -0.7276 -0.0340 -0.2169
   59MPD2    C4  902   1.371   3.713  13.488  0.0151 -0.8950 -0.5212
   59MPD2    C5  903   1.285   3.647  13.402 -0.5884  0.0948  0.0151
   59MPD2     H  904   1.286   4.037  13.440  1.1826 -0.1509 -0.1706
   59MPD2    H1  905   1.451   3.662  13.541  1.2265 -0.3723 -1.8582
   59MPD2    H2  906   1.150   3.678  13.245  2.4023 -0.6448 -0.2081
   59MPD2    H3  907   1.291   3.540  13.391  1.2903  0.3360 -1.4155
   59MPD2     N  908   1.468   3.905  13.587  0.2784  0.1393 -0.2379
   59MPD2    H5  909   1.545   3.843  13.612 -0.8791 -0.7398  1.1641
   59MPD2    N1  910   1.100   3.935  13.275 -0.0256  0.4923 -0.0231
   59MPD2    H7  911   1.105   4.036  13.279 -1.6317  0.6747 -2.2668
   60TCq2    C1  912   0.988   3.889  13.211  0.3334 -0.4448  0.2348
   60TCq2    O2  913   0.935   3.777  13.196 -0.1789 -0.1137 -0.4149
   60TCq2    C2  914   0.917   4.007  13.166 -0.1657 -0.1495  0.7696
   60TCq2    C3  915   0.779   3.980  13.151 -1.0658 -0.2212  0.4416
   60TCq2    C4  916   0.714   4.024  13.040 -1.0129  0.6129  0.3544
   60TCq2    C5  917   0.773   4.109  12.948 -0.4065 -0.0896 -0.4306
   60TCq2    C6  918   0.908   4.135  12.973 -0.7228 -0.3577  0.5999
   60TCq2    C7  919   0.982   4.074  13.068  0.4304  0.7584  0.3005
   60TCq2    C8  920   0.994   4.185  12.865 -1.0337  0.2402 -0.1193
   60TCq2    O4  921   1.108   4.143  12.859 -0.6215 -0.4609  0.1345
   60TCq2    C9  922   0.569   3.994  13.016 -0.2902 -0.1141 -0.2700
   60TCq2    O5  923   0.499   4.088  12.967 -0.5612 -0.5553 -0.1837
   60TCq2    O6  924   0.515   3.892  13.065 -0.2187 -1.0743  0.4203
   60TCq2    H2  925   0.734   3.916  13.227 -0.3055 -0.6237  0.5585
   60TCq2    H3  926   0.717   4.133  12.858  1.0093  0.4643 -1.1666
   60TCq2    H4  927   1.089   4.088  13.074  0.4001  1.5651 -0.9625
   61MPD2     C  928   0.881   0.502  14.573  0.4241  0.1005  0.1753
   61MPD2    C1  929   0.935   0.592  14.671 -0.1705  1.0035 -0.0669
   61MPD2    C2  930   1.026   0.687  14.636 -0.4571 -0.5702  0.3527
   61MPD2    C3  931   1.066   0.685  14.504 -0.0136  0.0047  0.2203
   61MPD2    C4  932   1.020   0.590  14.412 -0.3180  0.3728 -0.3697
   61MPD2    C5  933   0.925   0.500  14.444  0.4849 -0.2470 -0.2778
   61MPD2     H  934   1.063   0.756  14.711 -1.0469 -0.5416  0.6190
   61MPD2    H1  935   1.060   0.580  14.312  1.1164 -0.1753  0.2584
   61MPD2    H2  936   0.813   0.422  14.599 -1.0135  0.9605 -0.9969
   61MPD2    H3  937   0.892   0.423  14.375 -1.4182 -2.0637  2.6404
   61MPD2     N  938   1.147   0.782  14.443  0.4178  0.5515  0.8566
   61MPD2    H5  939   1.153   0.775  14.342  0.1766  1.1472  0.8013
   61MPD2    N1  940   0.883   0.607  14.798 -0.1049  0.0931 -0.2705
   61MPD2    H7  941   0.922   0.685  14.850  0.6579 -1.4079  1.4163
   62TCq2    C1  942   0.774   0.552  14.849 -0.5556 -0.4750  1.0444
   62TCq2    O2  943   0.718   0.453  14.802  0.1048  0.0752 -0.0828
   62TCq2    C2  944   0.725   0.621  14.966 -0.5574  0.0533  0.8158
   62TCq2    C3  945   0.624   0.561  15.038  0.6062  0.0837  0.4377
   62TCq2    C4  946   0.566   0.644  15.129  0.0944 -0.1413  1.1812
   62TCq2    C5  947   0.592   0.780  15.147 -0.2192 -0.7688  0.9838
   62TCq2    C6  948   0.686   0.834  15.071 -0.4650 -0.7442 -0.5168
   62TCq2    C7  949   0.740   0.759  14.973  0.6925 -0.6342  0.4355
   62TCq2    C8  950   0.695   0.981  15.066  0.0485 -0.5837 -0.2290
   62TCq2    O4  951   0.799   1.029  15.016 -0.2186 -0.1971  0.7938
   62TCq2    C9  952   0.470   0.580  15.217  0.0123 -0.8565 -0.4519
   62TCq2    O5  953   0.417   0.475  15.180 -0.2632  0.1219 -0.0211
   62TCq2    O6  954   0.411   0.652  15.303  0.7012 -0.2710 -0.1034
   62TCq2    H2  955   0.591   0.458  15.039  0.6934  0.0501 -0.1656
   62TCq2    H3  956   0.556   0.838  15.231 -0.8901  0.0606  0.1176
   62TCq2    H4  957   0.807   0.807  14.903 -0.2139  4.2205  2.9136
   63TMC2    C1  958   3.940   0.596   9.994 -0.3650  0.0616  0.0323
   63TMC2    C2  959   3.814   0.551   9.974  0.3441 -0.3689  0.3631
   63TMC2    C3  960   3.705   0.628   9.962 -0.2283 -0.6386  0.6800
   63TMC2    C4  961   3.958   0.731   9.990  0.3438 -0.5627 -0.3954
   63TMC2    C5  962   3.851   0.815   9.965  0.1387  0.2916 -0.2951
   63TMC2    C6  963   3.720   0.762   9.951 -0.0063 -0.3430 -0.0068
   63TMC2     C  964   4.041   0.507  10.047  0.0169 -0.1321 -0.4325
   63TMC2     O  965   4.040   0.392  10.015  0.2315  0.2326  0.4377
   63TMC2     H  966   3.809   0.443   9.980 -3.1462 -0.2839 -0.9442
   63TMC2    H1  967   4.061   0.764   9.990  0.4583 -0.9335 -0.1211
   63TMC2    H2  968   3.633   0.824   9.966  0.0591 -0.4077  0.6355
   63TMC2    C7  969   3.884   0.953   9.998 -0.6222  0.4379 -0.1301
   63TMC2    C8  970   3.601   0.573   9.883  0.2804  0.2241 -0.0546
   63TMC2    O1  971   3.976   0.969  10.073 -0.3977 -0.1078  0.4004
   63TMC2    O2  972   3.592   0.450   9.866  0.2174 -0.1592 -0.4939
   63TMC2    O5  973   3.529   0.671   9.827 -0.2727  0.3980  0.2748
   63TMC2    H5  974   3.581   0.754   9.823 -0.5190  0.5867  1.0137
   64MPD2     C  975   4.449   0.468  10.356 -0.1210  0.3268  0.4759
   64MPD2    C1  976   4.405   0.379  10.261  0.2028 -0.1124 -0.8278
   64MPD2    C2  977   4.288   0.409  10.196  0.2208  0.7408 -0.5646
   64MPD2    C3  978   4.220   0.531  10.222 -0.2066  0.4470  0.0484
   64MPD2    C4  979   4.271   0.621  10.317 -0.0577  0.4254  0.0537
   64MPD2    C5  980   4.377   0.578  10.396 -0.5554  0.1253  0.1945
   64MPD2     H  981   4.248   0.341  10.122 -0.5451  2.1123 -1.4266
   64MPD2    H1  982   4.241   0.723  10.336 -1.4855  0.1496 -0.7111
   64MPD2    H2  983   4.541   0.449  10.410  0.5886 -0.3964 -0.9939
   64MPD2    H3  984   4.409   0.645  10.475 -0.7785  1.1182 -0.5610
   64MPD2     N  985   4.111   0.572  10.149  0.1390 -0.4919  0.8307
   64MPD2    H5  986   4.071   0.661  10.177 -1.9222 -1.2276  0.2820
   64MPD2    N1  987   4.478   0.265  10.221 -0.7240 -0.1085  0.2566
   64MPD2    H7  988   4.429   0.210  10.151 -0.1832  2.5038 -2.1818
   65MPD2     C  989   1.396   0.278  15.884  0.7695  0.1798 -1.4686
   65MPD2    C1  990   1.390   0.225  15.760 -0.0529 -0.8379 -0.5521
   65MPD2    C2  991   1.381   0.089  15.741  0.2320  0.0246 -0.4010
   65MPD2    C3  992   1.376   4.719  15.845  0.0021 -0.1171 -0.5628
   65MPD2    C4  993   1.390   0.046  15.974  0.5319 -0.2389  0.2703
   65MPD2    C5  994   1.401   0.186  15.991 -0.1531  0.1853 -0.0121
   65MPD2     H  995   1.382   0.061  15.636 -0.4992  0.1010 -0.4278
   65MPD2    H1  996   1.391   4.702  16.059  1.7892 -1.4911 -0.7372
   65MPD2    H2  997   1.388   0.385  15.901 -1.3422 -0.2470  0.2384
   65MPD2    H3  998   1.394   0.227  16.091 -1.2812  1.8261 -0.7691
   65MPD2     N  999   1.366   4.576  15.830  0.5673  0.7399  0.2814
   65MPD2    H5 1000   1.362   4.523  15.916  0.7260  0.4026  0.0770
   65MPD2    N1 1001   1.382   0.312  15.646 -0.0273 -0.4646 -0.2575
   65MPD2    H7 1002   1.369   0.250  15.567 -0.0519 -0.3754 -0.3236
   66TCq2    C1 1003   1.368   0.445  15.645 -0.0690  0.3388  0.3140
   66TCq2    O2 1004   1.344   0.517  15.743 -0.0029  0.6084 -0.2941
   66TCq2    C2 1005   1.341   0.491  15.510  0.1655 -0.1681  0.1900
   66TCq2    C3 1006   1.386   0.413  15.411  0.0312 -0.6471 -0.4752
   66TCq2    C4 1007   1.334   0.439  15.288 -0.1266 -0.0817  0.0589
   66TCq2    C5 1008   1.225   0.523  15.266 -0.2038  0.0436 -0.0099
   66TCq2    C6 1009   1.180   0.602  15.369  0.3846 -0.3825  0.3685
   66TCq2    C7 1010   1.242   0.586  15.493  0.2322  0.0620  0.0923
   66TCq2    C8 1011   1.068   0.697  15.350  0.1895  0.7419 -0.6470
   66TCq2    O4 1012   1.056   0.744  15.238 -0.4680  0.3342  0.8642
   66TCq2    C9 1013   1.398   0.381  15.174  0.4823 -0.2430 -0.0751
   66TCq2    O5 1014   1.331   0.366  15.067 -0.1236  0.6778  0.1674
   66TCq2    O6 1015   1.508   0.332  15.204 -0.1614  0.0558 -0.4599
   66TCq2    H2 1016   1.474   0.350  15.414  1.7385  1.7061 -1.5132
   66TCq2    H3 1017   1.186   0.524  15.165  0.5987  1.8962 -0.3031
   66TCq2    H4 1018   1.226   0.655  15.574 -0.1694  1.7046 -1.3718
   67MPD2     C 1019   0.959   4.390  14.242  0.1848 -0.2978 -0.0300
   67MPD2    C1 1020   0.922   4.461  14.356  0.1605  1.0241  0.4014
   67MPD2    C2 1021   0.793   4.514  14.360  0.2311  0.3014  0.2706
   67MPD2    C3 1022   0.701   4.497  14.262 -0.2820  0.1358 -0.2899
   67MPD2    C4 1023   0.752   4.450  14.141  0.0492  0.2387 -0.3228
   67MPD2    C5 1024   0.875   4.399  14.129  0.0501 -0.2846 -0.0650
   67MPD2     H 1025   0.764   4.562  14.453  1.3929  1.1000  0.2180
   67MPD2    H1 1026   0.700   4.471  14.048 -2.2337 -0.2447  0.8402
   67MPD2    H2 1027   1.053   4.336  14.233  0.6717  0.5812 -0.2812
   67MPD2    H3 1028   0.918   4.370  14.033  0.9528  2.4965 -0.5039
   67MPD2     N 1029   0.564   4.547  14.254 -0.7738 -0.2053  0.0709
   67MPD2    H5 1030   0.513   4.507  14.176 -0.8652 -1.5029  0.7969
   67MPD2    N1 1031   1.006   4.476  14.467  0.6001 -0.5996 -0.4043
   67MPD2    H7 1032   0.982   4.561  14.518  0.7261 -0.7373 -0.1199
   68TCq2    C1 1033   1.125   4.409  14.491 -0.8169 -0.4835  1.1160
   68TCq2    O2 1034   1.170   4.314  14.431  0.3192 -0.5111 -0.4642
   68TCq2    C2 1035   1.195   4.469  14.604 -0.6776  0.3760 -0.0058
   68TCq2    C3 1036   1.124   4.523  14.713 -0.5987 -0.0170  0.7062
   68TCq2    C4 1037   1.197   4.571  14.821  0.1008 -0.1417 -0.2992
   68TCq2    C5 1038   1.335   4.567  14.827  0.1116 -0.1585  0.5325
   68TCq2    C6 1039   1.392   4.512  14.712 -0.6075  0.3923  0.2244
   68TCq2    C7 1040   1.328   4.467  14.605 -0.3222  0.4676  0.1297
   68TCq2    C8 1041   1.534   4.449  14.727 -0.2290 -0.4189  0.1068
   68TCq2    O4 1042   1.583   4.386  14.632 -0.8157  0.0170 -0.2429
   68TCq2    C9 1043   1.113   4.626  14.928  0.4805  0.0211 -0.1164
   68TCq2    O5 1044   0.992   4.605  14.915  0.0534  0.1862  0.1378
   68TCq2    O6 1045   1.171   4.674  15.033  0.0789  0.6387 -0.2205
   68TCq2    H2 1046   1.016   4.534  14.715 -0.4987  0.4471  3.1756
   68TCq2    H3 1047   1.384   4.613  14.912  1.0368 -1.0588  0.4796
   68TCq2    H4 1048   1.377   4.414  14.524 -0.8137 -1.6001  1.1696
   69TMC2    C1 1049   3.055   0.993  12.538 -0.4126 -0.5260 -0.7152
   69TMC2    C2 1050   3.021   0.963  12.405  0.8825 -0.1512 -0.3741
   69TMC2    C3 1051   3.123   0.974  12.315 -0.9280 -0.3123 -0.1764
   69TMC2    C4 1052   3.185   1.005  12.572 -0.1052  0.0889  0.4118
   69TMC2    C5 1053   3.280   1.013  12.480 -0.5012 -0.5794 -0.1734
   69TMC2    C6 1054   3.250   1.004  12.343 -0.4328  0.1871  0.2890
   69TMC2     C 1055   2.955   0.984  12.633 -0.0384  0.0649  0.1401
   69TMC2     O 1056   2.840   0.959  12.596 -0.1189 -0.5584  0.5129
   69TMC2     H 1057   2.919   0.957  12.369  0.9629 -0.3863 -0.5681
   69TMC2    H1 1058   3.219   1.008  12.674 -1.8764  0.3374  0.9969
   69TMC2    H2 1059   3.330   1.003  12.269  0.0844  1.4902  0.8354
   69TMC2    C7 1060   3.422   1.014  12.511 -0.0718  0.0794 -0.3764
   69TMC2    C8 1061   3.073   1.001  12.185 -0.2422  0.5132 -0.1378
   69TMC2    O1 1062   3.499   1.054  12.421 -0.2688 -0.0110  0.8347
   69TMC2    O2 1063   2.975   0.942  12.148 -0.0232 -0.1658 -0.3780
   69TMC2    O5 1064   3.149   1.083  12.105  0.3527 -0.1593 -0.1150
   69TMC2    H5 1065   3.231   1.119  12.145 -0.5822  1.5111  0.2652
   70MPD2     C 1066   2.946   1.041  12.988  0.4122 -0.5739  0.2556
   70MPD2    C1 1067   2.924   0.975  12.871  0.2015  0.1408  0.5810
   70MPD2    C2 1068   2.828   0.873  12.873  0.5898  0.1395 -0.5169
   70MPD2    C3 1069   2.760   0.834  12.983 -0.2596 -0.4990  0.4629
   70MPD2    C4 1070   2.775   0.912  13.099 -0.4064 -0.1377 -0.3333
   70MPD2    C5 1071   2.869   1.013  13.104  0.3619  0.0525 -0.0042
   70MPD2     H 1072   2.801   0.823  12.781 -0.9182 -2.2892  1.2574
   70MPD2    H1 1073   2.725   0.891  13.193  1.2666 -0.7305  0.4074
   70MPD2    H2 1074   3.010   1.128  13.002  2.2225 -1.8342 -0.1581
   70MPD2    H3 1075   2.880   1.073  13.193 -0.9073  0.2814 -0.0003
   70MPD2     N 1076   2.687   0.715  12.980 -0.2133  0.9459 -0.0012
   70MPD2    H5 1077   2.704   0.648  12.906 -0.5964 -0.6337  1.3381
   70MPD2    N1 1078   2.997   1.009  12.761 -0.4815 -0.4962 -0.0159
   70MPD2    H7 1079   3.070   1.076  12.781 -2.5576  1.2075  1.8975
   71TMC2    C1 1080   1.404   1.136   1.017  0.8577 -0.2332 -0.1862
   71TMC2    C2 1081   1.521   1.201   1.006  0.1734  0.0474  0.1602
   71TMC2    C3 1082   1.596   1.213   1.118 -0.8368  0.0584 -0.6584
   71TMC2    C4 1083   1.370   1.071   1.132 -0.2230  0.6495  0.8500
   71TMC2    C5 1084   1.456   1.071   1.236 -0.0629  0.0922 -0.0728
   71TMC2    C6 1085   1.572   1.149   1.231 -0.0021  0.8671  0.1026
   71TMC2     C 1086   1.313   1.151   0.914  0.1810  0.4016  0.7998
   71TMC2     O 1087   1.327   1.245   0.843 -0.9580 -0.3661 -0.1506
   71TMC2     H 1088   1.538   1.250   0.911  1.2417 -0.3485  0.1513
   71TMC2    H1 1089   1.274   1.020   1.141  0.5156 -0.5316  1.9926
   71TMC2    H2 1090   1.637   1.160   1.317 -0.5388 -0.8654  0.7331
   71TMC2    C7 1091   1.440   1.009   1.363 -0.3100  0.9047 -0.3193
   71TMC2    C8 1092   1.731   1.251   1.107  0.5049  0.1885 -0.1160
   71TMC2    O1 1093   1.523   1.035   1.450 -0.5169 -0.5179 -0.1276
   71TMC2    O2 1094   1.823   1.214   1.184 -0.4600 -0.5068 -0.0218
   71TMC2    O5 1095   1.739   1.352   1.016  0.1631 -0.0228  0.1439
   71TMC2    H5 1096   1.653   1.399   1.017  0.2052  0.0686 -1.2965
   72MPD2     C 1097   0.944   0.978   0.606  0.4323  0.0084  0.0440
   72MPD2    C1 1098   1.001   1.101   0.616  0.3744  0.0523 -0.1821
   72MPD2    C2 1099   1.092   1.124   0.714  0.5148  0.3470 -0.0785
   72MPD2    C3 1100   1.136   1.021   0.798 -0.1191  0.5813 -0.1165
   72MPD2    C4 1101   1.076   0.894   0.783  0.2524  0.6125 -0.2787
   72MPD2    C5 1102   0.983   0.878   0.691 -0.1007  0.1779  0.1082
   72MPD2     H 1103   1.153   1.214   0.709  0.1423  0.5638 -0.7665
   72MPD2    H1 1104   1.120   0.815   0.843 -1.3302  0.4126  0.6039
   72MPD2    H2 1105   0.861   0.965   0.537 -0.8513  0.9700  1.4213
   72MPD2    H3 1106   0.928   0.787   0.670 -0.0280  0.4996 -1.4949
   72MPD2     N 1107   1.229   1.038   0.904 -0.5705 -1.2245  0.2892
   72MPD2    H5 1108   1.259   0.951   0.947  1.5995 -1.0105 -0.8425
   72MPD2    N1 1109   0.977   1.206   0.520  0.2763  0.2428 -0.0041
   72MPD2    H7 1110   1.029   1.292   0.537  0.7995 -0.0776  0.0314
   73TMC2    C1 1111   0.510   3.226  14.037  0.2622  0.7924  0.0352
   73TMC2    C2 1112   0.469   3.105  14.078 -0.2435 -0.4710 -0.1265
   73TMC2    C3 1113   0.537   3.047  14.179 -0.0325  0.7938  0.2227
   73TMC2    C4 1114   0.611   3.294  14.103  0.0392 -0.6895 -0.4563
   73TMC2    C5 1115   0.693   3.225  14.192 -0.1427  1.3041  0.3240
   73TMC2    C6 1116   0.651   3.108  14.245 -0.2958 -0.4876  0.4015
   73TMC2     C 1117   0.532   3.248  13.892 -0.0065 -0.0300 -0.5354
   73TMC2     O 1118   0.625   3.315  13.859 -0.3758  0.3489 -0.7371
   73TMC2     H 1119   0.373   3.073  14.039 -0.9537  0.9233  0.4672
   73TMC2    H1 1120   0.640   3.393  14.068 -1.9972 -0.5842 -1.8103
   73TMC2    H2 1121   0.708   3.048  14.314  0.9981  0.1241 -0.1484
   73TMC2    C7 1122   0.836   3.245  14.179 -0.1904  0.2242 -0.2611
   73TMC2    C8 1123   0.450   2.958  14.263 -0.5019 -0.5377  0.9729
   73TMC2    O1 1124   0.900   3.235  14.280  0.2286  0.0938  0.1139
   73TMC2    O2 1125   0.366   3.009  14.334 -0.3787 -0.6862  0.0986
   73TMC2    O5 1126   0.543   2.868  14.297  0.0120 -0.6109  0.8013
   73TMC2    H5 1127   0.611   2.852  14.228  1.1341  1.8501  1.3416
   74MPD2     C 1128   0.436   3.139  13.394 -0.0960 -0.4537 -0.7931
   74MPD2    C1 1129   0.554   3.165  13.468  0.2772 -0.3860 -0.2711
   74MPD2    C2 1130   0.543   3.190  13.603 -0.2232 -0.3176 -0.1800
   74MPD2    C3 1131   0.426   3.179  13.678 -0.2028  0.9765  0.1717
   74MPD2    C4 1132   0.315   3.139  13.607  0.0002  0.2784 -0.6060
   74MPD2    C5 1133   0.324   3.120  13.468 -0.4899  0.0451  0.3791
   74MPD2     H 1134   0.636   3.190  13.658 -0.7125  0.4954  0.6441
   74MPD2    H1 1135   0.221   3.122  13.659  1.3155 -1.2084  1.3075
   74MPD2    H2 1136   0.439   3.110  13.290 -0.6848  0.0709 -0.9560
   74MPD2    H3 1137   0.231   3.085  13.423 -0.5006 -0.3119  0.6692
   74MPD2     N 1138   0.424   3.195  13.816  0.0170 -0.0483 -0.6258
   74MPD2    H5 1139   0.345   3.146  13.856 -0.4694 -0.0394 -1.5967
   74MPD2    N1 1140   0.676   3.175  13.397 -0.8579  0.7683  0.3610
   74MPD2    H7 1141   0.672   3.160  13.297 -2.6673  0.7170  0.4294
   75TCq2    C1 1142   0.506   4.614  14.367 -0.3755  0.2189  0.0434
   75TCq2    O2 1143   0.569   4.647  14.466  0.1636 -0.0829 -0.0596
   75TCq2    C2 1144   0.370   4.647  14.341  0.1781  0.4031 -0.3821
   75TCq2    C3 1145   0.293   4.683  14.437  0.0815  0.7070  0.3615
   75TCq2    C4 1146   0.178   0.028  14.409 -0.2802 -0.3182 -0.4193
   75TCq2    C5 1147   0.139   0.059  14.278  0.0709  0.8706  0.3530
   75TCq2    C6 1148   0.216   0.003  14.183 -0.3672 -0.3670  1.0291
   75TCq2    C7 1149   0.335   4.659  14.204 -0.2057  0.6335 -0.3369
   75TCq2    C8 1150   0.185   0.011  14.043  0.5042  0.3497 -0.0828
   75TCq2    O4 1151   0.228   4.642  13.971  0.2597 -0.1671 -0.1930
   75TCq2    C9 1152   0.079   0.048  14.519  0.6970  0.0588  0.2426
   75TCq2    O5 1153   4.692   0.098  14.492  0.1147 -0.3754 -0.5340
   75TCq2    O6 1154   0.116   0.025  14.637 -0.6252  0.1776  0.4045
   75TCq2    H2 1155   0.306   4.649  14.539  1.2837  0.1924  0.0272
   75TCq2    H3 1156   0.042   0.102  14.255 -0.6723 -0.8829  0.2107
   75TCq2    H4 1157   0.407   4.655  14.124  0.5926 -0.0819  0.4041
   76MPD2     C 1158   4.583   0.536  12.442  1.0851  0.0313 -0.2741
   76MPD2    C1 1159   4.533   0.594  12.325  0.0810 -0.2485 -0.7025
   76MPD2    C2 1160   4.547   0.519  12.207  0.3727  0.6012  0.5763
   76MPD2    C3 1161   4.610   0.391  12.204 -0.0521  0.1500 -0.6569
   76MPD2    C4 1162   4.669   0.348  12.323 -0.1901 -0.2434  0.3671
   76MPD2    C5 1163   4.648   0.414  12.444 -0.3970  0.2339 -0.1354
   76MPD2     H 1164   4.505   0.563  12.117 -1.7216  1.7853  2.1310
   76MPD2    H1 1165   4.720   0.254  12.335  1.9725  0.6202 -1.9832
   76MPD2    H2 1166   4.580   0.580  12.541  1.8607  1.2035 -0.7723
   76MPD2    H3 1167   4.691   0.378  12.537 -3.8894 -0.5259  1.1951
   76MPD2     N 1168   4.613   0.300  12.094  0.0016 -0.0715 -0.0825
   76MPD2    H5 1169   4.651   0.208  12.117  0.4597 -0.0465 -0.7317
   76MPD2    N1 1170   4.455   0.707  12.320  0.1707  1.2069 -0.1441
   76MPD2    H7 1171   4.413   0.736  12.233 -0.3316 -1.2134 -0.7070
   77TCq2    C1 1172   4.557   0.322  11.971  0.5093 -0.2821 -0.0330
   77TCq2    O2 1173   4.489   0.417  11.933 -0.7553  0.0907  0.4815
   77TCq2    C2 1174   4.543   0.200  11.893  0.0033 -0.3591 -0.4293
   77TCq2    C3 1175   4.451   0.198  11.795  0.0754 -0.0997  0.0669
   77TCq2    C4 1176   4.409   0.078  11.745  0.1819 -0.6346 -0.3410
   77TCq2    C5 1177   4.457   4.678  11.789  0.0469  0.1259 -0.2704
   77TCq2    C6 1178   4.550   4.680  11.894  0.1405  0.2336 -0.1883
   77TCq2    C7 1179   4.590   0.084  11.949  0.4649 -0.2214  0.0011
   77TCq2    C8 1180   4.588   4.557  11.953  0.5834 -0.7954 -0.1112
   77TCq2    O4 1181   4.523   4.456  11.919 -0.1521  0.3438  0.0870
   77TCq2    C9 1182   4.309   0.082  11.637 -0.3097 -0.1361  0.4588
   77TCq2    O5 1183   4.260   4.697  11.595 -0.1356  0.0097  0.2973
   77TCq2    O6 1184   4.279   0.200  11.599  0.1932  0.3989 -0.0518
   77TCq2    H2 1185   4.419   0.290  11.748 -0.8199 -1.3913 -1.8648
   77TCq2    H3 1186   4.407   4.590  11.748  0.4206  0.0551 -0.5728
   77TCq2    H4 1187   4.665   0.079  12.028  0.3273 -0.6153  0.1079
   78MPD1     C 1188   1.406   4.213   1.613 -0.0282 -0.1338 -0.5722
   78MPD1    C1 1189   1.272   4.203   1.581  0.2994 -0.4553 -0.0734
   78MPD1    C2 1190   1.181   4.298   1.626 -0.0095 -0.6344  0.0536
   78MPD1    C3 1191   1.220   4.386   1.727  0.3398  0.4590 -0.2501
   78MPD1    C4 1192   1.354   4.394   1.753  0.2510 -0.3913  0.7558
   78MPD1    C5 1193   1.445   4.309   1.701  0.1983  0.2200  0.4348
   78MPD1     H 1194   1.082   4.300   1.583 -0.3147 -0.9761  0.7386
   78MPD1    H1 1195   1.383   4.459   1.835 -2.7684  0.6051  1.0240
   78MPD1    H2 1196   1.470   4.142   1.561  0.2366 -1.2023  1.2137
   78MPD1    H3 1197   1.546   4.333   1.730  0.2222  2.4101 -1.4518
   78MPD1     N 1198   1.133   4.483   1.790  0.0962  0.4176 -0.1428
   78MPD1    H5 1199   1.175   4.560   1.840  2.2630 -1.9751  1.7714
   78MPD1    N1 1200   1.232   4.114   1.483  0.3530 -0.2896  0.1276
   78MPD1    H6 1201   1.146   4.077   1.523 -0.1279 -0.8637 -1.4450
   78MPD1    H7 1202   1.298   4.038   1.467  1.7429  0.8437  0.4982
   79TCq2    C1 1203   0.997   4.491   1.771  0.3008  0.2350 -0.4580
   79TCq2    O2 1204   0.923   4.401   1.732  0.2583 -0.4403 -0.2329
   79TCq2    C2 1205   0.943   4.621   1.813  0.3425  0.1564  0.0505
   79TCq2    C3 1206   0.806   4.631   1.823 -0.0889 -0.1580  0.6111
   79TCq2    C4 1207   0.755   0.034   1.857  0.2197 -0.1558  0.0901
   79TCq2    C5 1208   0.843   0.140   1.880  0.8186 -0.1497  0.6096
   79TCq2    C6 1209   0.976   0.127   1.863 -0.2732 -0.2177 -0.2606
   79TCq2    C7 1210   1.032   0.004   1.830  0.1840 -0.1557 -0.4661
   79TCq2    C8 1211   1.065   0.223   1.931 -0.0487  0.0524 -0.4731
   79TCq2    O4 1212   1.182   0.192   1.946 -0.6141 -0.1031 -0.5238
   79TCq2    C9 1213   0.610   0.051   1.874  0.1082  0.6911  0.0168
   79TCq2    O5 1214   0.584   0.170   1.911 -0.0070  0.2977  0.1048
   79TCq2    O6 1215   0.536   4.678   1.864 -0.7348  0.2363  0.4239
   79TCq2    H2 1216   0.737   4.550   1.801 -2.8738  2.2414  0.5124
   79TCq2    H3 1217   0.802   0.238   1.900 -1.4070 -1.3784  2.0931
   79TCq2    H4 1218   1.140   4.722   1.816  0.1493  0.3364 -0.9424
   80MPD2     C 1219   3.706   0.283  11.957 -0.0674 -0.2940  0.3470
   80MPD2    C1 1220   3.569   0.254  11.933  0.1201  0.0520  0.5035
   80MPD2    C2 1221   3.483   0.266  12.040  0.0363  0.5547 -0.3885
   80MPD2    C3 1222   3.525   0.306  12.166 -0.6522  0.1466  0.3844
   80MPD2    C4 1223   3.659   0.343  12.179 -0.1689  0.2704  0.8581
   80MPD2    C5 1224   3.744   0.330  12.073 -0.5470  0.1178 -0.8966
   80MPD2     H 1225   3.384   0.224  12.026  0.2991 -0.1571 -0.0582
   80MPD2    H1 1226   3.707   0.356  12.276  0.6865  0.3762  0.4195
   80MPD2    H2 1227   3.781   0.287  11.879 -0.7803  0.4236 -0.3001
   80MPD2    H3 1228   3.851   0.347  12.071 -0.3050 -1.4927 -1.3128
   80MPD2     N 1229   3.439   0.304  12.279 -0.3038 -0.3161 -0.5862
   80MPD2    H5 1230   3.487   0.320  12.367 -1.7527 -2.0687  0.5037
   80MPD2    N1 1231   3.518   0.200  11.817  0.0922  0.3315  0.1139
   80MPD2    H7 1232   3.419   0.184  11.803 -0.6032  1.4800  3.6218
   81TCq2    C1 1233   3.587   0.178  11.701 -0.1344  0.1046 -0.5800
   81TCq2    O2 1234   3.696   0.220  11.665  0.3420  0.0292  0.2649
   81TCq2    C2 1235   3.509   0.108  11.600 -0.1339  0.0151  0.0944
   81TCq2    C3 1236   3.524   0.149  11.475 -0.1212 -0.3703 -0.5540
   81TCq2    C4 1237   3.426   0.134  11.384  0.2536 -0.5705  0.3940
   81TCq2    C5 1238   3.305   0.087  11.424 -0.0220  0.2276 -0.1467
   81TCq2    C6 1239   3.280   0.044  11.552 -0.6801  1.0965 -0.4686
   81TCq2    C7 1240   3.390   0.058  11.633  0.0076 -0.0729 -0.3813
   81TCq2    C8 1241   3.169   4.681  11.580 -0.1736 -0.2564 -0.7120
   81TCq2    O4 1242   3.081   4.684  11.494  0.5209  0.0268  0.3727
   81TCq2    C9 1243   3.441   0.190  11.255  0.8160  0.0792 -0.4416
   81TCq2    O5 1244   3.557   0.224  11.219  0.4478 -0.3311  0.1476
   81TCq2    O6 1245   3.333   0.185  11.183 -0.6661 -0.3196  0.3024
   81TCq2    H2 1246   3.622   0.187  11.450  0.0052 -0.1458  0.2781
   81TCq2    H3 1247   3.220   0.091  11.357  0.5865 -1.5988 -1.0302
   81TCq2    H4 1248   3.374   0.039  11.738 -0.2060  1.6706 -0.0926
   82MPD2     C 1249   1.243   4.596  11.487  0.0498  0.6471  0.2003
   82MPD2    C1 1250   1.311   4.614  11.368  0.0024 -0.6427 -0.0778
   82MPD2    C2 1251   1.421   4.541  11.333  0.2246  0.2986 -0.3068
   82MPD2    C3 1252   1.476   4.456  11.423 -0.3505 -0.1085  0.0480
   82MPD2    C4 1253   1.418   4.440  11.546 -0.7506  0.0267  0.6223
   82MPD2    C5 1254   1.301   4.506  11.575  0.0804 -0.4077  0.4775
   82MPD2     H 1255   1.472   4.559  11.239  0.2908 -0.3516 -0.3966
   82MPD2    H1 1256   1.446   4.369  11.623 -0.0479  0.1883  0.5114
   82MPD2    H2 1257   1.151   4.645  11.517 -0.7424 -1.8826  1.8882
   82MPD2    H3 1258   1.244   4.489  11.665  0.0534  1.3954  0.8062
   82MPD2     N 1259   1.589   4.376  11.404  0.3119  0.1190 -0.3911
   82MPD2    H5 1260   1.614   4.307  11.474  1.0887 -0.8057 -1.5892
   82MPD2    N1 1261   1.250   4.698  11.273  0.2737 -0.5458  0.2061
   82MPD2    H7 1262   1.160   0.007  11.308  0.5159 -0.0964  0.4089
   83TCq2    C1 1263   1.676   4.392  11.302 -0.1162 -0.5950 -0.0493
   83TCq2    O2 1264   1.685   4.491  11.228  0.1298  0.4667 -0.7508
   83TCq2    C2 1265   1.764   4.288  11.288  0.4364 -0.1900 -0.3507
   83TCq2    C3 1266   1.888   4.321  11.333  0.2319 -0.4699 -0.4510
   83TCq2    C4 1267   1.955   4.225  11.404  0.2170 -0.8674  0.3721
   83TCq2    C5 1268   1.899   4.101  11.419  0.2497 -0.0818 -0.0083
   83TCq2    C6 1269   1.778   4.067  11.357 -0.2030  0.2763  0.4890
   83TCq2    C7 1270   1.713   4.164  11.286  0.4258  0.1425 -0.1224
   83TCq2    C8 1271   1.697   3.962  11.424 -0.3177  0.9068  0.2366
   83TCq2    O4 1272   1.575   3.976  11.423 -0.0460  0.0740  0.2542
   83TCq2    C9 1273   2.081   4.254  11.471  0.0644  0.0706 -0.6648
   83TCq2    O5 1274   2.125   4.372  11.473 -0.6995  0.2022 -0.2656
   83TCq2    O6 1275   2.143   4.158  11.522  0.2329 -0.6343 -0.0396
   83TCq2    H2 1276   1.921   4.423  11.345  1.3291 -0.8446 -0.3324
   83TCq2    H3 1277   1.955   4.031  11.481 -1.4591 -1.4290  0.0033
   83TCq2    H4 1278   1.613   4.134  11.259  0.3707 -0.4085  0.6887
   84TCq2    C1 1279   2.959   3.490  10.478 -0.0180 -0.2952 -0.1555
   84TCq2    O2 1280   2.835   3.488  10.471 -0.1464 -0.1708 -0.2972
   84TCq2    C2 1281   3.020   3.473  10.606 -0.4072 -0.2981 -0.2561
   84TCq2    C3 1282   3.156   3.443  10.614  0.1820 -0.8001 -0.5769
   84TCq2    C4 1283   3.213   3.447  10.740  0.6397  0.1300  0.3603
   84TCq2    C5 1284   3.138   3.483  10.852 -0.4104 -0.0608  0.4026
   84TCq2    C6 1285   3.006   3.506  10.841 -0.1189 -0.1183  0.2774
   84TCq2    C7 1286   2.942   3.493  10.720  0.0041 -0.5810 -0.0400
   84TCq2    C8 1287   2.922   3.542  10.954 -0.4922 -0.3925  0.5549
   84TCq2    O4 1288   2.811   3.593  10.928 -0.2464  0.2121 -0.4181
   84TCq2    C9 1289   3.356   3.443  10.759 -0.4794 -1.0507 -0.0262
   84TCq2    O5 1290   3.394   3.475  10.877  0.0851  0.7874 -0.2722
   84TCq2    O6 1291   3.429   3.399  10.663  0.2605 -0.0514  0.4180
   84TCq2    H2 1292   3.219   3.418  10.529 -1.0286 -0.9972 -1.4193
   84TCq2    H3 1293   3.187   3.487  10.948  1.6903 -0.7605 -0.6508
   84TCq2    H4 1294   2.841   3.533  10.713  0.7662  1.5494  1.3251
   85MPD2     C 1295   3.348   0.916  16.461 -0.3558 -0.0813 -0.5145
   85MPD2    C1 1296   3.272   0.856  16.366  1.1478  0.4266 -0.5347
   85MPD2    C2 1297   3.284   0.898  16.233 -0.0549  0.1524  0.1547
   85MPD2    C3 1298   3.363   1.011  16.191 -0.2830  0.3593  0.5114
   85MPD2    C4 1299   3.424   1.082  16.294 -0.1534 -0.2928 -0.2263
   85MPD2    C5 1300   3.424   1.026  16.421 -1.0589  0.7116  0.1158
   85MPD2     H 1301   3.218   0.850  16.162  0.5945  2.8951 -2.3125
   85MPD2    H1 1302   3.483   1.172  16.281  2.0246 -1.7767 -0.6359
   85MPD2    H2 1303   3.353   0.882  16.564 -0.0466 -2.2324 -1.2449
   85MPD2    H3 1304   3.487   1.069  16.498 -0.1261  2.7373 -1.7907
   85MPD2     N 1305   3.335   1.055  16.058 -0.0760  1.1370 -0.1081
   85MPD2    H5 1306   3.270   1.001  16.002  0.1040 -0.7700  1.5106
   85MPD2    N1 1307   3.189   0.749  16.398  0.3393  0.4014 -0.2554
   85MPD2    H7 1308   3.140   0.703  16.322 -2.3969 -0.0459  1.7433
   86TCq2    C1 1309   3.402   1.159  16.002 -0.8924 -0.1483  0.0664
   86TCq2    O2 1310   3.501   1.212  16.045  0.4208 -0.3048  0.1768
   86TCq2    C2 1311   3.339   1.213  15.881  0.1068 -0.0054  0.5911
   86TCq2    C3 1312   3.203   1.220  15.863 -0.7917  0.4676  0.1960
   86TCq2    C4 1313   3.141   1.290  15.757 -0.1328  0.2071 -0.2246
   86TCq2    C5 1314   3.220   1.352  15.662  0.1323  0.4854  0.2102
   86TCq2    C6 1315   3.358   1.338  15.678 -0.3462 -0.1372 -0.8712
   86TCq2    C7 1316   3.415   1.270  15.780  0.8103 -0.7461 -0.5886
   86TCq2    C8 1317   3.442   1.378  15.567 -0.6768 -0.3699  0.6621
   86TCq2    O4 1318   3.553   1.335  15.558  0.5321  0.2213 -0.1358
   86TCq2    C9 1319   2.998   1.309  15.740 -0.1090 -0.3439 -0.3152
   86TCq2    O5 1320   2.967   1.416  15.675 -0.9642  0.0528  0.8160
   86TCq2    O6 1321   2.922   1.261  15.826 -0.5562  0.4972  0.3560
   86TCq2    H2 1322   3.136   1.173  15.935 -4.9515  3.7156 -1.5495
   86TCq2    H3 1323   3.166   1.374  15.571 -1.1819  0.6480  1.0397
   86TCq2    H4 1324   3.522   1.255  15.781  1.0228  0.8816  0.3751
   87MPD2     C 1325   1.935   4.327   1.144 -0.3502 -0.1895  0.5111
   87MPD2    C1 1326   1.843   4.297   1.239 -0.2606  0.8009  0.3143
   87MPD2    C2 1327   1.779   4.397   1.312 -0.5001 -0.7426  0.1273
   87MPD2    C3 1328   1.797   4.524   1.275  0.0970 -0.3059  0.4644
   87MPD2    C4 1329   1.898   4.555   1.186 -1.1427 -0.6584 -0.1193
   87MPD2    C5 1330   1.964   4.459   1.120 -0.2430 -0.7427 -0.0883
   87MPD2     H 1331   1.710   4.364   1.389 -3.2556  1.6737 -1.3112
   87MPD2    H1 1332   1.924   4.656   1.159 -0.3183 -0.6379  0.7610
   87MPD2    H2 1333   1.993   4.249   1.096 -2.3484 -0.7285 -1.0012
   87MPD2    H3 1334   2.035   4.493   1.045 -1.5558  1.2570 -0.4110
   87MPD2     N 1335   1.721   4.634   1.319  0.1633 -0.0286 -0.5807
   87MPD2    H5 1336   1.743   0.006   1.292  1.0041  0.2548  1.1065
   87MPD2    N1 1337   1.829   4.154   1.259  0.4468  0.0568 -0.3629
   87MPD2    H7 1338   1.878   4.095   1.194  2.0665 -1.7935  2.5368
   88TCq2    C1 1339   1.753   4.095   1.355  0.1925  0.1345  0.8984
   88TCq2    O2 1340   1.691   4.144   1.453  0.4700 -0.8198 -0.4575
   88TCq2    C2 1341   1.765   3.949   1.347  0.3057  0.2295  0.7753
   88TCq2    C3 1342   1.801   3.883   1.464 -0.9878 -0.4042 -0.2925
   88TCq2    C4 1343   1.812   3.748   1.462  0.5265 -0.4228 -0.3291
   88TCq2    C5 1344   1.794   3.676   1.347 -0.4927 -0.4464 -0.3322
   88TCq2    C6 1345   1.773   3.748   1.228 -0.1554  1.0383  0.6526
   88TCq2    C7 1346   1.757   3.884   1.228  0.0988  0.3702  0.1852
   88TCq2    C8 1347   1.789   3.687   1.095  0.8537 -0.6403 -0.4940
   88TCq2    O4 1348   1.795   3.758   0.999  0.4661 -0.2379 -0.8605
   88TCq2    C9 1349   1.859   3.683   1.581 -0.5982  0.8302  0.1946
   88TCq2    O5 1350   1.834   3.738   1.690  0.0637  0.2389 -0.1863
   88TCq2    O6 1351   1.897   3.562   1.569 -0.0411  0.5672  0.2893
   88TCq2    H2 1352   1.818   3.935   1.558 -2.4888 -3.5238  1.7170
   88TCq2    H3 1353   1.806   3.570   1.329  2.2920 -0.0661 -0.6718
   88TCq2    H4 1354   1.733   3.948   1.143  2.0301 -0.3701 -0.9119
   89MPD2     C 1355   1.656   1.337   2.061 -0.0681  0.0493 -0.1854
   89MPD2    C1 1356   1.563   1.401   1.978 -0.2085  0.0432  0.5013
   89MPD2    C2 1357   1.608   1.520   1.925 -0.1141 -0.1803  0.1391
   89MPD2    C3 1358   1.734   1.579   1.938  0.1560  0.6588 -0.5159
   89MPD2    C4 1359   1.818   1.515   2.023 -0.4881 -0.1872 -0.0186
   89MPD2    C5 1360   1.777   1.400   2.080 -0.2397 -0.1132 -0.0633
   89MPD2     H 1361   1.534   1.587   1.882  1.1403  1.6280  0.7568
   89MPD2    H1 1362   1.920   1.548   2.041 -0.0766 -0.7727 -1.1920
   89MPD2    H2 1363   1.642   1.244   2.116 -1.1133  0.4871  0.2884
   89MPD2    H3 1364   1.840   1.351   2.153  1.3956  3.8499  1.1729
   89MPD2     N 1365   1.756   1.704   1.866 -0.0602 -0.1437 -0.1863
   89MPD2    H5 1366   1.692   1.726   1.790  1.0014 -1.0699 -1.3566
   89MPD2    N1 1367   1.429   1.348   1.960 -0.2558  0.2577  0.6129
   89MPD2    H7 1368   1.367   1.402   1.902 -0.1715 -1.1230 -0.7567
   90TCq2    C1 1369   1.874   1.774   1.885 -0.9337  0.4697 -0.3778
   90TCq2    O2 1370   1.954   1.768   1.979 -0.3954  0.1061 -0.0610
   90TCq2    C2 1371   1.921   1.846   1.766 -0.2762  0.7673  0.9562
   90TCq2    C3 1372   2.055   1.842   1.754  0.4032 -0.4475 -0.3936
   90TCq2    C4 1373   2.107   1.866   1.630  0.1874 -0.0814  0.3851
   90TCq2    C5 1374   2.034   1.881   1.521 -0.5206 -0.6647  0.3948
   90TCq2    C6 1375   1.901   1.897   1.539  0.6513  0.4251  0.3367
   90TCq2    C7 1376   1.844   1.855   1.652  0.2256  0.4632 -0.3090
   90TCq2    C8 1377   1.826   2.000   1.462 -0.0189 -0.3427 -0.7842
   90TCq2    O4 1378   1.705   2.022   1.481  0.4431  0.3867  0.2048
   90TCq2    C9 1379   2.247   1.852   1.608 -0.3318 -0.0279  0.5202
   90TCq2    O5 1380   2.326   1.864   1.701  0.1332  0.8671  0.0865
   90TCq2    O6 1381   2.298   1.829   1.493  0.5590  0.6200 -0.6239
   90TCq2    H2 1382   2.122   1.828   1.838  0.2461  1.5756  0.0638
   90TCq2    H3 1383   2.083   1.895   1.425 -1.4980  0.0267 -0.0104
   90TCq2    H4 1384   1.739   1.878   1.665  0.9312  2.5492  1.7754
   91TMC2    C1 1385   3.230   2.273  17.136 -0.7337  0.0663 -0.0424
   91TMC2    C2 1386   3.156   2.341  17.227 -0.3090 -0.8191  0.1709
   91TMC2    C3 1387   3.069   2.438  17.183  0.5568  0.5114 -0.5636
   91TMC2    C4 1388   3.222   2.308  17.007  0.5300  0.2387  0.0441
   91TMC2    C5 1389   3.128   2.400  16.965  0.3497  0.7582  0.3145
   91TMC2    C6 1390   3.056   2.467  17.051  0.0919 -0.4303  0.0450
   91TMC2     C 1391   3.313   2.172  17.187  0.3628 -0.3593 -0.4674
   91TMC2     O 1392   3.289   2.136  17.301  0.0654 -0.0401  0.5093
   91TMC2     H 1393   3.175   2.332  17.333  0.6320  0.5929  0.1268
   91TMC2    H1 1394   3.275   2.258  16.926 -0.3097  2.2969 -1.7657
   91TMC2    H2 1395   3.000   2.556  17.024 -1.3292 -0.7323  1.9666
   91TMC2    C7 1396   3.151   2.466  16.836  0.2256 -0.5812 -0.2441
   91TMC2    C8 1397   3.009   2.512  17.289  0.5130 -0.5314  0.0172
   91TMC2    O1 1398   3.120   2.583  16.834 -0.2416  0.0896 -0.0269
   91TMC2    O2 1399   3.007   2.488  17.413 -0.2925  1.0329 -0.6908
   91TMC2    O5 1400   2.982   2.640  17.248  0.4967 -0.2764 -0.2348
   91TMC2    H5 1401   2.973   2.668  17.154 -2.8918  1.4463  0.5723
   92MPD2     C 1402   3.548   2.024  17.266 -0.0528  0.4242 -0.0721
   92MPD2    C1 1403   3.506   2.039  17.132  0.3875 -0.1369 -0.4549
   92MPD2    C2 1404   3.581   1.981  17.023  0.4075 -1.0350  0.3542
   92MPD2    C3 1405   3.678   1.886  17.053  0.0957 -0.1947 -0.2679
   92MPD2    C4 1406   3.712   1.862  17.187 -0.1488 -0.4596 -0.8455
   92MPD2    C5 1407   3.654   1.940  17.290 -0.2976 -0.7909 -0.3212
   92MPD2     H 1408   3.543   2.003  16.924  1.2310  2.2236  0.7578
   92MPD2    H1 1409   3.791   1.793  17.215 -0.3032 -0.0484  0.5943
   92MPD2    H2 1410   3.496   2.061  17.353 -2.3079 -1.2683 -0.6984
   92MPD2    H3 1411   3.694   1.931  17.390  2.6948  3.5059 -1.1751
   92MPD2     N 1412   3.751   1.839  16.944 -0.3033  0.0662 -0.1711
   92MPD2    H5 1413   3.722   1.872  16.852 -2.2993  1.7870  1.0789
   92MPD2    N1 1414   3.400   2.123  17.102  0.1487  0.1703  0.4984
   92MPD2    H7 1415   3.399   2.159  17.008  1.5609  0.5078  0.6245
   93MPD2     C 1416   0.538   2.248  13.706 -0.2758 -0.5998  0.2186
   93MPD2    C1 1417   0.523   2.337  13.807 -1.0371 -0.1217 -0.1747
   93MPD2    C2 1418   0.399   2.347  13.866 -0.1685 -0.0753 -0.8269
   93MPD2    C3 1419   0.291   2.270  13.828  0.4460 -0.6741  0.4538
   93MPD2    C4 1420   0.310   2.186  13.727 -0.3305  0.1008 -0.1029
   93MPD2    C5 1421   0.429   2.174  13.664 -0.4981 -0.1313 -0.1226
   93MPD2     H 1422   0.385   2.424  13.941  2.9527 -1.2723  0.9729
   93MPD2    H1 1423   0.227   2.128  13.689 -0.9933  0.5529  0.6393
   93MPD2    H2 1424   0.627   2.233  13.645  0.5861 -1.0122  1.5844
   93MPD2    H3 1425   0.444   2.101  13.585  2.8629 -0.7492  1.0768
   93MPD2     N 1426   0.166   2.272  13.888  0.0807  0.1843  0.0785
   93MPD2    H5 1427   0.093   2.223  13.835 -0.7360  0.1174  1.2686
   93MPD2    N1 1428   0.629   2.417  13.853 -0.0796 -0.0844  0.3435
   93MPD2    H7 1429   0.609   2.483  13.928 -2.0131  0.0590 -0.2926
   94TCq2    C1 1430   0.759   2.399  13.810 -0.2742  0.1069  0.3599
   94TCq2    O2 1431   0.814   2.319  13.735 -0.3829 -0.5273  0.0086
   94TCq2    C2 1432   0.845   2.519  13.854  0.1592  1.0659  0.2585
   94TCq2    C3 1433   0.787   2.607  13.943 -0.9255 -0.4707 -0.1225
   94TCq2    C4 1434   0.872   2.687  14.012  0.4083 -0.4252 -0.0406
   94TCq2    C5 1435   1.007   2.678  14.003  0.0750 -0.3641 -0.3053
   94TCq2    C6 1436   1.063   2.601  13.903 -0.0793  0.1745  0.5431
   94TCq2    C7 1437   0.982   2.521  13.827 -0.4881 -0.0136  0.0880
   94TCq2    C8 1438   1.213   2.609  13.883 -0.2894 -0.7137 -0.2402
   94TCq2    O4 1439   1.286   2.531  13.820 -0.2122  0.0232 -0.1193
   94TCq2    C9 1440   0.816   2.781  14.111 -0.9021 -0.0808 -0.3229
   94TCq2    O5 1441   0.888   2.865  14.171  0.5352 -0.1482 -0.3015
   94TCq2    O6 1442   0.691   2.781  14.114  0.0386  0.5828  0.8434
   94TCq2    H2 1443   0.682   2.617  13.971 -0.4868 -1.4581  1.8503
   94TCq2    H3 1444   1.060   2.732  14.081 -0.6995  0.3462 -0.2736
   94TCq2    H4 1445   1.017   2.471  13.737 -1.3787  0.2619 -0.4125
   95TMC2    C1 1446   0.659   4.256  16.439  0.4820  0.0142 -0.3152
   95TMC2    C2 1447   0.727   4.347  16.521  0.2490  0.1597  0.3766
   95TMC2    C3 1448   0.664   4.395  16.630  0.7534  0.7062  0.3898
   95TMC2    C4 1449   0.531   4.217  16.465 -0.3972  0.5224  0.1622
   95TMC2    C5 1450   0.477   4.269  16.579 -0.5640  0.5821 -0.6726
   95TMC2    C6 1451   0.543   4.339  16.672  0.2863  0.1193 -0.4279
   95TMC2     C 1452   0.725   4.212  16.323 -0.5495 -0.0980 -0.0809
   95TMC2     O 1453   0.837   4.260  16.296 -0.2183 -0.6496  0.3837
   95TMC2     H 1454   0.826   4.383  16.496  0.6472 -1.6378 -0.5792
   95TMC2    H1 1455   0.464   4.200  16.382 -0.6519 -0.4174  0.5670
   95TMC2    H2 1456   0.500   4.362  16.768 -0.4001 -1.6228 -0.3179
   95TMC2    C7 1457   0.344   4.225  16.620 -0.0410  0.1316 -1.0110
   95TMC2    C8 1458   0.727   4.484  16.725 -0.4071  0.1948 -0.5095
   95TMC2    O1 1459   0.305   4.116  16.586  0.6005 -0.1046 -0.1109
   95TMC2    O2 1460   0.681   4.494  16.837  0.0442  0.1173  0.3448
   95TMC2    O5 1461   0.753   4.596  16.655 -0.4451 -0.4145 -0.1389
   95TMC2    H5 1462   0.737   4.592  16.558  0.0094 -0.3842 -0.2150
   96MPD2     C 1463   0.760   3.943  15.880 -0.2529 -0.5614  0.2506
   96MPD2    C1 1464   0.845   4.041  15.934  0.0853  0.3481 -0.4019
   96MPD2    C2 1465   0.816   4.087  16.061 -0.5755 -0.4321  0.8658
   96MPD2    C3 1466   0.706   4.041  16.140 -0.4411 -0.1250  0.1495
   96MPD2    C4 1467   0.619   3.952  16.080 -0.6803 -0.2952 -0.1226
   96MPD2    C5 1468   0.654   3.900  15.955 -0.0814  0.0581 -0.2550
   96MPD2     H 1469   0.864   4.177  16.098  0.8970 -1.0001  0.3421
   96MPD2    H1 1470   0.542   3.906  16.140 -1.5637 -0.1389 -1.1399
   96MPD2    H2 1471   0.777   3.903  15.780 -1.8137 -0.7789  0.0829
   96MPD2    H3 1472   0.585   3.819  15.934  0.6446 -0.3568 -1.0169
   96MPD2     N 1473   0.662   4.101  16.267 -0.0620 -0.0023  0.3838
   96MPD2    H5 1474   0.576   4.078  16.317 -1.1007  2.5818 -0.1848
   96MPD2    N1 1475   0.950   4.087  15.854  0.3590  1.0693  0.2656
   96MPD2    H7 1476   0.952   4.049  15.760  1.0704  0.4971  0.5156
   97MPD2     C 1477   3.012   1.536   2.185  1.1815  0.2399 -0.2989
   97MPD2    C1 1478   2.937   1.553   2.062  0.1632  0.1612 -0.0229
   97MPD2    C2 1479   2.977   1.654   1.975  0.8909  0.8111  0.1041
   97MPD2    C3 1480   3.075   1.746   2.012  0.2749  0.6218 -0.0756
   97MPD2    C4 1481   3.149   1.723   2.129  0.4437  0.3259  0.1696
   97MPD2    C5 1482   3.115   1.620   2.215  0.0095 -0.2850  0.2718
   97MPD2     H 1483   2.926   1.666   1.880  2.4326  0.7981 -0.7137
   97MPD2    H1 1484   3.237   1.782   2.150  0.9309 -0.5172  0.5031
   97MPD2    H2 1485   3.002   1.449   2.249  0.6082 -0.1375 -0.8937
   97MPD2    H3 1486   3.169   1.589   2.303 -1.2923 -1.2387  0.7196
   97MPD2     N 1487   3.121   1.864   1.937 -0.8416  0.1837 -0.0050
   97MPD2    H5 1488   3.188   1.923   1.983  1.7737 -2.2357 -0.6944
   97MPD2    N1 1489   2.849   1.448   2.030  0.0170  0.2198 -0.2587
   97MPD2    H7 1490   2.835   1.379   2.103  1.0373  0.3280  0.0499
   98TCq2    C1 1491   3.085   1.898   1.803 -0.6041  0.3789  0.7886
   98TCq2    O2 1492   3.009   1.849   1.718  0.5250 -0.6101  0.1379
   98TCq2    C2 1493   3.165   2.007   1.755 -0.0196 -0.4116  1.2251
   98TCq2    C3 1494   3.235   2.088   1.846  0.8203  0.3524  0.8977
   98TCq2    C4 1495   3.320   2.187   1.799  0.5377 -0.1773  0.3700
   98TCq2    C5 1496   3.316   2.213   1.667  0.7120 -0.5549 -0.1217
   98TCq2    C6 1497   3.235   2.142   1.579  0.3224  0.3896 -0.4525
   98TCq2    C7 1498   3.161   2.039   1.619 -0.0551  0.2434  0.1085
   98TCq2    C8 1499   3.254   2.160   1.440 -0.2433  0.5257  0.2342
   98TCq2    O4 1500   3.354   2.226   1.410  0.4253 -0.6527  0.3891
   98TCq2    C9 1501   3.424   2.247   1.885  0.9105 -0.7205 -1.0829
   98TCq2    O5 1502   3.407   2.226   2.006  0.3073 -0.4493 -0.0178
   98TCq2    O6 1503   3.501   2.332   1.836 -0.2997 -0.0142  0.1601
   98TCq2    H2 1504   3.246   2.064   1.951 -1.4649  1.9088  1.4842
   98TCq2    H3 1505   3.379   2.295   1.634 -0.5910  0.3712 -0.3404
   98TCq2    H4 1506   3.105   1.980   1.547  1.2393 -1.3809  0.4360
   99MPD2     C 1507   1.393   2.493   2.117 -0.3418  0.5769  0.8145
   99MPD2    C1 1508   1.297   2.592   2.115  0.0559  0.1516  0.5825
   99MPD2    C2 1509   1.297   2.673   1.994 -0.1578  0.5544  0.5580
   99MPD2    C3 1510   1.379   2.654   1.888  0.1776  0.0825 -0.1694
   99MPD2    C4 1511   1.467   2.552   1.896  0.1490  0.4480 -0.2972
   99MPD2    C5 1512   1.471   2.463   2.005 -0.5007  0.4481 -1.0228
   99MPD2     H 1513   1.223   2.753   1.987 -0.4675  0.1703 -0.6221
   99MPD2    H1 1514   1.513   2.509   1.808  1.2266 -1.3912  1.1578
   99MPD2    H2 1515   1.389   2.420   2.197 -0.5292 -0.4420 -0.1222
   99MPD2    H3 1516   1.542   2.381   2.006 -0.0134  0.8820 -0.1716
   99MPD2     N 1517   1.352   2.727   1.772  0.3344  0.3659  0.1924
   99MPD2    H5 1518   1.279   2.797   1.772  0.0813  0.1021 -0.8018
   99MPD2    N1 1519   1.198   2.613   2.209 -0.4857  0.1323  0.0874
   99MPD2    H7 1520   1.140   2.695   2.199 -2.1645 -0.9716  0.8921
  100TCq2    C1 1521   1.176   2.533   2.321 -0.0464 -0.0486 -0.3496
  100TCq2    O2 1522   1.230   2.431   2.361 -0.8461  0.2450  0.0789
  100TCq2    C2 1523   1.062   2.576   2.402  0.6833 -0.1478 -0.1081
  100TCq2    C3 1524   1.060   2.550   2.535 -0.7479 -0.2658  0.0742
  100TCq2    C4 1525   0.962   2.608   2.608 -0.6105 -0.2618 -0.3270
  100TCq2    C5 1526   0.861   2.674   2.544 -0.6821 -0.4571  0.8655
  100TCq2    C6 1527   0.855   2.690   2.408 -0.2880  0.8712 -0.4263
  100TCq2    C7 1528   0.961   2.643   2.335  0.1001  0.2337  0.3070
  100TCq2    C8 1529   0.772   2.793   2.354  0.1022 -0.3504  0.1887
  100TCq2    O4 1530   0.719   2.866   2.435 -0.0370  0.4803  0.0022
  100TCq2    C9 1531   0.970   2.605   2.751  0.2788  0.2247  0.3753
  100TCq2    O5 1532   1.067   2.547   2.805 -0.3602 -0.2761  0.1379
  100TCq2    O6 1533   0.885   2.668   2.816  0.1650 -0.1159  0.3445
  100TCq2    H2 1534   1.145   2.508   2.588  0.0247  0.3946 -0.6214
  100TCq2    H3 1535   0.773   2.698   2.603 -0.6888  2.2828 -0.2574
  100TCq2    H4 1536   0.967   2.659   2.228 -1.3961  2.3313  0.5300
  101MPD2     C 1537   1.969   4.528  13.064  0.4210 -0.9730  0.0961
  101MPD2    C1 1538   1.888   4.600  13.150  0.8313  0.1982 -0.2396
  101MPD2    C2 1539   1.844   4.541  13.267 -0.1636 -0.2137 -0.3218
  101MPD2    C3 1540   1.885   4.410  13.309  0.3443 -0.0158 -0.5267
  101MPD2    C4 1541   1.961   4.341  13.216  0.9923 -0.7321  0.0981
  101MPD2    C5 1542   1.995   4.399  13.095 -1.1432 -0.2477 -0.3280
  101MPD2     H 1543   1.779   4.596  13.333  0.3901  0.9011 -0.7058
  101MPD2    H1 1544   1.981   4.235  13.228 -1.0962 -1.0013  1.1331
  101MPD2    H2 1545   1.994   4.562  12.964 -0.1418 -0.3755  0.1615
  101MPD2    H3 1546   2.045   4.341  13.018  2.5909 -2.1329  3.5142
  101MPD2     N 1547   1.834   4.355  13.420 -0.5380  0.0950 -0.0067
  101MPD2    H5 1548   1.786   4.423  13.477 -0.1251  0.5019 -0.1431
  101MPD2    N1 1549   1.835   0.008  13.112 -0.0108  0.0572  0.8266
  101MPD2    H7 1550   1.865   0.047  13.023  0.7966 -0.3485  0.9281
  102TCq2    C1 1551   1.805   0.430  12.847 -0.3062 -0.2165  0.0780
  102TCq2    O2 1552   1.888   0.351  12.798 -0.1161  0.0245  0.2452
  102TCq2    C2 1553   1.713   0.371  12.936 -0.5100  0.0559  0.2077
  102TCq2    C3 1554   1.626   0.446  13.005  1.0672  0.5894  0.4655
  102TCq2    C4 1555   1.593   0.413  13.133  0.2497  0.7040 -0.4319
  102TCq2    C5 1556   1.638   0.299  13.190  0.3314  0.3773  0.5820
  102TCq2    C6 1557   1.699   0.210  13.108  0.4678 -0.0994 -0.2076
  102TCq2    C7 1558   1.746   0.246  12.982 -0.0493 -0.5442  0.0330
  102TCq2    C8 1559   1.728   0.082  13.168  0.0590 -0.3809 -0.4653
  102TCq2    O4 1560   1.656   0.046  13.261  0.2157 -0.0258 -0.2862
  102TCq2    C9 1561   1.511   0.494  13.211 -0.3723 -0.1484  0.4886
  102TCq2    O5 1562   1.444   0.574  13.142 -0.1946  0.0739 -0.2333
  102TCq2    O6 1563   1.494   0.461  13.330  0.6966 -0.4865  0.4066
  102TCq2    H2 1564   1.603   0.548  12.978  2.1231  0.5067 -0.7631
  102TCq2    H3 1565   1.583   0.279  13.281  1.5988 -2.1214  0.7916
  102TCq2    H4 1566   1.809   0.178  12.925 -0.9108  1.3627 -3.1687
  103TMC2    C1 1567   0.438   4.547  12.508  0.4345 -0.0755 -0.7985
  103TMC2    C2 1568   0.484   4.435  12.573 -0.6992 -0.1876  0.1076
  103TMC2    C3 1569   0.511   4.451  12.704 -0.3602  0.2591  0.5149
  103TMC2    C4 1570   0.422   4.666  12.569 -0.1063 -0.0526  0.0439
  103TMC2    C5 1571   0.448   4.673  12.705 -0.6219 -0.3490  0.0312
  103TMC2    C6 1572   0.496   4.568  12.775 -0.3474 -0.6359  0.4712
  103TMC2     C 1573   0.379   4.532  12.376  0.4782  0.1346  0.1241
  103TMC2     O 1574   0.365   4.635  12.316  0.6001  0.0043 -0.0518
  103TMC2     H 1575   0.511   4.346  12.516 -0.6697  0.1979 -0.4783
  103TMC2    H1 1576   0.360   0.017  12.520  1.2971  0.4327 -1.0149
  103TMC2    H2 1577   0.526   4.570  12.879  1.3307  1.4811 -0.0566
  103TMC2    C7 1578   0.394   0.051  12.795 -0.0349 -0.3466 -0.2150
  103TMC2    C8 1579   0.570   4.348  12.781 -0.1531  0.0054  0.1296
  103TMC2    O1 1580   0.427   0.044  12.915 -0.1114 -0.0508  0.2559
  103TMC2    O2 1581   0.633   4.377  12.883  0.6569 -0.5609 -0.6024
  103TMC2    O5 1582   0.471   4.256  12.780  0.0100 -0.2337  0.5924
  103TMC2    H5 1583   0.489   4.183  12.843  1.4050 -0.3704  0.0567
  104MPD2     C 1584   0.205   4.258  12.210  0.0023 -0.2576  0.2654
  104MPD2    C1 1585   0.221   4.390  12.251 -0.4998  0.0147  0.1103
  104MPD2    C2 1586   0.145   4.487  12.188 -0.3701 -0.2793  0.1438
  104MPD2    C3 1587   0.042   4.455  12.093  0.2978  0.1088  0.0448
  104MPD2    C4 1588   0.022   4.321  12.060 -0.1878  0.2269 -0.1418
  104MPD2    C5 1589   0.099   4.223  12.124  0.7165  0.1157  0.0809
  104MPD2     H 1590   0.155   4.595  12.190  1.6953 -0.4838  1.0629
  104MPD2    H1 1591   4.657   4.280  12.013 -0.4038  2.7659 -1.9276
  104MPD2    H2 1592   0.259   4.175  12.254  0.8080  1.7440  3.0761
  104MPD2    H3 1593   0.075   4.117  12.131 -1.5055  0.4267 -2.9288
  104MPD2     N 1594   4.698   4.564  12.038  0.6265 -0.2560 -0.1751
  104MPD2    H5 1595   0.007   4.655  12.067  1.3790  0.4829 -3.4029
  104MPD2    N1 1596   0.331   4.408  12.346 -0.5499  0.0141 -0.8195
  104MPD2    H7 1597   0.360   4.319  12.385 -0.5253  1.2709  2.0090
  105MPD2     C 1598   2.463   3.770  17.384 -0.7036  0.0787  0.0162
  105MPD2    C1 1599   2.361   3.852  17.431  0.5715 -0.3654 -0.3476
  105MPD2    C2 1600   2.310   3.826  17.557  0.1879  0.4345 -0.3079
  105MPD2    C3 1601   2.347   3.708  17.628 -0.4682  0.5882 -0.0346
  105MPD2    C4 1602   2.440   3.621  17.569  0.3761 -0.5820  0.0681
  105MPD2    C5 1603   2.488   3.654  17.450 -0.4971 -0.3035  0.4346
  105MPD2     H 1604   2.249   3.901  17.607 -2.1038 -1.5868 -0.0387
  105MPD2    H1 1605   2.474   3.536  17.627  0.0800 -0.8244 -0.1107
  105MPD2    H2 1606   2.517   3.779  17.290  3.2847  1.1690  2.3759
  105MPD2    H3 1607   2.560   3.589  17.402  1.0589  0.6761  1.4589
  105MPD2     N 1608   2.278   3.694   0.047  0.1876 -0.0928  0.1496
  105MPD2    H5 1609   2.218   3.771   0.077  0.9672  0.9310 -0.8987
  105MPD2    N1 1610   2.311   3.963  17.359 -0.0502 -0.2114 -0.6706
  105MPD2    H7 1611   2.235   4.019  17.397  1.8994 -0.0279  2.9216
  106TCq2    C1 1612   2.277   3.587   0.138  0.7565 -0.3306 -0.5040
  106TCq2    O2 1613   2.326   3.477   0.130  0.4801  0.0541 -0.2154
  106TCq2    C2 1614   2.196   3.624   0.255  0.3978  0.5299  0.0972
  106TCq2    C3 1615   2.132   3.750   0.255 -0.1613  0.3075  0.4851
  106TCq2    C4 1616   2.024   3.765   0.338 -0.0043  0.1464 -0.1509
  106TCq2    C5 1617   1.992   3.673   0.430 -0.4626 -0.3651 -0.4254
  106TCq2    C6 1618   2.045   3.550   0.425 -0.1976 -0.5404  0.9089
  106TCq2    C7 1619   2.145   3.522   0.336 -0.0851  0.2241  0.1092
  106TCq2    C8 1620   2.010   3.449   0.530 -0.5457 -0.7127 -0.4054
  106TCq2    O4 1621   2.040   3.335   0.506  0.1610  0.1685  0.7816
  106TCq2    C9 1622   1.951   3.890   0.337  0.1789  0.2174  0.0343
  106TCq2    O5 1623   1.986   3.983   0.262  0.1785 -0.5537 -0.1969
  106TCq2    O6 1624   1.836   3.889   0.391  0.6153 -0.2200 -0.1477
  106TCq2    H2 1625   2.176   3.837   0.208  2.8952 -1.1593  0.5874
  106TCq2    H3 1626   1.906   3.692   0.492  0.1722 -0.1931  0.4056
  106TCq2    H4 1627   2.192   3.424   0.337  0.9612  0.7391  2.0334
  107TMC2    C1 1628   2.339   3.827  11.644  0.1623  0.1011 -0.0319
  107TMC2    C2 1629   2.354   3.943  11.570 -0.3783  0.3230 -0.1642
  107TMC2    C3 1630   2.417   3.926  11.452 -0.3765  0.9145  0.8531
  107TMC2    C4 1631   2.358   3.701  11.596 -0.4933  0.0109  0.4107
  107TMC2    C5 1632   2.430   3.692  11.473 -0.1217  0.4725 -0.6585
  107TMC2    C6 1633   2.464   3.806  11.407  0.3228  0.0768  0.2019
  107TMC2     C 1634   2.238   3.836  11.745  0.5164 -0.1884  0.3655
  107TMC2     O 1635   2.209   3.736  11.810  0.1422 -0.0477 -0.0922
  107TMC2     H 1636   2.335   4.045  11.603  0.6361  0.7219 -0.8229
  107TMC2    H1 1637   2.329   3.610  11.648 -0.5617 -0.6784 -0.8135
  107TMC2    H2 1638   2.508   3.809  11.308 -1.6731 -1.3471 -0.7508
  107TMC2    C7 1639   2.501   3.567  11.448  0.0698 -0.2971  0.6137
  107TMC2    C8 1640   2.450   4.043  11.373  0.7603 -0.1363  0.3327
  107TMC2    O1 1641   2.506   3.492  11.545 -0.4700 -0.3510 -0.7596
  107TMC2    O2 1642   2.533   4.033  11.278  0.4715 -0.6931  0.5209
  107TMC2    O5 1643   2.358   4.139  11.386  0.1271  0.1296  1.0311
  107TMC2    H5 1644   2.278   4.110  11.436  0.4475 -0.9644  0.9079
  108MPD2     C 1645   2.008   4.114  11.804 -0.1196  0.5963 -0.4617
  108MPD2    C1 1646   2.070   3.992  11.836 -0.0202 -0.6307  0.8392
  108MPD2    C2 1647   2.055   3.928  11.958  0.1104  0.0565  0.3508
  108MPD2    C3 1648   1.971   3.991  12.052  0.8166 -0.1807 -0.6563
  108MPD2    C4 1649   1.914   4.113  12.019 -0.3269  0.3514  0.5818
  108MPD2    C5 1650   1.929   4.172  11.898  0.7485 -0.8652  1.0256
  108MPD2     H 1651   2.110   3.838  11.982  0.8046  0.2277 -0.5887
  108MPD2    H1 1652   1.838   4.154  12.085 -0.8797  1.0999 -0.5270
  108MPD2    H2 1653   2.008   4.166  11.709 -1.5251 -0.2186 -0.9214
  108MPD2    H3 1654   1.870   4.260  11.873  0.5702 -1.2547  0.0712
  108MPD2     N 1655   1.941   3.936  12.184  0.0956 -0.4071 -0.3693
  108MPD2    H5 1656   1.864   3.976  12.236  3.9994  2.9118  2.9170
  108MPD2    N1 1657   2.165   3.950  11.739 -0.2430  0.2983  0.0120
  108MPD2    H7 1658   2.171   4.007  11.656 -2.8392  1.9278  0.9483
  109MPD2     C 1659   1.923   0.086   2.160 -0.5030 -0.0164 -0.4420
  109MPD2    C1 1660   1.979   0.189   2.090 -0.5797 -0.2836  0.5361
  109MPD2    C2 1661   2.120   0.191   2.082 -0.7358 -0.4632  0.4602
  109MPD2    C3 1662   2.206   0.112   2.162  0.0740 -0.0053 -0.6811
  109MPD2    C4 1663   2.135   0.027   2.248 -0.4173 -0.2311  0.4482
  109MPD2    C5 1664   2.000   0.014   2.237  0.3759  0.0264 -0.4522
  109MPD2     H 1665   2.160   0.268   2.017 -1.7239 -2.1918 -2.2321
  109MPD2    H1 1666   2.178   4.682   2.320  0.2069  3.0141  3.1866
  109MPD2    H2 1667   1.816   0.071   2.174 -0.0714 -1.4943  1.1955
  109MPD2    H3 1668   1.956   4.665   2.305  0.2527  0.9564  0.4592
  109MPD2     N 1669   2.344   0.154   2.177 -0.2297 -0.6316 -0.1430
  109MPD2    H5 1670   2.387   0.226   2.121  0.6291  0.1870  1.5699
  109MPD2    N1 1671   1.896   0.285   2.027  0.0750  0.1752 -0.6901
  109MPD2    H7 1672   1.796   0.279   2.042  0.3518 -1.7954  0.3321
  110TCq2    C1 1673   2.431   0.082   2.253 -0.3010  0.5717 -0.5299
  110TCq2    O2 1674   2.415   4.690   2.294 -0.5814  0.0601 -0.1721
  110TCq2    C2 1675   2.564   0.132   2.239  0.1245 -0.9352 -0.4100
  110TCq2    C3 1676   2.662   0.039   2.258 -0.5872 -0.2027 -0.0827
  110TCq2    C4 1677   2.791   0.081   2.233 -0.0004  0.1210 -0.4930
  110TCq2    C5 1678   2.828   0.208   2.187  0.0334 -0.7456  0.1342
  110TCq2    C6 1679   2.723   0.295   2.173 -0.0979  0.1199 -0.4964
  110TCq2    C7 1680   2.593   0.257   2.191  0.0452 -0.0952  0.2689
  110TCq2    C8 1681   2.746   0.438   2.135 -0.0089 -0.3374 -0.4154
  110TCq2    O4 1682   2.644   0.502   2.115  0.4314  0.2447 -0.6425
  110TCq2    C9 1683   2.891   4.702   2.226 -0.0111  1.1317 -0.6002
  110TCq2    O5 1684   2.865   4.590   2.282 -0.5811 -0.4389 -0.0987
  110TCq2    O6 1685   2.993   0.004   2.158 -0.3567 -0.2626  0.3046
  110TCq2    H2 1686   2.633   4.665   2.294  0.7738 -0.7991 -0.6015
  110TCq2    H3 1687   2.932   0.225   2.163 -0.5970 -0.5811 -2.4834
  110TCq2    H4 1688   2.512   0.326   2.172 -0.7248 -1.1959 -0.4666
  111TMC2    C1 1689   2.257   0.824  11.419 -0.9237  0.3769 -0.0166
  111TMC2    C2 1690   2.349   0.898  11.351  0.0218  0.0523  0.1394
  111TMC2    C3 1691   2.477   0.859  11.364  0.1215  0.1958  0.7143
  111TMC2    C4 1692   2.283   0.718  11.498  0.0396 -0.5578  0.1291
  111TMC2    C5 1693   2.415   0.709  11.533  0.1016  1.1253  0.7404
  111TMC2    C6 1694   2.521   0.775  11.468  0.3601  0.2123 -0.8437
  111TMC2     C 1695   2.120   0.860  11.405  0.5853 -0.0072 -0.3353
  111TMC2     O 1696   2.104   0.968  11.355 -0.7636 -0.5926  0.0213
  111TMC2     H 1697   2.320   0.971  11.276 -0.6881 -1.9081 -1.5084
  111TMC2    H1 1698   2.212   0.652  11.548 -0.5445  0.1750  0.2717
  111TMC2    H2 1699   2.618   0.794  11.512  0.7213 -1.4171 -0.9391
  111TMC2    C7 1700   2.445   0.623  11.641 -0.1551 -0.1252 -0.5209
  111TMC2    C8 1701   2.567   0.961  11.315 -0.6286 -0.1814 -0.3842
  111TMC2    O1 1702   2.361   0.614  11.732 -0.1210  0.7126  0.2324
  111TMC2    O2 1703   2.526   1.074  11.277 -0.1439 -0.1224  0.0808
  111TMC2    O5 1704   2.693   0.925  11.335  0.3722 -0.3242  0.1548
  111TMC2    H5 1705   2.702   0.828  11.324 -1.3719 -0.5864  1.1086
  112MPD2     C 1706   1.623   0.908  11.494 -0.4117  0.5285 -0.0330
  112MPD2    C1 1707   1.705   0.942  11.393  0.3206 -0.6075 -0.5755
  112MPD2    C2 1708   1.832   0.901  11.383 -0.0770 -0.1795  0.0928
  112MPD2    C3 1709   1.891   0.832  11.483 -0.0493 -0.0853  0.0298
  112MPD2    C4 1710   1.816   0.798  11.590  0.8224 -0.5909 -0.2427
  112MPD2    C5 1711   1.681   0.826  11.592  0.1753 -0.5611 -0.4149
  112MPD2     H 1712   1.886   0.925  11.292  0.9263  1.9000  1.2231
  112MPD2    H1 1713   1.863   0.742  11.669  1.1849 -0.2170 -0.1942
  112MPD2    H2 1714   1.524   0.948  11.509 -0.2716  0.9124 -0.1343
  112MPD2    H3 1715   1.624   0.793  11.677 -0.5525  0.3258 -0.5554
  112MPD2     N 1716   2.026   0.791  11.484  0.2209  0.1786 -0.0430
  112MPD2    H5 1717   2.056   0.709  11.537  0.3325 -0.9625 -1.8693
  112MPD2    N1 1718   1.668   1.020  11.283 -0.6761  0.7330  0.6493
  112MPD2    H7 1719   1.728   1.023  11.201 -1.9448  0.8478 -0.2862
  113MPD2     C 1720   1.069   2.754   1.419 -0.1537 -0.3757  0.4025
  113MPD2    C1 1721   0.993   2.870   1.431  0.4029 -0.2948  0.2657
  113MPD2    C2 1722   0.959   2.933   1.313 -0.5869 -0.7848 -0.2486
  113MPD2    C3 1723   0.996   2.882   1.192  0.5275 -0.1744  0.6771
  113MPD2    C4 1724   1.076   2.768   1.186 -0.7653  0.3157  0.0463
  113MPD2    C5 1725   1.107   2.699   1.302 -0.2708  0.2704  0.1592
  113MPD2     H 1726   0.915   3.032   1.324 -0.2034 -0.5857 -0.5046
  113MPD2    H1 1727   1.108   2.726   1.091 -0.0478  0.2012  0.3339
  113MPD2    H2 1728   1.103   2.694   1.502  1.4343  0.6969  0.5238
  113MPD2    H3 1729   1.150   2.599   1.296 -2.3469 -0.7252  1.8496
  113MPD2     N 1730   0.957   2.950   1.074  0.4110  0.2698 -0.3332
  113MPD2    H5 1731   1.003   2.932   0.985 -0.1547 -0.5749 -0.4583
  113MPD2    N1 1732   0.957   2.927   1.557 -0.5352  0.0581 -0.3857
  113MPD2    H7 1733   0.898   3.010   1.560  1.6762  1.5790  2.2422
  114TCq2    C1 1734   0.859   3.044   1.060  0.9066 -0.8397  0.1066
  114TCq2    O2 1735   0.778   3.085   1.141 -0.5317  0.4465 -0.0496
  114TCq2    C2 1736   0.825   3.065   0.917  0.1740  0.6806  0.2107
  114TCq2    C3 1737   0.924   3.113   0.840  0.1510 -0.0377 -0.1052
  114TCq2    C4 1738   0.887   3.172   0.725  0.0408 -1.3012  0.0188
  114TCq2    C5 1739   0.751   3.188   0.694 -0.6989 -0.2914 -0.0571
  114TCq2    C6 1740   0.659   3.136   0.778 -0.3248 -0.0819 -0.0658
  114TCq2    C7 1741   0.688   3.076   0.900 -0.2758  0.6355  0.5817
  114TCq2    C8 1742   0.520   3.139   0.735  0.3003  0.5435 -0.5718
  114TCq2    O4 1743   0.489   3.232   0.667 -0.4598  0.4706  0.2283
  114TCq2    C9 1744   0.987   3.210   0.632  0.2930 -0.4179 -0.3256
  114TCq2    O5 1745   0.957   3.199   0.511 -0.2603 -0.2104  0.1626
  114TCq2    O6 1746   1.102   3.213   0.679 -0.0974  0.1547 -0.3902
  114TCq2    H2 1747   1.026   3.089   0.864  0.4908 -0.4325 -1.9613
  114TCq2    H3 1748   0.720   3.233   0.600  1.1805 -0.5954 -0.8323
  114TCq2    H4 1749   0.608   3.047   0.968  1.6651 -1.1310  2.1130
  115TMC2    C1 1750   1.601   1.002   0.244 -0.1686 -0.3254 -0.3269
  115TMC2    C2 1751   1.663   0.905   0.317 -0.1159 -0.2922 -0.5160
  115TMC2    C3 1752   1.730   0.948   0.423  0.2502 -0.1178  0.0696
  115TMC2    C4 1753   1.613   1.135   0.251 -0.1313  0.0995 -0.0211
  115TMC2    C5 1754   1.688   1.170   0.359  0.5614  0.4947 -0.0602
  115TMC2    C6 1755   1.740   1.078   0.449 -0.1751 -1.1487  0.0355
  115TMC2     C 1756   1.488   0.948   0.164  0.6838 -0.6082  0.5171
  115TMC2     O 1757   1.471   0.825   0.169  0.0683 -0.3553 -0.6997
  115TMC2     H 1758   1.657   0.800   0.290 -2.6914  0.2583 -2.0964
  115TMC2    H1 1759   1.574   1.206   0.180 -0.1313 -1.9558 -2.0547
  115TMC2    H2 1760   1.783   1.109   0.544 -0.0205  4.0431 -1.7212
  115TMC2    C7 1761   1.751   1.295   0.364 -0.0169  0.2669 -0.1593
  115TMC2    C8 1762   1.867   0.890   0.436 -0.4068  0.1900  0.3810
  115TMC2    O1 1763   1.826   1.319   0.463  0.0662  0.7577 -0.1352
  115TMC2    O2 1764   1.965   0.961   0.422 -0.3308 -0.4209 -0.6033
  115TMC2    O5 1765   1.858   0.781   0.517  0.5750  0.0577  0.4372
  115TMC2    H5 1766   1.766   0.753   0.536 -0.4112  2.1075 -1.4237
  116MPD2     C 1767   1.065   1.018  17.571  0.0951  0.2442  0.5890
  116MPD2    C1 1768   1.110   0.907  17.644  0.2822  0.5872  0.3971
  116MPD2    C2 1769   1.227   0.917   0.015  0.2938  0.2888 -0.5894
  116MPD2    C3 1770   1.305   1.031   0.006  0.1518  0.0448  0.0971
  116MPD2    C4 1771   1.251   1.142  17.632  0.1291 -0.1113  0.2893
  116MPD2    C5 1772   1.136   1.133  17.568 -0.0986 -0.8164  0.2778
  116MPD2     H 1773   1.268   0.831   0.067 -3.0873 -1.1659 -0.2878
  116MPD2    H1 1774   1.302   1.238  17.625 -2.4999  1.3443  1.1186
  116MPD2    H2 1775   0.971   1.013  17.517  0.4049  2.0727 -0.1347
  116MPD2    H3 1776   1.106   1.217  17.506 -2.7041 -1.0786  1.1974
  116MPD2     N 1777   1.420   1.048   0.094  0.0754 -0.3802  0.2521
  116MPD2    H5 1778   1.473   1.135   0.101  1.9949 -1.5652  0.3849
  116MPD2    N1 1779   1.024   0.797  17.665  0.1379 -0.6984  0.3941
  116MPD2    H7 1780   0.930   0.807  17.628  0.1908  0.3888  0.5527
  117TMC2    C1 1781   4.507   2.971  14.035  0.5921  0.3799 -0.3736
  117TMC2    C2 1782   4.503   2.922  14.165 -0.2600  0.1226  0.1517
  117TMC2    C3 1783   4.619   2.910  14.233  0.0947 -0.0247 -1.0187
  117TMC2    C4 1784   4.629   3.004  13.978 -0.1375  0.6008  0.5387
  117TMC2    C5 1785   0.018   2.994  14.053 -0.1664  0.8102  0.1194
  117TMC2    C6 1786   0.014   2.959  14.185  0.0568 -0.1017  0.2673
  117TMC2     C 1787   4.389   3.039  13.990  0.8795 -0.7768 -0.6951
  117TMC2     O 1788   4.405   3.137  13.920  0.4124  0.0448 -0.1611
  117TMC2     H 1789   4.412   2.874  14.199  1.3144 -2.3780  0.8674
  117TMC2    H1 1790   4.635   3.061  13.885 -0.8560 -1.1904 -0.6062
  117TMC2    H2 1791   0.105   2.964  14.243 -0.0172 -2.9383  0.5974
  117TMC2    C7 1792   0.110   3.106  14.016  0.3780 -0.1087  0.8324
  117TMC2    C8 1793   4.630   2.849  14.360  0.9686 -0.2259 -0.0088
  117TMC2    O1 1794   0.154   3.098  13.901  0.7594 -0.0693 -0.4018
  117TMC2    O2 1795   4.535   2.827  14.433  0.2053 -0.0623  0.1064
  117TMC2    O5 1796   0.032   2.790  14.369  0.0177  0.1885  0.0244
  117TMC2    H5 1797   0.096   2.797  14.295 -0.1886  0.6012 -0.1176
  118MPD2     C 1798   0.198   3.391  14.224 -0.1522  0.1428  0.3085
  118MPD2    C1 1799   0.176   3.324  14.109  0.5444 -0.8577 -0.0042
  118MPD2    C2 1800   0.211   3.379  13.992  0.1857 -0.4887 -0.1548
  118MPD2    C3 1801   0.262   3.507  13.982 -0.3282 -0.5333 -0.6778
  118MPD2    C4 1802   0.281   3.574  14.100 -0.2165  0.5328 -0.3541
  118MPD2    C5 1803   0.247   3.520  14.217  0.2776 -0.0257 -0.3181
  118MPD2     H 1804   0.200   3.319  13.902  1.1630 -2.3841  0.9818
  118MPD2    H1 1805   0.327   3.672  14.104  1.4407 -0.2095 -0.9251
  118MPD2    H2 1806   0.175   3.344  14.319 -1.3905 -0.7388 -0.4508
  118MPD2    H3 1807   0.258   3.567  14.314 -2.2352 -0.0858 -0.0248
  118MPD2     N 1808   0.324   3.553  13.869  0.7198  0.0468 -0.2772
  118MPD2    H5 1809   0.404   3.615  13.876 -0.2489  1.0578  2.0560
  118MPD2    N1 1810   0.127   3.194  14.123  0.0590 -0.2540 -0.2465
  118MPD2    H7 1811   0.087   3.165  14.212  0.1538 -0.4595 -0.2716
  119MPD2     C 1812   2.828   0.090  14.282  0.4090  0.1726 -0.1395
  119MPD2    C1 1813   2.925   4.716  14.263 -0.1397  0.1551  0.6633
  119MPD2    C2 1814   2.943   4.668  14.138 -0.1096  0.3115  0.1311
  119MPD2    C3 1815   2.861   4.709  14.034 -0.0176 -0.4185  0.3347
  119MPD2    C4 1816   2.755   0.065  14.058  0.8025 -0.4811 -0.5552
  119MPD2    C5 1817   2.743   0.123  14.181  0.0556  0.1832  0.1983
  119MPD2     H 1818   3.025   4.598  14.139 -0.4345 -0.0888 -1.0082
  119MPD2    H1 1819   2.681   0.087  13.982  0.7537 -1.0808 -0.6806
  119MPD2    H2 1820   2.808   0.128  14.381  0.1984  0.7530 -0.4064
  119MPD2    H3 1821   2.668   0.202  14.189  1.9859  1.8836  1.5491
  119MPD2     N 1822   2.881   4.657  13.905  0.6040 -0.0820 -0.6563
  119MPD2    H5 1823   2.809   4.677  13.837 -0.1898  1.6881  0.7113
  119MPD2    N1 1824   3.015   4.676  14.362  0.0298 -0.6894 -0.8257
  119MPD2    H7 1825   3.101   4.626  14.343  0.4332  0.5162 -2.1974
  120TCq2    C1 1826   2.979   4.562  13.876 -0.5587  0.3440 -0.2575
  120TCq2    O2 1827   3.089   4.539  13.917 -0.5410 -0.2626 -0.2640
  120TCq2    C2 1828   2.958   4.505  13.751 -0.8111  0.4990 -0.1094
  120TCq2    C3 1829   3.068   4.476  13.681 -0.2728  0.1709  0.8340
  120TCq2    C4 1830   3.048   4.396  13.578  0.9395 -0.2144 -0.2076
  120TCq2    C5 1831   2.937   4.317  13.555 -0.4447  0.3347  0.2544
  120TCq2    C6 1832   2.837   4.325  13.642  0.2775  0.7703  0.5575
  120TCq2    C7 1833   2.846   4.426  13.741  0.2652 -0.0026  0.4956
  120TCq2    C8 1834   2.731   4.217  13.646  0.2469 -0.3268  0.1873
  120TCq2    O4 1835   2.734   4.148  13.545  0.4518  0.1275 -0.2621
  120TCq2    C9 1836   3.150   4.397  13.478  0.3546 -0.5485 -0.2209
  120TCq2    O5 1837   3.153   4.292  13.406 -0.3833 -0.0320 -0.1671
  120TCq2    O6 1838   3.248   4.472  13.501  0.0722  0.0518 -0.6256
  120TCq2    H2 1839   3.161   4.531  13.693  1.5371 -2.4723 -1.2489
  120TCq2    H3 1840   2.936   4.242  13.476  0.1969 -0.5160  1.0616
  120TCq2    H4 1841   2.757   4.452  13.796 -0.0718 -0.1942  0.0423
  121TMC2    C1 1842   4.603   0.986  13.853 -0.6087  1.3119  0.3921
  121TMC2    C2 1843   4.597   0.966  13.719 -0.0496 -0.6747 -0.7262
  121TMC2    C3 1844   4.479   0.940  13.658 -1.2879 -0.4506  0.4780
  121TMC2    C4 1845   4.495   0.959  13.934 -0.1317  0.4672 -0.2256
  121TMC2    C5 1846   4.380   0.946  13.867 -0.5474 -0.4719 -0.6183
  121TMC2    C6 1847   4.365   0.957  13.728  0.3047 -0.5268 -0.5151
  121TMC2     C 1848   4.688   1.095  13.909  0.6670 -0.4429 -0.0743
  121TMC2     O 1849   4.686   1.117  14.027 -0.1887  0.1393 -0.4590
  121TMC2     H 1850   4.691   0.976  13.666  0.5786  1.4183  0.7410
  121TMC2    H1 1851   4.504   0.958  14.042 -1.3215  0.8961 -0.1301
  121TMC2    H2 1852   4.265   0.925  13.699 -1.2619  1.7425  2.2908
  121TMC2    C7 1853   4.263   0.945  13.953 -0.0549 -0.7191  1.0372
  121TMC2    C8 1854   4.473   0.964  13.520 -0.2177  0.5479 -0.7706
  121TMC2    O1 1855   4.277   0.913  14.074  0.0963  0.2388  0.3959
  121TMC2    O2 1856   4.368   1.003  13.469 -0.0764 -0.1372 -0.6705
  121TMC2    O5 1857   4.572   0.887  13.462 -0.1658  0.1589  0.3511
  121TMC2    H5 1858   4.637   0.854  13.528 -0.8728  0.7576  1.3471
  122MPD2     C 1859   0.146   1.338  13.935 -0.3659 -0.1333  0.7640
  122MPD2    C1 1860   0.106   1.285  13.813 -0.2490 -0.2631 -0.6692
  122MPD2    C2 1861   0.167   1.333  13.699 -0.5748 -0.0795 -0.3895
  122MPD2    C3 1862   0.257   1.438  13.700 -0.2325  0.7607 -0.4001
  122MPD2    C4 1863   0.287   1.497  13.818  0.6372 -0.3944 -0.3324
  122MPD2    C5 1864   0.228   1.446  13.932 -0.7489 -0.7544  0.4826
  122MPD2     H 1865   0.149   1.285  13.603 -1.3072 -0.6527  0.0305
  122MPD2    H1 1866   0.343   1.590  13.825 -0.0288  0.0088 -0.3974
  122MPD2    H2 1867   0.104   1.310  14.031 -2.4401  1.0050  0.1786
  122MPD2    H3 1868   0.243   1.498  14.026 -1.1102  1.9420 -0.9545
  122MPD2     N 1869   0.324   1.500  13.589  0.2427 -0.1615  0.4969
  122MPD2    H5 1870   0.389   1.576  13.605 -0.6701  0.9791 -1.1174
  122MPD2    N1 1871   0.016   1.174  13.805  0.0147  0.6156  0.4394
  122MPD2    H7 1872   4.720   1.148  13.709 -0.3953  0.4384  0.5723
  123MPD2     C 1873   2.245   0.863   9.815  0.1145  0.8298  0.2492
  123MPD2    C1 1874   2.206   0.789   9.701  0.3571  0.3175 -0.0239
  123MPD2    C2 1875   2.300   0.701   9.645 -0.5879 -0.2576 -0.3203
  123MPD2    C3 1876   2.435   0.689   9.683  0.3992  0.2541 -0.0951
  123MPD2    C4 1877   2.469   0.760   9.791 -0.3066  0.1931  0.3471
  123MPD2    C5 1878   2.378   0.840   9.856  0.3059 -0.1065  1.0062
  123MPD2     H 1879   2.273   0.633   9.565  0.6144 -2.1233  0.8574
  123MPD2    H1 1880   2.566   0.787   9.833  0.0966  0.6404 -0.8743
  123MPD2    H2 1881   2.176   0.926   9.870 -1.0549  1.7275 -2.2139
  123MPD2    H3 1882   2.409   0.897   9.942  1.7952  0.3276  0.1753
  123MPD2     N 1883   2.515   0.598   9.614  0.4896  0.2540 -0.5064
  123MPD2    H5 1884   2.478   0.524   9.555 -0.2528 -1.1839  1.7226
  123MPD2    N1 1885   2.081   0.810   9.643  0.3045  0.3576 -0.7502
  123MPD2    H7 1886   2.035   0.891   9.684 -1.1792 -0.8699  0.0398
  124TCq2    C1 1887   2.647   0.604   9.618 -0.0081  0.6007 -0.0261
  124TCq2    O2 1888   2.714   0.691   9.673 -0.1211 -0.0673 -0.0085
  124TCq2    C2 1889   2.697   0.519   9.521 -0.1810 -0.1107 -0.9463
  124TCq2    C3 1890   2.811   0.552   9.451 -0.0974  0.0350 -0.7370
  124TCq2    C4 1891   2.850   0.481   9.344  0.0270  0.1547  0.1733
  124TCq2    C5 1892   2.784   0.367   9.313  0.6530  0.0493 -0.5283
  124TCq2    C6 1893   2.666   0.337   9.385  0.5576  0.4552 -0.4565
  124TCq2    C7 1894   2.629   0.408   9.488  0.2404 -0.5216 -0.1228
  124TCq2    C8 1895   2.607   0.207   9.367  0.1750  0.0855  0.5631
  124TCq2    O4 1896   2.661   0.125   9.296  0.3261 -0.1900  0.2648
  124TCq2    C9 1897   2.964   0.529   9.270  0.6917  0.2321  0.0535
  124TCq2    O5 1898   2.997   0.649   9.292 -0.4350 -0.1362  0.0979
  124TCq2    O6 1899   3.016   0.446   9.189  0.2662 -0.6319  0.7702
  124TCq2    H2 1900   2.869   0.639   9.478 -1.4349  0.6862  0.0332
  124TCq2    H3 1901   2.813   0.309   9.226 -0.9329 -2.8003  0.8537
  124TCq2    H4 1902   2.558   0.362   9.556 -0.0048 -1.3421 -0.9429
  125TMC2    C1 1903   4.066   4.343   9.291 -0.2854 -0.7928 -0.3787
  125TMC2    C2 1904   3.996   4.325   9.176  0.5531 -0.2220 -0.6419
  125TMC2    C3 1905   3.992   4.430   9.087 -0.1424  0.3465  0.3524
  125TMC2    C4 1906   4.124   4.464   9.317  0.3244 -0.0460 -0.3285
  125TMC2    C5 1907   4.117   4.562   9.227 -0.1015  0.6390 -0.6532
  125TMC2    C6 1908   4.047   4.551   9.115  0.0624 -0.8408  0.0467
  125TMC2     C 1909   4.037   4.248   9.398  0.1810 -0.0713  0.0976
  125TMC2     O 1910   3.940   4.176   9.381 -0.1033  0.4662 -0.2925
  125TMC2     H 1911   3.961   4.226   9.149 -0.9185 -0.5756  2.5372
  125TMC2    H1 1912   4.181   4.473   9.409 -3.0511  0.6987  1.6764
  125TMC2    H2 1913   4.049   4.637   9.049 -0.6572 -3.2117 -3.0969
  125TMC2    C7 1914   4.162   4.694   9.273  0.0735  0.2718 -0.3362
  125TMC2    C8 1915   3.931   4.414   8.961  0.2649 -0.2995 -0.7455
  125TMC2    O1 1916   4.267   4.695   9.341  0.0719 -0.6481 -0.7952
  125TMC2    O2 1917   3.897   4.516   8.907  0.8254  0.7425 -0.0363
  125TMC2    O5 1918   3.982   4.304   8.900  0.5331  0.1933 -0.5349
  125TMC2    H5 1919   4.029   4.241   8.960  0.5116  1.1549  0.4972
  126MPD1     C 1920   4.064   4.082   9.882 -0.1444  0.0041  0.3638
  126MPD1    C1 1921   4.146   4.190   9.869  0.2359 -0.0741  0.4133
  126MPD1    C2 1922   4.158   4.245   9.742  0.3162 -0.0279 -0.2081
  126MPD1    C3 1923   4.094   4.200   9.631  0.1607 -0.1754  0.2526
  126MPD1    C4 1924   4.005   4.098   9.647 -0.2862 -0.3078 -0.3526
  126MPD1    C5 1925   3.996   4.038   9.771 -0.6054  0.1170  0.3418
  126MPD1     H 1926   4.215   4.337   9.731  0.0846  0.1286 -0.1075
  126MPD1    H1 1927   3.955   4.048   9.565  0.5547 -0.8013 -0.5605
  126MPD1    H2 1928   4.045   4.029   9.975 -2.5773 -1.5078 -0.9819
  126MPD1    H3 1929   3.928   3.957   9.798 -0.0797  0.1331  1.7266
  126MPD1     N 1930   4.114   4.263   9.509 -0.3474  0.2493  0.0345
  126MPD1    H5 1931   4.178   4.342   9.518 -2.9947  2.2059  1.6532
  126MPD1    N1 1932   4.204   4.259   9.975 -0.0099 -0.3159 -0.0522
  126MPD1    H6 1933   4.218   4.205  10.061 -1.4318  0.6247  0.7780
  126MPD1    H7 1934   4.284   4.313   9.944  0.9417 -1.6169  0.1445
  127MPD2     C 1935   0.004   0.303   9.439  0.4550  0.2637 -0.5474
  127MPD2    C1 1936   0.085   0.323   9.546  0.0673 -0.2827 -0.8004
  127MPD2    C2 1937   0.076   0.450   9.611 -0.9780  0.1167  0.4961
  127MPD2    C3 1938   4.707   0.544   9.572  0.6621  0.5057  0.0105
  127MPD2    C4 1939   4.620   0.509   9.473 -0.2326  0.0604  0.1731
  127MPD2    C5 1940   4.629   0.391   9.410 -1.0597 -0.0075 -0.6061
  127MPD2     H 1941   0.151   0.474   9.686 -1.1705  0.0152  0.7194
  127MPD2    H1 1942   4.529   0.565   9.455  0.7991  1.5153 -0.4560
  127MPD2    H2 1943   0.011   0.216   9.374 -0.8488  1.3200 -2.1134
  127MPD2    H3 1944   4.564   0.362   9.328 -1.4839 -2.2031  0.5141
  127MPD2     N 1945   4.697   0.670   9.636  0.0642 -0.9157  0.5176
  127MPD2    H5 1946   0.015   0.673   9.728 -1.6574 -1.4689  1.3034
  127MPD2    N1 1947   0.184   0.228   9.586 -0.3164  0.4476  0.0953
  127MPD2    H7 1948   0.260   0.253   9.649 -0.4087  0.0399  0.3633
  128TCq2    C1 1949   0.175   0.097   9.556  0.6114 -0.8168  0.4689
  128TCq2    O2 1950   0.074   0.038   9.514  0.4502 -0.4715  0.3412
  128TCq2    C2 1951   0.281   0.018   9.614  0.8496 -1.2321 -0.4301
  128TCq2    C3 1952   0.406   0.074   9.643 -1.0600  0.5338  0.6788
  128TCq2    C4 1953   0.507   4.706   9.668  0.9777  0.5294  0.6559
  128TCq2    C5 1954   0.491   4.571   9.674  0.8982  0.0981  1.2271
  128TCq2    C6 1955   0.364   4.523   9.649  0.5190 -0.2769 -0.3089
  128TCq2    C7 1956   0.259   4.607   9.621 -0.3383 -0.8125 -0.1876
  128TCq2    C8 1957   0.327   4.390   9.694 -0.5977  0.3584 -0.0177
  128TCq2    O4 1958   0.374   4.356   9.800 -0.2959 -0.0689  0.3256
  128TCq2    C9 1959   0.637   0.041   9.705  0.3792  0.4118 -1.0423
  128TCq2    O5 1960   0.734   4.690   9.728  0.3373  0.2456 -0.4686
  128TCq2    O6 1961   0.638   0.163   9.735  0.1769  0.4433 -0.1516
  128TCq2    H2 1962   0.432   0.179   9.632  1.0909 -0.0743 -0.1302
  128TCq2    H3 1963   0.569   4.508   9.716  1.8346  0.8184  0.5658
  128TCq2    H4 1964   0.164   4.557   9.604 -0.6840 -0.5536  0.9635
  129MPD2     C 1965   2.688   1.012   1.628  0.3475 -0.9564  0.0597
  129MPD2    C1 1966   2.794   0.960   1.703 -0.1762 -0.2381  0.5992
  129MPD2    C2 1967   2.901   1.043   1.731 -0.1668  0.3812  0.2121
  129MPD2    C3 1968   2.907   1.175   1.697  0.1716  0.3076 -0.0165
  129MPD2    C4 1969   2.798   1.229   1.637 -0.2588  0.3338  0.6025
  129MPD2    C5 1970   2.692   1.146   1.604  0.5530 -0.4836  0.3335
  129MPD2     H 1971   2.991   0.998   1.773 -1.4042 -2.8279 -0.5731
  129MPD2    H1 1972   2.797   1.336   1.616 -1.9291  0.2226  0.0885
  129MPD2    H2 1973   2.602   0.951   1.602  0.3778 -1.5929  1.4216
  129MPD2    H3 1974   2.608   1.197   1.558  0.6096 -0.4917  0.2192
  129MPD2     N 1975   3.014   1.254   1.730  0.3594 -0.1961 -0.7418
  129MPD2    H5 1976   3.077   1.209   1.796  0.8414  2.2634  0.5040
  129MPD2    N1 1977   2.807   0.821   1.743 -0.2134  0.0721  0.3695
  129MPD2    H7 1978   2.874   0.806   1.818  1.1472 -1.6383 -1.1925
  130TCq2    C1 1979   2.708   0.732   1.713  0.6192 -0.0691  0.4615
  130TCq2    O2 1980   2.596   0.730   1.665 -0.3255 -0.2973 -0.0367
  130TCq2    C2 1981   2.740   0.605   1.784  0.1070 -0.1649  0.9643
  130TCq2    C3 1982   2.875   0.574   1.790 -0.2212 -0.4270  0.1065
  130TCq2    C4 1983   2.906   0.439   1.815  0.1762  0.1813  1.0405
  130TCq2    C5 1984   2.820   0.336   1.816 -0.5005  0.3841  0.2440
  130TCq2    C6 1985   2.685   0.376   1.784  0.2423 -0.3144 -0.1434
  130TCq2    C7 1986   2.646   0.504   1.775 -0.6558 -0.5961 -0.7967
  130TCq2    C8 1987   2.581   0.275   1.803  0.3692  0.0020  0.1741
  130TCq2    O4 1988   2.467   0.318   1.799  0.3592 -0.3248 -0.1571
  130TCq2    C9 1989   3.043   0.411   1.839  0.0072  0.1639 -0.5200
  130TCq2    O5 1990   3.083   0.295   1.837 -0.0417  0.0985 -0.1189
  130TCq2    O6 1991   3.120   0.515   1.864  0.0073 -0.3224 -0.1810
  130TCq2    H2 1992   2.959   0.639   1.773  0.6244 -1.2195  1.2213
  130TCq2    H3 1993   2.857   0.234   1.809  2.2921  1.3861  0.2741
  130TCq2    H4 1994   2.541   0.530   1.783 -0.6162 -0.4287 -0.8121
  131MPD2     C 1995   1.247   0.336   9.370 -0.4256 -0.1047  0.5832
  131MPD2    C1 1996   1.378   0.290   9.363  0.0961  0.9923  0.0148
  131MPD2    C2 1997   1.485   0.382   9.351 -0.1992 -1.1140 -0.4425
  131MPD2    C3 1998   1.459   0.513   9.381  0.5012  0.2257 -0.0975
  131MPD2    C4 1999   1.328   0.555   9.396  0.5742 -0.1551  0.6208
  131MPD2    C5 2000   1.226   0.470   9.397  0.4703  0.5860 -0.4924
  131MPD2     H 2001   1.591   0.363   9.337 -0.2180 -1.6450  0.1042
  131MPD2    H1 2002   1.301   0.655   9.430  0.5908  0.3215 -0.7456
  131MPD2    H2 2003   1.157   0.277   9.363  0.1023 -0.7230 -1.1739
  131MPD2    H3 2004   1.129   0.507   9.429 -0.1849  0.0604 -1.8799
  131MPD2     N 2005   1.566   0.598   9.383  0.1713 -0.0765 -0.3721
  131MPD2    H5 2006   1.658   0.562   9.362  0.9354  1.0200  1.1201
  131MPD2    N1 2007   1.389   0.158   9.346  0.0142  0.2326 -0.2815
  131MPD2    H7 2008   1.311   0.097   9.324  0.4713 -0.2305 -0.6255
  132TCq2    C1 2009   1.727   4.400   9.447  0.0400 -0.2918 -0.1395
  132TCq2    O2 2010   1.713   4.280   9.423  0.3430 -0.1389 -0.2477
  132TCq2    C2 2011   1.632   4.487   9.378  0.0523 -0.3147  0.7372
  132TCq2    C3 2012   1.544   4.419   9.298  0.3811  0.1517  0.0887
  132TCq2    C4 2013   1.452   4.502   9.227 -0.4017 -0.7386 -0.5811
  132TCq2    C5 2014   1.442   4.633   9.247 -1.0944 -0.5051 -0.7125
  132TCq2    C6 2015   1.528   4.687   9.338 -0.1091  0.1817 -0.0995
  132TCq2    C7 2016   1.620   4.619   9.398 -0.4157  0.1038  0.0128
  132TCq2    C8 2017   1.517   0.107   9.365 -0.0917 -0.3143 -0.1480
  132TCq2    O4 2018   1.611   0.157   9.428  0.3835  0.4896 -0.0927
  132TCq2    C9 2019   1.374   4.440   9.129  0.1717  0.2902  0.3503
  132TCq2    O5 2020   1.290   4.516   9.067  0.0156  0.3897  0.1462
  132TCq2    O6 2021   1.379   4.316   9.116 -0.1770 -0.1714 -0.3490
  132TCq2    H2 2022   1.549   4.313   9.277  0.8025  0.3383 -0.7510
  132TCq2    H3 2023   1.361   4.686   9.199 -1.1260  1.0523  1.0510
  132TCq2    H4 2024   1.661   4.656   9.491  1.1485 -0.1551 -0.5697
  133MPD2     C 2025   1.688   4.354   9.866 -0.5917  0.4888 -0.2132
  133MPD2    C1 2026   1.592   4.348   9.765  0.1242 -0.6236  0.2539
  133MPD2    C2 2027   1.519   4.459   9.735 -0.3506  0.1725 -0.7616
  133MPD2    C3 2028   1.562   4.585   9.786 -0.6902 -0.5050 -0.8086
  133MPD2    C4 2029   1.663   4.593   9.877  0.0494  0.5655  0.1400
  133MPD2    C5 2030   1.726   4.479   9.914 -0.8773 -0.0589  0.2471
  133MPD2     H 2031   1.434   4.452   9.668 -1.7645  0.0076  1.0484
  133MPD2    H1 2032   1.702   4.685   9.919  0.1825  1.7530 -2.5318
  133MPD2    H2 2033   1.733   4.264   9.907 -0.7281  0.5338  0.0326
  133MPD2    H3 2034   1.808   4.481   9.985  0.5590 -0.9440 -1.4041
  133MPD2     N 2035   1.495   4.703   9.767 -0.1905 -0.6081  0.8363
  133MPD2    H5 2036   1.533   0.061   9.814 -0.2420 -0.8651  1.3230
  133MPD2    N1 2037   1.561   4.215   9.728  0.2174  0.5566  0.0962
  133MPD2    H7 2038   1.625   4.142   9.755 -0.4465  0.2600  0.8717
  134TCq2    C1 2039   1.442   4.177   9.659  0.0417 -0.3612 -0.7022
  134TCq2    O2 2040   1.342   4.242   9.630  0.8538 -0.6226  0.1706
  134TCq2    C2 2041   1.443   4.037   9.639 -0.3584  0.1493 -1.1414
  134TCq2    C3 2042   1.563   3.969   9.645  0.3850 -0.3444 -0.2638
  134TCq2    C4 2043   1.560   3.837   9.616  0.1849  0.1618  0.1247
  134TCq2    C5 2044   1.445   3.759   9.620  0.8584  0.2017 -0.6175
  134TCq2    C6 2045   1.327   3.833   9.633  0.0283  1.0020 -0.1267
  134TCq2    C7 2046   1.321   3.973   9.632 -0.2602  0.5376  0.4955
  134TCq2    C8 2047   1.209   3.756   9.657  0.0974  0.2802 -0.1155
  134TCq2    O4 2048   1.204   3.637   9.635  0.2843 -0.1239 -0.0243
  134TCq2    C9 2049   1.683   3.765   9.583  0.1774 -0.0898  0.2700
  134TCq2    O5 2050   1.661   3.650   9.536  0.2177  0.4505  0.1165
  134TCq2    O6 2051   1.794   3.824   9.595  0.0919 -0.1563 -0.1538
  134TCq2    H2 2052   1.660   4.019   9.645 -0.3022  0.9997 -0.0588
  134TCq2    H3 2053   1.446   3.650   9.618  0.6907  0.2137 -1.2982
  134TCq2    H4 2054   1.231   4.035   9.632 -0.8356 -0.2948  1.2324
  135MPD2     C 2055   3.957   1.703   9.736 -0.1976  0.0662 -0.5371
  135MPD2    C1 2056   3.914   1.636   9.618  0.4704 -0.0152  0.2658
  135MPD2    C2 2057   4.012   1.584   9.534 -0.5002  0.7763  0.0215
  135MPD2    C3 2058   4.147   1.582   9.572  0.7566 -0.0301  0.6282
  135MPD2    C4 2059   4.193   1.652   9.685  0.2779 -0.3664 -0.1675
  135MPD2    C5 2060   4.091   1.705   9.765  0.1109 -0.0081 -0.2911
  135MPD2     H 2061   3.987   1.535   9.441  1.5850 -0.7223  0.2500
  135MPD2    H1 2062   4.299   1.660   9.706  0.5204 -3.3215 -0.2550
  135MPD2    H2 2063   3.886   1.763   9.793  1.3163  2.3435 -1.0698
  135MPD2    H3 2064   4.125   1.764   9.849 -0.5153 -0.7451  0.4826
  135MPD2     N 2065   4.240   1.504   9.502  0.2938 -0.0942  0.7554
  135MPD2    H5 2066   4.332   1.499   9.544  0.8244  1.2542 -0.2327
  135MPD2    N1 2067   3.774   1.620   9.581  0.4052 -0.1724 -0.8998
  135MPD2    H7 2068   3.741   1.558   9.508 -0.3339 -1.7574  0.7745
  136TCq2    C1 2069   3.669   1.693   9.640  0.1045 -0.0690  0.1868
  136TCq2    O2 2070   3.658   1.765   9.739  0.1663  0.5808  0.4542
  136TCq2    C2 2071   3.539   1.663   9.578  1.5291 -0.1690 -0.1290
  136TCq2    C3 2072   3.519   1.599   9.455  0.6488 -0.6982  1.4266
  136TCq2    C4 2073   3.397   1.557   9.427  0.0664  0.7304 -0.1885
  136TCq2    C5 2074   3.294   1.567   9.518  0.1545  0.5978 -0.9299
  136TCq2    C6 2075   3.320   1.630   9.632  0.1905  0.4462 -0.6245
  136TCq2    C7 2076   3.440   1.682   9.669 -0.0356 -0.2467 -0.2259
  136TCq2    C8 2077   3.214   1.631   9.730 -0.2133  0.2285  0.3327
  136TCq2    O4 2078   3.196   1.744   9.778  0.2608  0.8756  0.0178
  136TCq2    C9 2079   3.370   1.493   9.301 -0.1050  0.1780  0.0035
  136TCq2    O5 2080   3.469   1.433   9.243  0.3709 -0.2721 -0.1291
  136TCq2    O6 2081   3.260   1.490   9.254  0.3111 -0.3489  0.3733
  136TCq2    H2 2082   3.603   1.567   9.394 -0.0442  1.0414 -0.4607
  136TCq2    H3 2083   3.193   1.530   9.498 -0.0382  0.4246  0.3510
  136TCq2    H4 2084   3.451   1.738   9.761 -1.9575 -1.3179  0.6602
  137MPD2     C 2085   4.014   4.617  10.101 -0.0133 -0.4906  0.1362
  137MPD2    C1 2086   3.891   4.679  10.096 -0.0118  0.9653 -0.0318
  137MPD2    C2 2087   3.875   0.072  10.171 -0.2398  0.2058  0.8692
  137MPD2    C3 2088   3.968   0.109  10.265  0.2738  0.6928 -0.1614
  137MPD2    C4 2089   4.093   0.048  10.263 -0.1440 -0.5978  0.1595
  137MPD2    C5 2090   4.114   4.669  10.181 -0.3612  0.4512 -0.1121
  137MPD2     H 2091   3.778   0.120  10.170  0.7156  2.1450 -0.0980
  137MPD2    H1 2092   4.186   0.084  10.306 -0.0030  0.8863 -1.4026
  137MPD2    H2 2093   4.048   4.524  10.055 -0.1177 -0.6960  0.4778
  137MPD2    H3 2094   4.216   4.634  10.169  0.1583  1.4909  1.3230
  137MPD2     N 2095   3.941   0.222  10.353 -1.1955  0.7046 -0.4949
  137MPD2    H5 2096   3.846   0.259  10.353 -1.4891 -0.0461 -0.1194
  137MPD2    N1 2097   3.788   4.629  10.017 -0.0290  0.0691  0.1055
  137MPD2    H7 2098   3.812   4.542   9.971  1.2552 -0.2403  1.3548
  138TCq2    C1 2099   3.677   4.689   9.974  0.2653  0.5615 -0.0047
  138TCq2    O2 2100   3.647   0.082   9.993  0.2823  0.3858  0.3292
  138TCq2    C2 2101   3.588   4.604   9.894 -0.1502 -0.1875 -0.6595
  138TCq2    C3 2102   3.579   4.468   9.910 -0.6120  0.3430 -0.0522
  138TCq2    C4 2103   3.482   4.403   9.838 -0.1803 -0.1026  0.8492
  138TCq2    C5 2104   3.399   4.466   9.754  0.5075 -0.2851 -0.6517
  138TCq2    C6 2105   3.405   4.602   9.745 -0.6427 -0.3692  0.4972
  138TCq2    C7 2106   3.500   4.673   9.814 -0.2641 -0.1349  0.0472
  138TCq2    C8 2107   3.298   4.678   9.685  0.6638  0.2812 -0.0968
  138TCq2    O4 2108   3.325   0.060   9.634 -0.4163  0.6653  0.2627
  138TCq2    C9 2109   3.467   4.268   9.858  0.4060 -0.1326 -0.7659
  138TCq2    O5 2110   3.366   4.219   9.797  0.6475 -0.2586 -0.3172
  138TCq2    O6 2111   3.535   4.205   9.945  0.5816  0.2563  0.0778
  138TCq2    H2 2112   3.638   4.409   9.979  0.2968 -0.3952 -1.4691
  138TCq2    H3 2113   3.331   4.404   9.697  1.3087 -0.7097 -1.1308
  138TCq2    H4 2114   3.508   0.057   9.809 -0.9456 -0.0007  1.8200
  139TMC2    C1 2115   4.064   4.121  13.324  0.0664  0.5417 -0.5759
  139TMC2    C2 2116   4.096   4.179  13.208 -0.2493 -0.6475  0.1194
  139TMC2    C3 2117   4.024   4.288  13.171 -0.4124 -0.1240  0.6864
  139TMC2    C4 2118   3.960   4.168  13.401 -0.1480  0.1626 -0.3403
  139TMC2    C5 2119   3.878   4.263  13.346  0.4384  0.0293  0.3536
  139TMC2    C6 2120   3.915   4.327  13.239  0.0559 -0.7387 -0.0847
  139TMC2     C 2121   4.132   3.991  13.349  0.6474 -0.6999  0.2393
  139TMC2     O 2122   4.187   3.925  13.260  0.0462  0.2440 -0.2617
  139TMC2     H 2123   4.171   4.133  13.145  3.4049  3.6547  1.2847
  139TMC2    H1 2124   3.932   4.111  13.489  3.3166 -0.0532  0.6416
  139TMC2    H2 2125   3.865   4.419  13.210  0.5485  0.1193  1.7858
  139TMC2    C7 2126   3.793   4.338  13.436 -0.0723  0.0151  0.0556
  139TMC2    C8 2127   4.044   4.347  13.038  0.2216  0.7060 -0.0001
  139TMC2    O1 2128   3.705   4.408  13.385  0.1434 -0.1585 -0.1053
  139TMC2    O2 2129   3.946   4.381  12.968  0.0740  0.4183  0.3505
  139TMC2    O5 2130   4.170   4.357  13.015  0.5116 -0.0048 -0.1524
  139TMC2    H5 2131   4.233   4.340  13.088 -0.5285  2.2100  1.2482
  140MPD2     C 2132   4.229   3.866  13.690 -0.2719 -0.2070  0.1595
  140MPD2    C1 2133   4.220   3.862  13.551  0.4905 -0.9454  0.3941
  140MPD2    C2 2134   4.274   3.752  13.487  0.0908  0.2683  0.0441
  140MPD2    C3 2135   4.354   3.659  13.555  0.4889  0.3216  0.6155
  140MPD2    C4 2136   4.361   3.663  13.694 -0.2724  0.1119 -0.7212
  140MPD2    C5 2137   4.295   3.765  13.758 -0.3566  0.9179  0.1697
  140MPD2     H 2138   4.265   3.749  13.379  2.0748  1.2598 -0.1431
  140MPD2    H1 2139   4.417   3.594  13.757  1.5027  1.1387 -1.1640
  140MPD2    H2 2140   4.191   3.947  13.753 -1.3689 -0.2998 -0.3781
  140MPD2    H3 2141   4.297   3.766  13.866  2.9253 -0.2842  0.1164
  140MPD2     N 2142   4.415   3.564  13.473  0.5442  0.1013 -0.2326
  140MPD2    H5 2143   4.372   3.555  13.381  0.7405 -0.0824 -0.3057
  140MPD2    N1 2144   4.139   3.964  13.483 -0.0418 -0.2119  0.8833
  140MPD2    H7 2145   4.100   4.035  13.544 -0.0991  0.7814 -0.2844
  141TCq2    C1 2146   0.454   0.334  14.280  0.1190 -0.3136 -0.9040
  141TCq2    O2 2147   0.380   0.409  14.224 -0.0763  0.6783 -0.4638
  141TCq2    C2 2148   0.471   0.369  14.418 -0.7901  0.0097 -0.6873
  141TCq2    C3 2149   0.431   0.280  14.515  0.5929  0.0806 -0.2473
  141TCq2    C4 2150   0.403   0.316  14.644 -0.4411 -0.0945 -0.2415
  141TCq2    C5 2151   0.409   0.447  14.677  0.0444 -0.3449 -0.1106
  141TCq2    C6 2152   0.449   0.529  14.577 -0.0626 -0.0377  0.7469
  141TCq2    C7 2153   0.471   0.498  14.449  0.4184 -0.6754  0.7655
  141TCq2    C8 2154   0.470   0.667  14.618 -0.5064  0.1177 -0.4465
  141TCq2    O4 2155   0.411   0.704  14.717 -0.0724  0.1938 -0.6540
  141TCq2    C9 2156   0.383   0.220  14.743 -0.3212  0.2132  0.6620
  141TCq2    O5 2157   0.400   0.104  14.703 -0.0123 -0.4345 -0.0669
  141TCq2    O6 2158   0.335   0.253  14.852  0.3214  0.3500  0.1175
  141TCq2    H2 2159   0.434   0.177  14.483 -0.2151  0.8806 -2.9553
  141TCq2    H3 2160   0.393   0.480  14.779 -3.0223  0.1095 -0.7173
  141TCq2    H4 2161   0.495   0.579  14.381 -1.0008 -0.8298  0.0884
  142MPD2     C 2162   2.455   3.733  10.169  0.2827 -0.1870 -0.1702
  142MPD2    C1 2163   2.368   3.784  10.069  0.2850 -0.0886  0.3286
  142MPD2    C2 2164   2.420   3.874   9.974 -0.2743  0.2722  0.0496
  142MPD2    C3 2165   2.560   3.900   9.980  0.1518 -0.2207 -0.6618
  142MPD2    C4 2166   2.642   3.840  10.084  0.4194 -0.2278  0.2107
  142MPD2    C5 2167   2.588   3.763  10.181  0.6573 -0.0985  0.4950
  142MPD2     H 2168   2.359   3.925   9.900  0.5488  0.2139 -0.6731
  142MPD2    H1 2169   2.750   3.850  10.079  0.5824 -2.6783 -1.4393
  142MPD2    H2 2170   2.422   3.652  10.232 -0.8106  0.4085  0.0155
  142MPD2    H3 2171   2.643   3.726  10.267  1.2049 -1.9657 -0.6595
  142MPD2     N 2172   2.628   3.990   9.895 -0.4358  0.2181  0.3046
  142MPD2    H5 2173   2.723   4.016   9.918  0.0877 -1.4655  0.0371
  142MPD2    N1 2174   2.229   3.744  10.077  0.5485  0.5214 -0.0822
  142MPD2    H7 2175   2.202   3.682  10.153  0.5190 -1.4678 -1.7374
  143TCq2    C1 2176   2.571   4.054   9.785  0.8277 -0.8967 -0.2392
  143TCq2    O2 2177   2.452   4.063   9.759 -0.3902 -0.1817  0.5758
  143TCq2    C2 2178   2.670   4.126   9.703  0.1560  0.9179  0.3392
  143TCq2    C3 2179   2.804   4.119   9.738  0.0301  0.7030 -0.3620
  143TCq2    C4 2180   2.878   4.216   9.676 -0.3730 -0.8919 -0.4845
  143TCq2    C5 2181   2.834   4.300   9.581 -0.0288 -0.1146  0.5941
  143TCq2    C6 2182   2.698   4.313   9.566  0.9901 -0.1433  0.0433
  143TCq2    C7 2183   2.618   4.233   9.644  0.2793  0.1739  0.9036
  143TCq2    C8 2184   2.652   4.433   9.514  1.3295  0.5313  0.0649
  143TCq2    O4 2185   2.728   4.508   9.458 -0.5054 -0.1743  0.3548
  143TCq2    C9 2186   3.021   4.216   9.703 -0.2604 -0.4125 -0.2882
  143TCq2    O5 2187   3.098   4.260   9.615  0.1606  0.1687  0.3642
  143TCq2    O6 2188   3.066   4.122   9.776 -0.2571  0.4447  0.2243
  143TCq2    H2 2189   2.851   4.039   9.793 -0.4548 -0.2536 -1.3237
  143TCq2    H3 2190   2.897   4.380   9.544  0.3898 -2.6508 -4.2788
  143TCq2    H4 2191   2.510   4.237   9.635  0.2589  1.0754  1.4925
  144MPD2     C 2192   0.297   2.711   0.435 -0.2576 -0.4313  0.1247
  144MPD2    C1 2193   0.275   2.592   0.360  0.1780 -0.0886  0.0261
  144MPD2    C2 2194   0.354   2.489   0.400  0.7831  0.3073 -0.0368
  144MPD2    C3 2195   0.455   2.502   0.502 -0.7301  0.4141 -0.1633
  144MPD2    C4 2196   0.455   2.611   0.585 -0.1383  0.3628 -0.3506
  144MPD2    C5 2197   0.380   2.714   0.543  0.0811 -0.3418  0.1220
  144MPD2     H 2198   0.332   2.389   0.364  1.3047  1.0499 -2.4088
  144MPD2    H1 2199   0.507   2.612   0.680 -1.0722 -0.8211  0.1791
  144MPD2    H2 2200   0.240   2.801   0.413 -0.0639 -0.3646 -0.1025
  144MPD2    H3 2201   0.373   2.797   0.613  1.5730  0.3037 -0.4847
  144MPD2     N 2202   0.544   2.394   0.543  0.1720  0.1806  0.0722
  144MPD2    H5 2203   0.600   2.394   0.627 -0.4959 -0.1545  0.5227
  144MPD2    N1 2204   0.169   2.578   0.264 -0.9413 -0.0434  0.3708
  144MPD2    H7 2205   0.153   2.488   0.219 -0.8225  1.1962 -2.1271
  145TCq2    C1 2206   0.564   2.284   0.460 -0.4212  0.1175  0.4074
  145TCq2    O2 2207   0.529   2.264   0.345 -0.4371  0.1315  0.1002
  145TCq2    C2 2208   0.680   2.210   0.509  0.3803  0.0608  0.0465
  145TCq2    C3 2209   0.750   2.144   0.405  0.1137 -0.3265  0.0107
  145TCq2    C4 2210   0.870   2.091   0.441 -0.2407  0.2094 -0.2890
  145TCq2    C5 2211   0.918   2.105   0.570 -0.1270 -0.5293 -0.5864
  145TCq2    C6 2212   0.855   2.174   0.667  0.2804 -0.3209 -0.1971
  145TCq2    C7 2213   0.727   2.215   0.637  0.2146  0.5585  0.0252
  145TCq2    C8 2214   0.908   2.173   0.800  0.5153  0.1254  0.5902
  145TCq2    O4 2215   0.991   2.088   0.822  0.1688 -0.5834  0.3325
  145TCq2    C9 2216   0.949   2.026   0.340 -0.8067 -0.4334  0.2202
  145TCq2    O5 2217   0.914   2.033   0.217  0.2917 -0.0584  0.1878
  145TCq2    O6 2218   1.060   1.974   0.380 -0.6802 -0.3986 -0.3472
  145TCq2    H2 2219   0.731   2.156   0.299 -0.2690 -1.0179 -0.0010
  145TCq2    H3 2220   1.016   2.060   0.578 -0.5009 -1.5390 -1.6818
  145TCq2    H4 2221   0.655   2.246   0.713 -2.7012  1.3863 -3.0706
  146TMC2    C1 2222   2.069   1.573  12.056 -0.4121  0.6516  0.0612
  146TMC2    C2 2223   2.038   1.609  11.925 -0.6471 -0.3892 -0.0782
  146TMC2    C3 2224   2.107   1.547  11.822 -0.8645 -0.5137 -0.6937
  146TMC2    C4 2225   2.178   1.489  12.083 -0.4134 -0.2862 -0.2748
  146TMC2    C5 2226   2.244   1.437  11.973  1.1779  0.2762 -0.4242
  146TMC2    C6 2227   2.220   1.474  11.844 -0.6482 -0.2720  0.5751
  146TMC2     C 2228   2.005   1.634  12.160 -0.0418 -0.1254 -0.0249
  146TMC2     O 2229   1.951   1.740  12.138  0.2140  0.1826  0.2953
  146TMC2     H 2230   1.956   1.679  11.911 -0.3530  0.0948  0.6083
  146TMC2    H1 2231   2.214   1.466  12.183  0.5512  4.1535  0.3951
  146TMC2    H2 2232   2.272   1.423  11.764  0.2897  1.5661  0.0366
  146TMC2    C7 2233   2.363   1.366  11.986  0.0550 -0.2529  0.4747
  146TMC2    C8 2234   2.061   1.540  11.688 -0.4694 -0.2223 -0.4501
  146TMC2    O1 2235   2.453   1.396  11.902 -0.1608 -0.4260 -0.1220
  146TMC2    O2 2236   2.101   1.447  11.613  0.7822  0.1459  0.3851
  146TMC2    O5 2237   2.007   1.654  11.648  0.3557  0.3534 -0.4209
  146TMC2    H5 2238   2.006   1.719  11.722  1.1605 -0.0903 -0.0249
  147MPD2     C 2239   2.717   1.148  12.279 -0.1794  0.2246 -0.0627
  147MPD2    C1 2240   2.597   1.145  12.352 -0.1239 -0.0220  0.2548
  147MPD2    C2 2241   2.478   1.187  12.291 -0.1939 -0.7193 -0.0192
  147MPD2    C3 2242   2.485   1.230  12.159 -0.2039 -0.2495  0.6838
  147MPD2    C4 2243   2.600   1.212  12.085  0.2121  0.4432 -0.2944
  147MPD2    C5 2244   2.713   1.171  12.146  0.2405 -0.1397  0.2166
  147MPD2     H 2245   2.389   1.206  12.349 -0.4157 -0.9216 -0.2887
  147MPD2    H1 2246   2.603   1.240  11.980  0.7617  0.3113 -0.3159
  147MPD2    H2 2247   2.810   1.152  12.335 -0.1483 -5.5378  0.3595
  147MPD2    H3 2248   2.805   1.172  12.089 -0.3851 -0.2873 -0.7804
  147MPD2     N 2249   2.367   1.298  12.101 -0.5071 -0.4939  0.1957
  147MPD2    H5 2250   2.286   1.304  12.162  0.0018 -0.6947  0.8889
  147MPD2    N1 2251   2.608   1.137  12.490  0.8429 -0.5803  0.7603
  147MPD2    H7 2252   2.699   1.130  12.533  1.1982 -2.7704 -0.3781
  148MPD2     C 2253   2.163   0.712  10.479  0.4730  0.0638  0.4372
  148MPD2    C1 2254   2.198   0.587  10.522 -0.0260  0.1370 -0.2979
  148MPD2    C2 2255   2.100   0.487  10.548 -0.4119 -0.9834 -0.2826
  148MPD2    C3 2256   1.967   0.507  10.535 -0.3402 -0.2807  0.0562
  148MPD2    C4 2257   1.933   0.632  10.489 -0.0412  0.0162  0.1277
  148MPD2    C5 2258   2.025   0.738  10.471  0.4657  0.3920 -0.0108
  148MPD2     H 2259   2.136   0.388  10.572  3.6244  0.2884 -1.1071
  148MPD2    H1 2260   1.836   0.670  10.460 -1.0005 -2.0274  0.6848
  148MPD2    H2 2261   2.236   0.790  10.458 -0.3675  1.7301  3.6423
  148MPD2    H3 2262   1.999   0.835  10.432  0.2154  0.4825  0.3778
  148MPD2     N 2263   1.874   0.399  10.554 -0.5516 -0.2488 -0.3067
  148MPD2    H5 2264   1.782   0.424  10.518 -0.8962 -0.6194  0.2991
  148MPD2    N1 2265   2.334   0.545  10.524 -0.0619 -0.2484 -0.3228
  148MPD2    H7 2266   2.352   0.446  10.542 -0.2138 -0.0968  0.6607
  149TCq2    C1 2267   2.445   0.625  10.538 -0.1988 -0.4279 -0.0296
  149TCq2    O2 2268   2.450   0.748  10.550  0.3482 -0.3442  0.5527
  149TCq2    C2 2269   2.566   0.549  10.529 -0.3827  0.1707 -0.4550
  149TCq2    C3 2270   2.685   0.611  10.540  0.0690  0.0145  0.0264
  149TCq2    C4 2271   2.803   0.544  10.544 -0.3245  0.0410 -0.5842
  149TCq2    C5 2272   2.808   0.410  10.507 -0.2087 -0.5510 -0.4267
  149TCq2    C6 2273   2.685   0.346  10.497 -0.2173 -0.4693 -0.3992
  149TCq2    C7 2274   2.567   0.413  10.509  0.5253  0.2832  0.4992
  149TCq2    C8 2275   2.681   0.207  10.480 -0.1469 -0.5105  0.4643
  149TCq2    O4 2276   2.572   0.158  10.513 -0.0763  0.1059  0.3618
  149TCq2    C9 2277   2.926   0.617  10.528 -0.1116 -0.0150 -0.4077
  149TCq2    O5 2278   3.029   0.552  10.491  0.2048 -0.4411 -0.1723
  149TCq2    O6 2279   2.922   0.741  10.525 -0.2129  0.5224  0.4710
  149TCq2    H2 2280   2.686   0.719  10.551  0.3832  0.0135  0.0117
  149TCq2    H3 2281   2.906   0.365  10.522 -0.8248 -1.6158  0.4695
  149TCq2    H4 2282   2.476   0.358  10.486  0.6783  0.2033  0.0778
  150MPD2     C 2283   3.694   3.990  12.061  0.1530  0.5072  0.6502
  150MPD2    C1 2284   3.722   4.053  11.942  0.1169 -0.4894  0.0349
  150MPD2    C2 2285   3.810   4.165  11.938 -0.0761  0.4236  0.4737
  150MPD2    C3 2286   3.864   4.213  12.058 -0.0201 -0.6642  0.5029
  150MPD2    C4 2287   3.847   4.141  12.176 -0.5384 -0.0424 -0.1149
  150MPD2    C5 2288   3.760   4.033  12.175 -0.0905 -0.1197  0.4870
  150MPD2     H 2289   3.815   4.222  11.846  0.8126  0.0900  0.3174
  150MPD2    H1 2290   3.905   4.170  12.262  1.3955 -1.8784 -0.8084
  150MPD2    H2 2291   3.628   3.905  12.070  1.0939 -0.3493 -0.4978
  150MPD2    H3 2292   3.739   3.983  12.270  3.9090 -0.9963  0.9054
  150MPD2     N 2293   3.945   4.328  12.045 -0.3244  0.0230 -0.0496
  150MPD2    H5 2294   3.955   4.370  11.953 -0.6344 -0.7215 -0.4166
  150MPD2    N1 2295   3.639   4.013  11.834  0.1213  0.1273  0.0183
  150MPD2    H7 2296   3.571   3.939  11.852  0.1645 -0.6952 -3.2896
  151TCq2    C1 2297   4.021   4.384  12.149  0.6612 -0.4652 -0.2878
  151TCq2    O2 2298   4.022   4.360  12.268 -0.2591 -0.6982 -0.2543
  151TCq2    C2 2299   4.082   4.509  12.126  0.4977  0.2848 -0.2421
  151TCq2    C3 2300   4.032   4.590  12.029 -0.1538  0.6957  0.1522
  151TCq2    C4 2301   4.085   4.717  12.013 -0.9572 -0.2454 -0.4030
  151TCq2    C5 2302   4.186   0.031  12.090  0.3398  0.1188  0.4253
  151TCq2    C6 2303   4.226   4.680  12.193  0.2599  0.6050 -0.3264
  151TCq2    C7 2304   4.172   4.554  12.216 -0.1094 -0.1064 -0.5833
  151TCq2    C8 2305   4.365   4.713  12.248  0.2813  0.3628 -0.2707
  151TCq2    O4 2306   4.412   0.101  12.238 -0.6162  0.3548 -0.0902
  151TCq2    C9 2307   4.038   0.068  11.908  0.4003  0.2064  0.3383
  151TCq2    O5 2308   3.961   0.013  11.824 -0.2106 -0.0994  0.4442
  151TCq2    O6 2309   4.089   0.181  11.889  0.0020  0.3201 -0.2565
  151TCq2    H2 2310   3.943   4.565  11.972 -0.0907  1.2846 -0.1983
  151TCq2    H3 2311   4.231   0.128  12.071  0.3495 -0.6102 -3.2442
  151TCq2    H4 2312   4.209   4.490  12.295  0.8084  0.2479 -0.7371
  152MPD2     C 2313   3.790   3.749  12.552  0.7154  0.3507 -0.0518
  152MPD2    C1 2314   3.784   3.888  12.567  0.1425 -0.6985  0.5118
  152MPD2    C2 2315   3.661   3.957  12.545  0.4233  1.1738 -0.5078
  152MPD2    C3 2316   3.551   3.887  12.500 -1.1722 -0.5152 -0.3529
  152MPD2    C4 2317   3.560   3.747  12.493  0.5394 -0.0997  0.0888
  152MPD2    C5 2318   3.680   3.686  12.512 -0.0751  0.2692  0.0083
  152MPD2     H 2319   3.635   4.059  12.567 -1.2109  0.7765 -0.6337
  152MPD2    H1 2320   3.479   3.687  12.455 -0.5218  0.9049  0.7593
  152MPD2    H2 2321   3.882   3.695  12.573  0.6709  0.9019  1.5846
  152MPD2    H3 2322   3.689   3.579  12.500  2.1442  0.3067  1.4278
  152MPD2     N 2323   3.427   3.952  12.476 -0.7904 -0.4122  0.0437
  152MPD2    H5 2324   3.432   4.051  12.494 -0.2800 -0.1982 -1.2543
  152MPD2    N1 2325   3.902   3.947  12.611  0.3300  0.2756  0.2074
  152MPD2    H7 2326   3.991   3.898  12.615 -0.0995 -0.5763 -0.8449
  153TCq2    C1 2327   3.923   4.082  12.613 -0.0422  0.0305  0.1935
  153TCq2    O2 2328   3.849   4.165  12.568  0.0687  0.1722  0.1377
  153TCq2    C2 2329   4.062   4.117  12.628 -0.6635 -0.7381  0.0201
  153TCq2    C3 2330   4.145   4.046  12.712  0.0255  0.7346 -0.0546
  153TCq2    C4 2331   4.251   4.097  12.774 -0.1686 -0.2041  1.2126
  153TCq2    C5 2332   4.284   4.220  12.734 -0.0223 -0.4227  0.2522
  153TCq2    C6 2333   4.209   4.302  12.648  0.2619  0.3252  0.0068
  153TCq2    C7 2334   4.094   4.247  12.595 -0.0650 -0.3679 -0.0001
  153TCq2    C8 2335   4.218   4.446  12.653  0.5268 -0.4680 -0.0356
  153TCq2    O4 2336   4.137   4.511  12.595  0.6932  0.5945 -0.1697
  153TCq2    C9 2337   4.333   4.013  12.860  0.3914  0.3581  0.2329
  153TCq2    O5 2338   4.293   3.893  12.874  0.4693  0.3765  0.4148
  153TCq2    O6 2339   4.429   4.065  12.915  0.2526 -0.2959 -0.0361
  153TCq2    H2 2340   4.120   3.942  12.733  0.2677 -0.1545 -4.1596
  153TCq2    H3 2341   4.385   4.245  12.765  0.0998 -0.1364 -0.3842
  153TCq2    H4 2342   4.031   4.314  12.538  1.5317  0.3206 -0.9490
  154MPD2     C 2343   1.402   3.871   0.718 -0.0984  0.0369 -0.3023
  154MPD2    C1 2344   1.300   3.779   0.713 -0.1973 -0.6816 -0.6632
  154MPD2    C2 2345   1.207   3.777   0.813  0.1065  0.3601  0.1080
  154MPD2    C3 2346   1.219   3.865   0.915  0.7066  0.3662  0.6215
  154MPD2    C4 2347   1.325   3.947   0.930  0.2141  0.1423 -1.1286
  154MPD2    C5 2348   1.412   3.953   0.827  1.1603 -0.4547  0.1233
  154MPD2     H 2349   1.125   3.706   0.813 -1.1717  1.8410  0.1688
  154MPD2    H1 2350   1.347   4.027   1.000 -0.1231 -0.6063 -0.1782
  154MPD2    H2 2351   1.475   3.887   0.640  0.0154 -3.6357 -0.9717
  154MPD2    H3 2352   1.494   4.022   0.842  1.6347 -0.6470 -1.5657
  154MPD2     N 2353   1.117   3.874   1.020 -0.0272 -0.3547  0.1947
  154MPD2    H5 2354   1.035   3.817   1.002 -0.0817 -0.3150  0.3238
  154MPD2    N1 2355   1.290   3.700   0.597 -0.4308  0.7846  0.6471
  154MPD2    H7 2356   1.364   3.710   0.528 -0.4830 -0.6691  0.3840
  155TCq2    C1 2357   1.191   3.610   0.562 -0.1668 -0.1639  0.0561
  155TCq2    O2 2358   1.081   3.595   0.616  0.3506  0.0342 -0.5068
  155TCq2    C2 2359   1.210   3.558   0.428  0.2948  0.6391  0.5672
  155TCq2    C3 2360   1.281   3.624   0.337  0.4181 -0.5249 -0.0034
  155TCq2    C4 2361   1.328   3.563   0.227  0.4543  0.4161  0.2054
  155TCq2    C5 2362   1.314   3.427   0.211  0.1831 -0.2094  0.3454
  155TCq2    C6 2363   1.257   3.351   0.310  0.2561  0.4212  0.1118
  155TCq2    C7 2364   1.203   3.419   0.423  0.5379 -0.1058 -0.3399
  155TCq2    C8 2365   1.276   3.206   0.310 -0.5408 -0.0603  0.2868
  155TCq2    O4 2366   1.358   3.167   0.229 -0.3181  0.0883  0.1239
  155TCq2    C9 2367   1.394   3.646   0.129  1.0709  0.2818 -0.2050
  155TCq2    O5 2368   1.460   3.592   0.035 -0.4777 -0.5522  0.1355
  155TCq2    O6 2369   1.398   3.771   0.151  0.7389  0.1158 -0.1746
  155TCq2    H2 2370   1.287   3.731   0.348 -0.0774 -0.5786  0.7908
  155TCq2    H3 2371   1.347   3.378   0.120  0.0563  0.9516 -0.3333
  155TCq2    H4 2372   1.156   3.357   0.498  1.0558 -0.4139 -0.2667
  156MPD2     C 2373   4.614   1.577  12.118  0.6044  0.9233 -0.5957
  156MPD2    C1 2374   4.509   1.636  12.055  0.1248  0.1655 -0.4404
  156MPD2    C2 2375   4.426   1.723  12.123  0.0255 -0.1105  0.4388
  156MPD2    C3 2376   4.454   1.754  12.255 -0.3128 -0.1169  0.3120
  156MPD2    C4 2377   4.557   1.686  12.326  0.5106 -0.4357 -0.2611
  156MPD2    C5 2378   4.639   1.597  12.254  0.2221  0.1292  0.6991
  156MPD2     H 2379   4.345   1.770  12.068 -0.5520  0.9080  2.1832
  156MPD2    H1 2380   4.573   1.712  12.431  2.5224  1.6975 -1.0880
  156MPD2    H2 2381   4.679   1.506  12.069 -2.3599 -1.9208 -0.4031
  156MPD2    H3 2382   4.723   1.540  12.294 -0.7339 -1.9182 -0.2559
  156MPD2     N 2383   4.372   1.857  12.307 -0.1124  0.7606  0.1410
  156MPD2    H5 2384   4.310   1.903  12.241  1.6044  1.9103 -0.6887
  156MPD2    N1 2385   4.486   1.595  11.918 -0.0864 -0.1839  0.0805
  156MPD2    H7 2386   4.547   1.526  11.876  0.5859 -0.1099  0.9491
  157TCq2    C1 2387   4.384   1.644  11.847  0.2217 -0.9344  0.0913
  157TCq2    O2 2388   4.276   1.679  11.889 -0.5758  0.2719  0.0302
  157TCq2    C2 2389   4.380   1.583  11.710  0.4297 -0.3144  0.2532
  157TCq2    C3 2390   4.498   1.524  11.665 -0.7037 -0.1319 -0.3600
  157TCq2    C4 2391   4.491   1.477  11.537 -1.1242  0.0956  0.0761
  157TCq2    C5 2392   4.378   1.469  11.457 -0.1209 -0.0824  0.2034
  157TCq2    C6 2393   4.266   1.526  11.513 -0.2752 -0.5191  0.5261
  157TCq2    C7 2394   4.267   1.580  11.634 -0.4752 -0.0487  0.5887
  157TCq2    C8 2395   4.184   1.609  11.420  1.3022 -0.1410  0.0384
  157TCq2    O4 2396   4.162   1.722  11.455  0.0844  0.5034 -0.0829
  157TCq2    C9 2397   4.611   1.448  11.474  0.0071  0.1261  0.2146
  157TCq2    O5 2398   4.713   1.479  11.538  0.2784 -0.0023 -0.2623
  157TCq2    O6 2399   4.609   1.404  11.356 -0.0346  0.4605  0.6798
  157TCq2    H2 2400   4.594   1.544  11.711 -0.2313  0.0477 -1.4182
  157TCq2    H3 2401   4.391   1.439  11.354 -0.7618 -1.0341  0.4022
  157TCq2    H4 2402   4.192   1.647  11.674 -0.4673  0.7616 -0.7728
  158TMC2    C1 2403   4.143   0.699  13.417 -0.4098 -0.3716  0.1627
  158TMC2    C2 2404   4.234   0.760  13.334 -0.5618 -0.0503  0.0713
  158TMC2    C3 2405   4.181   0.793  13.210  0.2365 -0.0948 -0.0978
  158TMC2    C4 2406   4.013   0.653  13.388  0.5976 -0.0617 -0.3445
  158TMC2    C5 2407   3.973   0.678  13.259  0.4927  0.1403  0.8645
  158TMC2    C6 2408   4.057   0.757  13.173  0.5489 -0.1979  0.0410
  158TMC2     C 2409   4.200   0.652  13.540 -0.5176 -0.3189 -0.2682
  158TMC2     O 2410   4.312   0.698  13.556 -0.4976  0.2994  0.0197
  158TMC2     H 2411   4.340   0.763  13.353 -0.5904  1.6870 -0.0681
  158TMC2    H1 2412   3.967   0.582  13.456 -3.3196  1.0138 -1.8627
  158TMC2    H2 2413   4.023   0.771  13.071 -1.4869  1.3197  0.9194
  158TMC2    C7 2414   3.846   0.628  13.203  0.3355 -0.6911 -0.6148
  158TMC2    C8 2415   4.250   0.886  13.129  0.2165 -0.3763  1.0333
  158TMC2    O1 2416   3.834   0.650  13.084 -0.3700 -0.0132 -0.1243
  158TMC2    O2 2417   4.225   0.899  13.012 -0.7433  0.6093 -0.0110
  158TMC2    O5 2418   4.342   0.955  13.199  0.1028 -0.5026  0.8499
  158TMC2    H5 2419   4.329   0.943  13.295  2.4271  2.1045  1.5094
  159MPD2     C 2420   4.249   0.550  14.037 -0.1054 -0.6232 -0.1784
  159MPD2    C1 2421   4.116   0.573  14.016 -0.0575 -0.1194  0.4021
  159MPD2    C2 2422   4.075   0.607  13.883 -0.4744 -0.0596  0.0089
  159MPD2    C3 2423   4.163   0.595  13.777  0.1224  0.3060 -0.4057
  159MPD2    C4 2424   4.293   0.549  13.802 -0.4366  0.0417 -0.3721
  159MPD2    C5 2425   4.330   0.539  13.931 -0.2416 -0.4842  0.8059
  159MPD2     H 2426   3.971   0.631  13.864 -1.1802 -1.4110  2.1208
  159MPD2    H1 2427   4.364   0.528  13.723  1.4203 -1.5433  1.7427
  159MPD2    H2 2428   4.287   0.535  14.137 -0.4971 -0.2401  0.0314
  159MPD2    H3 2429   4.434   0.518  13.953 -0.6178 -1.7655  1.3659
  159MPD2     N 2430   4.117   0.618  13.643 -0.0781  0.2770  0.3943
  159MPD2    H5 2431   4.018   0.639  13.638 -0.3879 -1.2439  0.0293
  159MPD2    N1 2432   4.037   0.589  14.129 -0.4077 -0.0884  0.0544
  159MPD2    H7 2433   4.080   0.574  14.220 -1.2031  0.2339  0.4848
  160TMC2    C1 2434   3.491   2.872   1.411  0.2682 -1.1086  0.6565
  160TMC2    C2 2435   3.460   2.971   1.323  0.3675  0.2980 -0.7309
  160TMC2    C3 2436   3.559   3.005   1.228  0.0154  0.1379 -0.0391
  160TMC2    C4 2437   3.609   2.805   1.406  0.3245 -0.2537 -0.3081
  160TMC2    C5 2438   3.705   2.838   1.310 -0.6416 -0.3459 -0.2178
  160TMC2    C6 2439   3.682   2.946   1.227  0.3666 -0.0972  0.2524
  160TMC2     C 2440   3.399   2.837   1.514  0.1933 -0.1656  0.7609
  160TMC2     O 2441   3.397   2.724   1.554  0.3452 -0.0796 -0.9636
  160TMC2     H 2442   3.358   3.006   1.311 -0.2227 -1.6671 -1.5544
  160TMC2    H1 2443   3.627   2.737   1.488  0.4373  2.2054  1.7059
  160TMC2    H2 2444   3.736   2.961   1.134 -0.6566  0.8719 -0.2006
  160TMC2    C7 2445   3.832   2.771   1.310 -0.3848  0.3837  0.7966
  160TMC2    C8 2446   3.513   3.048   1.095 -0.2665 -0.8348  0.1845
  160TMC2    O1 2447   3.842   2.662   1.362  0.2697 -0.3616 -0.3353
  160TMC2    O2 2448   3.573   3.027   0.993  0.4014 -0.8213  0.2327
  160TMC2    O5 2449   3.424   3.150   1.104 -0.5038  0.1903  0.0842
  160TMC2    H5 2450   3.400   3.187   1.191  1.5110  0.0919  0.6844
  161MPD2     C 2451   3.158   2.831   1.707 -0.9884 -0.7664 -0.5369
  161MPD2    C1 2452   3.198   2.940   1.634  0.3440 -0.0399 -0.4635
  161MPD2    C2 2453   3.116   3.051   1.648 -0.4554 -0.3021  0.0388
  161MPD2    C3 2454   2.998   3.058   1.723  0.4691 -0.8605  0.2329
  161MPD2    C4 2455   2.958   2.940   1.782 -0.0820  0.4507  0.1029
  161MPD2    C5 2456   3.039   2.832   1.769 -0.0811  0.6751 -0.0673
  161MPD2     H 2457   3.138   3.145   1.598  1.4471 -1.0614 -0.5475
  161MPD2    H1 2458   2.867   2.928   1.840 -0.1340  0.8540  0.1041
  161MPD2    H2 2459   3.212   2.737   1.700 -0.2548 -0.4611  0.9400
  161MPD2    H3 2460   3.005   2.737   1.808 -2.6085  1.0280 -1.4612
  161MPD2     N 2461   2.920   3.176   1.742  0.7135  0.6514 -0.3267
  161MPD2    H5 2462   2.831   3.170   1.790  1.8230  0.8894  1.8086
  161MPD2    N1 2463   3.318   2.942   1.552  0.0763 -0.2871 -0.7424
  161MPD2    H7 2464   3.345   3.033   1.516  0.1674  0.0627  0.2276
  162TMC2    C1 2465   1.953   0.779   1.149 -0.7288 -0.5499  0.1663
  162TMC2    C2 2466   1.896   0.844   1.042 -0.3155  0.3840  0.2495
  162TMC2    C3 2467   1.762   0.848   1.041  0.2331  0.8191 -0.2632
  162TMC2    C4 2468   1.880   0.717   1.246  0.2594 -0.3706 -0.0082
  162TMC2    C5 2469   1.746   0.752   1.256 -0.2728  0.2068  0.5771
  162TMC2    C6 2470   1.683   0.804   1.139  0.0131  0.2177 -0.0670
  162TMC2     C 2471   2.099   0.756   1.152 -0.5749 -0.1190 -0.0099
  162TMC2     O 2472   2.143   0.650   1.182 -0.4379  0.6586 -0.4257
  162TMC2     H 2473   1.953   0.882   0.958  0.2410  2.9655  1.7645
  162TMC2    H1 2474   1.935   0.660   1.320  0.1141 -0.3172  0.1385
  162TMC2    H2 2475   1.575   0.809   1.130 -0.1489  0.9187  2.1589
  162TMC2    C7 2476   1.664   0.676   1.342 -0.2157 -0.1668 -0.8547
  162TMC2    C8 2477   1.702   0.887   0.919  0.2824 -0.5647  0.8498
  162TMC2    O1 2478   1.546   0.709   1.339 -0.2023  0.0793 -0.2000
  162TMC2    O2 2479   1.584   0.882   0.911 -0.2379  0.6030 -0.2669
  162TMC2    O5 2480   1.779   0.993   0.886 -0.2317  0.3359  0.2905
  162TMC2    H5 2481   1.864   0.993   0.935 -0.1136  2.3658  0.0806
  163MPD2     C 2482   2.512   0.881   0.859  0.4938 -0.2919  1.3420
  163MPD2    C1 2483   2.451   0.763   0.879 -0.0994 -0.4576 -0.4589
  163MPD2    C2 2484   2.345   0.746   0.969 -0.1186  0.4214 -0.4111
  163MPD2    C3 2485   2.288   0.858   1.025 -0.3508 -0.0400  0.2600
  163MPD2    C4 2486   2.356   0.982   1.012  0.2737  0.0110 -1.4570
  163MPD2    C5 2487   2.465   0.984   0.929  0.2703  0.5107 -1.1583
  163MPD2     H 2488   2.286   0.655   0.977 -1.5600  1.3938  0.0562
  163MPD2    H1 2489   2.326   1.071   1.066 -0.0233 -0.1496 -1.3573
  163MPD2    H2 2490   2.601   0.895   0.799 -1.6727 -1.0651 -2.0429
  163MPD2    H3 2491   2.519   1.077   0.912 -0.2496  0.8599 -0.9103
  163MPD2     N 2492   2.164   0.866   1.092  0.5155 -0.3696  0.3918
  163MPD2    H5 2493   2.130   0.961   1.103  1.4091  0.0453 -0.4841
  163MPD2    N1 2494   2.506   0.660   0.798 -0.4106 -0.4090 -0.1662
  163MPD2    H7 2495   2.574   0.692   0.730 -3.0024  0.7064 -2.2233
  164TCq2    C1 2496   2.664   0.277  10.908  0.6369  1.0666  0.1526
  164TCq2    O2 2497   2.573   0.195  10.911  0.8784 -0.3790 -0.4443
  164TCq2    C2 2498   2.636   0.418  10.937 -0.0577 -0.2253 -0.4044
  164TCq2    C3 2499   2.714   0.526  10.892  0.7067 -0.3838 -0.0864
  164TCq2    C4 2500   2.660   0.656  10.893  0.0016 -0.8774 -0.7192
  164TCq2    C5 2501   2.532   0.675  10.935 -0.8539  0.0951  0.0990
  164TCq2    C6 2502   2.465   0.574  10.993  0.0730 -0.5789  0.5708
  164TCq2    C7 2503   2.505   0.441  10.979  0.6627 -0.6268  0.2624
  164TCq2    C8 2504   2.337   0.591  11.056  1.1016  0.4511 -0.1927
  164TCq2    O4 2505   2.262   0.677  11.011  0.4660 -0.6230 -0.3410
  164TCq2    C9 2506   2.738   0.767  10.847 -0.1807 -0.9047 -0.2456
  164TCq2    O5 2507   2.682   0.876  10.818 -0.6258  0.1888 -0.5672
  164TCq2    O6 2508   2.859   0.739  10.844 -0.1715  0.2216 -0.1388
  164TCq2    H2 2509   2.820   0.518  10.869  0.7349  2.2203 -0.8542
  164TCq2    H3 2510   2.487   0.773  10.929 -1.0834 -0.0092  0.1127
  164TCq2    H4 2511   2.449   0.360  11.025 -0.2432  0.0993  0.4344
  165MPD2     C 2512   4.247   2.255   2.795  0.2588  0.1859 -0.3877
  165MPD2    C1 2513   4.205   2.277   2.667  0.4594 -0.3754 -0.0805
  165MPD2    C2 2514   4.297   2.329   2.574  0.1004  0.1995 -0.1541
  165MPD2    C3 2515   4.426   2.356   2.617  0.8036  0.0566 -0.1919
  165MPD2    C4 2516   4.463   2.339   2.747  0.4088 -0.2000 -0.2106
  165MPD2    C5 2517   4.378   2.279   2.832 -0.2511  0.1431 -0.3909
  165MPD2     H 2518   4.268   2.354   2.473  1.0546  1.1436 -0.1949
  165MPD2    H1 2519   4.561   2.356   2.788  0.2364 -0.2421  0.2207
  165MPD2    H2 2520   4.181   2.212   2.869  0.1851  0.8170 -0.0840
  165MPD2    H3 2521   4.413   2.248   2.930  2.7987  2.0857 -0.8542
  165MPD2     N 2522   4.520   2.411   2.529 -0.1745  0.8235  0.9803
  165MPD2    H5 2523   4.611   2.419   2.574 -0.8414  1.1288  2.2573
  165MPD2    N1 2524   4.069   2.253   2.630  0.1738  0.1381 -0.1375
  165MPD2    H7 2525   4.022   2.196   2.700  2.3089 -2.7949 -1.0920
  166TCq2    C1 2526   4.505   2.436   2.395 -0.1279  0.1688 -0.0074
  166TCq2    O2 2527   4.406   2.424   2.322  0.1189 -0.2425  0.5557
  166TCq2    C2 2528   4.630   2.441   2.321  0.5627  0.1256  0.7747
  166TCq2    C3 2529   0.019   2.382   2.360 -0.3673  0.5981  0.0523
  166TCq2    C4 2530   0.118   2.365   2.266 -0.4980  0.5108 -0.0027
  166TCq2    C5 2531   0.096   2.399   2.139  0.0152  0.5725 -0.7620
  166TCq2    C6 2532   4.714   2.478   2.105 -0.0023 -0.1067 -0.3208
  166TCq2    C7 2533   4.620   2.500   2.204 -0.2783  0.0268 -0.1970
  166TCq2    C8 2534   4.712   2.528   1.969  0.6623 -0.0081  0.0459
  166TCq2    O4 2535   0.045   2.471   1.875 -0.4217 -0.4274 -0.6063
  166TCq2    C9 2536   0.242   2.298   2.301 -0.3232  0.1912 -0.0658
  166TCq2    O5 2537   0.269   2.292   2.425 -0.8281 -0.5273  0.2036
  166TCq2    O6 2538   0.316   2.264   2.204  0.1017  0.7919 -0.5192
  166TCq2    H2 2539   0.042   2.341   2.457 -1.6148 -0.6547 -0.1925
  166TCq2    H3 2540   0.167   2.381   2.059  0.4454 -1.3413  0.0630
  166TCq2    H4 2541   4.526   2.553   2.197  0.8042  2.0739  0.8233
  167TMC2    C1 2542   1.576   4.526  12.915  0.1847 -0.3705 -0.1092
  167TMC2    C2 2543   1.522   4.518  13.040 -0.0223  0.5945  0.1453
  167TMC2    C3 2544   1.545   4.410  13.116 -0.9099  0.2895 -0.6093
  167TMC2    C4 2545   1.659   4.427  12.865 -0.5224  0.1300 -0.1089
  167TMC2    C5 2546   1.675   4.313  12.941  0.3872  0.1725 -0.2764
  167TMC2    C6 2547   1.624   4.311  13.073 -0.5400 -0.7398 -0.4991
  167TMC2     C 2548   1.565   4.662  12.855 -0.5862 -0.4270 -0.3533
  167TMC2     O 2549   1.475   0.017  12.897  0.0087 -0.8730  0.6687
  167TMC2     H 2550   1.453   4.596  13.070 -0.8408 -0.5815  1.3094
  167TMC2    H1 2551   1.687   4.422  12.760 -0.7636  1.1392 -0.2235
  167TMC2    H2 2552   1.671   4.240  13.140  0.2541 -0.1033 -0.3798
  167TMC2    C7 2553   1.780   4.210  12.907  0.6628 -0.1195 -0.3218
  167TMC2    C8 2554   1.521   4.420  13.258  0.2654  0.4103  0.0012
  167TMC2    O1 2555   1.775   4.111  12.980  0.2686  0.3519 -0.2636
  167TMC2    O2 2556   1.498   4.526  13.314 -0.0804  0.2250 -0.3563
  167TMC2    O5 2557   1.549   4.304  13.331  0.0592  0.2251  0.0513
  167TMC2    H5 2558   1.561   4.224  13.275 -1.5650  0.0786 -0.0807
  168MPD2     C 2559   1.558   0.149  12.641  0.1646 -0.2746  0.5544
  168MPD2    C1 2560   1.650   0.047  12.650  0.5104 -0.0742 -0.3679
  168MPD2    C2 2561   1.738   0.044  12.548  0.2587  0.2629  0.5547
  168MPD2    C3 2562   1.729   0.126  12.435 -0.1996  0.4236  0.0813
  168MPD2    C4 2563   1.625   0.215  12.423  0.3843  0.7130  0.4960
  168MPD2    C5 2564   1.540   0.221  12.530  0.4402  0.5924  1.1424
  168MPD2     H 2565   1.814   4.690  12.555  0.6559  0.6768  0.8461
  168MPD2    H1 2566   1.626   0.271  12.330 -1.2915 -0.2509 -0.0944
  168MPD2    H2 2567   1.492   0.170  12.724  0.6014 -0.9838  1.0857
  168MPD2    H3 2568   1.448   0.277  12.519 -0.3894 -1.0254 -0.2513
  168MPD2     N 2569   1.835   0.108  12.347 -0.3117 -0.6010 -0.4114
  168MPD2    H5 2570   1.917   0.055  12.374  2.0176  2.0424 -2.2894
  168MPD2    N1 2571   1.652   4.673  12.746  0.5708  0.0560  0.2526
  168MPD2    H7 2572   1.712   4.592  12.738  0.3738 -0.1691  1.0273
  169MPD1     C 2573   4.047   3.626   9.003  0.1873  0.7598  0.1193
  169MPD1    C1 2574   4.034   3.572   9.131  0.4497  0.0956 -0.5226
  169MPD1    C2 2575   4.153   3.574   9.210 -0.6891 -0.4561 -0.6199
  169MPD1    C3 2576   4.266   3.643   9.163 -0.3231  0.0607 -0.7116
  169MPD1    C4 2577   4.266   3.702   9.040 -0.3675 -0.5249  0.1793
  169MPD1    C5 2578   4.160   3.685   8.955 -0.4562  0.2251 -0.2688
  169MPD1     H 2579   4.146   3.543   9.314 -0.8822 -0.4312 -0.6268
  169MPD1    H1 2580   4.350   3.765   9.011 -1.9971  0.9932 -1.3198
  169MPD1    H2 2581   3.956   3.630   8.945 -0.0185 -1.5985  0.2558
  169MPD1    H3 2582   4.152   3.747   8.867 -0.0434 -0.8236 -1.0424
  169MPD1     N 2583   4.379   3.645   9.249  0.0736 -0.4254 -0.5302
  169MPD1    H5 2584   4.364   3.603   9.340  1.6887  1.4220  0.5820
  169MPD1    N1 2585   3.917   3.507   9.177 -0.2319 -0.8945 -0.0029
  169MPD1    H6 2586   3.831   3.551   9.145  1.5815  1.9316 -0.9928
  169MPD1    H7 2587   3.917   3.495   9.278  2.8661 -0.3820  0.0646
  170MPD1     C 2588   3.346   1.917  13.048 -0.5787  0.2682 -0.1449
  170MPD1    C1 2589   3.344   1.924  13.184 -0.3857 -0.7077 -0.1256
  170MPD1    C2 2590   3.295   2.043  13.247 -0.2364  0.2735 -0.5802
  170MPD1    C3 2591   3.236   2.147  13.174 -0.4283  0.0455  0.2730
  170MPD1    C4 2592   3.223   2.127  13.037  1.1302  0.7302  0.3695
  170MPD1    C5 2593   3.278   2.013  12.979 -0.5236 -0.0508  0.7022
  170MPD1     H 2594   3.310   2.055  13.353 -1.8150  1.0796 -0.4310
  170MPD1    H1 2595   3.176   2.206  12.979 -0.7769  0.3710  1.4208
  170MPD1    H2 2596   3.402   1.839  12.997  1.5864  0.2605  2.2603
  170MPD1    H3 2597   3.257   2.002  12.873 -2.7371 -0.3530  1.1625
  170MPD1     N 2598   3.199   2.265  13.238  0.5198 -0.1694 -0.1075
  170MPD1    H5 2599   3.213   2.266  13.338 -0.9011  0.6275  0.0882
  170MPD1    N1 2600   3.429   1.833  13.253  0.4082  0.6340  0.2768
  170MPD1    H6 2601   3.397   1.823  13.349  0.7366 -0.2326  0.2926
  170MPD1    H7 2602   3.445   1.743  13.208  2.5961  1.2596 -0.1558
  171MPD1     C 2603   0.980   3.043  15.171 -0.2208  0.0984  0.3255
  171MPD1    C1 2604   1.109   3.081  15.135 -0.1134 -0.2130 -0.2457
  171MPD1    C2 2605   1.213   3.029  15.208 -0.1129  0.4260  0.5292
  171MPD1    C3 2606   1.195   2.943  15.313 -0.1296  0.2532  0.8036
  171MPD1    C4 2607   1.061   2.917  15.357  0.3974 -0.5689  0.4137
  171MPD1    C5 2608   0.957   2.950  15.276  0.5158  0.3191  0.1556
  171MPD1     H 2609   1.315   3.054  15.181 -0.4904  1.1172 -0.2460
  171MPD1    H1 2610   1.040   2.851  15.440 -1.8672 -2.3494 -1.5739
  171MPD1    H2 2611   0.894   3.082  15.117  1.5045  1.2630 -1.6108
  171MPD1    H3 2612   0.856   2.921  15.306  1.0050 -1.0032  0.4990
  171MPD1     N 2613   1.297   2.904  15.391  0.1540  0.3473  0.0378
  171MPD1    H5 2614   1.272   2.857  15.478 -0.1100  0.6426  0.1225
  171MPD1    N1 2615   1.126   3.159  15.022 -0.1517 -0.7928 -0.4951
  171MPD1    H6 2616   1.049   3.221  15.000 -0.6402 -1.1696  0.1520
  171MPD1    H7 2617   1.211   3.210  15.045 -1.3181  2.0489 -2.5700
  172MPD1     C 2618   0.278   2.053  17.581  0.1795 -0.6621 -0.4994
  172MPD1    C1 2619   0.285   2.176  17.521 -0.3655  0.0613 -0.3161
  172MPD1    C2 2620   0.335   2.281  17.588 -0.1572  0.2134 -0.1417
  172MPD1    C3 2621   0.383   2.276   0.022 -0.1945  0.6762 -0.4842
  172MPD1    C4 2622   0.378   2.151   0.085  0.3630  0.0321 -0.2307
  172MPD1    C5 2623   0.329   2.047   0.011  0.3761  0.2146  0.3585
  172MPD1     H 2624   0.324   2.378  17.540  1.8553  0.2434 -0.5623
  172MPD1    H1 2625   0.414   2.140   0.186  0.0810 -1.6489 -0.3138
  172MPD1    H2 2626   0.228   1.967  17.538  0.7373 -0.9853 -0.4903
  172MPD1    H3 2627   0.295   1.956   0.059  2.5114 -1.1205 -0.6759
  172MPD1     N 2628   0.441   2.391   0.087  0.4620 -0.1844  0.0791
  172MPD1    H5 2629   0.481   2.374   0.179  1.1169  1.7145  0.1461
  172MPD1    N1 2630   0.226   2.192  17.393 -0.4080 -0.1813  0.3546
  172MPD1    H6 2631   0.125   2.188  17.391 -0.4244  0.5786 -0.6433
  172MPD1    H7 2632   0.243   2.286  17.357  1.4501  0.6535  3.4131
  173MPD1     C 2633   2.547   2.905  13.671 -0.0288 -0.2137  0.5754
  173MPD1    C1 2634   2.434   2.894  13.746 -0.3806  0.3990  0.3243
  173MPD1    C2 2635   2.441   2.822  13.861  0.1057  0.2420 -0.1305
  173MPD1    C3 2636   2.564   2.761  13.898  0.1346  0.3793 -0.7080
  173MPD1    C4 2637   2.674   2.765  13.821  0.1976 -0.3962  0.6679
  173MPD1    C5 2638   2.669   2.850  13.707  0.2490 -0.1700  0.0491
  173MPD1     H 2639   2.361   2.830  13.934 -2.4171 -2.7313 -2.5700
  173MPD1    H1 2640   2.771   2.723  13.845 -0.1258 -0.6809  1.4826
  173MPD1    H2 2641   2.551   2.937  13.568 -0.4106 -0.5453  0.4548
  173MPD1    H3 2642   2.762   2.867  13.655  1.3062 -0.2645  1.8880
  173MPD1     N 2643   2.571   2.699  14.029 -0.3599  0.4961  0.3315
  173MPD1    H5 2644   2.491   2.713  14.090 -1.2164  1.5569 -1.0272
  173MPD1    N1 2645   2.321   2.966  13.710 -0.1840  0.2433 -0.9883
  173MPD1    H6 2646   2.242   2.945  13.770 -0.1894  0.5786 -0.8773
  173MPD1    H7 2647   2.335   3.067  13.715  1.6723 -0.2066  2.5360
  174MPD1     C 2648   2.892   1.801  14.503 -0.2920 -0.8078  0.2914
  174MPD1    C1 2649   2.937   1.886  14.406 -0.1396 -0.1642  0.6895
  174MPD1    C2 2650   2.878   2.010  14.395  0.3230 -0.5954  0.5997
  174MPD1    C3 2651   2.773   2.051  14.470 -0.6187 -0.1292 -0.3946
  174MPD1    C4 2652   2.724   1.969  14.571 -0.9189 -1.1519  0.0768
  174MPD1    C5 2653   2.797   1.855  14.589  0.3603  0.9904  0.3516
  174MPD1     H 2654   2.914   2.079  14.320 -0.3621 -3.0336 -1.9984
  174MPD1    H1 2655   2.647   1.993  14.643  0.9796 -0.4305  1.8703
  174MPD1    H2 2656   2.933   1.704  14.529 -0.5913 -1.2627 -0.9593
  174MPD1    H3 2657   2.772   1.785  14.668 -0.8977  1.1029  0.0541
  174MPD1     N 2658   2.711   2.176  14.445  0.1201  0.7103  0.2000
  174MPD1    H5 2659   2.617   2.183  14.483  0.3262  0.7047  0.7163
  174MPD1    N1 2660   3.031   1.845  14.306  0.3253  0.5088 -0.4293
  174MPD1    H6 2661   3.086   1.924  14.274 -1.5978  1.4411 -1.4204
  174MPD1    H7 2662   3.088   1.762  14.322  0.9381  0.5978 -2.0967
  175MPD1     C 2663   4.666   3.241  14.933 -0.8549  0.5295 -0.2584
  175MPD1    C1 2664   0.016   3.349  14.935  0.1645  0.0356 -0.3432
  175MPD1    C2 2665   0.092   3.383  15.049  0.5015  0.4687  0.2025
  175MPD1    C3 2666   0.067   3.312  15.161  0.8822  0.8413 -0.0462
  175MPD1    C4 2667   4.713   3.196  15.166 -0.3953 -0.2203  0.0238
  175MPD1    C5 2668   4.650   3.162  15.048 -0.2902 -0.4036  0.4660
  175MPD1     H 2669   0.150   3.475  15.051  2.2245 -0.6351  0.9629
  175MPD1    H1 2670   4.692   3.139  15.255 -2.9093 -2.3781 -1.9474
  175MPD1    H2 2671   4.624   3.207  14.839 -2.8551 -0.4006  0.9572
  175MPD1    H3 2672   4.592   3.071  15.046  0.4463 -0.8350 -1.1913
  175MPD1     N 2673   0.129   3.348  15.279 -0.3686  0.3137  0.1197
  175MPD1    H5 2674   0.147   3.271  15.343  1.3308  0.4444 -0.1898
  175MPD1    N1 2675   0.041   3.405  14.804 -0.0572  0.0911 -0.0701
  175MPD1    H6 2676   4.676   3.393  14.755 -0.6471  0.8940  0.8223
  175MPD1    H7 2677   0.062   3.504  14.806 -0.8447  0.3349 -3.0279
  176MPD1     C 2678   2.066   0.133   0.691  0.2453 -0.6723 -0.0062
  176MPD1    C1 2679   2.111   0.247   0.756 -0.6452 -0.3162 -0.3988
  176MPD1    C2 2680   2.154   0.352   0.680  0.0479 -0.8772 -0.5298
  176MPD1    C3 2681   2.153   0.349   0.539  0.1021 -0.0670 -1.0240
  176MPD1    C4 2682   2.114   0.232   0.480 -0.1116 -0.4120 -0.0276
  176MPD1    C5 2683   2.068   0.129   0.554  0.4659  0.2306  0.5782
  176MPD1     H 2684   2.185   0.449   0.717  2.4799 -1.8077 -0.1181
  176MPD1    H1 2685   2.099   0.225   0.373 -0.6318  0.5616 -0.0256
  176MPD1    H2 2686   2.035   0.047   0.750 -0.1772  1.4577  2.8581
  176MPD1    H3 2687   2.045   0.034   0.507  2.1855  0.1792 -0.1601
  176MPD1     N 2688   2.186   0.458   0.467 -0.6059  0.0852  0.0039
  176MPD1    H5 2689   2.192   0.544   0.520  0.6507  0.1100 -0.1860
  176MPD1    N1 2690   2.110   0.248   0.899  0.6965 -0.2440 -0.1065
  176MPD1    H6 2691   2.157   0.331   0.933  1.2994  0.0326 -1.5892
  176MPD1    H7 2692   2.150   0.161   0.934 -0.1898 -1.0417 -1.0693
  177MPD1     C 2693   0.316   0.979  10.378  0.4315 -0.4156 -0.1611
  177MPD1    C1 2694   0.313   0.868  10.301 -0.5984  0.6198 -0.4097
  177MPD1    C2 2695   0.227   0.865  10.193  0.0114  0.0912 -0.3846
  177MPD1    C3 2696   0.143   0.968  10.151 -0.2503 -0.3427 -0.3848
  177MPD1    C4 2697   0.158   1.085  10.228  0.2977 -0.5553  0.0958
  177MPD1    C5 2698   0.245   1.088  10.335 -0.0257  0.1147 -0.5868
  177MPD1     H 2699   0.227   0.781  10.125 -0.3067  0.5716 -0.9727
  177MPD1    H1 2700   0.106   1.176  10.199  0.1059 -1.3979 -2.2061
  177MPD1    H2 2701   0.385   0.994  10.460  0.6112 -3.1935  0.1831
  177MPD1    H3 2702   0.256   1.185  10.381  0.8299 -0.0202 -0.5044
  177MPD1     N 2703   0.069   0.957  10.037 -0.3987 -0.0983 -0.0418
  177MPD1    H5 2704   0.079   0.881   9.970  0.6842  0.5234 -0.5893
  177MPD1    N1 2705   0.370   0.750  10.349 -0.0662 -0.2830  0.4303
  177MPD1    H6 2706   0.400   0.683  10.277 -1.1579 -0.6976  0.3657
  177MPD1    H7 2707   0.448   0.770  10.411  0.0179 -1.0384  0.5778
  178MPD1     C 2708   2.758   1.508   0.333 -0.2361  0.9413  0.4293
  178MPD1    C1 2709   2.696   1.501   0.210  0.0078  1.2278 -0.5504
  178MPD1    C2 2710   2.778   1.488   0.100  0.6870 -0.1466  0.0514
  178MPD1    C3 2711   2.917   1.481   0.113 -0.6654  0.4313 -0.4967
  178MPD1    C4 2712   2.972   1.499   0.241  0.1243  0.4354 -0.5914
  178MPD1    C5 2713   2.893   1.510   0.350  0.0328 -0.5957  0.3851
  178MPD1     H 2714   2.738   1.493  17.696 -0.0393  0.8059  0.3792
  178MPD1    H1 2715   3.078   1.506   0.262  0.1245 -0.2856 -0.3373
  178MPD1    H2 2716   2.705   1.533   0.425 -1.6434  0.4702 -0.2466
  178MPD1    H3 2717   2.941   1.525   0.446 -1.2096 -1.7836  1.1849
  178MPD1     N 2718   3.010   1.464   0.006 -0.0323 -0.0307 -0.3968
  178MPD1    H5 2719   3.110   1.455   0.016  0.0364  1.5113  0.2846
  178MPD1    N1 2720   2.564   1.532   0.199 -0.4057  0.1359 -0.1688
  178MPD1    H6 2721   2.511   1.495   0.277 -1.9240 -1.1085 -1.7734
  178MPD1    H7 2722   2.533   1.498   0.108  1.6197 -2.1457  0.0035
  179MPD1     C 2723   3.008   4.155  15.816  0.0325 -0.4549 -0.4345
  179MPD1    C1 2724   2.882   4.197  15.793 -0.4874  0.4543 -0.2775
  179MPD1    C2 2725   2.780   4.117  15.846  0.3537  0.3532 -0.4072
  179MPD1    C3 2726   2.792   3.991  15.895 -0.6606  0.2132  0.5074
  179MPD1    C4 2727   2.918   3.951  15.916  0.3456  0.4523 -0.5464
  179MPD1    C5 2728   3.024   4.037  15.892 -0.0596 -0.6423  0.2947
  179MPD1     H 2729   2.678   4.153  15.837 -0.2883 -1.5321 -0.8108
  179MPD1    H1 2730   2.947   3.852  15.950  1.2105  1.3070  1.1802
  179MPD1    H2 2731   3.098   4.213  15.799  0.5856 -0.7442  1.4111
  179MPD1    H3 2732   3.124   3.999  15.910  1.2085  2.7834  0.3696
  179MPD1     N 2733   2.683   3.915  15.950 -0.0895  0.1383  0.3600
  179MPD1    H5 2734   2.713   3.826  15.989 -0.1806  0.0728  0.2818
  179MPD1    N1 2735   2.849   4.320  15.735 -0.4115  0.1541 -0.1211
  179MPD1    H6 2736   2.924   4.341  15.669 -1.5327 -0.3770 -1.5833
  179MPD1    H7 2737   2.761   4.309  15.685 -0.6412  1.4739  0.0044
  180MPD1     C 2738   2.107   0.409  15.356 -0.8144  0.2185  0.1159
  180MPD1    C1 2739   2.178   0.529  15.355 -0.6813 -0.0196  0.2382
  180MPD1    C2 2740   2.199   0.587  15.236 -0.1988  0.0874 -0.2050
  180MPD1    C3 2741   2.148   0.534  15.117  0.3961 -0.3482  0.2092
  180MPD1    C4 2742   2.075   0.419  15.125  0.6729 -0.5356 -0.0999
  180MPD1    C5 2743   2.061   0.355  15.244 -0.3437  0.6313 -0.7368
  180MPD1     H 2744   2.243   0.685  15.246 -0.9934  0.3608  0.6196
  180MPD1    H1 2745   2.045   0.367  15.035 -3.3022  2.3573 -0.4186
  180MPD1    H2 2746   2.093   0.342  15.441  1.2158 -1.3000 -0.7766
  180MPD1    H3 2747   2.020   0.255  15.243  1.0156  0.0754 -1.2923
  180MPD1     N 2748   2.150   0.618  15.006  0.2454  0.5527 -0.3060
  180MPD1    H5 2749   2.199   0.706  15.012  0.5865  0.4297 -1.3203
  180MPD1    N1 2750   2.244   0.573  15.476  0.7674  0.0174 -0.7919
  180MPD1    H6 2751   2.208   0.530  15.561  0.6015 -2.1367 -1.9374
  180MPD1    H7 2752   2.242   0.674  15.487  3.2643  0.1978 -2.1183
  181MPD1     C 2753   3.498   3.194   9.690  0.4333  0.6485  0.4356
  181MPD1    C1 2754   3.546   3.111   9.787 -0.6831 -0.6108  0.2032
  181MPD1    C2 2755   3.685   3.087   9.791  0.4370  0.0606  0.9700
  181MPD1    C3 2756   3.769   3.182   9.735  0.8533  0.0642 -0.4627
  181MPD1    C4 2757   3.715   3.284   9.658  0.3048 -0.5891  0.0611
  181MPD1    C5 2758   3.584   3.273   9.627  0.4844 -0.0037  0.0507
  181MPD1     H 2759   3.722   3.003   9.848 -0.7985 -0.8539  0.4085
  181MPD1    H1 2760   3.771   3.362   9.608 -2.1796  0.8987 -0.3569
  181MPD1    H2 2761   3.393   3.199   9.662  0.3529  1.2972  0.8606
  181MPD1    H3 2762   3.537   3.348   9.565  0.0445 -1.4346 -1.3248
  181MPD1     N 2763   3.910   3.183   9.749  0.2132 -0.2228  0.1874
  181MPD1    H5 2764   3.958   3.242   9.681  2.4020 -0.2928  1.6568
  181MPD1    N1 2765   3.454   3.024   9.840  0.2187  0.4956 -0.5438
  181MPD1    H6 2766   3.486   2.984   9.928 -2.8555 -2.2507 -0.6789
  181MPD1    H7 2767   3.357   3.050   9.855 -0.0975 -0.9039 -0.1296
  182MPD1     C 2768   0.830   1.112   1.237 -0.0297  0.9073  0.0385
  182MPD1    C1 2769   0.796   1.087   1.109  0.3708 -0.2348 -0.2859
  182MPD1    C2 2770   0.670   1.134   1.067 -0.1210 -0.1825  0.9033
  182MPD1    C3 2771   0.593   1.211   1.147 -0.2099  0.1994  0.1988
  182MPD1    C4 2772   0.634   1.239   1.267 -0.2133  0.2225  0.5999
  182MPD1    C5 2773   0.749   1.187   1.319 -0.3384 -0.5919  0.3918
  182MPD1     H 2774   0.646   1.105   0.965  1.0621  2.6347 -0.2009
  182MPD1    H1 2775   0.576   1.301   1.334 -1.9846  1.0741 -1.7230
  182MPD1    H2 2776   0.921   1.071   1.281 -1.1399 -0.3060  1.1861
  182MPD1    H3 2777   0.779   1.226   1.416 -0.4406  1.9411 -0.5891
  182MPD1     N 2778   0.465   1.265   1.108 -0.2139  0.4128 -0.3171
  182MPD1    H5 2779   0.418   1.325   1.175 -2.5229 -1.8707  0.0971
  182MPD1    N1 2780   0.865   0.990   1.033 -0.1120  0.0989  0.5027
  182MPD1    H6 2781   0.966   0.999   1.031 -0.1142 -0.7653 -2.6579
  182MPD1    H7 2782   0.851   1.027   0.939 -0.8058  0.9404  0.9334
  183MPD1     C 2783   0.137   3.553   9.200 -0.1797 -0.0486 -0.4655
  183MPD1    C1 2784   0.237   3.474   9.262  0.9270  0.1520 -0.4432
  183MPD1    C2 2785   0.211   3.339   9.260  0.3348 -0.3067  0.0520
  183MPD1    C3 2786   0.098   3.280   9.207 -0.1686  0.4995 -0.2364
  183MPD1    C4 2787   0.009   3.358   9.145  0.2452  0.3303  0.1929
  183MPD1    C5 2788   0.029   3.492   9.139  0.3587  0.4875  0.0520
  183MPD1     H 2789   0.281   3.282   9.320  1.1795  0.8251  0.1255
  183MPD1    H1 2790   4.643   3.321   9.095  1.0524  0.4592 -1.3502
  183MPD1    H2 2791   0.138   3.661   9.199 -0.6615 -0.0109  2.1263
  183MPD1    H3 2792   4.668   3.545   9.097 -0.3246  0.4741  1.3987
  183MPD1     N 2793   0.084   3.135   9.230 -0.5506  0.1335 -0.0227
  183MPD1    H5 2794   0.164   3.091   9.273  0.3149 -1.1383 -2.9217
  183MPD1    N1 2795   0.347   3.539   9.323 -0.4012  0.3332  0.1472
  183MPD1    H6 2796   0.366   3.619   9.263 -1.8487 -1.0239 -2.1416
  183MPD1    H7 2797   0.428   3.479   9.334 -1.7308 -1.4411  0.2431
  184MPD1     C 2798   0.180   4.506  10.016  0.0173 -1.0472 -0.0660
  184MPD1    C1 2799   0.234   4.629   9.992  0.3998 -0.2500  0.2797
  184MPD1    C2 2800   0.153   0.005   9.949 -0.4724  0.4224 -1.2448
  184MPD1    C3 2801   0.018   4.709   9.918 -0.0641 -0.6357 -0.2090
  184MPD1    C4 2802   4.689   4.584   9.942  0.0609 -0.2728  0.2009
  184MPD1    C5 2803   0.043   4.476   9.990 -0.4060 -0.3059  0.2901
  184MPD1     H 2804   0.191   0.106   9.943  1.9294 -0.4461 -0.3014
  184MPD1    H1 2805   4.583   4.563   9.927  0.3402 -1.3448 -0.2407
  184MPD1    H2 2806   0.242   4.427  10.058 -0.0809 -1.8676 -1.4642
  184MPD1    H3 2807   4.719   4.382  10.017 -0.6150 -0.4423 -0.5337
  184MPD1     N 2808   4.649   0.091   9.879  0.5152  0.1474 -0.7734
  184MPD1    H5 2809   4.554   0.061   9.858  0.8738 -0.6427 -1.2661
  184MPD1    N1 2810   0.356   4.656  10.056  0.0767  0.0196 -0.0522
  184MPD1    H6 2811   0.400   0.018  10.024  0.0391 -0.4500 -1.3479
  184MPD1    H7 2812   0.430   4.591  10.030  0.2075 -0.1635  0.7526
  185MPD1     C 2813   3.724   0.105   9.620 -0.1128 -0.2481 -1.0321
  185MPD1    C1 2814   3.839   0.064   9.555  0.6421  0.7919 -0.1629
  185MPD1    C2 2815   3.964   0.104   9.597  0.3018 -0.0157 -0.5721
  185MPD1    C3 2816   3.974   0.193   9.707  0.5868  0.3518 -0.6945
  185MPD1    C4 2817   3.859   0.240   9.760 -0.1347 -0.5988  0.4834
  185MPD1    C5 2818   3.738   0.193   9.726  0.8215  0.0838  0.8872
  185MPD1     H 2819   4.047   0.064   9.539  0.9216  0.3043  0.0920
  185MPD1    H1 2820   3.853   0.317   9.836 -0.9609 -0.6002  0.4178
  185MPD1    H2 2821   3.622   0.074   9.596 -0.6771  0.2188  0.7080
  185MPD1    H3 2822   3.649   0.228   9.777  0.9467  0.2467  0.9918
  185MPD1     N 2823   4.092   0.239   9.761  0.0504 -0.2638  0.2300
  185MPD1    H5 2824   4.088   0.317   9.826  2.7854 -0.1323  0.2240
  185MPD1    N1 2825   3.826   4.679   9.466 -0.1790 -0.3235 -0.2192
  185MPD1    H6 2826   3.741   4.692   9.413 -1.2943 -0.6766  1.4922
  185MPD1    H7 2827   3.902   4.681   9.398  0.0017  0.8126  0.0084
  186MPD1     C 2828   3.368   3.986  16.017  0.1311  0.4131  0.2671
  186MPD1    C1 2829   3.273   3.962  16.116 -0.1497  0.1563  0.6417
  186MPD1    C2 2830   3.237   4.063  16.203 -0.4167  0.4434 -0.2880
  186MPD1    C3 2831   3.268   4.196  16.171  0.8711 -0.0222 -0.5157
  186MPD1    C4 2832   3.346   4.222  16.063 -0.0893 -0.2276  0.5062
  186MPD1    C5 2833   3.396   4.114  15.993  0.1532  0.2053  0.5644
  186MPD1     H 2834   3.181   4.044  16.294  0.4471  0.3001  0.2083
  186MPD1    H1 2835   3.379   4.322  16.035  2.5512 -1.1897  0.1791
  186MPD1    H2 2836   3.413   3.908  15.956 -1.8336 -0.6561  0.1718
  186MPD1    H3 2837   3.469   4.129  15.914 -2.1608  3.9613 -0.8895
  186MPD1     N 2838   3.219   4.302  16.247  0.0519 -0.1723 -0.1922
  186MPD1    H5 2839   3.253   4.395  16.226  0.0416 -0.3121 -0.8297
  186MPD1    N1 2840   3.224   3.837  16.149 -0.3144  0.3134 -0.3369
  186MPD1    H6 2841   3.132   3.849  16.191  0.2469  0.8600  0.7310
  186MPD1    H7 2842   3.202   3.777  16.069  0.9612 -2.2783  1.2555
  187MPD1     C 2843   2.643   1.295   0.570  0.3266 -0.1098  0.4016
  187MPD1    C1 2844   2.594   1.202   0.479  0.4964 -0.5461  0.1597
  187MPD1    C2 2845   2.487   1.232   0.393  0.1894 -0.0885  0.2009
  187MPD1    C3 2846   2.415   1.350   0.403 -0.1246 -0.2136  0.1469
  187MPD1    C4 2847   2.454   1.436   0.504 -0.8218  0.7030  0.0894
  187MPD1    C5 2848   2.567   1.413   0.580 -0.1860  0.4281  0.1983
  187MPD1     H 2849   2.460   1.154   0.322 -1.6999 -0.2764  1.1186
  187MPD1    H1 2850   2.405   1.531   0.518 -1.0040  0.6843 -0.4138
  187MPD1    H2 2851   2.731   1.283   0.632  2.0648 -0.5570 -2.1511
  187MPD1    H3 2852   2.596   1.485   0.656 -0.7467  0.1492  0.6699
  187MPD1     N 2853   2.306   1.390   0.328  0.1412 -0.0785  0.0354
  187MPD1    H5 2854   2.274   1.484   0.347  0.0794  0.2120 -1.4937
  187MPD1    N1 2855   2.668   1.085   0.464  0.3591  0.0552 -0.7419
  187MPD1    H6 2856   2.740   1.082   0.536 -0.2308 -0.2137 -0.1714
  187MPD1    H7 2857   2.605   1.009   0.490  0.2574 -0.1468 -1.5683
  188MPD1     C 2858   1.303   2.082  10.618 -0.8365  0.5324  0.6167
  188MPD1    C1 2859   1.434   2.051  10.630  0.6219  0.2078 -0.0425
  188MPD1    C2 2860   1.483   1.948  10.547  0.3476 -1.0134 -0.3050
  188MPD1    C3 2861   1.400   1.884  10.462 -0.2374 -0.7232  0.1450
  188MPD1    C4 2862   1.273   1.931  10.441  0.3465 -0.2818 -0.2496
  188MPD1    C5 2863   1.225   2.029  10.522 -0.2966  0.4262  0.4726
  188MPD1     H 2864   1.590   1.930  10.541  0.2262 -1.5673 -0.7982
  188MPD1    H1 2865   1.203   1.887  10.371 -0.9673  0.1503  0.7966
  188MPD1    H2 2866   1.267   2.165  10.677 -2.5783 -0.3109  0.7242
  188MPD1    H3 2867   1.132   2.078  10.496 -1.2038 -2.2053 -1.1627
  188MPD1     N 2868   1.442   1.770  10.393 -0.0074  0.3459 -0.2872
  188MPD1    H5 2869   1.371   1.739  10.327  1.1007  0.1680 -1.4084
  188MPD1    N1 2870   1.530   2.119  10.713  0.2478  0.1626 -0.1609
  188MPD1    H6 2871   1.596   2.051  10.750 -2.7403 -1.4938  2.1582
  188MPD1    H7 2872   1.490   2.167  10.794  1.9508 -0.4805  1.0537
  189MPD1     C 2873   4.321   2.381   0.497 -0.3338 -0.1450  0.1036
  189MPD1    C1 2874   4.239   2.476   0.445  0.3290 -0.0706  0.1951
  189MPD1    C2 2875   4.106   2.481   0.486 -0.0044 -0.0656  0.6829
  189MPD1    C3 2876   4.057   2.404   0.586  0.2181  0.4817 -0.5675
  189MPD1    C4 2877   4.146   2.312   0.648 -0.0965  0.1065  0.4767
  189MPD1    C5 2878   4.276   2.310   0.604 -0.4007 -0.3707 -0.2094
  189MPD1     H 2879   4.048   2.563   0.443 -0.8221 -0.4621  1.0335
  189MPD1    H1 2880   4.115   2.248   0.730  0.2554 -0.1271  0.4256
  189MPD1    H2 2881   4.422   2.369   0.459 -1.1826  1.5360 -2.7080
  189MPD1    H3 2882   4.338   2.240   0.658 -0.7333 -0.5564 -0.0734
  189MPD1     N 2883   3.922   2.407   0.619  0.4149  0.2397 -0.9437
  189MPD1    H5 2884   3.874   2.486   0.578 -1.2629  0.1444  0.8005
  189MPD1    N1 2885   4.280   2.563   0.340 -0.6334 -0.7198  0.2185
  189MPD1    H6 2886   4.231   2.651   0.329 -0.9821 -0.5874  2.9729
  189MPD1    H7 2887   4.382   2.570   0.339 -0.8566  2.2695 -1.3609
  190MPD1     C 2888   2.041   0.452  15.747  0.3290 -0.3296 -0.7764
  190MPD1    C1 2889   2.122   0.340  15.740 -0.1668  0.0305 -1.0247
  190MPD1    C2 2890   2.255   0.356  15.771  0.4546 -0.3749 -0.1777
  190MPD1    C3 2891   2.311   0.481  15.797  0.1187  0.0017  0.2472
  190MPD1    C4 2892   2.229   0.590  15.780  0.2380  0.7375  0.3664
  190MPD1    C5 2893   2.096   0.577  15.756  0.7964  0.2109 -0.1180
  190MPD1     H 2894   2.312   0.266  15.793 -0.7513 -1.3480 -1.0630
  190MPD1    H1 2895   2.266   0.692  15.780  0.0760  0.7927  1.5341
  190MPD1    H2 2896   1.933   0.453  15.736  0.0808  1.2869  1.9266
  190MPD1    H3 2897   2.035   0.664  15.734 -1.1546 -0.5729  2.1854
  190MPD1     N 2898   2.451   0.490  15.832 -0.4115  0.1635 -0.3733
  190MPD1    H5 2899   2.506   0.405  15.832  0.7313  0.9082 -0.4127
  190MPD1    N1 2900   2.059   0.216  15.723  0.6583  0.1254 -0.0748
  190MPD1    H6 2901   1.962   0.224  15.696  0.4415  0.3522  0.7647
  190MPD1    H7 2902   2.104   0.162  15.650 -1.6332 -0.4995 -1.0110
  191MPD1     C 2903   2.217   2.637  12.773 -0.3585 -0.9621 -0.3457
  191MPD1    C1 2904   2.089   2.590  12.769 -0.1696 -0.3260 -0.2931
  191MPD1    C2 2905   1.995   2.650  12.694 -0.7897  0.4318 -0.4075
  191MPD1    C3 2906   2.032   2.762  12.618  0.3356 -0.2485 -0.5114
  191MPD1    C4 2907   2.160   2.808  12.617  0.0998 -0.2827  0.3211
  191MPD1    C5 2908   2.254   2.743  12.693  0.4194  0.5750 -0.4620
  191MPD1     H 2909   1.894   2.613  12.700 -1.8207  3.3036 -0.2598
  191MPD1    H1 2910   2.186   2.893  12.554  0.2745 -1.4158 -1.1506
  191MPD1    H2 2911   2.279   2.587  12.847  0.9394  0.9781 -0.1127
  191MPD1    H3 2912   2.356   2.780  12.697  0.8576 -0.7633  0.8474
  191MPD1     N 2913   1.946   2.837  12.543 -0.9099 -0.3305  0.1212
  191MPD1    H5 2914   1.984   2.919  12.498 -1.3249 -1.3914 -2.1415
  191MPD1    N1 2915   2.049   2.488  12.849  0.5862 -0.4268 -0.3042
  191MPD1    H6 2916   2.114   2.414  12.873 -0.3170 -0.7672  1.1085
  191MPD1    H7 2917   1.961   2.449  12.816  0.6620  1.5915 -2.8877
  192MPD1     C 2918   1.098   3.495  12.455 -0.2088  0.1345 -0.4101
  192MPD1    C1 2919   1.208   3.494  12.531 -0.0708  0.3154 -0.7173
  192MPD1    C2 2920   1.304   3.401  12.496  0.2500  0.5636 -0.0068
  192MPD1    C3 2921   1.285   3.303  12.394  0.0677  0.6181 -0.2196
  192MPD1    C4 2922   1.178   3.314  12.312  0.0994 -0.2263 -0.4748
  192MPD1    C5 2923   1.081   3.415  12.342 -0.3050 -0.0659 -0.3150
  192MPD1     H 2924   1.403   3.397  12.540  0.1018  3.6586  0.5978
  192MPD1    H1 2925   1.163   3.259  12.219  0.6952 -1.1114 -0.0488
  192MPD1    H2 2926   1.019   3.569  12.459  0.0002  0.3901 -0.9924
  192MPD1    H3 2927   0.991   3.432  12.283  0.0245  1.6447 -0.3421
  192MPD1     N 2928   1.382   3.206  12.365 -0.2023  0.0352  0.4443
  192MPD1    H5 2929   1.373   3.152  12.280 -0.9911  1.8150 -0.6110
  192MPD1    N1 2930   1.229   3.574  12.642  0.0746  0.6730  0.3323
  192MPD1    H6 2931   1.325   3.607  12.652  1.1158 -1.7349 -1.7495
  192MPD1    H7 2932   1.160   3.643  12.671 -0.3700  1.1705 -1.9269
  193MPD1     C 2933   1.975   2.532  17.651 -0.2474  0.0298 -0.2336
  193MPD1    C1 2934   2.010   2.457  17.545 -0.0383  0.3482  0.4706
  193MPD1    C2 2935   2.007   2.526  17.420  0.1601 -0.1471  1.4061
  193MPD1    C3 2936   1.979   2.662  17.404  0.5744  0.3056  0.7138
  193MPD1    C4 2937   1.960   2.729  17.517  0.1478 -0.1843 -0.2557
  193MPD1    C5 2938   1.960   2.673  17.639  0.0625 -0.8827 -0.5334
  193MPD1     H 2939   2.037   2.461  17.339  1.1473  0.3568  1.3782
  193MPD1    H1 2940   1.937   2.835  17.509  0.3836 -0.0579  0.7414
  193MPD1    H2 2941   1.966   2.487   0.052 -2.6073  0.0884 -0.3999
  193MPD1    H3 2942   1.921   2.734   0.023 -0.9496 -2.1864 -0.0242
  193MPD1     N 2943   1.977   2.731  17.280  0.2954  0.3426  0.2865
  193MPD1    H5 2944   1.961   2.830  17.300 -1.6502 -0.5267  3.0185
  193MPD1    N1 2945   2.021   2.320  17.557 -0.4263 -0.2091  1.0555
  193MPD1    H6 2946   2.094   2.283  17.498 -1.7027 -0.4548 -0.3637
  193MPD1    H7 2947   2.039   2.299  17.655  2.5921  2.0528  0.9966
  194MPD1     C 2948   3.827   0.512  17.331 -0.3659  1.1036 -0.1272
  194MPD1    C1 2949   3.851   0.495  17.202 -0.4944  0.6795  0.7580
  194MPD1    C2 2950   3.882   0.373  17.149  0.1536  0.4900 -0.5310
  194MPD1    C3 2951   3.881   0.263  17.232 -0.0758  0.0245 -0.1970
  194MPD1    C4 2952   3.843   0.282  17.367 -0.0451 -0.2764  0.0300
  194MPD1    C5 2953   3.799   0.404  17.406 -0.3289 -0.3805  0.0485
  194MPD1     H 2954   3.935   0.378  17.055  1.8302 -4.3493  0.1210
  194MPD1    H1 2955   3.839   0.200  17.438 -1.6975  0.0568  0.3405
  194MPD1    H2 2956   3.812   0.612  17.369 -1.2583  0.2288  1.8318
  194MPD1    H3 2957   3.754   0.423  17.503  0.5527 -0.1619  0.4165
  194MPD1     N 2958   3.944   0.134  17.198  0.2262 -0.0515 -0.0736
  194MPD1    H5 2959   3.943   0.068  17.274 -1.0156  0.0839  0.0212
  194MPD1    N1 2960   3.874   0.609  17.122 -0.3364 -0.1655  0.4770
  194MPD1    H6 2961   3.827   0.691  17.158 -1.0193  0.2972 -1.4451
  194MPD1    H7 2962   3.845   0.591  17.026  0.5998 -0.6014  0.2711
  195MPD1     C 2963   1.621   2.357   0.433  0.2672 -0.5926 -0.4090
  195MPD1    C1 2964   1.714   2.269   0.381 -0.2111 -0.7602  0.6028
  195MPD1    C2 2965   1.722   2.138   0.426  0.1661 -0.1689  0.1555
  195MPD1    C3 2966   1.632   2.091   0.524  0.5531 -1.1324 -0.5228
  195MPD1    C4 2967   1.534   2.176   0.571  0.1963  0.6516 -0.6676
  195MPD1    C5 2968   1.537   2.305   0.529  0.2764  0.4819  0.1728
  195MPD1     H 2969   1.800   2.081   0.378  0.6027 -1.1897  2.0919
  195MPD1    H1 2970   1.459   2.137   0.639 -0.3694 -2.4043 -3.0676
  195MPD1    H2 2971   1.609   2.462   0.410  3.3906 -0.1738 -0.1343
  195MPD1    H3 2972   1.468   2.374   0.576 -0.7898 -1.3076  1.2512
  195MPD1     N 2973   1.644   1.962   0.582  0.5336  0.2139 -0.3344
  195MPD1    H5 2974   1.564   1.926   0.634  0.2543  0.2662 -0.7237
  195MPD1    N1 2975   1.808   2.307   0.279 -0.4735 -0.2402  0.7858
  195MPD1    H6 2976   1.877   2.239   0.249  0.7431  1.2026  0.3142
  195MPD1    H7 2977   1.869   2.385   0.304  2.0660 -1.3505 -1.9489
  196MPD1     C 2978   0.556   1.646  17.306 -0.0068 -0.0395 -0.4894
  196MPD1    C1 2979   0.659   1.557  17.319 -0.1855 -0.3444 -0.3371
  196MPD1    C2 2980   0.719   1.532  17.441  0.2096 -0.4378  0.5626
  196MPD1    C3 2981   0.677   1.607  17.557  0.2886 -0.3827 -1.0858
  196MPD1    C4 2982   0.575   1.697  17.539 -0.7343 -0.4891  0.5035
  196MPD1    C5 2983   0.520   1.715  17.418 -0.9390  0.2345 -0.1808
  196MPD1     H 2984   0.797   1.458  17.454  2.4032  2.0460  1.4466
  196MPD1    H1 2985   0.532   1.752  17.621 -1.3506 -0.6093  0.2657
  196MPD1    H2 2986   0.502   1.657  17.212 -0.1958  1.0751 -0.2475
  196MPD1    H3 2987   0.436   1.782  17.406 -0.9033  0.0503 -1.5439
  196MPD1     N 2988   0.710   1.575  17.691 -0.2546  0.3043 -0.2335
  196MPD1    H5 2989   0.667   1.630   0.068 -2.2865 -0.5360 -0.7981
  196MPD1    N1 2990   0.690   1.478  17.203  0.4025 -0.1858  0.9742
  196MPD1    H6 2991   0.770   1.419  17.221 -2.0251 -3.2072  1.9645
  196MPD1    H7 2992   0.701   1.519  17.111  1.1172 -0.6355  0.8665
  197MPD1     C 2993   0.038   2.766  17.312  0.0221  0.5514 -0.2560
  197MPD1    C1 2994   0.168   2.767  17.369 -0.0094  0.6204 -0.2677
  197MPD1    C2 2995   0.263   2.847  17.306 -0.5225  0.3388  0.5746
  197MPD1    C3 2996   0.239   2.921  17.192 -0.4609 -0.7609 -0.1987
  197MPD1    C4 2997   0.115   2.897  17.134 -0.1571 -0.3019 -0.5903
  197MPD1    C5 2998   0.019   2.828  17.190  0.9150  0.1506  0.4832
  197MPD1     H 2999   0.365   2.844  17.344 -0.3391  2.3065  0.2706
  197MPD1    H1 3000   0.108   2.951  17.040 -0.2045 -0.0930 -0.4654
  197MPD1    H2 3001   4.683   2.712  17.362  0.8879 -1.5406 -1.1774
  197MPD1    H3 3002   4.644   2.819  17.148  1.3483 -1.5805 -0.1953
  197MPD1     N 3003   0.335   2.996  17.128 -0.0620 -0.0436  0.0948
  197MPD1    H5 3004   0.317   3.016  17.030  0.2085  1.1266  0.2784
  197MPD1    N1 3005   0.190   2.715  17.495 -0.3191 -0.3236  0.3020
  197MPD1    H6 3006   0.144   2.626  17.510 -2.0715  0.5819  0.4331
  197MPD1    H7 3007   0.287   2.698  17.517  0.3698 -0.0089 -2.4632
  198MPD1     C 3008   2.798   1.690  16.490 -0.3769  0.3497  0.7275
  198MPD1    C1 3009   2.815   1.630  16.369  0.0809  0.0540 -1.1101
  198MPD1    C2 3010   2.918   1.686  16.289 -0.3890 -0.4431 -0.1689
  198MPD1    C3 3011   2.996   1.789  16.330 -0.0337 -0.4518  0.2720
  198MPD1    C4 3012   2.980   1.845  16.456 -0.4945  0.0507 -0.1524
  198MPD1    C5 3013   2.872   1.801  16.534 -0.2357  0.1310 -0.6202
  198MPD1     H 3014   2.938   1.649  16.189 -0.6307  0.3052 -0.4869
  198MPD1    H1 3015   3.041   1.928  16.488 -1.2038  1.3854 -2.2372
  198MPD1    H2 3016   2.723   1.662  16.564 -0.5201 -0.9105  0.1129
  198MPD1    H3 3017   2.836   1.850  16.623  3.1865  0.1966  0.7104
  198MPD1     N 3018   3.098   1.827  16.246 -0.3272 -0.1027  0.0280
  198MPD1    H5 3019   3.110   1.772  16.161 -0.5731  0.6054 -0.4682
  198MPD1    N1 3020   2.740   1.509  16.342  0.7237  0.3721 -0.1532
  198MPD1    H6 3021   2.742   1.478  16.245  1.5305 -0.6682  0.1855
  198MPD1    H7 3022   2.644   1.514  16.373  0.1903  1.7761 -1.9880
  199MPD1     C 3023   3.987   2.125   9.765 -0.1990 -0.1280  0.4128
  199MPD1    C1 3024   3.876   2.154   9.684  0.2197 -0.5127  0.2227
  199MPD1    C2 3025   3.868   2.282   9.642 -1.3695  0.5061 -0.5305
  199MPD1    C3 3026   3.965   2.376   9.678 -0.3508  0.3083 -0.8073
  199MPD1    C4 3027   4.082   2.342   9.744  0.4014  0.0638 -0.2113
  199MPD1    C5 3028   4.092   2.209   9.785  0.0772 -0.1870  0.3392
  199MPD1     H 3029   3.778   2.306   9.586 -0.8087  1.6741 -0.9193
  199MPD1    H1 3030   4.155   2.417   9.772 -3.1447  2.2387  3.2406
  199MPD1    H2 3031   4.002   2.023   9.800  1.7912  0.7232  2.0920
  199MPD1    H3 3032   4.180   2.172   9.837 -0.2642  1.8719  2.3703
  199MPD1     N 3033   3.964   2.514   9.640  0.2970  0.0473 -0.3389
  199MPD1    H5 3034   4.051   2.563   9.656  0.5314  0.0361 -1.5468
  199MPD1    N1 3035   3.767   2.067   9.684  0.0335 -1.1286 -0.1234
  199MPD1    H6 3036   3.789   1.969   9.698  2.4425 -0.6716 -0.6302
  199MPD1    H7 3037   3.708   2.070   9.601  0.9488 -2.1991 -0.7973
  200MPD1     C 3038   3.211   2.940  14.597 -0.6175 -1.2011  0.2108
  200MPD1    C1 3039   3.268   2.969  14.477  0.2297  0.9007 -0.9906
  200MPD1    C2 3040   3.390   3.039  14.468  0.1868 -0.0413  0.1826
  200MPD1    C3 3041   3.448   3.090  14.585 -0.6594  0.6169 -0.6204
  200MPD1    C4 3042   3.369   3.070  14.705  0.7337  0.1711 -0.1229
  200MPD1    C5 3043   3.256   2.998  14.708  0.2895 -0.0815 -0.5250
  200MPD1     H 3044   3.443   3.049  14.374  1.7382 -1.0776  0.9453
  200MPD1    H1 3045   3.399   3.121  14.796  3.0620 -2.0284  0.3201
  200MPD1    H2 3046   3.125   2.874  14.602 -1.7355  0.1058 -1.7852
  200MPD1    H3 3047   3.206   2.969  14.799 -2.0050  1.8933 -1.1543
  200MPD1     N 3048   3.567   3.162  14.578  0.1240 -0.6871  0.1494
  200MPD1    H5 3049   3.606   3.151  14.485 -0.1265  0.7270 -0.1253
  200MPD1    N1 3050   3.236   2.889  14.371  0.2569 -0.1613  0.3065
  200MPD1    H6 3051   3.146   2.842  14.377  1.5308 -2.6279 -0.1936
  200MPD1    H7 3052   3.229   2.953  14.292 -1.9501  1.3933  1.7588
  201MPD1     C 3053   0.603   2.381  13.384  0.2146 -0.6421  0.1430
  201MPD1    C1 3054   0.607   2.303  13.267  0.2874  0.5443 -0.7225
  201MPD1    C2 3055   0.732   2.262  13.219 -0.5106  0.2939 -0.3234
  201MPD1    C3 3056   0.851   2.307  13.282 -0.1283  0.2553 -0.2302
  201MPD1    C4 3057   0.837   2.378  13.403  0.8119 -0.1807  0.1600
  201MPD1    C5 3058   0.714   2.416  13.448 -0.2713  0.4393  0.0620
  201MPD1     H 3059   0.729   2.216  13.121 -0.8457 -3.3188  1.3633
  201MPD1    H1 3060   0.921   2.406  13.466 -0.4203  0.0268  1.7359
  201MPD1    H2 3061   0.509   2.426  13.416  2.3451  3.5473  0.4490
  201MPD1    H3 3062   0.713   2.475  13.539  1.1059 -1.4274  1.2899
  201MPD1     N 3063   0.973   2.279  13.217  0.8189  0.0356  0.0153
  201MPD1    H5 3064   0.974   2.245  13.121 -2.5515 -1.2259  0.4278
  201MPD1    N1 3065   0.492   2.301  13.183  0.5195  0.4891 -0.2303
  201MPD1    H6 3066   0.481   2.219  13.124 -0.3826  0.8710 -0.5954
  201MPD1    H7 3067   0.410   2.291  13.243  0.5607  2.3716  0.1193
  202MPD1     C 3068   0.245   1.336   9.063  0.2576  0.1381 -0.1653
  202MPD1    C1 3069   0.309   1.449   9.021 -0.5495  0.4259 -0.2450
  202MPD1    C2 3070   0.325   1.544   9.117 -0.4813 -0.6264  0.2288
  202MPD1    C3 3071   0.331   1.502   9.249 -0.4000 -0.5581  0.0656
  202MPD1    C4 3072   0.301   1.375   9.287 -0.5162  0.5643  0.4235
  202MPD1    C5 3073   0.252   1.292   9.191 -0.1431 -0.1747 -0.1328
  202MPD1     H 3074   0.367   1.637   9.079 -0.9110 -0.3626  0.3998
  202MPD1    H1 3075   0.295   1.342   9.390  3.5468 -0.8470  0.2127
  202MPD1    H2 3076   0.211   1.269   8.985  0.8498 -1.0131  0.5642
  202MPD1    H3 3077   0.230   1.190   9.220 -0.2336 -0.0523  0.2244
  202MPD1     N 3078   0.378   1.591   9.356  0.5693 -0.1582  0.0058
  202MPD1    H5 3079   0.375   1.547   9.447  1.1433 -1.1502 -0.4541
  202MPD1    N1 3080   0.271   1.481   8.889 -0.6468 -0.5806  0.4677
  202MPD1    H6 3081   0.290   1.394   8.839 -1.3217 -0.5659  0.1772
  202MPD1    H7 3082   0.330   1.558   8.858 -0.9715 -0.0240  1.2302
  203MPD1     C 3083   4.618   2.935  12.404  0.8220  0.3195 -0.8352
  203MPD1    C1 3084   4.588   2.833  12.319 -0.1371  0.8430  0.0220
  203MPD1    C2 3085   4.645   2.706  12.338 -0.0665 -0.2511  0.2758
  203MPD1    C3 3086   0.013   2.689  12.441 -0.4001 -0.4423  0.3112
  203MPD1    C4 3087   0.049   2.795  12.521 -0.4975 -0.4889  0.2385
  203MPD1    C5 3088   4.711   2.918  12.505 -0.4091  0.3407  0.0600
  203MPD1     H 3089   4.608   2.626  12.275 -0.1499  0.0163 -0.0094
  203MPD1    H1 3090   0.130   2.788  12.594  0.1542  0.6195 -0.3728
  203MPD1    H2 3091   4.567   3.031  12.400 -1.1130 -0.7455 -1.9075
  203MPD1    H3 3092   0.029   3.009  12.546  0.1053 -0.7692  2.0076
  203MPD1     N 3093   0.057   2.558  12.468 -0.4083  0.1270  0.1555
  203MPD1    H5 3094   0.041   2.499  12.387  1.9417  1.5930 -1.3645
  203MPD1    N1 3095   4.492   2.854  12.218  0.1041 -0.0308  0.3218
  203MPD1    H6 3096   4.496   2.794  12.136 -1.5367 -0.4080  0.5170
  203MPD1    H7 3097   4.479   2.952  12.193 -1.5429 -0.7917 -1.8730
  204MPD1     C 3098   4.595   3.651  17.616  0.2639 -0.3503  0.1066
  204MPD1    C1 3099   4.657   3.630  17.495 -0.3972  0.4265  0.6120
  204MPD1    C2 3100   4.594   3.534  17.409  0.5386  0.9651  0.5178
  204MPD1    C3 3101   4.474   3.480  17.445  0.2341  0.2914 -0.2796
  204MPD1    C4 3102   4.416   3.502  17.564 -0.2979 -0.3536  1.1833
  204MPD1    C5 3103   4.476   3.593  17.647 -0.0168  0.1805 -0.8215
  204MPD1     H 3104   4.641   3.504  17.316  0.1601  0.6967  0.4126
  204MPD1    H1 3105   4.314   3.473  17.584 -0.8935  0.5947 -0.5675
  204MPD1    H2 3106   4.636   3.718  17.692 -1.1262 -0.3317  0.8440
  204MPD1    H3 3107   4.419   3.624   0.037  1.2765 -3.3501  1.2688
  204MPD1     N 3108   4.411   3.394  17.350  0.1994 -0.2217  1.0552
  204MPD1    H5 3109   4.464   3.376  17.265 -1.9623  0.6506 -0.4736
  204MPD1    N1 3110   0.066   3.663  17.465 -0.1503  0.2480  0.5469
  204MPD1    H6 3111   0.107   3.739  17.519  2.4357 -1.4676  1.0014
  204MPD1    H7 3112   0.075   3.684  17.366  0.1143 -1.2755  0.2379
  205MPD1     C 3113   4.096   2.226  16.500  0.7026  0.6523 -0.1843
  205MPD1    C1 3114   4.136   2.150  16.606 -0.5619  0.2297 -0.6926
  205MPD1    C2 3115   4.065   2.164  16.728  0.2953  0.1928  0.5713
  205MPD1    C3 3116   3.965   2.259  16.740  0.5837 -1.0572  0.0008
  205MPD1    C4 3117   3.937   2.341  16.635  0.8819 -0.3155  0.3616
  205MPD1    C5 3118   3.997   2.318  16.512 -0.3503  0.4426 -0.9605
  205MPD1     H 3119   4.094   2.104  16.813 -0.4077  2.9076  2.7296
  205MPD1    H1 3120   3.854   2.411  16.636 -0.6123 -2.0715  1.0653
  205MPD1    H2 3121   4.125   2.199  16.399 -1.1771 -1.4091 -0.1683
  205MPD1    H3 3122   3.976   2.381  16.426 -0.3369  1.5820 -0.1318
  205MPD1     N 3123   3.896   2.286  16.862 -0.0362  0.2154  0.2876
  205MPD1    H5 3124   3.823   2.356  16.861 -0.7975 -0.5968 -1.0988
  205MPD1    N1 3125   4.240   2.057  16.583  0.1873  0.2710 -0.2349
  205MPD1    H6 3126   4.231   2.024  16.488 -1.9922 -0.0308  0.0748
  205MPD1    H7 3127   4.263   1.983  16.650  0.0017 -0.7527 -1.2995
  206MPD1     C 3128   4.258   0.884  16.584  0.2814 -0.3101 -0.0806
  206MPD1    C1 3129   4.170   0.955  16.501  0.1660 -0.8051 -0.2921
  206MPD1    C2 3130   4.147   0.903  16.379 -0.6383 -0.0139 -0.3556
  206MPD1    C3 3131   4.195   0.778  16.337 -0.0085  0.1721 -0.6917
  206MPD1    C4 3132   4.266   0.700  16.427 -0.6470 -0.2848 -0.1898
  206MPD1    C5 3133   4.305   0.759  16.549  0.3090 -0.7185  0.6276
  206MPD1     H 3134   4.081   0.959  16.314 -1.3254  0.2655  0.5901
  206MPD1    H1 3135   4.303   0.600  16.408 -0.5659 -0.3032  0.0681
  206MPD1    H2 3136   4.276   0.914  16.686  4.1589  1.1455 -1.2017
  206MPD1    H3 3137   4.358   0.703  16.625  0.5158 -0.7723  0.4438
  206MPD1     N 3138   4.163   0.713  16.213 -0.5811  0.1667 -0.6351
  206MPD1    H5 3139   4.203   0.621  16.198 -1.6059 -0.4537  0.4773
  206MPD1    N1 3140   4.133   1.090  16.537  0.7636 -0.4340  0.7980
  206MPD1    H6 3141   4.037   1.104  16.508  1.1852  0.8077  0.0014
  206MPD1    H7 3142   4.128   1.100  16.639 -1.4496 -1.6691  0.7985
  207MPD1     C 3143   1.217   4.107  10.029 -0.6190 -0.2060 -0.6078
  207MPD1    C1 3144   1.337   4.163  10.012  0.4532 -0.5723  0.8639
  207MPD1    C2 3145   1.447   4.083   9.993 -0.1988 -0.7485 -0.3050
  207MPD1    C3 3146   1.427   3.944   9.976  0.2917  0.2591 -0.4251
  207MPD1    C4 3147   1.299   3.889   9.982  0.4682 -0.0753 -0.1810
  207MPD1    C5 3148   1.193   3.972  10.011  0.0074 -0.7929  0.8187
  207MPD1     H 3149   1.548   4.124   9.997  0.0007 -1.4300  1.7071
  207MPD1    H1 3150   1.277   3.787   9.953 -0.6697 -1.2370  4.8154
  207MPD1    H2 3151   1.135   4.169  10.064 -1.6282 -1.0253 -1.5262
  207MPD1    H3 3152   1.092   3.935  10.022 -0.7692  0.9069 -0.5606
  207MPD1     N 3153   1.533   3.860   9.963 -0.1185 -0.2667 -0.0693
  207MPD1    H5 3154   1.512   3.761   9.963  0.5984 -0.4157 -0.9441
  207MPD1    N1 3155   1.369   4.294  10.052 -0.4936 -0.0441 -0.0530
  207MPD1    H6 3156   1.443   4.334   9.995  1.3547 -1.7252  1.1821
  207MPD1    H7 3157   1.287   4.354  10.041 -0.0066  0.6676  0.1904
  208MPD1     C 3158   4.471   0.893  17.226 -0.4028 -0.2236 -0.2207
  208MPD1    C1 3159   4.583   0.973  17.219  0.4335 -0.0653  1.0932
  208MPD1    C2 3160   4.582   1.086  17.303  0.4807  0.0968 -0.1940
  208MPD1    C3 3161   4.472   1.144  17.365  0.0029  0.2235 -0.3706
  208MPD1    C4 3162   4.353   1.066  17.360  1.1051  0.2381  0.2201
  208MPD1    C5 3163   4.356   0.944  17.290 -0.0533  0.3811 -0.2008
  208MPD1     H 3164   4.676   1.139  17.312  0.2500  0.0905  2.4251
  208MPD1    H1 3165   4.255   1.101  17.391  1.9667  2.5610  0.2920
  208MPD1    H2 3166   4.464   0.792  17.188 -0.1089  0.4893 -2.1246
  208MPD1    H3 3167   4.260   0.894  17.285 -0.6919  1.5783  0.1347
  208MPD1     N 3168   4.486   1.266  17.433 -0.0326 -0.5302 -0.0052
  208MPD1    H5 3169   4.580   1.305  17.435  0.0006 -0.6391  0.5496
  208MPD1    N1 3170   4.706   0.919  17.169 -0.2519 -0.5433 -0.2835
  208MPD1    H6 3171   4.707   0.860  17.086 -0.2888 -0.6893 -0.1789
  208MPD1    H7 3172   0.046   0.996  17.148  0.6674 -1.7253 -1.8573
  209MPD1     C 3173   1.426   2.454  11.203 -0.2978  0.1222 -0.5619
  209MPD1    C1 3174   1.559   2.435  11.207 -0.8978  0.1689  0.1834
  209MPD1    C2 3175   1.639   2.537  11.160  0.0756  0.4424  0.0688
  209MPD1    C3 3176   1.578   2.643  11.096 -0.2670  0.8342  0.1899
  209MPD1    C4 3177   1.439   2.649  11.076 -0.3721 -0.3113 -0.1558
  209MPD1    C5 3178   1.361   2.555  11.141  0.5908 -0.0090 -0.1601
  209MPD1     H 3179   1.745   2.543  11.184  0.0690 -1.1350  0.5070
  209MPD1    H1 3180   1.394   2.737  11.030  2.1856  0.4286 -1.2210
  209MPD1    H2 3181   1.369   2.372  11.244 -0.1360 -0.6793 -1.9252
  209MPD1    H3 3182   1.253   2.551  11.143  0.5221  2.0373  0.1239
  209MPD1     N 3183   1.664   2.746  11.047  0.0198  0.2897  0.2709
  209MPD1    H5 3184   1.765   2.737  11.049  0.2061  1.9071 -1.1233
  209MPD1    N1 3185   1.617   2.332  11.286 -0.6974  0.4577 -0.0179
  209MPD1    H6 3186   1.565   2.245  11.288 -0.7786  0.5249  0.7240
  209MPD1    H7 3187   1.715   2.318  11.261 -0.1356  1.0243  1.8473
  210MPD1     C 3188   2.552   3.160  11.151 -0.8386 -0.2249 -0.5824
  210MPD1    C1 3189   2.498   3.038  11.153  0.5586  0.9797 -0.0826
  210MPD1    C2 3190   2.376   3.018  11.092 -0.1891 -0.4922 -0.6342
  210MPD1    C3 3191   2.300   3.120  11.037 -0.0065  0.3492  0.3439
  210MPD1    C4 3192   2.357   3.245  11.039 -0.5739  0.1618  0.3357
  210MPD1    C5 3193   2.483   3.259  11.088  0.3304 -0.3984 -0.0168
  210MPD1     H 3194   2.340   2.915  11.096  0.8983 -0.8046  1.3119
  210MPD1    H1 3195   2.299   3.322  10.990 -1.3232 -0.4704  0.2221
  210MPD1    H2 3196   2.649   3.174  11.197 -1.9908 -1.1352  2.1381
  210MPD1    H3 3197   2.529   3.357  11.100 -2.0005  0.5275  1.2169
  210MPD1     N 3198   2.170   3.103  10.985 -0.8862 -0.1765 -0.5008
  210MPD1    H5 3199   2.127   3.179  10.934  0.5513  1.1881  0.3392
  210MPD1    N1 3200   2.567   2.928  11.212 -0.6792  0.3267  0.1022
  210MPD1    H6 3201   2.520   2.839  11.197  1.2164 -0.9316  1.5999
  210MPD1    H7 3202   2.668   2.922  11.201 -0.5442  3.0817 -0.0113
  211MPD1     C 3203   0.019   1.829  16.742 -0.0639  0.1230 -0.1933
  211MPD1    C1 3204   4.679   1.836  16.863 -0.4796 -0.2657 -0.3096
  211MPD1    C2 3205   4.545   1.812  16.865 -0.3241 -0.5008 -0.0307
  211MPD1    C3 3206   4.475   1.781  16.755 -0.3124  0.3962 -1.3930
  211MPD1    C4 3207   4.542   1.782  16.633 -0.2076 -0.3682 -0.3214
  211MPD1    C5 3208   4.677   1.798  16.627  0.2487 -0.2290  0.2206
  211MPD1     H 3209   4.491   1.808  16.959  0.4643 -2.2223  0.3307
  211MPD1    H1 3210   4.487   1.767  16.541 -0.0006 -1.5219 -0.2496
  211MPD1    H2 3211   0.126   1.847  16.743  0.2516 -1.8141  0.8387
  211MPD1    H3 3212   0.014   1.806  16.537  1.0029 -1.0997  0.6493
  211MPD1     N 3213   4.331   1.770  16.759  0.2016  0.1226 -0.5112
  211MPD1    H5 3214   4.291   1.791  16.850  0.5238  0.7259 -0.5039
  211MPD1    N1 3215   0.026   1.864  16.982  0.0588  0.3668 -0.5487
  211MPD1    H6 3216   0.092   1.942  16.972 -0.3815  0.6737 -1.1286
  211MPD1    H7 3217   4.690   1.896  17.058 -0.3415  0.5810 -0.9519
  212MPD1     C 3218   3.633   1.039  16.769 -0.8553 -0.3073 -0.2611
  212MPD1    C1 3219   3.710   0.933  16.741 -0.7155 -0.3623 -0.1581
  212MPD1    C2 3220   3.676   0.807  16.794 -0.2214 -0.1278  0.1750
  212MPD1    C3 3221   3.548   0.780  16.847  0.3230 -0.0108  0.2658
  212MPD1    C4 3222   3.463   0.888  16.852 -0.1582  0.0184  0.6593
  212MPD1    C5 3223   3.509   1.016  16.819  0.5182  0.2102  0.0311
  212MPD1     H 3224   3.752   0.730  16.782 -0.4355 -0.2203 -0.5775
  212MPD1    H1 3225   3.362   0.887  16.890 -0.8815  0.9293 -1.2427
  212MPD1    H2 3226   3.664   1.140  16.746 -1.0472 -1.1311 -4.1237
  212MPD1    H3 3227   3.437   1.095  16.839  1.6020  1.3479 -0.6141
  212MPD1     N 3228   3.509   0.658  16.906 -0.2856  0.0396  0.5058
  212MPD1    H5 3229   3.413   0.651  16.937 -0.1564 -2.8839  0.2346
  212MPD1    N1 3230   3.845   0.958  16.708 -0.2380 -0.8263 -0.3889
  212MPD1    H6 3231   3.888   0.876  16.667 -0.1552 -1.6248  1.2973
  212MPD1    H7 3232   3.852   1.032  16.637  2.1446 -2.1500 -1.5443
  213MPD1     C 3233   2.166   1.833  16.049 -0.2971  0.3640  0.2317
  213MPD1    C1 3234   2.237   1.851  15.932  0.4913  0.5984  0.0292
  213MPD1    C2 3235   2.183   1.792  15.817  0.0782  0.0780  0.3636
  213MPD1    C3 3236   2.057   1.734  15.808  0.6288 -0.3401 -0.0862
  213MPD1    C4 3237   1.981   1.736  15.932  0.5647 -0.0291 -0.2589
  213MPD1    C5 3238   2.036   1.785  16.046  0.7824  0.5314  0.2105
  213MPD1     H 3239   2.240   1.793  15.725 -0.9961 -0.7327 -0.3206
  213MPD1    H1 3240   1.892   1.674  15.937  0.2511  0.4030 -0.5175
  213MPD1    H2 3241   2.215   1.829  16.146 -0.5030 -0.7986  0.2890
  213MPD1    H3 3242   1.983   1.774  16.140  0.2556  2.3134  0.1251
  213MPD1     N 3243   2.006   1.680  15.686  0.3641 -0.0927 -0.3691
  213MPD1    H5 3244   2.074   1.676  15.611  0.6149  2.3464 -0.2644
  213MPD1    N1 3245   2.370   1.878  15.959  0.1962 -0.9033  0.2050
  213MPD1    H6 3246   2.372   1.965  16.012 -2.1044 -0.5514 -0.3018
  213MPD1    H7 3247   2.417   1.898  15.870  0.4409  0.6281  0.6778
  214MPD1     C 3248   1.376   0.925  15.222  0.6814  0.3530 -0.3896
  214MPD1    C1 3249   1.468   0.920  15.326  0.3047  0.3283 -0.1953
  214MPD1    C2 3250   1.564   1.012  15.338  0.4205  0.2481  0.1803
  214MPD1    C3 3251   1.556   1.129  15.263 -0.5044 -0.3630  0.1695
  214MPD1    C4 3252   1.456   1.146  15.174  0.2796  0.0427  0.1111
  214MPD1    C5 3253   1.373   1.038  15.147  0.8863 -0.0555 -0.0622
  214MPD1     H 3254   1.646   1.008  15.409  0.4548  1.4704  0.2122
  214MPD1    H1 3255   1.454   1.240  15.122  3.6256  1.6961  2.9362
  214MPD1    H2 3256   1.308   0.841  15.213 -0.8908  1.6849 -0.9006
  214MPD1    H3 3257   1.299   1.046  15.068 -1.0628  1.3586  1.9178
  214MPD1     N 3258   1.633   1.247  15.277  0.0515  0.6105 -0.4173
  214MPD1    H5 3259   1.630   1.315  15.202 -1.6757  0.0480 -0.8364
  214MPD1    N1 3260   1.481   0.798  15.394  0.1280  0.5458  0.8760
  214MPD1    H6 3261   1.519   0.809  15.488  2.2851  0.5581 -0.0036
  214MPD1    H7 3262   1.402   0.734  15.382  0.9028 -0.1447 -0.6432
  215MPD1     C 3263   0.965   2.797  11.313  0.1198 -0.1851 -0.1537
  215MPD1    C1 3264   1.051   2.702  11.353 -0.0160 -0.4354  0.2582
  215MPD1    C2 3265   1.190   2.724  11.352 -0.3138  0.1208 -0.7228
  215MPD1    C3 3266   1.237   2.851  11.323 -0.7546  0.2653  0.2816
  215MPD1    C4 3267   1.145   2.943  11.273  0.6959 -0.2409 -0.3709
  215MPD1    C5 3268   1.008   2.914  11.265 -0.5446  0.7205  0.1080
  215MPD1     H 3269   1.253   2.641  11.382 -1.4674 -0.7041 -0.5503
  215MPD1    H1 3270   1.170   3.044  11.242  0.4888 -0.0828 -0.0213
  215MPD1    H2 3271   0.857   2.783  11.306  0.3112 -1.8243  0.2075
  215MPD1    H3 3272   0.944   2.986  11.215 -1.1094  0.6735  0.7495
  215MPD1     N 3273   1.378   2.870  11.332  0.1813 -0.3877  0.5185
  215MPD1    H5 3274   1.427   2.790  11.372  1.1297 -0.9850 -1.8712
  215MPD1    N1 3275   0.992   2.574  11.370  0.5042  0.5389 -0.5673
  215MPD1    H6 3276   1.056   2.509  11.417  1.4436  1.1424 -1.0118
  215MPD1    H7 3277   0.897   2.576  11.405  1.6654  2.4064  2.4636
  216MPD1     C 3278   4.648   4.038  17.458 -0.2680 -0.5963  0.4901
  216MPD1    C1 3279   4.532   4.093  17.504 -0.2747  0.2522 -0.4529
  216MPD1    C2 3280   4.426   4.105  17.422 -0.3932  0.7711 -0.1030
  216MPD1    C3 3281   4.434   4.066  17.287 -0.3562 -0.0168 -0.3100
  216MPD1    C4 3282   4.556   4.022  17.244  0.0831  0.7754 -0.0144
  216MPD1    C5 3283   4.660   4.004  17.328  0.4481  0.4508  0.0294
  216MPD1     H 3284   4.332   4.131  17.469  0.6321  4.4355 -0.0528
  216MPD1    H1 3285   4.584   4.018  17.139  1.0433  0.1924  0.2585
  216MPD1    H2 3286   0.004   4.014  17.527  1.0891  0.2495 -0.7929
  216MPD1    H3 3287   0.026   3.957  17.291  0.9208  0.3656  1.2729
  216MPD1     N 3288   4.318   4.084  17.205 -0.3553 -0.2138  0.3588
  216MPD1    H5 3289   4.235   4.118  17.253 -0.4808 -0.5247  0.3646
  216MPD1    N1 3290   4.525   4.124  17.637  0.1626  0.6703  0.0301
  216MPD1    H6 3291   4.497   4.222  17.645 -0.3030  0.6951 -1.9987
  216MPD1    H7 3292   4.621   4.124  17.671  0.4317 -1.1686 -0.7799
  217MPD1     C 3293   0.000   1.160   8.596 -0.3601  0.8110  0.6477
  217MPD1    C1 3294   4.699   1.292   8.628  0.5321 -0.4592 -0.3158
  217MPD1    C2 3295   4.647   1.325   8.754 -0.8204 -0.0014  0.3078
  217MPD1    C3 3296   4.648   1.226   8.851 -1.3108  0.0551  0.4609
  217MPD1    C4 3297   4.698   1.102   8.815  0.2824 -0.8073  0.0717
  217MPD1    C5 3298   0.004   1.064   8.692 -0.0929  0.1208  0.0671
  217MPD1     H 3299   4.616   1.424   8.784  1.5027  1.8096 -3.1786
  217MPD1    H1 3300   4.702   1.029   8.895  0.1113  1.8599  2.5249
  217MPD1    H2 3301   0.028   1.132   8.495 -3.2864 -1.8709  0.5669
  217MPD1    H3 3302   0.047   0.967   8.672 -0.4321 -0.3423  1.5791
  217MPD1     N 3303   4.603   1.247   8.983 -0.0216  0.1003  0.3523
  217MPD1    H5 3304   4.622   1.172   9.049  0.6867 -0.0828 -0.0651
  217MPD1    N1 3305   4.703   1.396   8.530 -0.2161 -0.3395  0.1706
  217MPD1    H6 3306   0.017   1.486   8.560 -1.0956  0.2334 -0.4091
  217MPD1    H7 3307   0.044   1.368   8.457 -0.1127 -0.9229  0.4887
  218MPD1     C 3308   0.878   2.538  13.089  0.2181 -0.1279  0.1608
  218MPD1    C1 3309   0.986   2.614  13.125  0.2068 -0.7304 -0.3861
  218MPD1    C2 3310   1.098   2.616  13.049 -0.4923 -0.3228  0.4850
  218MPD1    C3 3311   1.106   2.542  12.930  0.5129  0.0818  0.2934
  218MPD1    C4 3312   0.997   2.467  12.890 -0.1704  0.4265 -0.4007
  218MPD1    C5 3313   0.887   2.464  12.977 -0.4442 -0.1735  0.1704
  218MPD1     H 3314   1.184   2.674  13.083 -0.6903 -0.3693  1.0633
  218MPD1    H1 3315   0.994   2.399  12.806 -0.2010 -0.0440 -0.0230
  218MPD1    H2 3316   0.791   2.526  13.152  0.6074 -4.0893 -0.0709
  218MPD1    H3 3317   0.811   2.391  12.951 -0.7636  0.3669 -0.4064
  218MPD1     N 3318   1.232   2.530  12.867  0.5037  0.0204  0.3387
  218MPD1    H5 3319   1.317   2.558  12.916 -0.5461  2.4675  0.7403
  218MPD1    N1 3320   0.985   2.680  13.250 -0.9123  0.2661 -0.6880
  218MPD1    H6 3321   1.041   2.765  13.244  0.3703 -0.5739 -0.5691
  218MPD1    H7 3322   0.889   2.705  13.271  0.2508  3.9814  0.2101
  219MPD1     C 3323   1.476   2.385  11.900 -0.2210  0.5916 -0.1583
  219MPD1    C1 3324   1.580   2.459  11.953 -0.2146  0.5970 -0.5608
  219MPD1    C2 3325   1.580   2.501  12.082 -0.5082  0.4880  0.3185
  219MPD1    C3 3326   1.485   2.449  12.172  0.7909 -0.3359 -0.6229
  219MPD1    C4 3327   1.380   2.375  12.121 -0.3681 -0.3982 -0.0287
  219MPD1    C5 3328   1.378   2.339  11.988  0.0544 -0.0079 -0.7577
  219MPD1     H 3329   1.656   2.571  12.114 -0.0248  0.0742  0.0869
  219MPD1    H1 3330   1.310   2.322  12.185 -2.3085  0.8911 -1.0765
  219MPD1    H2 3331   1.479   2.346  11.799  1.3176 -0.2852  0.2277
  219MPD1    H3 3332   1.292   2.283  11.954  0.7423 -0.5174 -1.6447
  219MPD1     N 3333   1.472   2.480  12.307  0.1974 -0.0796  0.0486
  219MPD1    H5 3334   1.394   2.438  12.356  0.1580 -2.5997 -2.2019
  219MPD1    N1 3335   1.666   2.517  11.859  0.1191 -0.6100 -0.5975
  219MPD1    H6 3336   1.672   2.468  11.769  0.8508  1.2982 -1.5928
  219MPD1    H7 3337   1.756   2.552  11.890 -0.7910 -1.2771  2.7485
  220MPD1     C 3338   2.108   4.179  10.133 -0.4596 -0.0661  0.0606
  220MPD1    C1 3339   2.156   4.084  10.219 -0.0467 -0.1216 -0.2588
  220MPD1    C2 3340   2.071   4.009  10.297 -0.2286  0.5961 -0.1820
  220MPD1    C3 3341   1.935   4.023  10.287 -0.0045  0.2575  0.3508
  220MPD1    C4 3342   1.885   4.118  10.194  0.4237  0.2483  0.2116
  220MPD1    C5 3343   1.975   4.188  10.122 -0.6470 -0.1044  0.1727
  220MPD1     H 3344   2.113   3.931  10.360 -3.0352 -0.0236  0.9033
  220MPD1    H1 3345   1.777   4.128  10.188  0.1181 -2.3970  1.4069
  220MPD1    H2 3346   2.169   4.247  10.074 -0.5565  0.2263  0.2963
  220MPD1    H3 3347   1.934   4.258  10.050  0.1977  0.3775  0.1632
  220MPD1     N 3348   1.851   3.945  10.369 -0.1999 -0.0588  0.2975
  220MPD1    H5 3349   1.894   3.888  10.441  1.3426 -1.5007 -1.7559
  220MPD1    N1 3350   2.297   4.082  10.231 -0.3542 -0.2954  0.1751
  220MPD1    H6 3351   2.323   4.000  10.285  0.7133 -1.6953 -2.4586
  220MPD1    H7 3352   2.340   4.082  10.138 -1.4613 -1.2901 -0.3409
  221MPD1     C 3353   3.608   2.179  15.881  0.6698 -0.3379 -0.4027
  221MPD1    C1 3354   3.604   2.047  15.856  0.3859 -0.6469  0.2542
  221MPD1    C2 3355   3.700   1.965  15.914  0.3412  0.4382  0.0110
  221MPD1    C3 3356   3.816   2.022  15.970  0.5751 -0.2211  0.7086
  221MPD1    C4 3357   3.829   2.160  15.968 -0.3551  0.2670 -0.3886
  221MPD1    C5 3358   3.726   2.238  15.928  0.3366  0.4264 -0.3109
  221MPD1     H 3359   3.680   1.859  15.913 -0.0168  0.4986  0.3668
  221MPD1    H1 3360   3.917   2.210  16.008 -0.6572  1.1801 -0.8726
  221MPD1    H2 3361   3.524   2.246  15.869 -0.1841 -1.3924 -0.3567
  221MPD1    H3 3362   3.728   2.345  15.941  0.9667  0.1525  1.9064
  221MPD1     N 3363   3.922   1.943  16.025 -0.3826 -0.2607  0.0878
  221MPD1    H5 3364   4.000   1.993  16.067  0.1532 -1.8040  0.9096
  221MPD1    N1 3365   3.482   1.992  15.802  0.0478  0.2266 -0.1541
  221MPD1    H6 3366   3.494   1.895  15.773  0.2186  0.6860 -1.5902
  221MPD1    H7 3367   3.437   2.055  15.737 -2.1680 -0.7613  0.4366
  222MPD1     C 3368   3.541   0.746   0.166 -0.1441 -0.0263 -0.2267
  222MPD1    C1 3369   3.417   0.689   0.191 -0.1293 -0.0278 -0.3126
  222MPD1    C2 3370   3.355   0.712   0.311  1.1106 -0.0416  0.3832
  222MPD1    C3 3371   3.419   0.782   0.413  0.8089 -0.2183  0.2570
  222MPD1    C4 3372   3.536   0.839   0.382 -1.0507  0.6985 -0.6711
  222MPD1    C5 3373   3.591   0.831   0.259  0.8927 -0.2476 -0.5146
  222MPD1     H 3374   3.260   0.663   0.330 -0.0067  1.4993 -1.2962
  222MPD1    H1 3375   3.589   0.892   0.460  0.6942 -2.4764  0.3194
  222MPD1    H2 3376   3.590   0.731   0.071  0.8877 -1.8280  0.5867
  222MPD1    H3 3377   3.685   0.880   0.236  1.6597 -1.4490  0.0724
  222MPD1     N 3378   3.384   0.793   0.547 -0.3808  0.2450 -0.0654
  222MPD1    H5 3379   3.444   0.848   0.606 -2.2287  1.6859  0.4863
  222MPD1    N1 3380   3.336   0.628   0.089  0.2484 -0.2505  0.1469
  222MPD1    H6 3381   3.277   0.560   0.136  0.9281 -0.3776  0.8230
  222MPD1    H7 3382   3.387   0.582   0.014 -0.8622 -4.2049  1.8033
  223MPD1     C 3383   2.674   0.287   0.952 -0.4028  0.2282  0.2750
  223MPD1    C1 3384   2.771   0.263   0.853  0.1570  0.5519 -0.2238
  223MPD1    C2 3385   2.870   0.352   0.840  0.3881  0.1111 -0.5064
  223MPD1    C3 3386   2.884   0.460   0.925 -0.2655  0.5076  0.0695
  223MPD1    C4 3387   2.792   0.473   1.029 -0.3992 -0.2712 -0.6394
  223MPD1    C5 3388   2.686   0.388   1.045 -0.1453 -0.0726 -0.7923
  223MPD1     H 3389   2.942   0.323   0.764  1.3822  1.2084  0.0224
  223MPD1    H1 3390   2.794   0.550   1.105  0.8154 -0.8553 -0.0762
  223MPD1    H2 3391   2.590   0.220   0.967 -0.3014 -0.2390 -1.2770
  223MPD1    H3 3392   2.612   0.409   1.121  1.6159 -1.8799  1.4083
  223MPD1     N 3393   2.990   0.543   0.901  0.5191 -0.1073 -0.2445
  223MPD1    H5 3394   3.047   0.522   0.819 -2.3149 -0.1424 -2.2014
  223MPD1    N1 3395   2.774   0.143   0.781  0.1705  0.1778 -0.6778
  223MPD1    H6 3396   2.678   0.118   0.760 -0.3760  0.4336  1.4634
  223MPD1    H7 3397   2.824   0.177   0.699  3.5503 -1.6312  0.6325
  224MPD1     C 3398   4.473   2.169   8.899 -0.3068 -0.0008  0.0083
  224MPD1    C1 3399   4.531   2.070   8.966 -0.1600  0.0617  0.3971
  224MPD1    C2 3400   4.563   2.088   9.097  0.0480 -0.3368 -0.3938
  224MPD1    C3 3401   4.518   2.195   9.175 -0.0852  0.0534  0.5123
  224MPD1    C4 3402   4.457   2.297   9.109 -0.0844 -0.1055 -0.2892
  224MPD1    C5 3403   4.437   2.277   8.972 -0.0539 -0.0137  0.3574
  224MPD1     H 3404   4.597   2.000   9.149 -1.6061  0.3676  1.9185
  224MPD1    H1 3405   4.435   2.392   9.157  0.7987  0.7029 -1.4897
  224MPD1    H2 3406   4.456   2.167   8.792 -1.6174 -0.6262  0.2299
  224MPD1    H3 3407   4.389   2.364   8.928 -1.7690 -1.4839 -0.6449
  224MPD1     N 3408   4.544   2.217   9.316 -0.4998  0.3591  0.7024
  224MPD1    H5 3409   4.496   2.292   9.364  1.2369  1.0483  1.3545
  224MPD1    N1 3410   4.592   1.969   8.889 -0.1233  0.7807 -0.0592
  224MPD1    H6 3411   4.528   1.964   8.810  1.5025  0.5545 -1.3512
  224MPD1    H7 3412   4.590   1.878   8.935  0.1145  0.0133 -1.5590
  225MPD1     C 3413   1.698   3.237  13.093 -0.4235  0.3714 -0.8763
  225MPD1    C1 3414   1.616   3.300  13.183  0.6591  0.0899 -0.9382
  225MPD1    C2 3415   1.491   3.332  13.140  0.3402  0.3590 -0.3027
  225MPD1    C3 3416   1.439   3.277  13.025 -0.3254  0.5503 -0.2258
  225MPD1    C4 3417   1.515   3.193  12.949 -0.2555 -0.5792  0.4326
  225MPD1    C5 3418   1.654   3.186  12.976  0.3547 -0.3089 -0.5959
  225MPD1     H 3419   1.438   3.397  13.208 -0.4403 -1.7288  1.1083
  225MPD1    H1 3420   1.469   3.141  12.867  0.3405  0.5076 -0.5916
  225MPD1    H2 3421   1.806   3.232  13.104 -0.4447 -3.0361 -2.4169
  225MPD1    H3 3422   1.714   3.133  12.904  0.8421  0.1621 -0.5366
  225MPD1     N 3423   1.312   3.299  12.973 -0.1561  0.0108 -0.1702
  225MPD1    H5 3424   1.284   3.266  12.881  1.1536 -2.9982  0.5071
  225MPD1    N1 3425   1.680   3.369  13.284  0.2665  0.0117 -0.4465
  225MPD1    H6 3426   1.608   3.383  13.355 -0.7316  1.7405 -1.7930
  225MPD1    H7 3427   1.749   3.311  13.331  0.1742  1.3254  1.3258
  226MPD1     C 3428   4.709   1.637   9.467  0.0505  0.3137 -0.4709
  226MPD1    C1 3429   4.666   1.634   9.329  0.4344  0.2048  0.0144
  226MPD1    C2 3430   4.559   1.707   9.300 -0.0383 -0.1138  0.0062
  226MPD1    C3 3431   4.477   1.771   9.394 -0.1202 -0.2243  0.1303
  226MPD1    C4 3432   4.523   1.762   9.527  0.2825  0.5896 -0.2580
  226MPD1    C5 3433   4.639   1.697   9.560  0.0258 -0.0507  0.0012
  226MPD1     H 3434   4.523   1.703   9.198  0.3269  1.6201 -0.1849
  226MPD1    H1 3435   4.469   1.792   9.616  1.0609  0.9653  0.0896
  226MPD1    H2 3436   0.076   1.584   9.494  0.3164  1.2983  0.5757
  226MPD1    H3 3437   4.667   1.691   9.664  0.6368  5.5264  0.2102
  226MPD1     N 3438   4.360   1.830   9.349 -0.2013 -0.2051 -0.4682
  226MPD1    H5 3439   4.335   1.822   9.251 -1.5383 -0.7357 -0.0875
  226MPD1    N1 3440   0.024   1.581   9.231  0.6052  0.1040 -0.3098
  226MPD1    H6 3441   0.091   1.509   9.259  0.9965  0.2397 -0.9043
  226MPD1    H7 3442   4.708   1.545   9.144  0.7684  0.2504 -0.4449
  227MPD1     C 3443   3.966   1.380   8.835  0.7837  0.4618  0.1883
  227MPD1    C1 3444   4.089   1.405   8.895  0.4845  0.4914 -0.8528
  227MPD1    C2 3445   4.090   1.505   8.992  0.4374 -0.5304 -0.3342
  227MPD1    C3 3446   3.980   1.581   9.025  0.1851 -0.5656  0.4737
  227MPD1    C4 3447   3.855   1.555   8.968 -0.8005  0.3066  0.5300
  227MPD1    C5 3448   3.852   1.450   8.879 -0.1560  0.3078  0.1986
  227MPD1     H 3449   4.184   1.545   9.027 -0.0747  0.0679  0.3761
  227MPD1    H1 3450   3.760   1.603   8.989 -2.2959 -1.8776 -1.3129
  227MPD1    H2 3451   3.957   1.310   8.753  3.1128  3.8130 -2.9365
  227MPD1    H3 3452   3.759   1.414   8.838  1.1601 -2.5090 -0.3438
  227MPD1     N 3453   4.007   1.692   9.099 -0.4470 -0.1315 -0.1303
  227MPD1    H5 3454   4.104   1.709   9.125 -0.6435  0.6875  0.0692
  227MPD1    N1 3455   4.202   1.337   8.852 -0.2546  0.5310  0.2796
  227MPD1    H6 3456   4.213   1.301   8.758 -1.3969 -0.3770  0.4952
  227MPD1    H7 3457   4.286   1.368   8.901 -1.8886  2.8119  1.6648
  228MPD1     C 3458   3.041   1.665  13.148 -0.2499 -0.0127 -0.4690
  228MPD1    C1 3459   3.056   1.545  13.214 -0.0516 -0.6158 -1.5695
  228MPD1    C2 3460   2.979   1.443  13.168 -0.3389 -0.0210  0.6497
  228MPD1    C3 3461   2.871   1.460  13.085 -0.2315 -0.4869 -0.3596
  228MPD1    C4 3462   2.849   1.586  13.035 -0.1180  0.2950 -0.6455
  228MPD1    C5 3463   2.939   1.691  13.056  0.0119  0.5183 -0.5322
  228MPD1     H 3464   2.998   1.339  13.192  1.2161  0.1331  0.0996
  228MPD1    H1 3465   2.768   1.601  12.964 -0.8219  0.7978  0.2583
  228MPD1    H2 3466   3.110   1.748  13.151 -0.1298 -0.1450  0.3871
  228MPD1    H3 3467   2.934   1.786  13.005 -2.7950  0.6125 -0.1173
  228MPD1     N 3468   2.788   1.346  13.049 -0.0595 -0.5280  0.2136
  228MPD1    H5 3469   2.806   1.261  13.101  0.0165 -0.2533  0.6454
  228MPD1    N1 3470   3.174   1.525  13.285 -0.3659  0.1170  0.3358
  228MPD1    H6 3471   3.180   1.435  13.331 -2.2795  1.1718  2.6362
  228MPD1    H7 3472   3.183   1.593  13.361 -1.2159 -0.5297  1.0169
  229MPD1     C 3473   2.512   4.286  15.518  0.5194  0.7098  0.3088
  229MPD1    C1 3474   2.624   4.328  15.446  0.5836 -0.1850  0.4503
  229MPD1    C2 3475   2.736   4.249  15.434 -0.2530  0.3322  0.0612
  229MPD1    C3 3476   2.736   4.121  15.490  0.1699  0.0466  0.2451
  229MPD1    C4 3477   2.618   4.078  15.547  0.7661 -0.1083 -0.5415
  229MPD1    C5 3478   2.506   4.155  15.570  0.5316  0.0787 -0.0648
  229MPD1     H 3479   2.829   4.291  15.396  0.2348 -0.7713  0.0204
  229MPD1    H1 3480   2.619   3.980  15.593 -0.5222  1.1308  2.1071
  229MPD1    H2 3481   2.429   4.349  15.545  1.4991  3.2844 -2.7126
  229MPD1    H3 3482   2.423   4.114  15.627  1.7061 -1.6434  0.4000
  229MPD1     N 3483   2.850   4.036  15.489 -0.1083 -0.4181 -0.1325
  229MPD1    H5 3484   2.852   3.959  15.554 -2.1730  0.1812  0.6589
  229MPD1    N1 3485   2.629   4.457  15.400 -0.3616  0.3921  0.1932
  229MPD1    H6 3486   2.535   4.491  15.383 -0.7431 -0.4276  0.6734
  229MPD1    H7 3487   2.687   4.470  15.317 -1.5794  0.0703 -0.7014
  230MPD1     C 3488   3.634   3.570  15.959  0.1392  0.1980 -0.5679
  230MPD1    C1 3489   3.684   3.662  15.873  0.5786 -0.2798  0.0843
  230MPD1    C2 3490   3.600   3.725  15.782  0.0757  0.3726  0.2027
  230MPD1    C3 3491   3.464   3.710  15.790 -0.7592  0.0239  0.1160
  230MPD1    C4 3492   3.415   3.620  15.883 -0.7122 -0.2972  0.0302
  230MPD1    C5 3493   3.502   3.548  15.962 -0.7294  0.5595 -0.0360
  230MPD1     H 3494   3.640   3.792  15.707 -0.5842  1.2167  0.6006
  230MPD1    H1 3495   3.308   3.602  15.883 -0.9483  1.1260  0.6748
  230MPD1    H2 3496   3.700   3.507  16.019 -0.0565  0.6413  0.1125
  230MPD1    H3 3497   3.461   3.475  16.031  0.5645 -1.3134 -1.2524
  230MPD1     N 3498   3.389   3.788  15.702  0.8181  0.2983 -0.5805
  230MPD1    H5 3499   3.443   3.832  15.629  0.6523  2.2200  0.4464
  230MPD1    N1 3500   3.824   3.673  15.860 -0.2854  0.0964 -0.3650
  230MPD1    H6 3501   3.870   3.645  15.947  0.2860 -0.0553 -0.7143
  230MPD1    H7 3502   3.850   3.767  15.831 -0.4590  0.0676 -0.6146
  231MPD1     C 3503   1.377   1.540  15.359  0.3068  0.0213 -0.0132
  231MPD1    C1 3504   1.370   1.498  15.231  0.3221 -0.5685 -0.7945
  231MPD1    C2 3505   1.459   1.572  15.145  0.3059 -0.5821  0.0084
  231MPD1    C3 3506   1.556   1.654  15.201 -0.4576 -0.6182  0.2491
  231MPD1    C4 3507   1.568   1.674  15.334 -0.7795 -0.2335 -0.1530
  231MPD1    C5 3508   1.482   1.611  15.409 -0.4651 -0.0654  0.2351
  231MPD1     H 3509   1.451   1.556  15.038 -1.8304  2.4279 -0.2710
  231MPD1    H1 3510   1.641   1.737  15.384  2.0914 -2.8451 -1.0238
  231MPD1    H2 3511   1.303   1.508  15.433 -0.0969  0.8127 -0.0685
  231MPD1    H3 3512   1.491   1.631  15.515  1.5351  0.0276  0.0422
  231MPD1     N 3513   1.631   1.731  15.110  0.3244  0.5290 -0.2744
  231MPD1    H5 3514   1.593   1.716  15.017  2.6460 -1.2111 -0.9415
  231MPD1    N1 3515   1.260   1.424  15.191  0.1538 -1.5041 -0.0072
  231MPD1    H6 3516   1.241   1.348  15.257 -2.5558  0.9715  2.0858
  231MPD1    H7 3517   1.273   1.392  15.095  0.7627  0.7379 -0.6738
  232MPD1     C 3518   2.832   3.992  17.624 -0.3749 -0.0882 -0.6648
  232MPD1    C1 3519   2.704   3.987  17.676  0.6523 -0.2129 -0.5500
  232MPD1    C2 3520   2.656   3.863   0.012  0.3980  0.1114 -0.1246
  232MPD1    C3 3521   2.738   3.756   0.041  0.8320 -0.0095 -0.2470
  232MPD1    C4 3522   2.868   3.763   0.002  0.0361  0.1896 -0.2356
  232MPD1    C5 3523   2.914   3.884  17.644 -0.7333 -0.4654 -0.0832
  232MPD1     H 3524   2.552   3.847   0.038  0.8001 -0.0259  1.3708
  232MPD1    H1 3525   2.934   3.682   0.031 -1.1317 -0.7522 -0.2151
  232MPD1    H2 3526   2.877   4.078  17.576 -0.2618  1.7966  2.8669
  232MPD1    H3 3527   3.016   3.887  17.607 -0.5355 -0.1921  0.4802
  232MPD1     N 3528   2.682   3.643   0.094 -0.1311 -0.1533  0.0664
  232MPD1    H5 3529   2.589   3.652   0.133 -0.1014  0.6471 -0.0449
  232MPD1    N1 3530   2.617   4.095  17.670  0.3211  0.8085 -0.0013
  232MPD1    H6 3531   2.537   4.089   0.035 -0.0150  2.6187 -0.2727
  232MPD1    H7 3532   2.660   4.179   0.009  0.4610  1.2241 -1.1374
  233MPD1     C 3533   4.409   2.058   2.425 -0.0115  0.2625  0.4142
  233MPD1    C1 3534   4.363   2.044   2.295  0.0569  0.6152  0.9690
  233MPD1    C2 3535   4.445   2.011   2.194  0.5979  0.0377  1.2138
  233MPD1    C3 3536   4.583   2.004   2.222  0.3170 -0.4681  0.2026
  233MPD1    C4 3537   4.634   2.031   2.350 -0.3655 -0.2449  0.1470
  233MPD1    C5 3538   4.546   2.053   2.454  0.1440  0.6233 -0.6882
  233MPD1     H 3539   4.403   1.997   2.095 -1.8681  0.0130  2.2510
  233MPD1    H1 3540   0.016   2.035   2.374 -0.3511 -2.0832  0.4177
  233MPD1    H2 3541   4.338   2.078   2.504 -1.4215 -1.6445 -0.3842
  233MPD1    H3 3542   4.580   2.087   2.551 -1.1566 -4.3239  1.5078
  233MPD1     N 3543   4.679   1.978   2.126 -0.1805  0.1059  0.0037
  233MPD1    H5 3544   0.049   1.955   2.160 -0.8434 -2.7267 -0.0884
  233MPD1    N1 3545   4.223   2.050   2.284  0.0268  0.0758 -0.2612
  233MPD1    H6 3546   4.177   2.102   2.358  0.6779 -0.0785  0.2476
  233MPD1    H7 3547   4.190   2.072   2.190  1.4283  0.3191 -0.6975
  234MPD1     C 3548   0.645   0.899  10.679  0.5061 -0.2740  0.0892
  234MPD1    C1 3549   0.638   1.030  10.714 -0.6774  0.5402  0.0861
  234MPD1    C2 3550   0.630   1.121  10.606 -1.0083 -0.1664  0.3957
  234MPD1    C3 3551   0.633   1.079  10.478 -0.2385 -0.4214 -0.1538
  234MPD1    C4 3552   0.657   0.948  10.446  0.1213 -0.1193 -0.6254
  234MPD1    C5 3553   0.662   0.855  10.552 -0.1447  0.3895  0.0361
  234MPD1     H 3554   0.625   1.227  10.629  2.5251  0.1072 -0.0559
  234MPD1    H1 3555   0.666   0.908  10.346  1.6088  1.4958 -1.1387
  234MPD1    H2 3556   0.651   0.828  10.760  0.5623 -0.7516 -0.3341
  234MPD1    H3 3557   0.684   0.752  10.526  2.2049  1.0348 -0.5080
  234MPD1     N 3558   0.615   1.167  10.371  0.0099 -0.9379 -0.0694
  234MPD1    H5 3559   0.605   1.264  10.399  3.6258  0.0539 -2.3399
  234MPD1    N1 3560   0.607   1.075  10.842  0.8769  0.9074  0.0364
  234MPD1    H6 3561   0.639   1.167  10.873  1.0304  0.5350  0.9869
  234MPD1    H7 3562   0.638   1.007  10.911 -2.1687 -1.4862 -0.9600
  235MPD1     C 3563   1.557   1.600   9.542 -0.4829 -0.1476  0.2295
  235MPD1    C1 3564   1.467   1.511   9.482  0.0533 -0.1718  0.0357
  235MPD1    C2 3565   1.511   1.385   9.453  0.5338  0.5542 -0.3715
  235MPD1    C3 3566   1.636   1.341   9.483  0.4207  0.8285  0.2873
  235MPD1    C4 3567   1.724   1.426   9.542  0.1540 -0.5278  0.3970
  235MPD1    C5 3568   1.682   1.552   9.566  0.3428 -0.3065  0.3473
  235MPD1     H 3569   1.442   1.319   9.400 -1.3408 -0.1369  2.9279
  235MPD1    H1 3570   1.823   1.396   9.576  0.3566  0.5197  0.7527
  235MPD1    H2 3571   1.529   1.698   9.581 -5.3245 -1.3041 -0.3515
  235MPD1    H3 3572   1.755   1.609   9.622  1.1036 -0.3329 -0.5971
  235MPD1     N 3573   1.668   1.203   9.454 -0.5029  0.8137 -0.1524
  235MPD1    H5 3574   1.607   1.146   9.397  0.1148 -1.5075  1.4986
  235MPD1    N1 3575   1.333   1.549   9.466  0.0078  0.3376 -0.8031
  235MPD1    H6 3576   1.301   1.495   9.386  0.5427  0.1304 -0.8766
  235MPD1    H7 3577   1.321   1.648   9.445  2.3484  1.2209  1.9186
  236MPD1     C 3578   1.004   0.094  10.283  0.3155  0.2883 -0.1071
  236MPD1    C1 3579   1.091   0.201  10.265 -0.0905  0.8043  0.1633
  236MPD1    C2 3580   1.211   0.186  10.331 -0.8882 -0.1399 -0.2595
  236MPD1    C3 3581   1.240   0.081  10.417 -0.0757 -0.0175 -0.7176
  236MPD1    C4 3582   1.145   4.704  10.438  0.2626 -1.4283 -0.0744
  236MPD1    C5 3583   1.032   4.714  10.361  0.5128  0.2029 -0.0802
  236MPD1     H 3584   1.284   0.262  10.308  0.4171 -1.2752  0.0813
  236MPD1    H1 3585   1.166   4.619  10.501  0.7987 -1.6755 -0.5870
  236MPD1    H2 3586   0.913   0.080  10.225 -0.8374 -1.6831  2.1750
  236MPD1    H3 3587   0.960   4.634  10.377  1.3435 -0.9408 -2.0410
  236MPD1     N 3588   1.361   0.064  10.480 -0.5366 -0.4126  0.4035
  236MPD1    H5 3589   1.381   4.700  10.527  1.0611  0.7687  1.9361
  236MPD1    N1 3590   1.061   0.299  10.176 -0.4078  0.0681 -0.1713
  236MPD1    H6 3591   0.960   0.298  10.164 -0.4032 -0.1464 -0.1882
  236MPD1    H7 3592   1.079   0.387  10.224 -0.6652  0.6017 -1.0514
  237MPD1     C 3593   1.677   3.217  14.717  0.2697 -0.3119  0.3033
  237MPD1    C1 3594   1.698   3.082  14.733  0.7510  0.1011  0.7002
  237MPD1    C2 3595   1.610   3.004  14.805 -0.1367 -0.6152 -0.2014
  237MPD1    C3 3596   1.494   3.064  14.844 -0.2864 -0.4129  0.1434
  237MPD1    C4 3597   1.469   3.198  14.825 -0.4817  0.5419 -0.3440
  237MPD1    C5 3598   1.558   3.272  14.760  1.1180 -0.7047  0.3482
  237MPD1     H 3599   1.622   2.897  14.794 -1.3190 -0.8055  0.4646
  237MPD1    H1 3600   1.369   3.234  14.846 -0.4786  1.9649 -2.7382
  237MPD1    H2 3601   1.755   3.281  14.678 -1.3052  2.2179  1.3516
  237MPD1    H3 3602   1.531   3.377  14.758 -0.7145 -1.1986 -1.1232
  237MPD1     N 3603   1.383   2.992  14.887  0.0914  0.1547 -1.0902
  237MPD1    H5 3604   1.294   3.031  14.916 -0.3093 -2.3934  1.1760
  237MPD1    N1 3605   1.817   3.035  14.680 -0.0341 -0.6206 -0.4833
  237MPD1    H6 3606   1.821   2.934  14.692  2.0038 -0.7485 -2.2273
  237MPD1    H7 3607   1.802   3.045  14.580 -3.3155 -1.0929 -0.0383
  238MPD1     C 3608   2.623   2.003  15.454 -0.9302  0.6204 -0.1461
  238MPD1    C1 3609   2.598   2.034  15.323  0.7720 -0.7238 -0.6374
  238MPD1    C2 3610   2.576   1.933  15.230  0.2652  0.6024 -0.5232
  238MPD1    C3 3611   2.567   1.799  15.273  0.0977  0.9553 -0.2917
  238MPD1    C4 3612   2.593   1.771  15.413  0.0630  0.1819 -0.2203
  238MPD1    C5 3613   2.628   1.872  15.499 -0.3354 -0.1466  0.2919
  238MPD1     H 3614   2.551   1.962  15.129 -1.2607 -1.4294 -0.7180
  238MPD1    H1 3615   2.588   1.670  15.453 -0.3501 -0.6226 -2.3323
  238MPD1    H2 3616   2.631   2.087  15.521  0.9803  0.0540  0.3318
  238MPD1    H3 3617   2.642   1.841  15.602  0.5076 -0.1490  0.1798
  238MPD1     N 3618   2.549   1.685  15.189 -0.4077  0.8357 -0.3463
  238MPD1    H5 3619   2.538   1.600  15.244 -0.7356  1.1469  0.0736
  238MPD1    N1 3620   2.579   2.171  15.294 -0.1747  0.0303  0.5213
  238MPD1    H6 3621   2.638   2.228  15.355 -1.1121  0.3817  1.1000
  238MPD1    H7 3622   2.592   2.196  15.197  1.1731 -0.4943  0.5707
  239MPD1     C 3623   3.683   1.978  14.748 -0.8633 -0.7628 -0.6024
  239MPD1    C1 3624   3.547   1.986  14.764 -1.0321  0.4797 -0.2875
  239MPD1    C2 3625   3.478   2.093  14.695 -0.0876  1.3033  0.4467
  239MPD1    C3 3626   3.543   2.175  14.603  0.4274  0.9914 -0.0862
  239MPD1    C4 3627   3.680   2.174  14.602 -0.0064 -0.2990 -0.0903
  239MPD1    C5 3628   3.749   2.070  14.669  0.1792  0.0487  0.1336
  239MPD1     H 3629   3.375   2.115  14.721  0.5850  2.4521  2.1792
  239MPD1    H1 3630   3.725   2.243  14.532 -3.7172  1.3043 -0.9433
  239MPD1    H2 3631   3.731   1.899  14.804 -0.6533 -0.9612 -1.0599
  239MPD1    H3 3632   3.857   2.069  14.664  0.2439  2.3583  0.9337
  239MPD1     N 3633   3.482   2.259  14.512 -0.2963  0.5723  0.2070
  239MPD1    H5 3634   3.542   2.316  14.453 -1.3493  0.2261 -1.1761
  239MPD1    N1 3635   3.485   1.909  14.865  0.9251  0.3378  0.2043
  239MPD1    H6 3636   3.535   1.822  14.881  0.2360 -0.0738  0.1008
  239MPD1    H7 3637   3.387   1.889  14.847  1.6036 -3.2039  0.5560
  240MPD1     C 3638   2.440   2.432  13.085  0.0835 -0.1109  0.4810
  240MPD1    C1 3639   2.368   2.367  13.181 -0.3575 -0.7076 -0.1586
  240MPD1    C2 3640   2.433   2.288  13.274 -0.0686 -0.4628 -0.1956
  240MPD1    C3 3641   2.571   2.290  13.289  0.1381 -0.0827  0.6057
  240MPD1    C4 3642   2.638   2.368  13.194  0.1389 -0.4023 -0.3618
  240MPD1    C5 3643   2.570   2.433  13.091  0.9631 -0.0220  0.1275
  240MPD1     H 3644   2.375   2.232  13.346 -0.5296 -1.1884 -1.1397
  240MPD1    H1 3645   2.744   2.387  13.194 -0.2193  1.5584 -0.2474
  240MPD1    H2 3646   2.388   2.490  13.009  0.9799  2.0615  1.5411
  240MPD1    H3 3647   2.631   2.484  13.017  0.0073  2.6000  1.1425
  240MPD1     N 3648   2.633   2.222  13.396  0.2713  0.3659 -0.4795
  240MPD1    H5 3649   2.569   2.165  13.451 -0.7833  1.3129 -0.7221
  240MPD1    N1 3650   2.232   2.364  13.174  0.2432 -0.9173 -0.0037
  240MPD1    H6 3651   2.184   2.430  13.112  0.8749  0.0886  0.5771
  240MPD1    H7 3652   2.183   2.362  13.264  0.8252 -0.2634  0.3230
  241MPD1     C 3653   3.477   1.772  13.960  0.6854 -0.5203 -0.4180
  241MPD1    C1 3654   3.471   1.868  13.859  0.3983 -0.3816 -0.7098
  241MPD1    C2 3655   3.350   1.900  13.801  1.0890 -0.1433 -0.4084
  241MPD1    C3 3656   3.234   1.826  13.825  0.4918  0.2218 -0.0506
  241MPD1    C4 3657   3.242   1.720  13.915  0.3952  1.1573  0.2670
  241MPD1    C5 3658   3.361   1.699  13.979  0.4404  0.1853 -0.3165
  241MPD1     H 3659   3.350   1.982  13.730  1.6714  0.6828  0.5517
  241MPD1    H1 3660   3.149   1.675  13.949  0.5557 -0.5681 -1.5996
  241MPD1    H2 3661   3.566   1.762  14.021 -0.0877 -2.4105  0.3899
  241MPD1    H3 3662   3.356   1.633  14.065 -0.3796  2.6290  1.5000
  241MPD1     N 3663   3.104   1.867  13.775 -0.6133  0.4681  0.6039
  241MPD1    H5 3664   3.025   1.829  13.827 -0.7677  2.1238  1.5910
  241MPD1    N1 3665   3.569   1.967  13.852 -0.1306 -0.2965  0.3433
  241MPD1    H6 3666   3.661   1.931  13.876 -0.0761 -1.8852 -2.3142
  241MPD1    H7 3667   3.569   2.020  13.765 -0.4229 -0.6442  0.1307
  242MPD1     C 3668   2.832   0.938  15.715  0.2088 -0.4966 -0.1286
  242MPD1    C1 3669   2.757   0.976  15.612 -0.7824 -0.1407 -0.4700
  242MPD1    C2 3670   2.707   0.865  15.542  0.5696 -0.0245  0.4830
  242MPD1    C3 3671   2.767   0.741  15.548 -0.0831  0.2857  0.5452
  242MPD1    C4 3672   2.874   0.725  15.630 -0.0388 -0.2160 -0.3906
  242MPD1    C5 3673   2.899   0.821  15.719  0.6244 -0.1573  0.3581
  242MPD1     H 3674   2.619   0.883  15.482  2.3432 -0.7115 -2.3007
  242MPD1    H1 3675   2.923   0.628  15.628  0.0563 -0.1458 -1.5853
  242MPD1    H2 3676   2.860   1.008  15.794 -3.2982  0.9666 -0.1831
  242MPD1    H3 3677   2.969   0.795  15.798 -1.2661 -2.0683  1.3852
  242MPD1     N 3678   2.727   0.630  15.486  0.3292 -0.0703 -0.3987
  242MPD1    H5 3679   2.771   0.544  15.515 -0.5699 -0.0006  1.2063
  242MPD1    N1 3680   2.685   1.102  15.632  0.0757 -0.2728 -0.1862
  242MPD1    H6 3681   2.736   1.183  15.666  0.5754 -1.8159  2.7546
  242MPD1    H7 3682   2.647   1.129  15.542  1.4859  0.9883 -0.4114
  243MPD1     C 3683   0.508   3.840  16.988  0.2592 -0.3670 -0.8394
  243MPD1    C1 3684   0.441   3.902  16.887 -0.7308  0.7646 -0.2500
  243MPD1    C2 3685   0.303   3.871  16.875  1.1220  0.6013 -0.5353
  243MPD1    C3 3686   0.244   3.787  16.967 -0.6505 -1.3405 -0.2614
  243MPD1    C4 3687   0.315   3.738  17.076  0.5717  0.0198  0.7093
  243MPD1    C5 3688   0.450   3.757  17.077 -0.1723 -0.4258  0.5482
  243MPD1     H 3689   0.244   3.909  16.793 -0.0746 -1.7606 -0.7509
  243MPD1    H1 3690   0.278   3.692  17.167 -0.6014  0.5449  0.4973
  243MPD1    H2 3691   0.614   3.852  17.001  0.4607 -1.1090 -1.7530
  243MPD1    H3 3692   0.505   3.730  17.167  2.9028 -0.1032 -1.2527
  243MPD1     N 3693   0.103   3.765  16.963 -0.0065 -0.0317  1.6444
  243MPD1    H5 3694   0.047   3.808  16.890 -3.0898 -3.4205  1.9934
  243MPD1    N1 3695   0.507   3.998  16.809 -0.5048 -0.2298 -0.4584
  243MPD1    H6 3696   0.602   3.964  16.804 -0.9645 -1.5214 -0.3876
  243MPD1    H7 3697   0.459   3.992  16.719  0.6504  0.6246 -1.1248
  244MPD1     C 3698   4.100   3.828  17.638 -0.0631 -0.2021 -0.2691
  244MPD1    C1 3699   4.224   3.881  17.616 -0.3136 -0.4543 -0.2205
  244MPD1    C2 3700   4.290   3.821  17.512 -0.1123 -0.4123 -0.1559
  244MPD1    C3 3701   4.234   3.753  17.411  0.3864  0.3808 -0.7031
  244MPD1    C4 3702   4.098   3.724  17.422 -0.0835 -0.2833  0.2162
  244MPD1    C5 3703   4.042   3.758  17.543  0.4718 -0.1703  0.6208
  244MPD1     H 3704   4.393   3.849  17.496 -0.6331  1.7493  0.1745
  244MPD1    H1 3705   4.043   3.671  17.345  1.6647  0.5468 -1.5948
  244MPD1    H2 3706   4.049   3.845   0.035  0.5853  2.3597 -0.3716
  244MPD1    H3 3707   3.934   3.748  17.556  0.1180  2.2109 -0.5102
  244MPD1     N 3708   4.315   3.744  17.297 -0.4028 -0.6850  0.6474
  244MPD1    H5 3709   4.411   3.775  17.309  0.6233 -2.3660 -3.4721
  244MPD1    N1 3710   4.289   3.951   0.022  0.5305 -0.1318 -0.4853
  244MPD1    H6 3711   4.219   4.010   0.066 -0.0564 -0.1312 -1.4236
  244MPD1    H7 3712   4.363   4.007  17.678 -0.4166 -0.6125 -2.8163
  245MPD1     C 3713   0.811   3.925  13.747  0.2807  0.6412 -0.5199
  245MPD1    C1 3714   0.909   3.948  13.655 -0.9398 -0.0318 -0.0740
  245MPD1    C2 3715   1.008   4.036  13.689  0.3730  0.0183 -0.0597
  245MPD1    C3 3716   1.026   4.082  13.817 -0.3710 -0.7251  0.2627
  245MPD1    C4 3717   0.930   4.042  13.913 -0.3899 -0.6191 -0.6193
  245MPD1    C5 3718   0.822   3.966  13.875 -0.2219 -0.3596  0.1355
  245MPD1     H 3719   1.077   4.069  13.613 -0.1956  2.2415  0.3784
  245MPD1    H1 3720   0.914   4.092  14.008 -1.4377  1.7164 -2.0241
  245MPD1    H2 3721   0.728   3.856  13.731  0.8894 -0.5858  1.6755
  245MPD1    H3 3722   0.740   3.944  13.942  0.3508 -1.4618  0.4794
  245MPD1     N 3723   1.121   4.183  13.834  0.1568  0.3217 -0.6185
  245MPD1    H5 3724   1.175   4.198  13.749 -0.4518 -0.5024 -1.1545
  245MPD1    N1 3725   0.892   3.905  13.523 -0.1250  0.3490  0.5343
  245MPD1    H6 3726   0.848   3.814  13.508 -0.1354  0.3076  0.8067
  245MPD1    H7 3727   0.987   3.910  13.487 -0.1519 -0.2959  0.3706
  246MPD1     C 3728   0.756   3.672   9.891  0.0370 -0.0674  0.1146
  246MPD1    C1 3729   0.784   3.809   9.892  0.1707  0.5208  0.0179
  246MPD1    C2 3730   0.892   3.849   9.829  0.1259 -0.6828  0.0228
  246MPD1    C3 3731   0.987   3.769   9.771  0.2158  0.2192 -0.4980
  246MPD1    C4 3732   0.949   3.639   9.761  0.1153  0.2488 -0.0666
  246MPD1    C5 3733   0.830   3.591   9.819 -0.5812 -0.3851  0.6630
  246MPD1     H 3734   0.915   3.954   9.839 -1.4793 -0.4611  1.2543
  246MPD1    H1 3735   1.003   3.559   9.711  1.2983  0.6288  0.5970
  246MPD1    H2 3736   0.686   3.623   9.957 -2.9170  1.6242 -1.7688
  246MPD1    H3 3737   0.784   3.494   9.804  0.3412 -0.4817 -1.4876
  246MPD1     N 3738   1.113   3.827   9.725  0.1980 -0.5922 -0.5592
  246MPD1    H5 3739   1.125   3.927   9.736  2.3428 -0.5205 -3.4928
  246MPD1    N1 3740   0.705   3.905   9.962  0.0896  0.4925  0.0477
  246MPD1    H6 3741   0.617   3.867   9.996  0.8957 -0.7699  0.7132
  246MPD1    H7 3742   0.680   3.975   9.893 -0.7854  1.5965  1.4839
  247MPD1     C 3743   4.675   4.227  16.956 -0.1892 -0.4536  0.0552
  247MPD1    C1 3744   4.710   4.129  16.859 -0.9504 -0.4007 -0.5277
  247MPD1    C2 3745   0.103   4.154  16.781 -0.1885 -1.1973  0.0755
  247MPD1    C3 3746   0.172   4.278  16.790  0.0921  0.5596 -0.5208
  247MPD1    C4 3747   0.126   4.370  16.886 -0.1211  0.3510 -0.3414
  247MPD1    C5 3748   0.023   4.342  16.966 -0.4843 -0.7418 -0.3067
  247MPD1     H 3749   0.141   4.079  16.713 -0.5747 -1.3154 -0.0104
  247MPD1    H1 3750   0.170   4.469  16.899 -0.2115  0.4508 -0.7828
  247MPD1    H2 3751   4.594   4.216  17.026  0.1798  0.5266  0.6413
  247MPD1    H3 3752   4.717   4.415  17.040  1.1551 -0.1931 -0.1797
  247MPD1     N 3753   0.286   4.310  16.713 -0.9737 -0.4142 -0.2726
  247MPD1    H5 3754   0.336   4.393  16.744 -3.8148  0.1876  2.6008
  247MPD1    N1 3755   4.653   4.003  16.866  0.3771  0.0148 -0.2911
  247MPD1    H6 3756   4.661   3.954  16.777  1.7702 -2.8352  1.3904
  247MPD1    H7 3757   4.556   4.000  16.897  0.1248  0.7916 -1.0081
  248MPD1     C 3758   1.294   2.725   0.480  0.4827  0.7334  0.7597
  248MPD1    C1 3759   1.203   2.791   0.556 -0.3665  0.4762 -0.6796
  248MPD1    C2 3760   1.188   2.927   0.531 -0.0071 -0.2645 -0.0127
  248MPD1    C3 3761   1.265   2.995   0.440 -0.0647 -0.8833 -0.3111
  248MPD1    C4 3762   1.362   2.923   0.369  0.0111 -0.9059 -0.1344
  248MPD1    C5 3763   1.379   2.792   0.390  0.0281 -0.1405  0.1749
  248MPD1     H 3764   1.105   2.981   0.576 -0.0588  0.8203 -1.4090
  248MPD1    H1 3765   1.428   2.964   0.294  0.4090 -0.2088  0.6022
  248MPD1    H2 3766   1.299   2.617   0.478  0.6421  0.7729 -0.9843
  248MPD1    H3 3767   1.439   2.746   0.311  0.3351  2.1903 -0.9329
  248MPD1     N 3768   1.224   3.131   0.415  0.3126 -1.0182 -0.2225
  248MPD1    H5 3769   1.154   3.176   0.474  3.5800  0.8976  2.2284
  248MPD1    N1 3770   1.122   2.726   0.647 -0.3348 -0.6039  0.2681
  248MPD1    H6 3771   1.025   2.738   0.621 -0.3544  2.7566  1.9079
  248MPD1    H7 3772   1.149   2.628   0.639  2.5842  0.1106  1.3599
  249MPD1     C 3773   1.715   3.325   9.972 -0.1449 -0.7439 -0.1303
  249MPD1    C1 3774   1.745   3.406   9.867 -0.5443  1.0956  0.6403
  249MPD1    C2 3775   1.874   3.459   9.850  0.6737 -0.1681  0.2981
  249MPD1    C3 3776   1.973   3.413   9.935 -0.9163 -0.4135 -0.4243
  249MPD1    C4 3777   1.945   3.320  10.035  0.5288 -0.3418 -0.5106
  249MPD1    C5 3778   1.819   3.285  10.054  0.2612  0.1732  0.2874
  249MPD1     H 3779   1.890   3.537   9.777  2.1420 -1.9701 -1.3135
  249MPD1    H1 3780   2.018   3.278  10.103  0.9164 -1.1461 -1.4280
  249MPD1    H2 3781   1.614   3.291   9.993  0.0360  0.2314  2.3850
  249MPD1    H3 3782   1.795   3.232  10.145  1.0312 -0.7071 -0.0166
  249MPD1     N 3783   2.103   3.458   9.908 -0.0546  0.6506 -0.1495
  249MPD1    H5 3784   2.101   3.518   9.827  0.5406  0.0509 -0.6114
  249MPD1    N1 3785   1.628   3.456   9.799 -0.6266 -0.3540  0.0037
  249MPD1    H6 3786   1.562   3.380   9.786 -1.2201  0.5438 -2.2788
  249MPD1    H7 3787   1.653   3.503   9.712 -1.1824  0.6869  0.4101
  250MPD2     C 3788   3.738   3.064  13.253 -0.4889  0.1955 -0.0185
  250MPD2    C1 3789   3.673   3.064  13.133 -0.3034 -0.4204 -1.0445
  250MPD2    C2 3790   3.588   2.961  13.089  0.0380  0.4073 -0.6269
  250MPD2    C3 3791   3.582   2.847  13.165 -0.3891 -0.3788 -0.6864
  250MPD2    C4 3792   3.656   2.841  13.287  0.6040  0.3773  0.5405
  250MPD2    C5 3793   3.731   2.950  13.326  0.1173  0.4602 -0.3711
  250MPD2     H 3794   3.528   2.975  13.000  0.1155  2.4168 -0.3675
  250MPD2    H1 3795   3.649   2.761  13.359 -1.6296 -0.9225 -1.1162
  250MPD2    H2 3796   3.800   3.145  13.289 -0.2159  0.2817 -0.6753
  250MPD2    H3 3797   3.781   2.938  13.422  1.2053 -1.9052 -1.2306
  250MPD2     N 3798   3.517   2.730  13.115  0.4420  0.1925  0.0445
  250MPD2    H5 3799   3.540   2.641  13.158 -4.3196 -0.6349  0.8141
  250MPD2    N1 3800   3.686   3.184  13.055 -0.2007 -0.2384  0.0977
  250MPD2    H7 3801   3.740   3.263  13.090  0.4010 -0.7885  0.4034
  251TMC3    C1 3802   3.677   3.335  12.882 -0.0060  0.0121  0.5562
  251TMC3    C2 3803   3.636   3.432  12.965 -0.0571 -0.1234  0.0439
  251TMC3    C3 3804   3.708   3.548  12.943 -0.0012  0.2212  0.2167
  251TMC3    C4 3805   3.779   3.345  12.788 -0.6172  0.0355  1.0978
  251TMC3    C5 3806   3.857   3.460  12.782  0.2383  0.5228  0.2813
  251TMC3    C6 3807   3.812   3.567  12.847 -0.8960  0.6631  0.4754
  251TMC3     C 3808   3.648   3.200  12.920  0.1702 -0.9780  0.2967
  251TMC3     O 3809   3.635   3.118  12.830 -0.7165 -0.4182 -0.3274
  251TMC3     H 3810   3.554   3.421  13.034 -0.1287 -1.8839 -0.3158
  251TMC3    H1 3811   3.809   3.254  12.737  0.9574  0.5594  1.1021
  251TMC3    H2 3812   3.876   3.654  12.849  1.8261 -1.3595  3.0050
  251TMC3    C7 3813   4.005   3.439  12.774 -0.0678 -0.1697 -0.3836
  251TMC3    C8 3814   3.680   3.653  13.038 -0.6272  0.3091  0.4696
  251TMC3    O1 3815   4.073   3.529  12.825  0.0600  0.1266  0.3285
  251TMC3    O2 3816   3.646   3.617  13.149 -0.2697  0.0571 -0.2731
  252TMC3    C1 3817   4.586   3.674   9.345  0.2306  0.9522 -0.1406
  252TMC3    C2 3818   4.685   3.766   9.380  0.5836 -0.6740 -0.0929
  252TMC3    C3 3819   0.034   3.733   9.491 -0.2731 -0.0951 -0.7477
  252TMC3    C4 3820   4.579   3.543   9.403  0.1355  0.4930  0.5464
  252TMC3    C5 3821   4.662   3.517   9.505  0.7521  0.0698 -0.7480
  252TMC3    C6 3822   0.031   3.606   9.555  0.0367 -0.2666 -0.6037
  252TMC3     C 3823   4.503   3.708   9.233  1.3691 -0.4572 -0.2563
  252TMC3     O 3824   4.555   3.766   9.139  0.1009  0.3392 -0.3367
  252TMC3     H 3825   4.692   3.861   9.329  1.9999 -0.3100  0.7894
  252TMC3    H1 3826   4.513   3.467   9.363  0.6781 -0.4871  1.5005
  252TMC3    H2 3827   0.096   3.587   9.639 -0.7988  1.8489  0.5308
  252TMC3    C7 3828   4.664   3.380   9.556  0.9758 -0.4271 -0.5663
  252TMC3    C8 3829   0.159   3.808   9.506 -0.4961 -0.3068  0.3769
  252TMC3    O1 3830   0.047   3.359   9.614 -0.5295 -0.1646 -0.1930
  252TMC3    O2 3831   0.189   3.876   9.410  0.0250 -0.5361  0.5427
  253MPD2     C 3832   0.766   2.651  15.489  0.0905  0.5880  0.2240
  253MPD2    C1 3833   0.635   2.622  15.472  0.2389 -0.2240 -0.7745
  253MPD2    C2 3834   0.555   2.608  15.588  0.1078  0.6057  0.0878
  253MPD2    C3 3835   0.599   2.620  15.709 -0.1238  0.6652  0.0007
  253MPD2    C4 3836   0.735   2.640  15.723  0.4387  0.3354  0.1960
  253MPD2    C5 3837   0.819   2.656  15.614  0.1217 -0.0708 -0.2896
  253MPD2     H 3838   0.447   2.608  15.574  0.2101 -1.1554 -0.6646
  253MPD2    H1 3839   0.780   2.634  15.821 -1.3589  1.7326  1.1162
  253MPD2    H2 3840   0.833   2.661  15.405  1.0733  0.6198  1.0212
  253MPD2    H3 3841   0.924   2.680  15.629  0.0946 -0.0577 -0.1252
  253MPD2     N 3842   0.524   2.608  15.826  0.1069  0.2145 -0.2467
  253MPD2    H5 3843   0.578   2.628  15.909 -0.2285 -0.2360  0.0777
  253MPD2    N1 3844   0.571   2.612  15.349 -0.0428 -0.0080 -0.0691
  253MPD2    H7 3845   0.469   2.615  15.356  0.0868  1.7557  1.1305
  254TMC3    C1 3846   0.325   2.615  15.946  0.1169  0.1035 -0.3024
  254TMC3    C2 3847   0.236   2.716  15.933  0.3667 -0.2445 -0.2958
  254TMC3    C3 3848   0.178   2.773  16.046 -0.8128  0.5111 -0.1082
  254TMC3    C4 3849   0.363   2.574  16.061 -0.2430 -0.2127  0.5933
  254TMC3    C5 3850   0.305   2.623  16.171 -0.1516 -1.0359 -1.0573
  254TMC3    C6 3851   0.219   2.726  16.168  0.7848 -0.2797  0.3548
  254TMC3     C 3852   0.392   2.566  15.827  0.4865  0.2252 -0.1085
  254TMC3     O 3853   0.323   2.529  15.732  0.3356  0.3420 -0.2004
  254TMC3     H 3854   0.224   2.735  15.827 -1.5849  2.3458  0.3794
  254TMC3    H1 3855   0.437   2.494  16.068  0.1082 -0.0456 -1.2409
  254TMC3    H2 3856   0.198   2.776  16.261  0.8701  1.0890 -0.3675
  254TMC3    C7 3857   0.313   2.539  16.289  1.0663  0.0107  0.5312
  254TMC3    C8 3858   0.149   2.912  16.035  0.2911  0.0269  0.0849
  254TMC3    O1 3859   0.405   2.463  16.284 -0.1047 -0.4600 -0.4630
  254TMC3    O2 3860   0.168   2.983  16.134 -0.2822  0.2007 -0.0980
  255MPD2     C 3861   3.474   0.989  10.173 -0.2328 -0.1603 -0.4961
  255MPD2    C1 3862   3.417   0.868  10.179  1.0112 -0.5522  0.0288
  255MPD2    C2 3863   3.488   0.758  10.224 -0.4867 -0.5178 -1.0593
  255MPD2    C3 3864   3.615   0.779  10.269  0.3395 -0.1636 -0.4506
  255MPD2    C4 3865   3.671   0.912  10.277  0.5632 -0.0160  0.5427
  255MPD2    C5 3866   3.597   1.012  10.224  0.3868 -0.4475  0.2871
  255MPD2     H 3867   3.446   0.658  10.229  1.8452 -1.4421 -0.1509
  255MPD2    H1 3868   3.765   0.944  10.321  1.2278 -0.0918 -0.8387
  255MPD2    H2 3869   3.419   1.076  10.141 -2.1204 -0.7764  1.0492
  255MPD2    H3 3870   3.638   1.113  10.229  4.3568 -2.0794  0.7769
  255MPD2     N 3871   3.694   0.670  10.327  0.3088 -0.0959  0.8230
  255MPD2    H5 3872   3.645   0.582  10.340  2.5705 -1.2238  1.6080
  255MPD2    N1 3873   3.282   0.866  10.145  0.1512  0.1778  0.4648
  255MPD2    H7 3874   3.244   0.958  10.122  0.3979  0.3039  0.5553
  256TMC3    C1 3875   3.057   0.801  10.143  0.5681 -0.3986  0.0549
  256TMC3    C2 3876   3.020   0.931  10.147  0.7775  0.9451  0.0558
  256TMC3    C3 3877   2.887   0.962  10.127  0.6770  0.0943 -0.0464
  256TMC3    C4 3878   2.957   0.701  10.162 -0.3043  0.6936 -0.7419
  256TMC3    C5 3879   2.825   0.730  10.169 -0.4960 -0.0789 -0.1069
  256TMC3    C6 3880   2.786   0.866  10.147  0.2999 -0.5068 -0.5805
  256TMC3     C 3881   3.196   0.759  10.168  0.2866 -0.2490  0.1129
  256TMC3     O 3882   3.218   0.647  10.207  0.2725 -0.2036 -0.8346
  256TMC3     H 3883   3.096   1.006  10.163  1.0490  0.9797 -1.3769
  256TMC3    H1 3884   2.996   0.600  10.161 -2.5724 -0.2124  1.2424
  256TMC3    H2 3885   2.683   0.888  10.121  0.2358  0.5850  0.6078
  256TMC3    C7 3886   2.728   0.618  10.152 -0.1887 -0.3118 -0.1049
  256TMC3    C8 3887   2.855   1.099  10.098  0.2677 -0.1426 -0.0434
  256TMC3    O1 3888   2.764   0.502  10.130 -0.4814  0.2279 -0.5459
  256TMC3    O2 3889   2.739   1.136  10.117 -0.0624  0.0278  0.3303
  257MPD2     C 3890   2.918   3.233  12.994  0.1933  0.3879  0.8885
  257MPD2    C1 3891   2.872   3.121  12.922  0.3696  0.2401  0.2456
  257MPD2    C2 3892   2.881   2.997  12.986 -0.6996  0.2841  0.2663
  257MPD2    C3 3893   2.927   2.982  13.115  0.4862  0.0345  0.2688
  257MPD2    C4 3894   2.956   3.093  13.188 -0.4384  0.4071  0.2919
  257MPD2    C5 3895   2.955   3.220  13.127  0.0345 -0.7458  0.3723
  257MPD2     H 3896   2.866   2.910  12.923 -0.5728 -0.6824  1.5751
  257MPD2    H1 3897   2.994   3.079  13.288 -0.9824 -1.2151  0.2811
  257MPD2    H2 3898   2.908   3.331  12.950 -0.0639 -0.7255 -1.5254
  257MPD2    H3 3899   2.993   3.308  13.178  0.9300 -1.6429  1.2455
  257MPD2     N 3900   2.938   2.849  13.165 -0.2467 -0.0932  0.6650
  257MPD2    H5 3901   2.925   2.773  13.099 -1.6506  1.1208 -0.4301
  257MPD2    N1 3902   2.835   3.137  12.780  0.4011 -0.3584  0.1130
  257MPD2    H7 3903   2.854   3.227  12.738  0.3214 -0.4154 -0.0448
  258TMC3    C1 3904   2.997   2.681  13.334 -0.3613 -0.5640  0.5209
  258TMC3    C2 3905   3.063   2.593  13.245  0.6146 -0.0660 -0.4040
  258TMC3    C3 3906   3.089   2.467  13.287 -0.6612 -0.1677 -0.4894
  258TMC3    C4 3907   2.981   2.654  13.468  0.1613  0.3232  0.9719
  258TMC3    C5 3908   3.035   2.530  13.502  0.0991 -0.1622 -0.3379
  258TMC3    C6 3909   3.087   2.440  13.417 -0.5324 -0.3509  0.4605
  258TMC3     C 3910   2.967   2.825  13.296 -0.3180 -0.4257 -0.1660
  258TMC3     O 3911   2.957   2.897  13.391  0.1406  0.0459 -0.1483
  258TMC3     H 3912   3.091   2.625  13.145  1.7330  0.0445 -0.0554
  258TMC3    H1 3913   2.945   2.723  13.543  0.1070  0.3853  0.8883
  258TMC3    H2 3914   3.110   2.339  13.449 -2.2359 -0.4195  1.4165
  258TMC3    C7 3915   3.001   2.485  13.635  0.0864 -0.8742 -0.5554
  258TMC3    C8 3916   3.135   2.373  13.187 -0.0977 -0.0288 -0.4500
  258TMC3    O1 3917   2.908   2.537  13.699 -0.6390 -0.0361 -0.3854
  258TMC3    O2 3918   3.094   2.389  13.075  0.3782 -0.2184 -0.2706
  259MPD2     C 3919   2.318   3.696   2.023 -0.4925  0.9186  0.6206
  259MPD2    C1 3920   2.195   3.632   2.000  0.7591 -0.0944 -0.3725
  259MPD2    C2 3921   2.162   3.603   1.866 -0.6999 -0.7153  0.1055
  259MPD2    C3 3922   2.254   3.613   1.761 -0.4731  1.3753 -0.1596
  259MPD2    C4 3923   2.372   3.676   1.788 -0.6088  0.1270 -0.3760
  259MPD2    C5 3924   2.401   3.722   1.916 -0.5951  0.3516  0.1921
  259MPD2     H 3925   2.063   3.568   1.840 -0.9990 -1.3112  2.0387
  259MPD2    H1 3926   2.441   3.711   1.712 -0.4076 -0.6281 -0.5345
  259MPD2    H2 3927   2.347   3.720   2.124  0.0006  1.4534  0.3568
  259MPD2    H3 3928   2.491   3.781   1.927  1.2893 -1.7354 -4.1544
  259MPD2     N 3929   2.213   3.576   1.632  0.6441 -0.0037 -0.2407
  259MPD2    H5 3930   2.127   3.522   1.636  0.2112  0.5492 -1.9269
  259MPD2    N1 3931   2.115   3.602   2.112 -0.4644  0.7199  0.3278
  259MPD2    H7 3932   2.144   3.646   2.198 -0.2335  1.2885 -0.0428
  260TMC3    C1 3933   2.198   3.573   1.401 -0.0671 -0.4558  0.3759
  260TMC3    C2 3934   2.234   3.641   1.288  0.5806 -0.1556 -0.4739
  260TMC3    C3 3935   2.203   3.589   1.166  0.0942 -0.0454 -0.3022
  260TMC3    C4 3936   2.136   3.450   1.402  0.4124  1.3381 -0.0002
  260TMC3    C5 3937   2.103   3.408   1.274  0.1071  0.2546  0.6608
  260TMC3    C6 3938   2.143   3.466   1.158 -0.0612 -0.0656 -0.5061
  260TMC3     C 3939   2.265   3.629   1.519 -0.6401  0.0710  0.0459
  260TMC3     O 3940   2.343   3.724   1.507 -0.4619  0.1720  0.5305
  260TMC3     H 3941   2.271   3.743   1.296  2.5040 -0.9355  0.6150
  260TMC3    H1 3942   2.129   3.386   1.490 -0.5459  0.7974 -0.4742
  260TMC3    H2 3943   2.106   3.420   1.067  0.0121  1.1827 -1.1625
  260TMC3    C7 3944   2.108   3.271   1.257  0.0909 -0.5651 -0.2335
  260TMC3    C8 3945   2.213   3.667   1.045 -0.1311  0.1843 -0.0829
  260TMC3    O1 3946   2.200   3.238   1.184 -0.1750  0.5192  0.0640
  260TMC3    O2 3947   2.220   3.787   1.060 -0.2075 -0.1316 -0.2804
  261MPD2     C 3948   3.082   2.413  12.434 -0.7489  0.1263 -0.5271
  261MPD2    C1 3949   3.158   2.515  12.500  0.4485 -0.2632  0.0438
  261MPD2    C2 3950   3.203   2.622  12.430 -0.5396 -0.4991  0.2469
  261MPD2    C3 3951   3.187   2.637  12.293  0.2666 -0.1725  0.4490
  261MPD2    C4 3952   3.109   2.541  12.227  0.9828 -0.7787  0.1028
  261MPD2    C5 3953   3.050   2.437  12.300 -0.5056  0.0370 -0.7860
  261MPD2     H 3954   3.267   2.692  12.481 -1.0366  0.2055 -0.1047
  261MPD2    H1 3955   3.097   2.541  12.119 -0.2650  0.4604  0.2582
  261MPD2    H2 3956   3.050   2.324  12.487 -2.2167  1.1890  0.3800
  261MPD2    H3 3957   2.987   2.362  12.254 -1.4271 -0.2176  0.9048
  261MPD2     N 3958   3.256   2.723  12.212 -0.0321 -0.6965 -0.1764
  261MPD2    H5 3959   3.261   2.713  12.111  1.3462  3.9129 -0.5568
  261MPD2    N1 3960   3.188   2.513  12.640 -0.4180 -0.0416 -0.0084
  261MPD2    H7 3961   3.250   2.582  12.681 -0.2681  0.9368 -1.8774
  262TMC3    C1 3962   3.414   2.877  12.142  0.0944 -0.2950 -0.4265
  262TMC3    C2 3963   3.417   3.007  12.126  0.2908 -0.5343  0.1680
  262TMC3    C3 3964   3.521   3.055  12.055 -0.6627 -0.4370 -0.3631
  262TMC3    C4 3965   3.486   2.790  12.064 -0.4650 -0.3166  0.5037
  262TMC3    C5 3966   3.574   2.846  11.975  0.3628 -0.3352 -0.0259
  262TMC3    C6 3967   3.598   2.977  11.969 -0.3181  0.0955  0.0457
  262TMC3     C 3968   3.336   2.821  12.256  0.7589 -0.6017  0.2177
  262TMC3     O 3969   3.340   2.877  12.367  0.1237 -0.3251 -0.3722
  262TMC3     H 3970   3.368   3.070  12.200  1.9339  0.7755  0.1317
  262TMC3    H1 3971   3.469   2.684  12.082 -2.0344 -0.0322  0.7370
  262TMC3    H2 3972   3.667   3.034  11.908 -1.5738  0.4771 -1.0444
  262TMC3    C7 3973   3.617   2.765  11.861  0.1931 -0.4054  0.5405
  262TMC3    C8 3974   3.512   3.187  12.004 -0.3150 -0.8849 -0.5089
  262TMC3    O1 3975   3.569   2.651  11.863  0.4330 -0.5538  0.0997
  262TMC3    O2 3976   3.613   3.245  11.963 -0.3629  0.1736  0.7884
  263MPD2     C 3977   4.513   2.345  11.566 -0.0841  0.3785  0.4572
  263MPD2    C1 3978   4.628   2.353  11.495 -0.0378  0.0817 -0.1784
  263MPD2    C2 3979   4.624   2.434  11.378  0.5160  0.2834  0.1873
  263MPD2    C3 3980   4.508   2.497  11.335  0.8615 -0.6367 -0.5730
  263MPD2    C4 3981   4.393   2.482  11.412  0.6005 -0.5117  0.6591
  263MPD2    C5 3982   4.402   2.418  11.534  0.1576 -0.2105 -0.4375
  263MPD2     H 3983   4.711   2.446  11.316  1.0846 -1.0378  0.7242
  263MPD2    H1 3984   4.299   2.529  11.384  0.1603 -0.7664  1.7102
  263MPD2    H2 3985   4.507   2.289  11.658  0.3559 -2.2009 -1.0763
  263MPD2    H3 3986   4.317   2.412  11.601  0.5185  0.0214  0.0395
  263MPD2     N 3987   4.515   2.579  11.213 -0.0102  0.7857 -0.4234
  263MPD2    H5 3988   4.606   2.590  11.171 -0.1889  0.2615 -0.9491
  263MPD2    N1 3989   0.007   2.268  11.535 -0.4025  0.7391  0.4086
  263MPD2    H7 3990   4.713   2.221  11.624  0.9468  0.6702  0.6386
  264TMC3    C1 3991   4.449   2.761  11.080  0.2486 -0.1728  0.8585
  264TMC3    C2 3992   4.360   2.862  11.077  0.4908 -0.3487 -0.0972
  264TMC3    C3 3993   4.393   2.978  11.015  0.3331  0.3003  0.3334
  264TMC3    C4 3994   4.578   2.783  11.045  0.2943 -0.2496  0.4171
  264TMC3    C5 3995   4.613   2.900  10.992 -0.1282 -0.3624  0.6772
  264TMC3    C6 3996   4.521   3.003  10.978  0.5764  0.0944  0.0898
  264TMC3     C 3997   4.406   2.637  11.154  0.1740 -0.3416  0.0270
  264TMC3     O 3998   4.289   2.624  11.179 -0.5768  0.0161 -0.4358
  264TMC3     H 3999   4.257   2.842  11.105  1.2104 -1.0064  2.0752
  264TMC3    H1 4000   4.655   2.707  11.042  0.2836 -0.1870 -1.4435
  264TMC3    H2 4001   4.537   3.090  10.916 -3.0813  0.5994 -0.1043
  264TMC3    C7 4002   0.030   2.942  10.992 -0.6730 -0.6531  0.0199
  264TMC3    C8 4003   4.309   3.089  11.052  0.1470 -0.3071 -0.3822
  264TMC3    O1 4004   0.116   2.856  10.989 -0.0270 -0.1453  0.2278
  264TMC3    O2 4005   4.227   3.065  11.141  0.3426 -0.4182  0.4761
  265MPD2     C 4006   1.961   2.523  15.715  0.0832 -0.4433 -0.0998
  265MPD2    C1 4007   1.931   2.601  15.606  0.1382 -0.6219  0.1075
  265MPD2    C2 4008   2.018   2.592  15.500  0.4280 -0.1261  0.4434
  265MPD2    C3 4009   2.130   2.511  15.499  0.2712 -0.3196  0.4577
  265MPD2    C4 4010   2.150   2.430  15.609  0.4250 -0.2792 -0.3859
  265MPD2    C5 4011   2.069   2.440  15.717  0.7919 -0.2721 -0.0259
  265MPD2     H 4012   1.987   2.653  15.416 -1.1719 -0.1820  0.9770
  265MPD2    H1 4013   2.232   2.360  15.617  1.7560  1.5003  1.4925
  265MPD2    H2 4014   1.908   2.533  15.809 -0.0644  0.5982 -0.2947
  265MPD2    H3 4015   2.078   2.394  15.814  0.5136  1.0527  0.6256
  265MPD2     N 4016   2.208   2.482  15.377 -0.9638 -0.1534  0.1718
  265MPD2    H5 4017   2.282   2.414  15.390 -1.2141 -0.4773 -0.0858
  265MPD2    N1 4018   1.832   2.696  15.599 -0.2655  0.3942 -0.2220
  265MPD2    H7 4019   1.811   2.742  15.511  0.1298 -0.4898 -0.7836
  266TMC3    C1 4020   1.637   2.822  15.669  0.1804  0.2344  0.1414
  266TMC3    C2 4021   1.580   2.892  15.769  0.2541  0.1186 -0.1092
  266TMC3    C3 4022   1.467   2.967  15.739  0.3252  0.1849 -0.0496
  266TMC3    C4 4023   1.600   2.832  15.539 -0.0052  0.0015  0.6486
  266TMC3    C5 4024   1.492   2.914  15.509  0.1502 -0.6883  0.2469
  266TMC3    C6 4025   1.415   2.971  15.612  0.3332 -0.8179  0.0254
  266TMC3     C 4026   1.736   2.719  15.693  0.6452 -0.3257 -0.3296
  266TMC3     O 4027   1.728   2.666  15.805  0.5335  0.1147 -0.5782
  266TMC3     H 4028   1.626   2.886  15.868 -0.6728  0.0256  0.3148
  266TMC3    H1 4029   1.643   2.765  15.465  0.6454  0.8207  0.2809
  266TMC3    H2 4030   1.315   3.012  15.605 -0.1937 -2.3359 -1.0549
  266TMC3    C7 4031   1.435   2.921  15.372 -0.1584 -0.3834 -0.1754
  266TMC3    C8 4032   1.378   3.010  15.853  0.0175 -0.6701  0.4215
  266TMC3    O1 4033   1.510   2.938  15.275 -0.0779 -0.0278  0.2037
  266TMC3    O2 4034   1.268   3.056  15.819  0.2655  0.0151 -0.4587
  267MPD2     C 4035   3.696   3.906   0.043 -0.3681 -0.0936 -0.6291
  267MPD2    C1 4036   3.796   4.004   0.023 -0.3701 -0.0048 -0.5448
  267MPD2    C2 4037   3.826   4.051  17.594 -0.1400  0.4457 -0.8016
  267MPD2    C3 4038   3.777   3.977  17.481  0.8052  0.5697 -1.2046
  267MPD2    C4 4039   3.673   3.881  17.500 -0.1787 -0.2251  0.3106
  267MPD2    C5 4040   3.630   3.856  17.630 -0.2774 -0.4228 -0.3721
  267MPD2     H 4041   3.895   4.134  17.582 -1.7615  2.1290  1.5474
  267MPD2    H1 4042   3.629   3.841  17.409  0.9780 -1.1483  0.1621
  267MPD2    H2 4043   3.665   3.878   0.144 -1.5162  0.2880 -0.8824
  267MPD2    H3 4044   3.541   3.799  17.654 -0.1868  0.3425  1.7411
  267MPD2     N 4045   3.820   3.993  17.346  1.0112 -0.1181  0.1821
  267MPD2    H5 4046   3.767   3.953  17.270  1.4733  0.4316 -0.4377
  267MPD2    N1 4047   3.867   4.047   0.138  0.2978 -0.0526 -0.8258
  267MPD2    H7 4048   3.824   4.024   0.227 -0.1102  0.0385 -1.0012
  268TMC3    C1 4049   4.029   4.143   0.275 -0.5083 -0.9325 -0.0165
  268TMC3    C2 4050   4.100   4.255   0.291 -0.5951 -0.0786  0.3113
  268TMC3    C3 4051   4.233   4.248   0.329  0.1244  0.5177  0.3431
  268TMC3    C4 4052   4.078   4.022   0.314  0.1679 -0.8053  0.0055
  268TMC3    C5 4053   4.201   4.022   0.369 -0.3652  0.1688  0.4883
  268TMC3    C6 4054   4.286   4.132   0.381 -0.3284 -0.1238 -0.3858
  268TMC3     C 4055   3.971   4.132   0.146 -0.7591 -0.1863 -0.1115
  268TMC3     O 4056   4.033   4.197   0.061  0.1323 -0.4653  0.0032
  268TMC3     H 4057   4.052   4.346   0.257 -1.9278 -0.9374 -0.1276
  268TMC3    H1 4058   4.020   3.931   0.304 -2.5404  0.9246  0.1483
  268TMC3    H2 4059   4.390   4.127   0.413 -0.9238 -0.5546  1.5010
  268TMC3    C7 4060   4.256   3.894   0.418  0.6171  0.7345 -0.1497
  268TMC3    C8 4061   4.322   4.338   0.261  0.6862  0.1039 -0.4068
  268TMC3    O1 4062   4.323   3.884   0.520 -0.9877  0.1373  0.4138
  268TMC3    O2 4063   4.434   4.341   0.309 -0.1244 -0.5009 -0.0053
  269MPD2     C 4064   4.428   3.311  15.385 -0.7513 -1.1197 -0.2269
  269MPD2    C1 4065   4.435   3.302  15.523 -0.0973  0.5253  0.0980
  269MPD2    C2 4066   4.485   3.414  15.590 -0.2649 -0.5594  0.0849
  269MPD2    C3 4067   4.522   3.529  15.525 -0.1773  0.4520  0.3649
  269MPD2    C4 4068   4.526   3.528  15.385 -0.1269 -0.2775 -0.8102
  269MPD2    C5 4069   4.473   3.419  15.318  0.4374  0.7542 -0.0484
  269MPD2     H 4070   4.495   3.409  15.698 -1.8010  0.8213  0.2953
  269MPD2    H1 4071   4.553   3.611  15.321 -0.0229 -0.4838 -1.0328
  269MPD2    H2 4072   4.393   3.226  15.326 -2.8769  0.3259 -1.0460
  269MPD2    H3 4073   4.475   3.422  15.210 -2.5208 -0.1781 -0.1255
  269MPD2     N 4074   4.583   3.631  15.601 -0.4233 -0.0982 -0.1836
  269MPD2    H5 4075   4.582   3.620  15.702 -1.2823 -0.8922 -0.2647
  269MPD2    N1 4076   4.369   3.192  15.587  0.0651 -0.2247  0.3532
  269MPD2    H7 4077   4.333   3.119  15.526  1.4167 -1.8789  1.5557
  270TMC3    C1 4078   4.378   3.012  15.728 -0.0670 -0.3313 -0.4859
  270TMC3    C2 4079   4.265   2.941  15.692  0.5138 -0.3751  0.0099
  270TMC3    C3 4080   4.273   2.805  15.696 -0.1043 -0.3266  0.3689
  270TMC3    C4 4081   4.490   2.960  15.787  0.4312 -0.0427 -0.3963
  270TMC3    C5 4082   4.488   2.822  15.803  0.2528  0.3563 -0.3245
  270TMC3    C6 4083   4.383   2.749  15.754 -0.0796  0.0936 -0.1792
  270TMC3     C 4084   4.377   3.157  15.717  0.3163  0.0463  0.0273
  270TMC3     O 4085   4.437   3.214  15.810 -0.4116 -0.3660  0.1330
  270TMC3     H 4086   4.183   2.997  15.648  0.9086 -0.6713 -1.1096
  270TMC3    H1 4087   4.563   3.028  15.829  3.3048 -3.4091  0.0192
  270TMC3    H2 4088   4.384   2.641  15.760 -2.1174 -0.0578 -2.5120
  270TMC3    C7 4089   4.607   2.738  15.824  0.0105 -0.7734  0.4524
  270TMC3    C8 4090   4.227   2.724  15.579 -0.1857  0.3403  0.4721
  270TMC3    O1 4091   4.706   2.763  15.753 -0.4496  0.0690 -0.4760
  270TMC3    O2 4092   4.310   2.649  15.531  0.5413  0.0180 -0.1081
  271MPD2     C 4093   3.680   2.816  13.822  0.0899 -0.7839  0.2240
  271MPD2    C1 4094   3.615   2.793  13.944 -0.1132  0.1786 -0.2713
  271MPD2    C2 4095   3.503   2.871  13.963  0.6194 -0.1597  0.1816
  271MPD2    C3 4096   3.462   2.981  13.881  0.2761  0.2164  0.8124
  271MPD2    C4 4097   3.541   3.007  13.771 -0.3182  0.1236 -1.0566
  271MPD2    C5 4098   3.644   2.922  13.741 -0.2483  0.1337 -0.3546
  271MPD2     H 4099   3.443   2.857  14.053  1.7955 -0.6746  0.8911
  271MPD2    H1 4100   3.523   3.095  13.709  1.2743  0.8193 -0.5252
  271MPD2    H2 4101   3.760   2.759  13.776  1.6989  1.2961  0.4018
  271MPD2    H3 4102   3.704   2.946  13.654  1.3432  0.7726  0.9242
  271MPD2     N 4103   3.348   3.074  13.903  0.7674 -0.3895  0.5665
  271MPD2    H5 4104   3.333   3.144  13.831  2.4237 -0.0351  0.5665
  271MPD2    N1 4105   3.649   2.688  14.029  0.4683 -0.8030 -0.4286
  271MPD2    H7 4106   3.596   2.689  14.115  1.0133 -3.0484 -0.0610
  272TMC3    C1 4107   3.799   2.542  14.126  0.1756  0.3285 -0.0955
  272TMC3    C2 4108   3.930   2.514  14.129  1.0649 -0.5813 -0.5909
  272TMC3    C3 4109   3.992   2.484  14.248  0.1455 -0.1505 -0.4476
  272TMC3    C4 4110   3.718   2.523  14.236  0.1609  0.3957 -0.2140
  272TMC3    C5 4111   3.773   2.496  14.355 -0.0588 -0.3694 -0.7512
  272TMC3    C6 4112   3.912   2.473  14.359  0.0295 -0.0288  0.0007
  272TMC3     C 4113   3.746   2.592  14.005  1.0749  0.3318 -0.3984
  272TMC3     O 4114   3.804   2.568  13.905 -0.2755  0.0645 -0.0044
  272TMC3     H 4115   3.988   2.519  14.037  2.8860  0.1570  0.5929
  272TMC3    H1 4116   3.612   2.542  14.224 -0.1612 -0.7489  0.8127
  272TMC3    H2 4117   3.958   2.461  14.456  1.7126  0.9830 -0.6818
  272TMC3    C7 4118   3.692   2.539  14.460  1.2740  1.5026 -0.1468
  272TMC3    C8 4119   4.133   2.507  14.255 -0.1200  0.2578 -0.3563
  272TMC3    O1 4120   3.570   2.526  14.447 -0.3302  0.9314  0.4587
  272TMC3    O2 4121   4.193   2.572  14.174 -0.3911  0.2399  0.1187
  273MPD2     C 4122   4.492   1.217  11.982 -0.3107 -0.4436 -0.1228
  273MPD2    C1 4123   4.606   1.139  11.968  0.4576 -0.6318 -0.7594
  273MPD2    C2 4124   4.639   1.102  11.839 -0.0002 -0.1467 -0.7675
  273MPD2    C3 4125   4.558   1.133  11.723 -0.4344  0.6449  0.4966
  273MPD2    C4 4126   4.442   1.206  11.742 -0.2457  0.1280  0.3781
  273MPD2    C5 4127   4.414   1.250  11.873 -0.0011  0.2016  0.0111
  273MPD2     H 4128   0.004   1.043  11.823  0.1633 -0.3298  0.8407
  273MPD2    H1 4129   4.376   1.238  11.663  1.2243 -0.4990 -1.0994
  273MPD2    H2 4130   4.461   1.255  12.078 -0.7588 -1.1726  0.0180
  273MPD2    H3 4131   4.326   1.312  11.886 -1.8678 -2.9785  2.5402
  273MPD2     N 4132   4.599   1.104  11.590  0.2223 -0.1563  0.0082
  273MPD2    H5 4133   4.542   1.130  11.511 -0.8746  1.6699  1.3996
  273MPD2    N1 4134   4.687   1.132  12.085  0.1916  0.6828  0.0090
  273MPD2    H7 4135   4.659   1.185  12.167 -1.5718 -1.4392  0.7877
  274TMC3    C1 4136   0.013   1.055  11.406 -0.5063  0.4945 -0.3519
  274TMC3    C2 4137   4.624   1.076  11.325  0.3142  0.5455 -1.2556
  274TMC3    C3 4138   4.649   1.098  11.194  0.6621  0.4503 -0.1222
  274TMC3    C4 4139   0.143   1.096  11.381  0.6912 -0.0555 -0.6692
  274TMC3    C5 4140   0.158   1.140  11.256  0.1631  0.0298  0.2090
  274TMC3    C6 4141   0.058   1.117  11.161  0.4799 -0.2931  0.1766
  274TMC3     C 4142   4.717   1.041  11.555  0.4324  0.4757 -0.0946
  274TMC3     O 4143   0.091   1.005  11.620 -0.0271 -0.2651  0.0949
  274TMC3     H 4144   4.521   1.054  11.351  1.1010  1.3149  2.4866
  274TMC3    H1 4145   0.226   1.096  11.451  1.1194 -0.9155 -1.1903
  274TMC3    H2 4146   0.070   1.144  11.057 -1.7176  0.8433  0.2234
  274TMC3    C7 4147   0.204   1.279  11.261  0.3571 -0.1795 -0.3030
  274TMC3    C8 4148   4.562   1.181  11.126  0.1835  0.2245 -0.8033
  274TMC3    O1 4149   0.278   1.302  11.356 -0.3961 -0.7363  0.4259
  274TMC3    O2 4150   4.613   1.278  11.067 -0.2495  0.0335 -0.2452
  275MPD2     C 4151   0.371   3.891  14.502  0.4487  0.0434  0.4478
  275MPD2    C1 4152   0.332   3.795  14.589  0.8037 -0.0981  0.3030
  275MPD2    C2 4153   0.207   3.728  14.555 -0.9477  0.4883 -0.5008
  275MPD2    C3 4154   0.133   3.760  14.441  0.6354  0.3604  0.4110
  275MPD2    C4 4155   0.186   3.862  14.358 -0.6605  0.0594 -0.2313
  275MPD2    C5 4156   0.300   3.928  14.392 -0.5985 -0.2155  0.5512
  275MPD2     H 4157   0.174   3.651  14.624  2.1920 -1.1787 -0.8309
  275MPD2    H1 4158   0.135   3.890  14.267 -0.9350  3.8372  1.0882
  275MPD2    H2 4159   0.470   3.936  14.503 -0.2423  1.5511  2.0262
  275MPD2    H3 4160   0.351   4.000  14.329 -1.3738  1.7262  2.1605
  275MPD2     N 4161   0.010   3.708  14.416  0.0728  0.0237 -0.8487
  275MPD2    H5 4162   4.677   3.760  14.351 -2.9358 -0.2589  1.5723
  275MPD2    N1 4163   0.400   3.767  14.707 -0.6371 -0.1734  0.7362
  275MPD2    H7 4164   0.359   3.698  14.769 -0.8735 -1.2953 -0.6892
  276TMC3    C1 4165   0.527   3.823  14.894  0.4091 -0.1070 -0.1531
  276TMC3    C2 4166   0.453   3.736  14.966 -0.8201 -0.0307 -0.6062
  276TMC3    C3 4167   0.454   3.751  15.098  0.2255  0.8912 -0.8636
  276TMC3    C4 4168   0.607   3.929  14.949 -0.2435  0.3255  1.0482
  276TMC3    C5 4169   0.591   3.946  15.084  0.8377 -0.3382  0.6307
  276TMC3    C6 4170   0.509   3.866  15.157  0.5066 -0.2256 -0.3936
  276TMC3     C 4171   0.516   3.829  14.751  0.2901  0.2016 -0.1232
  276TMC3     O 4172   0.584   3.912  14.696  0.0961 -0.4412  0.2684
  276TMC3     H 4173   0.394   3.658  14.919  1.1225 -0.8389 -1.7075
  276TMC3    H1 4174   0.668   3.998  14.892 -0.7466 -3.1655 -3.7959
  276TMC3    H2 4175   0.516   3.871  15.265 -2.0713 -0.4614 -0.2238
  276TMC3    C7 4176   0.715   3.965  15.158  0.2060  0.1051 -0.0269
  276TMC3    C8 4177   0.486   3.631  15.179 -0.5157  0.3126  0.4512
  276TMC3    O1 4178   0.706   3.996  15.276 -0.0304  0.1281 -0.2305
  276TMC3    O2 4179   0.532   3.653  15.290 -0.4188  0.1634  0.2328
  277MPD2     C 4180   2.452   2.672  13.319  1.3109  0.5446  0.3154
  277MPD2    C1 4181   2.318   2.696  13.323 -0.0403 -0.0885 -1.0042
  277MPD2    C2 4182   2.256   2.671  13.447 -0.5177  0.2514  0.3131
  277MPD2    C3 4183   2.317   2.599  13.545 -0.8090 -0.0978  0.5618
  277MPD2    C4 4184   2.458   2.580  13.533 -0.2581  0.1583 -0.0416
  277MPD2    C5 4185   2.524   2.621  13.418 -0.2207 -0.1914  0.0225
  277MPD2     H 4186   2.151   2.692  13.466 -0.9677  1.3964 -3.4771
  277MPD2    H1 4187   2.526   2.557  13.614 -0.9955  0.8176  0.7532
  277MPD2    H2 4188   2.494   2.691  13.221 -0.6045 -0.1860 -0.6510
  277MPD2    H3 4189   2.630   2.604  13.425 -0.6048 -1.9821  1.5144
  277MPD2     N 4190   2.236   2.561  13.657 -0.3093  0.3945 -0.2810
  277MPD2    H5 4191   2.140   2.595  13.654 -0.5014 -0.3037 -1.6345
  277MPD2    N1 4192   2.251   2.742  13.206  0.3552  0.1970  0.2842
  277MPD2    H7 4193   2.297   2.771  13.120 -0.9283 -1.7759 -1.0560
  278TMC3    C1 4194   2.178   2.472  13.859 -0.2210  0.1662 -0.1020
  278TMC3    C2 4195   2.136   2.344  13.855  0.0244  0.0078 -0.3544
  278TMC3    C3 4196   2.002   2.326  13.840  0.1126 -0.2429 -0.0593
  278TMC3    C4 4197   2.092   2.575  13.873 -0.0977 -0.0317 -0.0835
  278TMC3    C5 4198   1.955   2.548  13.878 -0.6114 -0.0408  0.0230
  278TMC3    C6 4199   1.905   2.424  13.855 -0.4344 -0.8161  0.2065
  278TMC3     C 4200   2.282   2.498  13.762  0.3189  1.0477 -0.4160
  278TMC3     O 4201   2.384   2.428  13.764 -0.6915 -0.3976  0.2421
  278TMC3     H 4202   2.205   2.261  13.844  1.7721  1.5262 -0.7140
  278TMC3    H1 4203   2.135   2.675  13.873 -2.4104  0.9703 -2.7244
  278TMC3    H2 4204   1.799   2.405  13.851  0.0571 -3.4515 -0.1587
  278TMC3    C7 4205   1.872   2.651  13.938 -0.0366  0.2756  0.4123
  278TMC3    C8 4206   1.957   2.199  13.781  0.2928 -0.8110  0.2377
  278TMC3    O1 4207   1.937   2.749  13.968 -0.0714 -0.4086 -0.0722
  278TMC3    O2 4208   2.034   2.104  13.791  0.4549  0.3389  0.1059
  279MPD2     C 4209   1.022   2.429   0.607 -1.0859 -0.1897  0.0941
  279MPD2    C1 4210   1.001   2.447   0.472 -0.0115  0.7612 -0.4442
  279MPD2    C2 4211   1.089   2.391   0.377  0.6723 -0.1690  0.7546
  279MPD2    C3 4212   1.189   2.301   0.419  0.2036 -0.0310 -0.0136
  279MPD2    C4 4213   1.214   2.289   0.562  0.4963 -0.0583  0.8099
  279MPD2    C5 4214   1.137   2.364   0.650  0.4837 -0.6607  0.1526
  279MPD2     H 4215   1.075   2.413   0.272  0.2671  0.3987  0.9275
  279MPD2    H1 4216   1.284   2.223   0.612 -0.7056  0.8075  3.6769
  279MPD2    H2 4217   0.945   2.479   0.665 -0.8783  0.6954 -0.3806
  279MPD2    H3 4218   1.149   2.356   0.758  0.5905 -1.9068  0.0489
  279MPD2     N 4219   1.271   2.230   0.327 -0.3370 -0.1580 -0.0940
  279MPD2    H5 4220   1.356   2.186   0.362  0.0052 -0.3071 -1.1126
  279MPD2    N1 4221   0.898   2.523   0.423  0.0800 -0.3998 -0.4061
  279MPD2    H7 4222   0.841   2.581   0.484 -1.4303 -0.7798 -1.4575
  280TMC3    C1 4223   0.724   2.596   0.272 -0.6028 -0.6781 -0.2846
  280TMC3    C2 4224   0.628   2.525   0.211  0.0157 -0.1052 -0.9644
  280TMC3    C3 4225   0.555   2.588   0.119 -0.0443  0.3958 -0.3369
  280TMC3    C4 4226   0.747   2.727   0.260  0.2956 -0.0273 -0.2559
  280TMC3    C5 4227   0.652   2.794   0.187 -0.1820  0.2817  0.3194
  280TMC3    C6 4228   0.563   2.723   0.108 -0.6374  0.4602  0.3767
  280TMC3     C 4229   0.834   2.505   0.302  0.4525 -0.0664 -0.1156
  280TMC3     O 4230   0.854   2.422   0.216  0.1758 -0.2820  0.0916
  280TMC3     H 4231   0.642   2.417   0.215 -3.3962 -0.5464 -0.9207
  280TMC3    H1 4232   0.831   2.779   0.305 -0.3807  0.5434  0.3419
  280TMC3    H2 4233   0.489   2.772   0.046 -0.0207  0.6500 -0.2127
  280TMC3    C7 4234   0.683   2.934   0.155  0.3134 -0.1622  0.2336
  280TMC3    C8 4235   0.466   2.515   0.032 -0.1845  0.0788 -0.4219
  280TMC3    O1 4236   0.780   2.987   0.213  0.3213  0.2247  0.1741
  280TMC3    O2 4237   0.439   2.549  17.620  0.0442  0.0926 -0.1765
  281TMC3    C1 4238   4.523   3.358  13.433 -0.0225  0.3492  1.1482
  281TMC3    C2 4239   4.504   3.383  13.298 -0.5069  0.6771  0.3951
  281TMC3    C3 4240   4.478   3.284  13.219 -0.0628 -0.4381  0.5935
  281TMC3    C4 4241   4.483   3.237  13.485  0.1710 -0.6548  0.2301
  281TMC3    C5 4242   4.451   3.140  13.401  0.1960  0.4421 -0.4289
  281TMC3    C6 4243   4.444   3.159  13.270 -0.2850 -0.1439 -0.4906
  281TMC3     C 4244   4.502   3.471  13.519 -0.1956  0.0785  0.5209
  281TMC3     O 4245   4.548   3.461  13.636  0.5038  0.0063 -0.3311
  281TMC3     H 4246   4.525   3.484  13.263  1.6550  0.7960  2.0746
  281TMC3    H1 4247   4.477   3.222  13.592 -0.7235 -2.2053 -0.0357
  281TMC3    H2 4248   4.406   3.079  13.207 -2.0596 -0.5224  1.0627
  281TMC3    C7 4249   4.357   3.040  13.453 -0.1963  0.6462  0.0166
  281TMC3    C8 4250   4.409   3.321  13.094  0.1702 -0.1593  0.7219
  281TMC3    O1 4251   4.251   3.026  13.398  0.2237  0.0248  0.3476
  281TMC3    O2 4252   4.365   3.437  13.081  0.0093  0.1589 -0.0957
  282MPD2     C 4253   1.797   4.154  15.062  0.1469 -0.3662  0.2733
  282MPD2    C1 4254   1.716   4.243  15.132  0.0581 -0.4723  0.8808
  282MPD2    C2 4255   1.645   4.334  15.062 -0.7762 -0.9741  0.4299
  282MPD2    C3 4256   1.647   4.345  14.927 -0.4041 -0.9372  0.0109
  282MPD2    C4 4257   1.722   4.247  14.859  0.0395 -0.6568 -0.4868
  282MPD2    C5 4258   1.802   4.159  14.927 -0.6833  0.5460 -0.6997
  282MPD2     H 4259   1.580   4.394  15.124  0.8216  2.0268 -0.7936
  282MPD2    H1 4260   1.738   4.238  14.752 -2.2103  0.4614 -0.9060
  282MPD2    H2 4261   1.857   4.077  15.111 -0.5951  0.2279  2.1407
  282MPD2    H3 4262   1.864   4.085  14.876  0.2650  1.0485 -0.2727
  282MPD2     N 4263   1.558   4.435  14.864  0.1604  0.4431 -0.4980
  282MPD2    H5 4264   1.490   4.484  14.921  0.0388 -0.1182 -0.1620
  282MPD2    N1 4265   1.713   4.244  15.268 -0.9623 -0.0450  0.5161
  282MPD2    H7 4266   1.673   4.324  15.315 -0.2729  0.0899  0.8803
  283TMC3    C1 4267   1.747   4.191  15.491  0.2680  0.1864  0.1354
  283TMC3    C2 4268   1.745   4.328  15.512 -0.8172  0.4545 -0.5988
  283TMC3    C3 4269   1.695   4.362  15.636  0.1597 -0.2664  0.7682
  283TMC3    C4 4270   1.690   4.098  15.569 -0.2372 -0.1372  0.1278
  283TMC3    C5 4271   1.640   4.138  15.693  0.3088 -0.1835  0.6612
  283TMC3    C6 4272   1.647   4.271  15.728  0.4837 -0.0403 -0.4970
  283TMC3     C 4273   1.767   4.151  15.351 -0.2373  0.1390 -0.3342
  283TMC3     O 4274   1.803   4.036  15.344  0.9180  0.1564  0.3913
  283TMC3     H 4275   1.789   4.403  15.447 -0.1381 -0.3707 -1.0803
  283TMC3    H1 4276   1.687   3.998  15.527 -1.3240  0.0710 -0.2953
  283TMC3    H2 4277   1.624   4.299  15.830 -0.7880 -2.8765 -0.0021
  283TMC3    C7 4278   1.536   4.069  15.763 -0.1775  0.3562 -0.0361
  283TMC3    C8 4279   1.715   4.492  15.693 -0.1151  0.4554 -0.2348
  283TMC3    O1 4280   1.489   4.118  15.865  0.6188  0.2404 -0.5816
  283TMC3    O2 4281   1.753   4.484  15.811  0.1178 -1.0036 -0.2027
  284MPD2     C 4282   4.137   4.120  11.636  0.2063  0.0084  0.1112
  284MPD2    C1 4283   4.260   4.061  11.681  0.9682 -0.0880  0.4521
  284MPD2    C2 4284   4.255   3.930  11.713 -0.8253 -0.5375  0.6720
  284MPD2    C3 4285   4.132   3.864  11.729  0.6546  0.2444 -0.0845
  284MPD2    C4 4286   4.017   3.934  11.698  0.5510  0.7093  0.6321
  284MPD2    C5 4287   4.018   4.059  11.649  0.8533  0.4860 -0.0114
  284MPD2     H 4288   4.347   3.875  11.733 -0.8438 -1.5458 -1.9132
  284MPD2    H1 4289   3.926   3.881  11.720  2.4419 -2.1580  1.4984
  284MPD2    H2 4290   4.138   4.223  11.602  1.1736 -0.5522 -1.5771
  284MPD2    H3 4291   3.930   4.113  11.616  0.0890 -0.6891  0.1365
  284MPD2     N 4292   4.119   3.728  11.789 -0.3411 -0.4712 -0.0084
  284MPD2    H5 4293   4.033   3.694  11.832 -1.5451  1.8947 -0.5516
  284MPD2    N1 4294   4.382   4.121  11.678  0.4494  0.3805 -0.8327
  284MPD2    H7 4295   4.460   4.068  11.716  1.3218  1.0218 -1.7285
  285TMC3    C1 4296   4.554   4.301  11.692 -0.1299 -0.1203 -0.1761
  285TMC3    C2 4297   4.647   4.207  11.738 -0.0022  0.3474  0.7045
  285TMC3    C3 4298   0.057   4.232  11.718 -0.4536  0.5381 -0.8971
  285TMC3    C4 4299   4.596   4.418  11.624 -0.1705  0.0794  0.6179
  285TMC3    C5 4300   0.008   4.440  11.615 -0.1489 -0.4602  0.7331
  285TMC3    C6 4301   0.094   4.351  11.665  0.9704  0.3363  0.0773
  285TMC3     C 4302   4.413   4.258  11.650 -0.5907  0.8135 -0.3052
  285TMC3     O 4303   4.332   4.346  11.619  0.0918  0.2444  0.5093
  285TMC3     H 4304   4.606   4.119  11.786  0.3941  0.0138  0.4341
  285TMC3    H1 4305   4.522   4.489  11.589  0.8497  0.4040 -0.8744
  285TMC3    H2 4306   0.196   4.369  11.633  1.0571  0.9140  0.6777
  285TMC3    C7 4307   0.061   4.573  11.572  0.2128  0.4213  0.0922
  285TMC3    C8 4308   0.140   4.111  11.713 -0.9496  0.0332  0.4072
  285TMC3    O1 4309   0.177   4.604  11.604 -0.1153 -0.4616  0.1954
  285TMC3    O2 4310   0.076   4.010  11.698  0.0813 -0.1575 -0.2433
  286MPD2     C 4311   0.233   2.210   1.529  0.0883  1.4492 -0.4696
  286MPD2    C1 4312   0.225   2.196   1.395  0.4845 -0.2278  0.0259
  286MPD2    C2 4313   0.298   2.100   1.334  0.1913  0.0546  0.0736
  286MPD2    C3 4314   0.362   2.005   1.405  0.8193 -0.3315  0.4528
  286MPD2    C4 4315   0.369   2.017   1.538 -0.6894  0.1512 -0.1614
  286MPD2    C5 4316   0.300   2.113   1.604 -0.0487  0.2341 -0.3940
  286MPD2     H 4317   0.289   2.106   1.227  0.3106 -3.9257 -0.1552
  286MPD2    H1 4318   0.425   1.937   1.586 -1.6559 -0.5695 -0.2345
  286MPD2    H2 4319   0.178   2.285   1.585 -2.1563 -1.0913  0.7457
  286MPD2    H3 4320   0.298   2.113   1.713  0.8052 -0.9731 -0.3774
  286MPD2     N 4321   0.413   1.885   1.353  0.4096 -0.5760 -0.1041
  286MPD2    H5 4322   0.440   1.808   1.413 -0.1361  0.7605  1.8378
  286MPD2    N1 4323   0.154   2.283   1.317 -0.2919  0.1834  0.7085
  286MPD2    H7 4324   0.157   2.262   1.217 -2.0181 -2.0837  1.1514
  287TMC3    C1 4325   0.481   1.719   1.196  0.3389 -0.2975 -0.1113
  287TMC3    C2 4326   0.476   1.680   1.066 -0.3239 -0.0739 -0.6046
  287TMC3    C3 4327   0.557   1.580   1.018 -0.0915 -0.0490 -0.0049
  287TMC3    C4 4328   0.582   1.678   1.273 -0.2416  0.0237  0.4990
  287TMC3    C5 4329   0.679   1.603   1.214  0.2808  0.6724 -0.1247
  287TMC3    C6 4330   0.660   1.535   1.102 -0.3620  0.0099 -0.1155
  287TMC3     C 4331   0.417   1.849   1.219  0.7481 -0.7930 -0.1516
  287TMC3     O 4332   0.361   1.905   1.123 -0.1383  0.0792 -0.1628
  287TMC3     H 4333   0.400   1.719   0.999  0.0174  0.2646 -0.7987
  287TMC3    H1 4334   0.590   1.723   1.371  1.3490 -1.7678  1.1836
  287TMC3    H2 4335   0.728   1.456   1.073  0.2555 -0.0283  1.4119
  287TMC3    C7 4336   0.777   1.549   1.302  0.1986  0.3577 -0.0523
  287TMC3    C8 4337   0.563   1.543   0.879  0.1575  0.4935 -0.0525
  287TMC3    O1 4338   0.737   1.537   1.417 -0.1554 -0.8177  1.3330
  287TMC3    O2 4339   0.650   1.464   0.840 -0.7223  0.3309 -0.1341
  288TMC3    C1 4340   2.673   2.397  14.355  0.1034 -0.2668  0.1300
  288TMC3    C2 4341   2.554   2.428  14.424 -0.2515 -0.0173 -0.4703
  288TMC3    C3 4342   2.489   2.546  14.384 -0.3471 -0.0349  0.2113
  288TMC3    C4 4343   2.721   2.471  14.255 -0.0005  0.2473  0.7150
  288TMC3    C5 4344   2.647   2.582  14.216  0.1386 -0.5367  0.1959
  288TMC3    C6 4345   2.539   2.634  14.288  0.1904 -0.1587 -0.1148
  288TMC3     C 4346   2.763   2.282  14.381  0.4602  0.4228  0.0299
  288TMC3     O 4347   2.881   2.307  14.360  0.5853  0.0690 -0.2536
  288TMC3     H 4348   2.537   2.379  14.519 -0.0130 -0.0471 -0.4447
  288TMC3    H1 4349   2.801   2.433  14.193 -0.5803 -0.5434  0.4545
  288TMC3    H2 4350   2.489   2.729  14.272 -1.5177 -1.0375  0.0016
  288TMC3    C7 4351   2.675   2.627  14.078 -0.3053 -0.1136 -1.0174
  288TMC3    C8 4352   2.371   2.583  14.467  0.2859 -0.0550 -0.0140
  288TMC3    O1 4353   2.774   2.583  14.024 -0.2246 -0.4099  0.1812
  288TMC3    O2 4354   2.334   2.699  14.477  0.4179  0.2696 -0.9655
  289MPD2     C 4355   2.626   1.852  14.172 -0.0938  0.5031 -0.0202
  289MPD2    C1 4356   2.576   1.880  14.049  0.1898 -0.3773  0.1726
  289MPD2    C2 4357   2.450   1.828  14.016  0.0951 -0.6121 -0.5664
  289MPD2    C3 4358   2.376   1.762  14.113 -0.3254  0.1795 -0.2667
  289MPD2    C4 4359   2.427   1.745  14.241  0.0951 -0.5639 -0.7889
  289MPD2    C5 4360   2.547   1.804  14.272 -0.2462  0.6841  0.3299
  289MPD2     H 4361   2.412   1.826  13.914  0.0604 -0.8162 -0.5494
  289MPD2    H1 4362   2.378   1.680  14.312  1.4593  0.2679  0.9339
  289MPD2    H2 4363   2.727   1.873  14.207  1.8465 -2.7958 -3.6658
  289MPD2    H3 4364   2.595   1.787  14.367  1.7413  0.2913 -0.7465
  289MPD2     N 4365   2.245   1.706  14.097 -0.1010  0.2853  0.0010
  289MPD2    H5 4366   2.196   1.675  14.181  0.3249  0.7734  0.4295
  289MPD2    N1 4367   2.659   1.936  13.951  0.6768  0.3677 -0.2828
  289MPD2    H7 4368   2.759   1.935  13.969  0.7603  1.3735 -0.6594
  290TMC3    C1 4369   2.050   1.659  13.982  0.6558  0.3164 -0.1424
  290TMC3    C2 4370   1.976   1.768  14.013  0.3732 -0.2598  0.1937
  290TMC3    C3 4371   1.862   1.803  13.941  0.5412 -0.1094  0.5820
  290TMC3    C4 4372   2.002   1.576  13.888 -0.2573 -0.0553 -0.1941
  290TMC3    C5 4373   1.880   1.602  13.827 -0.6554  0.6065  0.1195
  290TMC3    C6 4374   1.809   1.709  13.859 -0.4187 -0.1395 -0.4892
  290TMC3     C 4375   2.185   1.680  13.974 -0.3992 -0.6888  0.3678
  290TMC3     O 4376   2.233   1.679  13.857 -0.0260  0.6116 -0.1402
  290TMC3     H 4377   2.022   1.840  14.079 -1.1697  0.3494  0.6107
  290TMC3    H1 4378   2.054   1.488  13.851 -0.8785 -0.1725 -0.7904
  290TMC3    H2 4379   1.715   1.724  13.806 -0.0632  2.1154 -0.4621
  290TMC3    C7 4380   1.803   1.503  13.762  0.0777 -0.4488 -0.1090
  290TMC3    C8 4381   1.767   1.893  14.002  0.7008 -0.7004 -0.0243
  290TMC3    O1 4382   1.706   1.535  13.697  0.0167 -0.2876 -0.4816
  290TMC3    O2 4383   1.648   1.859  13.988 -0.6044  0.5512 -0.2686
  291MPD2     C 4384   1.220   1.199   0.295 -0.5675 -0.0190  0.4367
  291MPD2    C1 4385   1.280   1.155   0.414  0.2196  0.2251  0.3091
  291MPD2    C2 4386   1.361   1.243   0.483 -0.1183 -0.8071  0.1342
  291MPD2    C3 4387   1.379   1.377   0.446 -0.1759  0.2941 -0.0741
  291MPD2    C4 4388   1.305   1.422   0.338 -0.7363  0.7500 -0.4380
  291MPD2    C5 4389   1.230   1.334   0.267  0.3330  1.2049 -0.0789
  291MPD2     H 4390   1.398   1.209   0.579 -0.3458  2.9948  1.5483
  291MPD2    H1 4391   1.315   1.520   0.291  0.1480  0.7464 -0.2474
  291MPD2    H2 4392   1.160   1.139   0.228  0.6480  1.5174 -2.0028
  291MPD2    H3 4393   1.183   1.362   0.174  0.1094 -1.4155 -0.7632
  291MPD2     N 4394   1.462   1.467   0.515 -0.6004  0.5620 -0.4682
  291MPD2    H5 4395   1.444   1.563   0.487 -0.1937  0.1571 -2.1019
  291MPD2    N1 4396   1.285   1.020   0.452  0.0796 -0.3361 -0.1728
  291MPD2    H7 4397   1.355   1.004   0.523 -1.7626 -3.2006  1.0055
  292TMC3    C1 4398   1.262   0.783   0.440  0.3417 -0.1203 -0.1415
  292TMC3    C2 4399   1.372   0.771   0.511 -0.0887 -0.8206  0.9379
  292TMC3    C3 4400   1.398   0.649   0.562 -0.8214 -0.7078  0.1317
  292TMC3    C4 4401   1.178   0.679   0.414 -0.2161  0.0574 -0.7784
  292TMC3    C5 4402   1.200   0.563   0.477 -0.0822  0.7009  0.3971
  292TMC3    C6 4403   1.310   0.547   0.549 -0.3872 -0.5494 -0.4821
  292TMC3     C 4404   1.213   0.916   0.400 -0.4366 -0.8336  0.2364
  292TMC3     O 4405   1.106   0.926   0.338  1.1086 -0.1272  0.2701
  292TMC3     H 4406   1.450   0.847   0.508 -0.6527 -0.2447  0.8722
  292TMC3    H1 4407   1.106   0.689   0.335  0.2152  1.2309 -1.0317
  292TMC3    H2 4408   1.330   0.453   0.599 -0.0658 -1.3620 -2.1239
  292TMC3    C7 4409   1.140   0.442   0.426 -0.8170 -0.4656  0.7314
  292TMC3    C8 4410   1.523   0.625   0.632 -0.3178 -0.0191  0.1992
  292TMC3    O1 4411   1.202   0.336   0.446  0.1914 -0.3379  0.2964
  292TMC3    O2 4412   1.620   0.680   0.583 -0.1633  0.0917  0.0824
  293MPD2     C 4413   3.260   3.137  12.585 -0.1940 -0.7290  0.1156
  293MPD2    C1 4414   3.192   3.043  12.645 -1.0508  0.5820  1.1106
  293MPD2    C2 4415   3.192   3.024  12.786  0.6628  1.3142  0.6289
  293MPD2    C3 4416   3.257   3.124  12.859 -0.4464  0.7229 -0.4772
  293MPD2    C4 4417   3.315   3.230  12.796 -1.1064 -0.6101 -0.0846
  293MPD2    C5 4418   3.325   3.235  12.660 -0.6001 -0.5260 -0.7076
  293MPD2     H 4419   3.151   2.934  12.830  0.3804  0.9796 -0.3371
  293MPD2    H1 4420   3.368   3.311  12.844  0.8890  1.0894 -5.1429
  293MPD2    H2 4421   3.261   3.141  12.476 -0.2048 -0.0615  0.1388
  293MPD2    H3 4422   3.361   3.316  12.597 -0.0144  0.1527  0.5141
  293MPD2     N 4423   3.261   3.100  13.002 -0.1415 -0.1441  0.4849
  293MPD2    H5 4424   3.212   3.020  13.040 -0.9611  0.7691  1.3708
  293MPD2    N1 4425   3.120   2.956  12.560  0.3587  0.4977  0.4062
  293MPD2    H7 4426   3.119   2.984  12.462 -0.4140 -0.8946  0.0144
  294TMC3    C1 4427   2.959   2.793  12.498 -0.3410 -0.3508 -0.0189
  294TMC3    C2 4428   2.857   2.710  12.541 -0.7197 -0.2872  0.4400
  294TMC3    C3 4429   2.746   2.702  12.457  0.0527 -0.1633  0.5273
  294TMC3    C4 4430   2.948   2.865  12.376 -0.4863  0.1855 -0.7911
  294TMC3    C5 4431   2.837   2.845  12.304  0.3303  0.0311 -0.0307
  294TMC3    C6 4432   2.733   2.772  12.339 -0.4607  0.2088 -0.3848
  294TMC3     C 4433   3.049   2.849  12.601  0.6555  0.3342  0.2756
  294TMC3     O 4434   3.046   2.788  12.707  0.6823  0.4264 -0.7550
  294TMC3     H 4435   2.866   2.646  12.628 -2.5083 -0.5995  0.3880
  294TMC3    H1 4436   3.037   2.918  12.346 -0.1310 -0.4018 -0.7838
  294TMC3    H2 4437   2.654   2.769  12.265  0.4350  0.3092 -1.3502
  294TMC3    C7 4438   2.815   2.927  12.189  0.2157 -0.0532 -0.5118
  294TMC3    C8 4439   2.638   2.609  12.504  0.1827 -0.4147 -1.2453
  294TMC3    O1 4440   2.699   2.965  12.166  0.3065 -0.1312 -1.0606
  294TMC3    O2 4441   2.628   2.572  12.622  0.0848 -0.8239 -0.0587
  295MPD2     C 4442   3.735   1.958   1.344  0.2841  0.1175 -0.5594
  295MPD2    C1 4443   3.622   1.912   1.299  0.2943  0.4432  0.1276
  295MPD2    C2 4444   3.528   1.871   1.391  0.2014  0.4157  0.2867
  295MPD2    C3 4445   3.556   1.858   1.527 -0.0902 -0.4015  0.5930
  295MPD2    C4 4446   3.676   1.908   1.569 -0.3948 -0.4733 -0.0709
  295MPD2    C5 4447   3.758   1.962   1.480  0.9140 -0.6178  0.0286
  295MPD2     H 4448   3.435   1.833   1.352  0.0969  0.2405  0.7039
  295MPD2    H1 4449   3.713   1.904   1.670  0.0084  1.7651 -0.1318
  295MPD2    H2 4450   3.813   2.000   1.282  0.5288  0.6087  0.0810
  295MPD2    H3 4451   3.855   1.997   1.514 -0.4100  2.3351  0.8536
  295MPD2     N 4452   3.479   1.778   1.614 -0.2041  0.1155  0.2554
  295MPD2    H5 4453   3.506   1.765   1.711 -0.7306  2.8485  0.7605
  295MPD2    N1 4454   3.582   1.894   1.164  0.2352  0.1556 -0.2898
  295MPD2    H7 4455   3.483   1.873   1.162  0.7764 -2.3061 -2.3893
  296TMC3    C1 4456   3.317   1.619   1.677 -0.3651 -0.9262  0.1969
  296TMC3    C2 4457   3.374   1.590   1.800  0.0600 -0.0634 -1.2400
  296TMC3    C3 4458   3.313   1.500   1.879 -1.1704 -0.7904 -0.3075
  296TMC3    C4 4459   3.213   1.543   1.639  0.0959  0.0857  0.2153
  296TMC3    C5 4460   3.168   1.439   1.714  0.4027  0.3235 -0.5665
  296TMC3    C6 4461   3.217   1.412   1.838 -1.1070 -0.6234 -0.3095
  296TMC3     C 4462   3.365   1.706   1.575  0.6713 -1.2578  0.1607
  296TMC3     O 4463   3.321   1.687   1.464 -0.3558 -0.1497 -0.2469
  296TMC3     H 4464   3.469   1.636   1.825 -1.2036  1.0334  1.4809
  296TMC3    H1 4465   3.159   1.563   1.547  2.2871 -1.5140 -1.4379
  296TMC3    H2 4466   3.172   1.339   1.904 -1.0254  0.9407  1.4845
  296TMC3    C7 4467   3.041   1.377   1.668 -0.0325  0.2834  0.0111
  296TMC3    C8 4468   3.355   1.483   2.012  0.1699  0.3214  0.3188
  296TMC3    O1 4469   2.986   1.429   1.571  0.0896 -0.1774 -0.5184
  296TMC3    O2 4470   3.304   1.392   2.070 -0.1142 -0.1278 -0.1843
  297MPD2     C 4471   0.747   3.089  15.609 -0.0494 -0.1628 -0.7547
  297MPD2    C1 4472   0.740   3.215  15.657 -0.1672  0.5507 -0.7649
  297MPD2    C2 4473   0.855   3.265  15.717  0.0706  0.0084  0.0621
  297MPD2    C3 4474   0.965   3.185  15.738  0.5118 -0.9244 -0.0646
  297MPD2    C4 4475   0.969   3.056  15.691 -0.3473 -0.0874  0.3513
  297MPD2    C5 4476   0.860   3.013  15.617  0.0920 -0.0756  0.1444
  297MPD2     H 4477   0.845   3.369  15.747  0.4270  0.7940 -2.6133
  297MPD2    H1 4478   1.063   3.002  15.690  0.8603  2.0120  0.5448
  297MPD2    H2 4479   0.663   3.046  15.556  0.4444 -0.6903 -1.0968
  297MPD2    H3 4480   0.856   2.913  15.575 -1.8742  1.0877 -2.4027
  297MPD2     N 4481   1.071   3.238  15.808 -0.0414  0.4620 -0.0291
  297MPD2    H5 4482   1.156   3.183  15.803 -1.1596 -1.2664  0.0412
  297MPD2    N1 4483   0.629   3.296  15.641 -0.6332 -0.2653  0.1314
  297MPD2    H7 4484   0.642   3.388  15.680  2.3279 -1.0686  1.0521
  298TMC3    C1 4485   0.428   3.374  15.560 -0.5902  0.0595  0.3053
  298TMC3    C2 4486   0.343   3.370  15.457 -0.6437  0.4163 -0.2128
  298TMC3    C3 4487   0.257   3.473  15.429  1.1913 -0.0374  0.3570
  298TMC3    C4 4488   0.427   3.484  15.643 -0.1684  0.4014  0.0086
  298TMC3    C5 4489   0.353   3.593  15.604 -0.8479  0.1202  0.8816
  298TMC3    C6 4490   0.268   3.593  15.496 -0.5454  0.0164  0.7109
  298TMC3     C 4491   0.509   3.260  15.585 -0.1987  0.0445  0.7842
  298TMC3     O 4492   0.463   3.150  15.548  0.1950  0.2937 -0.1213
  298TMC3     H 4493   0.350   3.288  15.387  3.7736 -0.6869  1.5529
  298TMC3    H1 4494   0.491   3.492  15.730  1.8086 -2.1264 -1.1944
  298TMC3    H2 4495   0.190   3.667  15.490 -0.5551 -0.2817 -3.1601
  298TMC3    C7 4496   0.310   3.679  15.708 -1.1107  0.4609  0.2659
  298TMC3    C8 4497   0.177   3.474  15.313  0.5119 -0.3062  1.2500
  298TMC3    O1 4498   0.342   3.658  15.823  0.2391  0.0875  0.1947
  298TMC3    O2 4499   0.145   3.582  15.265 -0.8122 -0.3855  0.1914
  299MPD2     C 4500   1.182   3.773  11.107  0.3500  0.1536  0.1941
  299MPD2    C1 4501   1.279   3.794  11.010  0.0563  0.0085  0.1075
  299MPD2    C2 4502   1.250   3.816  10.876 -0.3389  0.0263  0.7403
  299MPD2    C3 4503   1.114   3.816  10.849 -0.0409 -0.2692 -0.3167
  299MPD2    C4 4504   1.019   3.785  10.943 -0.5178  0.7851 -1.6535
  299MPD2    C5 4505   1.053   3.767  11.071  0.9276  0.2588 -0.7472
  299MPD2     H 4506   1.323   3.817  10.796  1.4557  1.5989  2.3979
  299MPD2    H1 4507   0.914   3.781  10.920 -1.2211 -1.3316  1.9374
  299MPD2    H2 4508   1.207   3.745  11.209  0.2744  1.4871  0.5816
  299MPD2    H3 4509   0.969   3.759  11.140  1.3218 -0.4687 -0.3525
  299MPD2     N 4510   1.060   3.824  10.719 -0.1024  0.0049 -0.4419
  299MPD2    H5 4511   0.961   3.806  10.707  0.1138 -3.0607  2.4639
  299MPD2    N1 4512   1.411   3.777  11.059  0.3650  0.3117  1.0505
  299MPD2    H7 4513   1.415   3.739  11.154 -1.4641 -2.2585  0.1227
  300TMC3    C1 4514   1.045   3.818  10.478  0.2835 -0.8105  0.4831
  300TMC3    C2 4515   1.060   3.902  10.369 -0.2410 -0.2340 -0.5966
  300TMC3    C3 4516   0.977   3.900  10.265 -0.1324  0.4049 -0.4337
  300TMC3    C4 4517   0.947   3.724  10.474 -0.4845  0.2630  0.4381
  300TMC3    C5 4518   0.878   3.709  10.357  0.0735  0.0612 -0.1785
  300TMC3    C6 4519   0.891   3.791  10.252 -0.2954  0.3653 -0.3511
  300TMC3     C 4520   1.118   3.862  10.602 -1.0152 -0.5856  0.0634
  300TMC3     O 4521   1.233   3.901  10.588  0.3587  0.1108 -0.1954
  300TMC3     H 4522   1.120   3.990  10.388 -1.9052  0.3287  2.0233
  300TMC3    H1 4523   0.938   3.651  10.554 -2.2120  0.9457  0.8566
  300TMC3    H2 4524   0.826   3.789  10.165 -2.3215 -1.7389  1.2136
  300TMC3    C7 4525   0.754   3.622  10.350 -0.1116  0.0387 -0.1725
  300TMC3    C8 4526   0.908   4.029  10.258  0.5540  0.2198  0.2404
  300TMC3    O1 4527   0.708   3.594  10.240 -0.7161 -0.0099  0.0548
  300TMC3    O2 4528   0.977   4.122  10.294  0.5171  0.0489  1.0088
  301MPD2     C 4529   2.905   4.196   1.888  0.6385  0.3959 -0.1046
  301MPD2    C1 4530   2.830   4.171   1.776  0.1629  0.1994 -0.0778
  301MPD2    C2 4531   2.812   4.041   1.739 -0.0811 -0.2730  0.1524
  301MPD2    C3 4532   2.862   3.933   1.808  0.3298  0.2087 -0.1329
  301MPD2    C4 4533   2.942   3.960   1.920  0.1051  0.2477 -0.1653
  301MPD2    C5 4534   2.964   4.093   1.957  0.3043 -0.2881  0.6908
  301MPD2     H 4535   2.757   4.026   1.646  0.2842 -0.3360 -0.0543
  301MPD2    H1 4536   2.964   3.887   1.998 -0.1543 -1.0554 -1.3209
  301MPD2    H2 4537   2.903   4.295   1.932  1.8466  0.4956 -0.2818
  301MPD2    H3 4538   3.017   4.117   2.048  2.0767 -4.1556  0.7103
  301MPD2     N 4539   2.839   3.796   1.774 -0.2653 -0.6719 -0.3930
  301MPD2    H5 4540   2.885   3.721   1.825 -0.2377 -1.7026 -1.9194
  301MPD2    N1 4541   2.765   4.269   1.696  0.0753  0.3725  0.2933
  301MPD2    H7 4542   2.715   4.231   1.616 -0.8601 -1.4108  1.7312
  302TMC3    C1 4543   2.736   3.602   1.677 -0.4915  0.4129  0.5840
  302TMC3    C2 4544   2.835   3.519   1.729 -0.3427  0.2734 -1.0810
  302TMC3    C3 4545   2.823   3.383   1.704 -0.7240 -0.0883 -0.4018
  302TMC3    C4 4546   2.627   3.554   1.604  0.9509 -0.3050 -0.2124
  302TMC3    C5 4547   2.625   3.421   1.576  0.9394 -0.3542 -0.0248
  302TMC3    C6 4548   2.721   3.336   1.630 -0.1740 -0.8040 -0.5080
  302TMC3     C 4549   2.749   3.743   1.677 -0.3606 -0.7435 -0.7550
  302TMC3     O 4550   2.672   3.799   1.597  0.4296 -0.1150  0.2270
  302TMC3     H 4551   2.933   3.550   1.764 -0.4246 -1.2852  0.5064
  302TMC3    H1 4552   2.545   3.618   1.575  0.4523 -1.4480 -1.3181
  302TMC3    H2 4553   2.715   3.234   1.594 -0.6312 -1.7126  2.1367
  302TMC3    C7 4554   2.588   3.382   1.441 -0.5646  0.1162  0.9572
  302TMC3    C8 4555   2.943   3.306   1.697 -0.6751 -0.0620  0.2438
  302TMC3    O1 4556   2.590   3.265   1.406 -0.2376  0.0204  0.5447
  302TMC3    O2 4557   3.048   3.363   1.670  0.4240  0.4121 -0.4468
  303MPD2     C 4558   3.179   2.759  10.307 -0.5376 -0.1282  0.5421
  303MPD2    C1 4559   3.044   2.781  10.302 -0.6313 -0.3081 -0.2924
  303MPD2    C2 4560   2.995   2.834  10.180 -0.0643 -0.3056 -0.0742
  303MPD2    C3 4561   3.074   2.861  10.071  0.5961 -0.1473  0.4810
  303MPD2    C4 4562   3.208   2.836  10.079 -0.4820 -0.1340  0.4058
  303MPD2    C5 4563   3.266   2.792  10.201  0.0943  0.0423 -0.3938
  303MPD2     H 4564   2.891   2.865  10.184 -0.0175 -0.4241  2.0348
  303MPD2    H1 4565   3.272   2.847   9.993 -1.6458  1.5238 -0.2483
  303MPD2    H2 4566   3.220   2.720  10.399 -0.2042 -0.7325  0.1411
  303MPD2    H3 4567   3.372   2.788  10.220  0.6102 -1.4271 -3.6273
  303MPD2     N 4568   3.018   2.918   9.955  0.2333  0.2453 -0.5227
  303MPD2    H5 4569   3.083   2.922   9.877  0.4114 -2.3128 -0.4863
  303MPD2    N1 4570   2.954   2.740  10.405  0.1518  0.1235 -0.5052
  303MPD2    H7 4571   2.999   2.702  10.488  1.6758  0.0749 -1.3619
  304TMC3    C1 4572   2.745   2.655  10.492 -0.4456  0.5799  0.5956
  304TMC3    C2 4573   2.752   2.715  10.617 -0.0147 -0.0253 -0.0913
  304TMC3    C3 4574   2.655   2.690  10.704  0.1595 -0.5303 -0.6873
  304TMC3    C4 4575   2.655   2.557  10.462 -0.3182  0.2412 -0.4370
  304TMC3    C5 4576   2.566   2.527  10.563  0.1012  0.2265  0.5958
  304TMC3    C6 4577   2.565   2.589  10.685 -0.0918 -0.5017 -0.1954
  304TMC3     C 4578   2.818   2.717  10.383  0.4614  0.2739 -0.3991
  304TMC3     O 4579   2.755   2.708  10.277 -0.8523 -0.0405  0.4056
  304TMC3     H 4580   2.805   2.810  10.619 -1.2146  0.6187  1.9241
  304TMC3    H1 4581   2.641   2.527  10.358 -2.1103  2.5454 -0.8741
  304TMC3    H2 4582   2.496   2.575  10.768  1.2312  0.0648  1.0023
  304TMC3    C7 4583   2.432   2.523  10.515 -0.4817  0.5753 -0.1318
  304TMC3    C8 4584   2.595   2.814  10.745 -0.2833  0.0824 -0.3897
  304TMC3    O1 4585   2.350   2.595  10.572 -0.0053  0.0097 -0.2807
  304TMC3    O2 4586   2.669   2.888  10.811 -0.3812  0.2217 -0.4153
  305MPD2     C 4587   1.797   0.113  14.020 -0.1794  0.2670 -0.1109
  305MPD2    C1 4588   1.801   0.005  14.097 -0.2577 -0.4127 -0.0118
  305MPD2    C2 4589   1.772   4.605  14.033 -0.0597 -0.0309  1.3715
  305MPD2    C3 4590   1.742   4.607  13.898 -0.2234  0.2835  0.9009
  305MPD2    C4 4591   1.729   0.005  13.830  0.6455 -0.6569  0.1954
  305MPD2    C5 4592   1.754   0.120  13.896 -0.1877  0.4509 -0.0007
  305MPD2     H 4593   1.768   4.511  14.086 -0.6048  0.2817  1.8797
  305MPD2    H1 4594   1.705   0.011  13.725 -0.0335 -1.5012  0.2997
  305MPD2    H2 4595   1.799   0.215  14.056  0.8781  0.6156 -1.1731
  305MPD2    H3 4596   1.759   0.212  13.837  0.1319  0.8491  0.6461
  305MPD2     N 4597   1.713   4.493  13.820 -0.4628  0.4108 -0.5472
  305MPD2    H5 4598   1.693   4.514  13.723 -0.3710 -1.2466 -0.9161
  305MPD2    N1 4599   1.838   0.020  14.234  0.3090  0.4108  0.1879
  305MPD2    H7 4600   1.867   0.112  14.264 -0.6675  1.2344 -1.3914
  306TMC3    C1 4601   1.892   4.687  14.445 -0.2580 -0.0547 -0.1484
  306TMC3    C2 4602   1.860   4.620  14.560 -0.0169  0.2862 -0.2733
  306TMC3    C3 4603   1.863   4.684  14.684 -0.4397  0.3651  0.0381
  306TMC3    C4 4604   1.952   0.089  14.446 -0.0730 -0.3894  0.4117
  306TMC3    C5 4605   1.967   0.140  14.574  0.4168 -0.3039 -0.4422
  306TMC3    C6 4606   1.934   0.080  14.693  1.4784  0.5654  0.0529
  306TMC3     C 4607   1.847   4.635  14.318 -0.0337 -0.2112  0.6686
  306TMC3     O 4608   1.827   4.513  14.307  0.6793 -0.4243 -0.1970
  306TMC3     H 4609   1.832   4.516  14.545 -1.0589  0.4040  0.9392
  306TMC3    H1 4610   2.003   0.134  14.362  1.4861 -0.1999  1.4589
  306TMC3    H2 4611   1.942   0.135  14.787 -0.5144 -0.5318  0.8678
  306TMC3    C7 4612   2.047   0.267  14.573 -0.1917  0.7298 -0.2305
  306TMC3    C8 4613   1.901   4.589  14.788 -0.0484  0.1229 -0.1628
  306TMC3    O1 4614   2.039   0.343  14.477  0.3792  0.0162 -0.3954
  306TMC3    O2 4615   1.970   4.488  14.760 -0.3545  0.2750  0.4582
  307MPD2     C 4616   0.039   2.069   0.372 -0.1912  0.2463  0.3259
  307MPD2    C1 4617   4.675   2.160   0.305  0.0704  0.4604 -0.3484
  307MPD2    C2 4618   4.649   2.280   0.357 -0.0659  0.3579 -0.4872
  307MPD2    C3 4619   4.712   2.313   0.479 -0.8829  0.0960  0.0864
  307MPD2    C4 4620   0.070   2.221   0.546 -0.8995  0.2664  0.3140
  307MPD2    C5 4621   0.097   2.105   0.491  0.0979 -0.2695  0.1096
  307MPD2     H 4622   4.586   2.358   0.317  1.5458  0.6698 -2.4105
  307MPD2    H1 4623   0.112   2.242   0.643 -1.5552 -1.0407  0.8713
  307MPD2    H2 4624   0.059   1.969   0.337  0.7895  1.2215 -1.8823
  307MPD2    H3 4625   0.153   2.038   0.555  0.2329  0.8787  1.2024
  307MPD2     N 4626   4.695   2.439   0.544 -0.5615 -0.2227  0.2051
  307MPD2    H5 4627   4.721   2.441   0.642  1.0605  0.4758 -0.2410
  307MPD2    N1 4628   4.615   2.130   0.173  0.3934  0.5027 -1.1651
  307MPD2    H7 4629   4.551   2.203   0.143 -0.0356  1.1865  1.4397
  308TMC3    C1 4630   4.400   2.662   0.713 -0.0315  0.0891  0.6294
  308TMC3    C2 4631   4.376   2.785   0.657 -0.2994 -0.1782  0.5526
  308TMC3    C3 4632   4.465   2.833   0.560  0.5169  0.7891  0.5644
  308TMC3    C4 4633   4.518   2.593   0.693  0.6530  0.1881 -0.1872
  308TMC3    C5 4634   4.606   2.647   0.595 -0.3219  0.0946  0.5860
  308TMC3    C6 4635   4.579   2.763   0.528 -0.4549 -0.1877 -0.7988
  308TMC3     C 4636   4.306   2.604   0.806  0.4105 -0.6607 -0.0672
  308TMC3     O 4637   4.330   2.501   0.869 -0.0008  0.1935  0.0266
  308TMC3     H 4638   4.290   2.848   0.681  0.9102  1.3203  0.9610
  308TMC3    H1 4639   4.531   2.493   0.732 -3.6843  0.0412  0.9003
  308TMC3    H2 4640   4.637   2.790   0.441 -0.5659  1.3199 -0.4063
  308TMC3    C7 4641   4.629   2.548   0.496  0.1712  0.1160  0.4965
  308TMC3    C8 4642   4.414   2.901   0.450  0.1519 -0.1817  0.3039
  308TMC3    O1 4643   4.589   2.565   0.384 -0.0467  0.3455  0.0814
  308TMC3    O2 4644   4.290   2.904   0.453 -0.0025 -0.0591 -0.1327
  309MPD2     C 4645   3.311   2.663  17.379  0.4955  0.2377  0.4431
  309MPD2    C1 4646   3.277   2.744  17.268  0.0785 -0.0157  0.1932
  309MPD2    C2 4647   3.211   2.861  17.290 -0.7644 -0.5668 -0.2356
  309MPD2    C3 4648   3.179   2.902  17.425 -0.1495  0.2340 -0.6417
  309MPD2    C4 4649   3.213   2.821  17.528  0.4940 -0.0403  0.6339
  309MPD2    C5 4650   3.276   2.704  17.504 -0.9004  0.6109 -0.6017
  309MPD2     H 4651   3.191   2.924  17.204  0.9977  2.3498  1.4477
  309MPD2    H1 4652   3.195   2.847  17.632  1.2810 -0.4755  0.8824
  309MPD2    H2 4653   3.364   2.569  17.373 -0.3289 -0.3512  2.3057
  309MPD2    H3 4654   3.319   2.644  17.583 -1.4564 -0.4464 -1.1083
  309MPD2     N 4655   3.109   3.021  17.458 -0.2772  0.1824 -0.1968
  309MPD2    H5 4656   3.102   3.028  17.559 -1.3377  2.3299 -0.4241
  309MPD2    N1 4657   3.318   2.719  17.135 -0.6872  0.5906 -0.5817
  309MPD2    H7 4658   3.293   2.780  17.058  1.3176  3.0278  0.6998
  310TMC3    C1 4659   3.458   2.625  16.962  0.5957 -0.1249  0.9355
  310TMC3    C2 4660   3.453   2.738  16.889  0.6826  0.3792 -0.1122
  310TMC3    C3 4661   3.474   2.721  16.756 -0.2883  0.3959  0.6503
  310TMC3    C4 4662   3.495   2.503  16.912 -0.4995  0.7767 -0.1083
  310TMC3    C5 4663   3.519   2.488  16.775 -0.1880  0.2727  0.1166
  310TMC3    C6 4664   3.503   2.601  16.698  0.0039  0.1813  0.3733
  310TMC3     C 4665   3.398   2.618  17.097  0.1809  0.5128 -0.6621
  310TMC3     O 4666   3.448   2.528  17.161  0.4333 -0.5148 -0.5078
  310TMC3     H 4667   3.450   2.839  16.928 -1.1766  1.5320 -3.2697
  310TMC3    H1 4668   3.495   2.412  16.970  1.9215  1.8258  1.5495
  310TMC3    H2 4669   3.524   2.586  16.593  1.6130  0.5164  0.6449
  310TMC3    C7 4670   3.567   2.358  16.724 -0.3271 -0.3085  0.4216
  310TMC3    C8 4671   3.467   2.837  16.666  0.8060  0.5570 -0.0296
  310TMC3    O1 4672   3.550   2.268  16.801  0.2687  0.6537 -0.6072
  310TMC3    O2 4673   3.548   2.841  16.581 -0.3892 -0.2774 -0.5803
  311MPD2     C 4674   0.894   4.471  13.137 -0.0543  0.2848 -0.2200
  311MPD2    C1 4675   0.857   4.574  13.057 -0.0247  0.3587 -0.1210
  311MPD2    C2 4676   0.729   4.627  13.065 -0.6943  0.3956 -0.0747
  311MPD2    C3 4677   0.639   4.581  13.158  0.3425 -0.3952 -0.0886
  311MPD2    C4 4678   0.679   4.482  13.249  0.2268 -0.5070 -0.4126
  311MPD2    C5 4679   0.806   4.433  13.235 -0.0500  0.0801 -0.4427
  311MPD2     H 4680   0.698   4.698  12.989 -0.0929 -0.1380 -0.8170
  311MPD2    H1 4681   0.616   4.443  13.329 -1.9832 -0.3758 -2.0845
  311MPD2    H2 4682   0.986   4.416  13.119 -0.8032 -1.6332  1.7352
  311MPD2    H3 4683   0.835   4.350  13.298  2.1648  1.0853 -0.1466
  311MPD2     N 4684   0.502   4.621  13.142 -0.5664  0.0709 -0.2899
  311MPD2    H5 4685   0.474   4.670  13.058 -1.4855 -0.4137 -0.2697
  311MPD2    N1 4686   0.943   4.618  12.952 -0.0668 -1.4388  0.0913
  311MPD2    H7 4687   0.912   4.697  12.897  0.0094 -2.1198 -0.9181
  312TMC3    C1 4688   0.291   4.655  13.220  0.1198 -0.0359  0.2150
  312TMC3    C2 4689   0.233   4.636  13.101 -0.5889 -0.6963  0.0319
  312TMC3    C3 4690   0.114   4.692  13.080 -0.3859 -0.4189  0.4035
  312TMC3    C4 4691   0.234   4.715  13.322  0.5252 -0.1850 -0.0158
  312TMC3    C5 4692   0.113   0.048  13.295 -0.2340 -0.1961 -0.3152
  312TMC3    C6 4693   0.050   0.032  13.177 -0.6458  0.7641 -0.4142
  312TMC3     C 4694   0.412   4.598  13.243 -0.7166 -0.5873  1.5110
  312TMC3     O 4695   0.437   4.580  13.363  0.1339 -0.1210  0.1144
  312TMC3     H 4696   0.274   4.556  13.041  0.6011  0.6324 -0.9109
  312TMC3    H1 4697   0.290   0.007  13.413  1.0848  0.5450 -0.4847
  312TMC3    H2 4698   4.667   0.050  13.174 -0.6563  0.5374 -1.3111
  312TMC3    C7 4699   0.041   0.123  13.395  0.5795  0.3756 -0.7103
  312TMC3    C8 4700   0.021   4.639  12.984  0.5320 -0.2391 -0.0167
  312TMC3    O1 4701   4.673   0.197  13.362 -0.0596  0.1284 -0.3082
  312TMC3    O2 4702   0.005   4.517  12.988  0.4432 -0.2046 -0.2093
  313MPD2     C 4703   0.040   4.025  11.093 -0.5393 -0.0493 -0.0592
  313MPD2    C1 4704   4.639   3.987  11.040  0.5556  0.7248 -0.1474
  313MPD2    C2 4705   4.639   3.953  10.905  0.3543 -0.2636 -0.1524
  313MPD2    C3 4706   0.030   3.958  10.831 -0.2748 -0.4519 -0.0333
  313MPD2    C4 4707   0.147   4.019  10.883  0.3400  0.5012 -0.2264
  313MPD2    C5 4708   0.157   4.035  11.019 -0.3041  0.9961  0.6037
  313MPD2     H 4709   4.547   3.920  10.859 -0.3671  0.0488  1.0697
  313MPD2    H1 4710   0.236   4.041  10.826 -0.5761  0.3714 -1.7265
  313MPD2    H2 4711   0.052   4.029  11.200 -1.8122  1.5338  0.0119
  313MPD2    H3 4712   0.241   4.089  11.059  1.1034 -0.9106  0.1876
  313MPD2     N 4713   0.015   3.895  10.705 -0.9163  0.4907  0.5532
  313MPD2    H5 4714   4.655   3.841  10.687 -0.1193 -1.5549  2.9382
  313MPD2    N1 4715   4.517   3.986  11.112 -0.4504  0.3606  0.1866
  313MPD2    H7 4716   4.437   3.960  11.056 -0.8911  2.3234 -0.1038
  314TMC3    C1 4717   4.367   4.154  11.223  0.0657 -0.1509 -0.0258
  314TMC3    C2 4718   4.424   4.277  11.252 -0.7412  0.0525 -0.0304
  314TMC3    C3 4719   4.445   4.371  11.155  0.0528 -0.0113  0.5698
  314TMC3    C4 4720   4.305   4.142  11.100  0.4721 -0.0611 -0.0172
  314TMC3    C5 4721   4.330   4.242  11.005 -0.3859 -0.2646 -0.0192
  314TMC3    C6 4722   4.399   4.358  11.032 -0.3489  0.5911  0.4070
  314TMC3     C 4723   4.495   4.066  11.224 -0.2108 -0.3266 -0.4546
  314TMC3     O 4724   4.581   4.108  11.302  0.2028 -0.2303 -0.2702
  314TMC3     H 4725   4.450   4.300  11.355 -2.2347  1.5789  0.0003
  314TMC3    H1 4726   4.244   4.055  11.082 -1.1216  0.3531  3.5167
  314TMC3    H2 4727   4.431   4.419  10.948 -1.6738 -0.2543 -0.7077
  314TMC3    C7 4728   4.313   4.197  10.869 -0.2424 -0.1598 -0.6948
  314TMC3    C8 4729   4.575   4.437  11.167  0.2509  0.1486 -0.3089
  314TMC3    O1 4730   4.213   4.133  10.842 -0.2195  0.5160 -0.5543
  314TMC3    O2 4731   4.584   4.550  11.119  0.0135  0.5205 -0.1539
  315MPD2     C 4732   4.412   2.887  17.389  0.0128  0.4903 -0.0503
  315MPD2    C1 4733   4.510   2.915  17.488  0.1482 -0.1646 -0.2247
  315MPD2    C2 4734   4.597   3.025  17.461  0.2390  0.4847 -0.7811
  315MPD2    C3 4735   4.594   3.095  17.344  1.1542 -0.1790  0.1010
  315MPD2    C4 4736   4.490   3.069  17.260  0.1792 -0.3777 -0.7985
  315MPD2    C5 4737   4.404   2.964  17.280 -0.5945  0.6150 -0.0396
  315MPD2     H 4738   4.684   3.031  17.525  1.0785 -0.3083 -1.8259
  315MPD2    H1 4739   4.485   3.117  17.163 -0.3907  0.4938 -0.3405
  315MPD2    H2 4740   4.329   2.818  17.402 -0.9855  1.7840  0.4366
  315MPD2    H3 4741   4.329   2.937  17.207 -0.8226  0.9228  0.0807
  315MPD2     N 4742   4.693   3.192  17.322 -0.1292  0.2801 -0.3388
  315MPD2    H5 4743   0.052   3.201  17.380  0.4135 -0.7067 -0.9635
  315MPD2    N1 4744   4.514   2.836  17.606  0.8239 -0.2970  0.3208
  315MPD2    H7 4745   4.591   2.859  17.667 -1.0573 -2.3665  3.4799
  316TMC3    C1 4746   0.116   3.325  17.199  0.1267 -0.0313  0.2619
  316TMC3    C2 4747   0.189   3.368  17.305  0.1251 -0.3742 -0.1397
  316TMC3    C3 4748   0.319   3.407  17.277  0.1453 -0.3517 -0.7730
  316TMC3    C4 4749   0.157   3.343  17.066 -0.5988 -1.0161 -0.0387
  316TMC3    C5 4750   0.291   3.380  17.050 -0.0502  0.7132 -0.2874
  316TMC3    C6 4751   0.377   3.412  17.153  1.1653 -0.0819  0.1175
  316TMC3     C 4752   4.706   3.279  17.218 -0.4144 -0.2822  0.1695
  316TMC3     O 4753   4.616   3.304  17.139  0.2119 -0.8272 -0.4210
  316TMC3     H 4754   0.155   3.348  17.406  1.4510  0.6137  0.4963
  316TMC3    H1 4755   0.099   3.309  16.982  0.0066 -0.4296 -0.6970
  316TMC3    H2 4756   0.483   3.428  17.143  1.2673 -0.3255  0.8342
  316TMC3    C7 4757   0.338   3.393  16.917 -0.4140  0.1018 -0.0342
  316TMC3    C8 4758   0.417   3.433  17.381  0.3638  0.3770  0.3534
  316TMC3    O1 4759   0.452   3.374  16.886 -0.0978  0.2090 -0.0161
  316TMC3    O2 4760   0.510   3.513  17.361  0.1241 -0.3928  0.1181
  317MPD2     C 4761   1.918   1.734  12.425 -0.1298 -0.1624 -0.2516
  317MPD2    C1 4762   1.979   1.610  12.411  0.1774  0.5780 -0.2148
  317MPD2    C2 4763   2.018   1.538  12.522 -0.7160  0.4313 -0.9193
  317MPD2    C3 4764   2.002   1.594  12.648  0.8334  0.3013  0.5970
  317MPD2    C4 4765   1.959   1.729  12.658 -0.4663  0.8377  0.2021
  317MPD2    C5 4766   1.916   1.796  12.546 -0.0076  0.2525  0.1596
  317MPD2     H 4767   2.059   1.438  12.518  0.4567  0.8564  0.3570
  317MPD2    H1 4768   1.942   1.773  12.756 -2.2480  1.1952 -0.2732
  317MPD2    H2 4769   1.881   1.798  12.346 -0.4585  0.4641  0.3990
  317MPD2    H3 4770   1.867   1.890  12.570  0.5641  0.6223 -0.1354
  317MPD2     N 4771   2.037   1.522  12.760 -0.1666 -0.8369  0.0278
  317MPD2    H5 4772   2.069   1.426  12.749  0.1745 -0.6041 -1.0187
  317MPD2    N1 4773   2.017   1.565  12.281 -0.4568 -0.1161 -0.0367
  317MPD2    H7 4774   2.066   1.477  12.270  0.1929  0.1820  0.5096
  318TMC3    C1 4775   2.071   1.476  12.989  0.2598  0.2131  0.1296
  318TMC3    C2 4776   2.020   1.355  12.976  0.3700 -0.5555  0.0290
  318TMC3    C3 4777   2.067   1.261  13.064 -0.4291  0.4863 -0.0337
  318TMC3    C4 4778   2.174   1.511  13.067 -0.5129 -0.3441 -0.3627
  318TMC3    C5 4779   2.227   1.412  13.142 -0.8996  0.0254  0.5668
  318TMC3    C6 4780   2.172   1.285  13.150  0.3842 -0.5038  0.0985
  318TMC3     C 4781   2.040   1.572  12.891  0.1197  0.6698  0.3748
  318TMC3     O 4782   2.020   1.684  12.940 -0.1075  0.1129  0.1446
  318TMC3     H 4783   1.924   1.336  12.930  1.6313 -0.4297 -2.6452
  318TMC3    H1 4784   2.205   1.615  13.064  0.7420 -0.7284 -0.8352
  318TMC3    H2 4785   2.199   1.206  13.220  1.2764 -0.4632 -0.2037
  318TMC3    C7 4786   2.359   1.436  13.202 -0.3944  0.1399 -0.2377
  318TMC3    C8 4787   1.990   1.138  13.079  0.5135 -0.6185 -0.6314
  318TMC3    O1 4788   2.418   1.541  13.174  0.3087  0.3242 -0.1270
  318TMC3    O2 4789   2.016   1.077  13.180  0.1536 -0.0516  0.1915
  319MPD2     C 4790   2.856   2.767  16.568 -0.2858  0.4530 -0.3531
  319MPD2    C1 4791   2.802   2.644  16.573  0.7892 -0.7087 -0.3273
  319MPD2    C2 4792   2.851   2.554  16.485  0.3062 -0.6797 -0.2893
  319MPD2    C3 4793   2.939   2.574  16.382  0.5037 -0.2494 -0.7025
  319MPD2    C4 4794   2.993   2.701  16.378 -0.0002 -0.8459 -0.2381
  319MPD2    C5 4795   2.944   2.796  16.465  0.5787  0.2636  0.4029
  319MPD2     H 4796   2.819   2.451  16.492  0.3595 -0.8655 -2.9415
  319MPD2    H1 4797   3.050   2.732  16.291 -1.9103  2.5852 -0.2859
  319MPD2    H2 4798   2.829   2.848  16.635  0.0105  1.4280 -1.4154
  319MPD2    H3 4799   2.981   2.896  16.444  0.1522  0.2750 -0.2781
  319MPD2     N 4800   2.973   2.477  16.285  0.9929  0.0879 -0.5219
  319MPD2    H5 4801   3.041   2.504  16.215  0.7822 -0.3801 -0.9080
  319MPD2    N1 4802   2.715   2.605  16.677  0.1216  0.5293 -0.0333
  319MPD2    H7 4803   2.716   2.505  16.691 -1.3075  0.4536 -0.5049
  320TMC3    C1 4804   2.955   2.264  16.166 -0.1757 -0.8389  0.0249
  320TMC3    C2 4805   2.951   2.327  16.049  0.3317  0.2032 -0.5194
  320TMC3    C3 4806   2.880   2.275  15.948 -0.2392  0.3592 -0.2977
  320TMC3    C4 4807   2.909   2.139  16.178 -0.3887 -0.2511 -0.0935
  320TMC3    C5 4808   2.843   2.087  16.072  0.3582 -1.0762 -0.4518
  320TMC3    C6 4809   2.825   2.153  15.956 -0.0949 -0.5224 -0.0733
  320TMC3     C 4810   2.928   2.345  16.282 -1.0598  0.0733 -0.2571
  320TMC3     O 4811   2.856   2.288  16.361 -0.0228  0.4504 -0.1968
  320TMC3     H 4812   2.982   2.431  16.037 -0.7876  0.5530 -0.3541
  320TMC3    H1 4813   2.937   2.084  16.267 -1.2799  2.3918  1.8258
  320TMC3    H2 4814   2.783   2.105  15.869 -0.6495 -0.7489  0.3172
  320TMC3    C7 4815   2.754   1.977  16.109  0.9132 -0.4937  0.1986
  320TMC3    C8 4816   2.800   2.362  15.872 -0.0535  0.5833 -0.3734
  320TMC3    O1 4817   2.716   1.898  16.022  0.4637  0.6612 -0.3824
  320TMC3    O2 4818   2.691   2.321  15.832 -0.2722  0.4836  0.0113
  321TMC3    C1 4819   2.564   2.631  16.862  0.5850  0.6357 -0.3998
  321TMC3    C2 4820   2.611   2.516  16.922  0.1490  0.0474 -0.1012
  321TMC3    C3 4821   2.560   2.472  17.043 -0.3385 -0.4699 -0.4865
  321TMC3    C4 4822   2.485   2.717  16.933 -0.3997  0.0636  0.6349
  321TMC3    C5 4823   2.455   2.675  17.057  0.1978  0.1269 -0.4316
  321TMC3    C6 4824   2.468   2.549  17.099  0.6700  0.1671  0.1739
  321TMC3     C 4825   2.650   2.694  16.756  0.4131 -0.0172 -0.1312
  321TMC3     O 4826   2.637   2.815  16.744 -0.3796  0.6640 -0.2922
  321TMC3     H 4827   2.678   2.444  16.875 -0.9715 -1.1319  0.1363
  321TMC3    H1 4828   2.466   2.820  16.905  0.8875  0.2360  0.4376
  321TMC3    H2 4829   2.450   2.531  17.204 -0.8957  0.6919 -0.0014
  321TMC3    C7 4830   2.467   2.773  17.171 -0.1094  0.4463  0.6760
  321TMC3    C8 4831   2.666   2.405  17.114 -0.1606  0.4065  0.6209
  321TMC3    O1 4832   2.421   2.887  17.156  0.2235  0.1377  0.1030
  321TMC3    O2 4833   2.736   2.484  17.173 -0.2008  0.2461  0.4446
  322MPD2     C 4834   2.053   4.377  13.916  0.5522  0.6969 -0.0262
  322MPD2    C1 4835   2.009   4.257  13.968 -0.5767  0.0982  0.9403
  322MPD2    C2 4836   2.014   4.140  13.889 -0.0407 -0.9277  0.4744
  322MPD2    C3 4837   2.079   4.147  13.769 -0.6086  0.6296  0.1774
  322MPD2    C4 4838   2.138   4.264  13.724 -0.0378 -0.4099  0.6211
  322MPD2    C5 4839   2.103   4.380  13.789  0.2320  0.4936 -0.1704
  322MPD2     H 4840   1.985   4.043  13.927 -2.3115  0.7500  2.9409
  322MPD2    H1 4841   2.192   4.275  13.630 -2.8604 -0.7615 -1.0414
  322MPD2    H2 4842   2.052   4.467  13.978  1.2713  0.5691  0.1674
  322MPD2    H3 4843   2.136   4.477  13.754 -1.3803  1.3675  0.7254
  322MPD2     N 4844   2.085   4.019  13.697  0.1912 -0.5078  0.6311
  322MPD2    H5 4845   2.053   3.934  13.743  0.6084 -1.1388 -0.2399
  322MPD2    N1 4846   1.980   4.264  14.106 -0.4428  0.5076 -1.1475
  322MPD2    H7 4847   1.984   4.354  14.154  0.6446 -0.1995  0.1004
  323TMC3    C1 4848   1.976   4.183  14.331 -0.4523 -0.7782 -0.0183
  323TMC3    C2 4849   2.056   4.287  14.359 -0.2106  0.3232 -0.0391
  323TMC3    C3 4850   2.075   4.316  14.493 -0.8875 -0.3036  0.0736
  323TMC3    C4 4851   1.923   4.090  14.422  0.1488 -0.6224 -0.2141
  323TMC3    C5 4852   1.944   4.124  14.557  0.0507  0.1623 -0.2853
  323TMC3    C6 4853   2.012   4.241  14.591  0.2669 -0.6657 -0.4936
  323TMC3     C 4854   1.961   4.152  14.185 -0.2664  1.0374 -0.9749
  323TMC3     O 4855   1.963   4.033  14.159  0.0077 -0.6338  0.3463
  323TMC3     H 4856   2.101   4.356  14.288  0.8792  0.7806  1.1064
  323TMC3    H1 4857   1.877   3.996  14.393  0.9217 -0.9823 -0.2507
  323TMC3    H2 4858   2.029   4.255  14.697 -0.5010 -0.0432 -0.4559
  323TMC3    C7 4859   1.969   4.012  14.652  0.2367  0.5880 -0.3842
  323TMC3    C8 4860   2.201   4.385  14.530  0.2255 -0.1659  0.5865
  323TMC3    O1 4861   2.054   4.030  14.737 -0.0942 -0.4630 -0.0623
  323TMC3    O2 4862   2.292   4.383  14.449 -0.1565 -0.0090  0.1714
  324MPD2     C 4863   3.238   4.691  15.045  0.8141 -0.8905  0.2845
  324MPD2    C1 4864   3.300   0.053  14.958 -0.5133  0.4039  1.2243
  324MPD2    C2 4865   3.226   0.148  14.892 -1.2666 -0.5096  0.2455
  324MPD2    C3 4866   3.092   0.156  14.911  0.2331  0.1846 -0.5969
  324MPD2    C4 4867   3.031   0.070  14.997 -0.2839  0.4821  0.7171
  324MPD2    C5 4868   3.104   4.693  15.060  0.3797 -0.3255  0.1980
  324MPD2     H 4869   3.281   0.216  14.828  0.2441 -0.4059  1.6711
  324MPD2    H1 4870   2.923   0.069  15.008 -0.4553  1.6285 -0.9556
  324MPD2    H2 4871   3.291   4.613  15.099  0.3027 -2.1609 -1.0673
  324MPD2    H3 4872   3.053   4.622  15.123  0.0859 -1.2438 -1.0813
  324MPD2     N 4873   3.005   0.255  14.852  0.2380 -0.1935  0.1452
  324MPD2    H5 4874   2.906   0.232  14.849  0.7820 -2.0337 -3.2534
  324MPD2    N1 4875   3.437   0.041  14.919  0.5619  0.1581  0.0412
  324MPD2    H7 4876   3.463   0.098  14.839  0.1652  1.6657  0.9821
  325TMC3    C1 4877   2.946   0.433  14.706  0.6932 -0.1626 -0.2124
  325TMC3    C2 4878   2.865   0.356  14.627  0.0822  0.4942  0.1708
  325TMC3    C3 4879   2.808   0.406  14.515  0.6982  0.7005  0.4715
  325TMC3    C4 4880   2.965   0.567  14.667 -0.1357  0.0063  0.0595
  325TMC3    C5 4881   2.900   0.613  14.557  0.7883  0.1185  0.6152
  325TMC3    C6 4882   2.826   0.535  14.477 -0.1569 -0.1335 -0.2894
  325TMC3     C 4883   3.051   0.369  14.789 -0.5032 -0.5454 -0.8698
  325TMC3     O 4884   3.152   0.433  14.820 -0.3027 -0.2829  0.6876
  325TMC3     H 4885   2.858   0.253  14.661  2.0948  0.1780 -0.3457
  325TMC3    H1 4886   3.022   0.638  14.725  1.2345 -0.4965 -0.6610
  325TMC3    H2 4887   2.765   0.581  14.400 -0.9682  0.8097  0.9196
  325TMC3    C7 4888   2.849   0.747  14.575  0.6052 -0.1702 -0.2669
  325TMC3    C8 4889   2.689   0.343  14.463 -0.0037  0.4433  0.0053
  325TMC3    O1 4890   2.841   0.791  14.691  0.2483 -1.2038  0.5124
  325TMC3    O2 4891   2.641   0.369  14.356  0.2621 -0.1463  0.0034
  326MPD2     C 4892   4.683   1.997  10.981  0.3238  0.0509  0.0087
  326MPD2    C1 4893   4.647   2.013  10.850  0.1612  0.3029  0.4417
  326MPD2    C2 4894   0.010   2.065  10.757 -0.6888  0.6009  0.2515
  326MPD2    C3 4895   0.129   2.121  10.797  0.3655  0.0867 -0.0510
  326MPD2    C4 4896   0.162   2.123  10.931 -0.0219 -0.3511  0.2710
  326MPD2    C5 4897   0.073   2.066  11.017 -0.3812 -0.5761  0.1971
  326MPD2     H 4898   4.710   2.067  10.652  0.0475  1.7021  0.1115
  326MPD2    H1 4899   0.248   2.175  10.970 -0.8372  0.5345  0.8965
  326MPD2    H2 4900   4.613   1.965  11.057  1.0156 -1.3099  0.0853
  326MPD2    H3 4901   0.091   2.067  11.124  1.9271  1.6230 -0.1895
  326MPD2     N 4902   0.214   2.198  10.713 -0.1477  0.1165  0.0766
  326MPD2    H5 4903   0.306   2.219  10.751  0.1416 -0.3649 -0.3600
  326MPD2    N1 4904   4.523   1.964  10.796 -0.2109  0.2282 -0.7698
  326MPD2    H7 4905   4.498   1.981  10.699 -1.9895  1.2934 -0.1316
  327TMC3    C1 4906   4.317   1.851  10.800  0.2151  0.1246 -0.0009
  327TMC3    C2 4907   4.284   1.931  10.700 -0.0600 -0.3949 -0.1238
  327TMC3    C3 4908   4.191   1.876  10.615  0.6078  0.0918  1.0211
  327TMC3    C4 4909   4.274   1.728  10.832  0.5922 -0.4124  0.6304
  327TMC3    C5 4910   4.181   1.679  10.747  0.8099  0.4917  0.2033
  327TMC3    C6 4911   4.135   1.756  10.642 -0.1217  0.2054  0.4044
  327TMC3     C 4912   4.437   1.888  10.871  0.6770 -0.2342  0.1011
  327TMC3     O 4913   4.459   1.824  10.973  0.5782  0.1251  0.1724
  327TMC3     H 4914   4.325   2.027  10.673  1.9050 -0.7151  1.7757
  327TMC3    H1 4915   4.316   1.671  10.914  0.2403 -0.3281  0.8728
  327TMC3    H2 4916   4.078   1.715  10.558  0.5011  1.4117 -0.6086
  327TMC3    C7 4917   4.137   1.546  10.757  0.8559  0.1165 -0.2961
  327TMC3    C8 4918   4.161   1.960  10.498 -0.2536 -0.1605  0.8572
  327TMC3    O1 4919   4.037   1.513  10.694 -0.1348 -0.2803  0.4231
  327TMC3    O2 4920   4.255   2.018  10.450 -0.0783  0.3281  0.2734
  328MPD2     C 4921   2.314   1.108  17.504 -0.0613 -0.8160 -0.9189
  328MPD2    C1 4922   2.230   1.006  17.539 -0.6097 -0.3015 -0.6958
  328MPD2    C2 4923   2.122   0.977  17.458 -0.4755  0.0807  0.1549
  328MPD2    C3 4924   2.086   1.062  17.354  0.1532  0.0898  0.2443
  328MPD2    C4 4925   2.163   1.175  17.332  0.0486 -0.5854 -0.1089
  328MPD2    C5 4926   2.277   1.190  17.405  0.5335 -0.2011 -0.0812
  328MPD2     H 4927   2.065   0.887  17.479 -2.1279  0.9905 -0.4510
  328MPD2    H1 4928   2.138   1.241  17.250 -0.8623 -3.1540 -1.9023
  328MPD2    H2 4929   2.408   1.123  17.557 -0.6773 -1.0834  0.2569
  328MPD2    H3 4930   2.342   1.275  17.389 -1.0123  1.1313  0.7610
  328MPD2     N 4931   1.975   1.052  17.269  0.5502  0.0729 -0.1404
  328MPD2    H5 4932   1.967   1.121  17.194  1.2725 -0.5460 -0.7748
  328MPD2    N1 4933   2.268   0.934  17.657 -0.0974 -0.0956 -0.6597
  328MPD2    H7 4934   2.344   0.969   0.017  0.3202 -2.5504  0.3064
  329TMC3    C1 4935   2.232   0.793   0.150 -0.0583  0.4743 -0.4303
  329TMC3    C2 4936   2.278   0.877   0.246  0.2069 -0.2840  0.6446
  329TMC3    C3 4937   2.293   0.827   0.369  0.2709  0.9741  0.0081
  329TMC3    C4 4938   2.191   0.664   0.187  0.5701  0.3731  0.2344
  329TMC3    C5 4939   2.207   0.620   0.311  0.9594 -0.8753 -0.4412
  329TMC3    C6 4940   2.268   0.699   0.409 -0.5381 -0.3363 -0.1240
  329TMC3     C 4941   2.191   0.836   0.019  0.5652 -0.6774  0.2614
  329TMC3     O 4942   2.094   0.787  17.671 -0.3206 -0.2253  0.6016
  329TMC3     H 4943   2.320   0.975   0.226  1.4633 -1.0661 -0.5532
  329TMC3    H1 4944   2.169   0.595   0.106 -0.1091 -0.3129  0.9936
  329TMC3    H2 4945   2.284   0.673   0.513 -0.3236 -2.3206 -0.6486
  329TMC3    C7 4946   2.176   0.480   0.330  0.1951  0.3557 -1.0997
  329TMC3    C8 4947   2.335   0.920   0.470  0.2840  0.3116  0.4347
  329TMC3    O1 4948   2.174   0.405   0.237  0.0995  0.6645 -0.3851
  329TMC3    O2 4949   2.441   0.904   0.531 -0.1779 -0.5928 -0.4420
  330TMC3    C1 4950   4.472   1.061   9.712  0.2681 -0.1625  0.3881
  330TMC3    C2 4951   4.519   0.973   9.619  0.1228  0.3167  0.0270
  330TMC3    C3 4952   4.626   0.896   9.660  0.3521  0.4881 -0.5879
  330TMC3    C4 4953   4.531   1.088   9.830 -0.4254 -0.2875  0.7735
  330TMC3    C5 4954   4.640   1.014   9.864 -0.2828 -0.4716 -0.2067
  330TMC3    C6 4955   4.692   0.921   9.776 -0.3534 -0.6491 -0.4755
  330TMC3     C 4956   4.345   1.133   9.689 -0.0994 -0.1846  0.4906
  330TMC3     O 4957   4.322   1.240   9.751  0.4705  0.5466  0.3047
  330TMC3     H 4958   4.467   0.957   9.526  0.3991 -0.3801 -0.0114
  330TMC3    H1 4959   4.491   1.165   9.895 -0.2360  0.6931 -0.2818
  330TMC3    H2 4960   0.072   0.889   9.782  0.1291  1.0059  0.0860
  330TMC3    C7 4961   4.713   1.055   9.987  0.3828  0.0523  0.7902
  330TMC3    C8 4962   4.646   0.781   9.574  0.5289  0.7834  0.4626
  330TMC3    O1 4963   4.667   1.156  10.043 -0.8548  0.7238  0.2369
  330TMC3    O2 4964   4.596   0.797   9.465  0.6559  0.0830 -0.3023
  331MPD2     C 4965   3.028   4.597  12.924 -0.2869  0.7634 -1.0257
  331MPD2    C1 4966   3.087   4.619  12.802 -0.4601  0.1594 -0.4757
  331MPD2    C2 4967   3.123   4.505  12.737  0.1228 -0.3567 -0.9484
  331MPD2    C3 4968   3.091   4.378  12.765 -0.0188  0.1050 -0.5042
  331MPD2    C4 4969   3.027   4.358  12.888  0.2783  0.1414 -0.0386
  331MPD2    C5 4970   2.999   4.471  12.964 -0.1257 -0.5604 -0.1341
  331MPD2     H 4971   3.180   4.521  12.647  0.7999  2.8882  0.0644
  331MPD2    H1 4972   3.002   4.259  12.923  1.4284  0.2317  1.0274
  331MPD2    H2 4973   2.997   4.688  12.974 -1.3870  0.3680 -0.9783
  331MPD2    H3 4974   2.938   4.459  13.052 -0.3789  1.3428 -0.0360
  331MPD2     N 4975   3.098   4.270  12.668 -0.7276 -0.0314 -0.5456
  331MPD2    H5 4976   3.083   4.174  12.699 -0.9627  0.5174  1.0297
  331MPD2    N1 4977   3.115   0.018  12.742  0.5201  0.2497 -0.2634
  331MPD2    H7 4978   3.070   0.101  12.778  0.5842  0.9961 -1.8778
  332TMC3    C1 4979   3.106   4.184  12.443 -0.0297  0.2694 -0.4134
  332TMC3    C2 4980   3.080   4.214  12.310 -0.6800 -0.2783  0.2971
  332TMC3    C3 4981   3.111   4.124  12.217 -0.5584  0.3375  0.5359
  332TMC3    C4 4982   3.184   4.082  12.486 -0.2754 -0.3196 -0.4752
  332TMC3    C5 4983   3.215   3.996  12.390 -0.2091 -0.5728  0.0011
  332TMC3    C6 4984   3.163   4.005  12.260 -0.0338 -0.2169  0.5345
  332TMC3     C 4985   3.097   4.301  12.531 -0.0210 -0.4219  0.0598
  332TMC3     O 4986   3.068   4.406  12.476  0.1190 -0.4254 -0.1816
  332TMC3     H 4987   3.026   4.304  12.283 -1.7369 -1.5652 -1.8034
  332TMC3    H1 4988   3.233   4.093  12.582 -1.3100  2.0236 -0.2148
  332TMC3    H2 4989   3.187   3.922  12.194 -2.3010  0.0482 -0.6335
  332TMC3    C7 4990   3.315   3.898  12.414 -0.3216 -0.3018  0.1394
  332TMC3    C8 4991   3.071   4.145  12.080  0.2547 -0.0289 -0.3522
  332TMC3    O1 4992   3.284   3.788  12.367  0.2977 -0.0168  0.0349
  332TMC3    O2 4993   3.029   4.052  12.014  0.3398 -0.0136 -0.5025
  333MPD2     C 4994   3.542   4.574  11.307  0.2660 -0.4104  0.2754
  333MPD2    C1 4995   3.488   4.548  11.185  0.0622  0.3030 -0.4408
  333MPD2    C2 4996   3.380   4.470  11.178  0.0551  0.0077 -0.2750
  333MPD2    C3 4997   3.337   4.392  11.281  0.7121 -0.7518  0.2676
  333MPD2    C4 4998   3.396   4.414  11.404 -0.5984 -0.3986 -0.1912
  333MPD2    C5 4999   3.504   4.503  11.417  0.5265  0.4141  0.0149
  333MPD2     H 5000   3.341   4.440  11.082 -0.5490 -0.1722  0.0271
  333MPD2    H1 5001   3.364   4.363  11.494 -0.6520  0.5028  0.3038
  333MPD2    H2 5002   3.623   4.644  11.324 -0.2596  0.0986  0.7066
  333MPD2    H3 5003   3.553   4.521  11.511 -1.1116 -2.1895  1.3713
  333MPD2     N 5004   3.229   4.303  11.259  0.4463 -0.1170 -0.0302
  333MPD2    H5 5005   3.180   4.303  11.170 -0.2974  0.5559  0.3847
  333MPD2    N1 5006   3.529   4.626  11.073 -0.3151  0.6510  0.1810
  333MPD2    H7 5007   3.606   4.692  11.076  1.6277 -1.6588  0.7043
  334TMC3    C1 5008   3.559   4.697  10.859 -0.3897  0.6848  0.0593
  334TMC3    C2 5009   3.610   4.626  10.754 -0.6044  0.2177  0.4388
  334TMC3    C3 5010   3.725   4.679  10.706 -0.4617 -0.3489  0.4748
  334TMC3    C4 5011   3.629   0.081  10.914 -0.2169  0.2511  0.4076
  334TMC3    C5 5012   3.748   0.118  10.858 -0.5738  0.4354  0.1237
  334TMC3    C6 5013   3.790   0.070  10.742 -0.1212 -1.1056 -0.0885
  334TMC3     C 5014   3.480   4.620  10.947  0.1570 -0.7289  0.4171
  334TMC3     O 5015   3.407   4.540  10.893 -0.0754  0.7166  0.3726
  334TMC3     H 5016   3.566   4.535  10.716  0.3150 -1.0462  2.4229
  334TMC3    H1 5017   3.589   0.146  10.990 -3.1295  0.4893 -1.3315
  334TMC3    H2 5018   3.876   0.117  10.695 -1.1154  0.1029 -0.6862
  334TMC3    C7 5019   3.782   0.254  10.881  0.3707  0.5596  0.7566
  334TMC3    C8 5020   3.795   4.588  10.611  0.5050  0.0008  0.0776
  334TMC3    O1 5021   3.833   0.279  10.989  0.6299 -0.8314 -0.1812
  334TMC3    O2 5022   3.727   4.502  10.570  0.4362  0.1174 -0.0778
  335TMC3    C1 5023   3.089   1.431  17.484 -0.3333  0.1366  0.0372
  335TMC3    C2 5024   3.075   1.362  17.365  0.6588  0.0251  0.7533
  335TMC3    C3 5025   3.187   1.362  17.282  0.4708 -0.7214 -0.5464
  335TMC3    C4 5026   3.198   1.519  17.500 -0.2108 -0.3715  0.6360
  335TMC3    C5 5027   3.307   1.503  17.416 -0.2005  0.3336 -0.3547
  335TMC3    C6 5028   3.311   1.422  17.308 -0.2081 -0.4758  0.2883
  335TMC3     C 5029   2.975   1.442  17.568 -0.0516 -0.1317 -1.1280
  335TMC3     O 5030   2.863   1.426  17.512  0.3264 -0.0984  0.0125
  335TMC3     H 5031   2.991   1.296  17.350  0.7485  0.1662 -0.3335
  335TMC3    H1 5032   3.200   1.592  17.580 -1.9191  3.4263 -2.7504
  335TMC3    H2 5033   3.387   1.408  17.232  1.7740 -2.4070  2.5897
  335TMC3    C7 5034   3.422   1.583  17.439  0.3959  0.0878  0.7461
  335TMC3    C8 5035   3.191   1.280  17.163 -1.0140  0.5677  0.3581
  335TMC3    O1 5036   3.408   1.682  17.512 -0.0289 -0.6124 -1.1023
  335TMC3    O2 5037   3.268   1.304  17.070 -0.0287  0.2482  0.2049
  336MPD2     C 5038   2.620   3.460  16.526 -0.7423 -0.1577 -0.6326
  336MPD2    C1 5039   2.627   3.474  16.390 -0.3126 -0.1937  0.5273
  336MPD2    C2 5040   2.686   3.370  16.324  0.3248 -0.3901 -0.1301
  336MPD2    C3 5041   2.728   3.255  16.391 -0.1119 -0.3603  0.0764
  336MPD2    C4 5042   2.732   3.253  16.527 -0.4372  0.3979  0.0407
  336MPD2    C5 5043   2.678   3.357  16.591 -0.6405  0.5868  1.0229
  336MPD2     H 5044   2.682   3.355  16.217 -0.4694  2.7825 -0.5455
  336MPD2    H1 5045   2.755   3.163  16.583  4.1879  1.0051 -0.8888
  336MPD2    H2 5046   2.583   3.538  16.591  0.1346  0.3363 -0.7281
  336MPD2    H3 5047   2.675   3.344  16.699 -1.4779 -0.7008  0.8543
  336MPD2     N 5048   2.750   3.132  16.326  0.2615  0.5953  0.2151
  336MPD2    H5 5049   2.750   3.050  16.385 -2.1369  1.6257  1.6433
  336MPD2    N1 5050   2.586   3.585  16.314  0.5670  0.2959  0.2315
  336MPD2    H7 5051   2.593   3.592  16.213 -0.3088 -2.9907 -0.0429
  337TMC3    C1 5052   2.449   3.768  16.257 -0.0063  0.0761 -0.3238
  337TMC3    C2 5053   2.315   3.776  16.248  0.9113 -0.1971 -0.1573
  337TMC3    C3 5054   2.259   3.809  16.128  0.0841 -0.4746 -0.2504
  337TMC3    C4 5055   2.538   3.811  16.155 -0.0234 -0.1976  0.3337
  337TMC3    C5 5056   2.473   3.866  16.046  0.5248  0.0942  0.0926
  337TMC3    C6 5057   2.334   3.864  16.028  0.0913 -0.3090  0.2273
  337TMC3     C 5058   2.492   3.676  16.359 -0.3603 -0.2720 -0.2202
  337TMC3     O 5059   2.443   3.694  16.473 -0.9673 -0.1932  0.0426
  337TMC3     H 5060   2.260   3.761  16.341 -0.8539 -0.1611 -1.1938
  337TMC3    H1 5061   2.645   3.814  16.174 -0.2910 -0.1583  1.8638
  337TMC3    H2 5062   2.287   3.907  15.941  0.4280 -0.0631  0.1640
  337TMC3    C7 5063   2.549   3.949  15.956 -0.1344 -0.3029  0.2098
  337TMC3    C8 5064   2.122   3.795  16.100  0.5038 -0.4041  0.7015
  337TMC3    O1 5065   2.487   4.035  15.896  0.2362 -0.2428  0.2812
  337TMC3    O2 5066   2.058   3.786  16.206 -0.1042  0.4986  0.0508
  338MPD2     C 5067   3.062   2.539   1.060  0.0137  0.0443  0.1940
  338MPD2    C1 5068   3.024   2.638   0.973 -0.9105  0.2902 -0.3320
  338MPD2    C2 5069   2.889   2.668   0.965  0.2616 -0.5254 -0.0948
  338MPD2    C3 5070   2.795   2.595   1.034  0.5132 -0.2801  0.3311
  338MPD2    C4 5071   2.839   2.498   1.123  0.1406 -0.7352 -0.2478
  338MPD2    C5 5072   2.973   2.473   1.139 -0.2825 -0.0432 -1.0274
  338MPD2     H 5073   2.844   2.724   0.884  1.0187 -0.7559 -0.6729
  338MPD2    H1 5074   2.765   2.433   1.169 -0.5875  0.6266  0.5165
  338MPD2    H2 5075   3.161   2.500   1.082  0.5233  1.2069 -0.0148
  338MPD2    H3 5076   3.007   2.404   1.215  1.6622  2.8716  0.7163
  338MPD2     N 5077   2.662   2.622   1.005  0.1767  0.2905 -0.3251
  338MPD2    H5 5078   2.648   2.699   0.941  3.1137  0.3158 -0.9455
  338MPD2    N1 5079   3.110   2.709   0.882 -0.3242  0.4043  0.0680
  338MPD2    H7 5080   3.073   2.788   0.830 -1.8697 -0.0510  0.4793
  339TMC3    C1 5081   2.442   2.603   0.971  0.5825  0.2276  0.3272
  339TMC3    C2 5082   2.322   2.573   1.028  0.2219  0.2201  0.2394
  339TMC3    C3 5083   2.216   2.557   0.945  0.1305  0.3882 -0.1526
  339TMC3    C4 5084   2.460   2.604   0.833  0.2321  0.5170  0.7026
  339TMC3    C5 5085   2.357   2.571   0.752 -0.6016  0.2385  0.1338
  339TMC3    C6 5086   2.228   2.555   0.804 -0.1130  0.2797 -0.0118
  339TMC3     C 5087   2.551   2.561   1.054  0.8031 -0.1866 -0.2933
  339TMC3     O 5088   2.540   2.462   1.123 -0.4076 -0.0656  0.3160
  339TMC3     H 5089   2.304   2.556   1.133 -0.1704 -0.6017  0.0414
  339TMC3    H1 5090   2.558   2.624   0.792 -0.0840 -0.8523 -0.7300
  339TMC3    H2 5091   2.142   2.546   0.739  0.0523  1.2471 -0.3735
  339TMC3    C7 5092   2.372   2.594   0.610 -0.2382 -0.0946  0.2736
  339TMC3    C8 5093   2.087   2.518   0.997 -0.7564 -0.3156 -0.5411
  339TMC3    O1 5094   2.282   2.636   0.539 -0.5461 -0.7126  0.4833
  339TMC3    O2 5095   1.991   2.579   0.950 -0.2578 -0.3118 -0.2457
  340MPD2     C 5096   2.251   0.457  10.166  0.1251 -0.6910 -0.2940
  340MPD2    C1 5097   2.371   0.382  10.165 -0.6840  0.2797  0.0790
  340MPD2    C2 5098   2.491   0.455  10.183  0.5621  0.2116  0.0514
  340MPD2    C3 5099   2.485   0.593  10.193  0.5092 -0.2374 -1.0525
  340MPD2    C4 5100   2.368   0.661  10.194 -0.0137 -1.1301 -0.3195
  340MPD2    C5 5101   2.252   0.593  10.184  0.6150 -0.4139  0.1561
  340MPD2     H 5102   2.586   0.402  10.184  0.6663  0.3854 -1.0902
  340MPD2    H1 5103   2.366   0.769  10.199 -2.3494 -1.2066  0.3825
  340MPD2    H2 5104   2.157   0.405  10.150  1.1224 -2.4188 -0.5196
  340MPD2    H3 5105   2.159   0.648  10.186  0.9206  0.0619  1.2092
  340MPD2     N 5106   2.604   0.665  10.178 -0.6437  0.5697  0.1448
  340MPD2    H5 5107   2.592   0.762  10.206  0.2025  1.2888 -1.9871
  340MPD2    N1 5108   2.368   0.242  10.139 -0.3837 -0.1397 -0.1208
  340MPD2    H7 5109   2.277   0.197  10.136 -0.9315  0.8273  2.2732
  341TMC3    C1 5110   2.459   0.029  10.079  0.6220 -0.7803 -0.5271
  341TMC3    C2 5111   2.342   4.713  10.017  0.3443  0.2748 -0.7964
  341TMC3    C3 5112   2.350   4.618   9.920  0.2273  0.2340  0.4210
  341TMC3    C4 5113   2.569   4.671  10.069 -0.2215 -0.1853 -0.4218
  341TMC3    C5 5114   2.573   4.583   9.967 -1.0456 -0.2082  0.7092
  341TMC3    C6 5115   2.467   4.554   9.888  0.0653 -0.1808 -0.2408
  341TMC3     C 5116   2.481   0.172  10.108  0.2628 -0.4426  0.0906
  341TMC3     O 5117   2.597   0.207  10.088  0.3906  0.0984  0.6771
  341TMC3     H 5118   2.260   0.059  10.004  0.5209  0.9012  1.3738
  341TMC3    H1 5119   2.667   4.693  10.110  0.6623 -0.5724 -2.3344
  341TMC3    H2 5120   2.464   4.477   9.812  1.1581 -0.1014 -0.3618
  341TMC3    C7 5121   2.700   4.556   9.903  0.1621 -0.2863  0.4298
  341TMC3    C8 5122   2.233   4.595   9.854  0.0606 -0.1278 -0.3479
  341TMC3    O1 5123   2.783   4.496   9.968  0.0807 -0.0678  0.3427
  341TMC3    O2 5124   2.166   4.692   9.817 -0.5397 -0.8541 -0.0714
  342MPD2     C 5125   0.973   3.684   0.195  0.3073  0.9866  0.1789
  342MPD2    C1 5126   1.028   3.721   0.072  0.2158 -0.1467 -0.5064
  342MPD2    C2 5127   1.053   3.857   0.042 -0.4408  0.4885  0.1033
  342MPD2    C3 5128   1.016   3.955   0.134  0.0040 -0.1039  0.2644
  342MPD2    C4 5129   0.972   3.921   0.255  0.2866  0.1183 -0.3167
  342MPD2    C5 5130   0.949   3.787   0.282 -0.5222  0.0982 -0.3422
  342MPD2     H 5131   1.097   3.892  17.646 -2.9490 -1.3612 -1.7777
  342MPD2    H1 5132   0.945   3.991   0.333  0.3846 -1.7357  1.3698
  342MPD2    H2 5133   0.948   3.585   0.232 -0.9935  0.8600 -1.0005
  342MPD2    H3 5134   0.928   3.768   0.386  0.0764  0.3671 -0.1697
  342MPD2     N 5135   1.034   4.098   0.109  0.8703 -0.0157 -0.2372
  342MPD2    H5 5136   0.999   4.153   0.187 -0.0729 -1.4843  0.3709
  342MPD2    N1 5137   1.071   3.625  17.675  0.4280  0.1193 -0.1179
  342MPD2    H7 5138   1.116   3.649  17.587 -1.4249 -0.8702 -1.3289
  343TMC3    C1 5139   1.114   3.413  17.583  0.2596  0.4144 -0.5851
  343TMC3    C2 5140   1.204   3.471  17.501 -0.6524  0.0728 -0.1123
  343TMC3    C3 5141   1.239   3.413  17.383  0.4976 -0.0901  0.1275
  343TMC3    C4 5142   1.045   3.300  17.548  0.0000 -0.1847 -0.7524
  343TMC3    C5 5143   1.075   3.253  17.428 -0.6911 -0.3767  0.5673
  343TMC3    C6 5144   1.164   3.307  17.342 -0.2950  0.3137 -0.9953
  343TMC3     C 5145   1.052   3.489  17.693  0.3362 -0.2702 -0.3052
  343TMC3     O 5146   0.977   3.421   0.067 -0.3718  0.0329 -0.1693
  343TMC3     H 5147   1.257   3.553  17.549 -0.9165 -0.4713  1.0901
  343TMC3    H1 5148   0.959   3.265  17.604  0.1032  0.3195 -0.2836
  343TMC3    H2 5149   1.184   3.264  17.245  1.9704 -0.3000 -0.2711
  343TMC3    C7 5150   1.017   3.123  17.388 -0.1658 -0.5621 -0.0021
  343TMC3    C8 5151   1.346   3.459  17.300 -0.1086  0.8594 -1.2452
  343TMC3    O1 5152   0.996   3.107  17.264 -0.0737  0.1199 -0.2281
  343TMC3    O2 5153   1.380   3.577  17.311  0.3961 -0.4396  0.2849
  344MPD2     C 5154   2.193   4.108  11.093  0.4942 -0.1750  0.0905
  344MPD2    C1 5155   2.096   4.075  10.997 -0.2544 -0.0380  0.3504
  344MPD2    C2 5156   2.119   4.118  10.867 -0.3281  0.3022 -0.7054
  344MPD2    C3 5157   2.227   4.196  10.828 -0.1461 -0.5078  0.7369
  344MPD2    C4 5158   2.323   4.226  10.922 -0.8502  0.5011  0.5819
  344MPD2    C5 5159   2.301   4.178  11.052 -0.5216  0.3683  0.8926
  344MPD2     H 5160   2.037   4.108  10.796 -1.4602 -1.7355  0.8702
  344MPD2    H1 5161   2.406   4.294  10.905  0.5869 -1.5886 -0.5925
  344MPD2    H2 5162   2.184   4.078  11.197  1.7442 -1.7138 -0.2454
  344MPD2    H3 5163   2.369   4.200  11.133  1.7716  0.9239 -1.1668
  344MPD2     N 5164   2.245   4.251  10.699  0.5727  0.2906  0.0729
  344MPD2    H5 5165   2.337   4.286  10.670  0.9183 -0.0982  0.7099
  344MPD2    N1 5166   1.997   3.974  11.013 -0.2000  0.0805  0.0328
  344MPD2    H7 5167   1.930   3.954  10.939  0.3018 -0.1052 -0.3720
  345TMC3    C1 5168   2.200   4.274  10.473  0.4249 -0.8325 -0.7283
  345TMC3    C2 5169   2.330   4.317  10.457  0.2765  0.0962 -0.7124
  345TMC3    C3 5170   2.348   4.410  10.354  0.5653 -0.1960 -0.0224
  345TMC3    C4 5171   2.097   4.328  10.402  0.3043 -0.0111 -0.1383
  345TMC3    C5 5172   2.117   4.433  10.311 -0.0077 -0.1612  1.4568
  345TMC3    C6 5173   2.251   4.474  10.279  0.2400  0.4047  0.2127
  345TMC3     C 5174   2.157   4.233  10.599  0.1655  0.3174 -0.2890
  345TMC3     O 5175   2.036   4.213  10.604 -0.1724 -0.3563 -0.3025
  345TMC3     H 5176   2.407   4.298  10.530 -1.6097 -0.5972  1.0956
  345TMC3    H1 5177   1.995   4.293  10.417 -0.0011  0.6237 -0.7411
  345TMC3    H2 5178   2.271   4.531  10.190  0.5985 -1.3543 -0.8396
  345TMC3    C7 5179   2.015   4.526  10.273 -0.0979  0.3157 -0.0381
  345TMC3    C8 5180   2.451   4.504  10.382 -0.1613 -0.1460  0.1892
  345TMC3    O1 5181   2.047   4.622  10.202  0.2309 -0.3177 -0.3642
  345TMC3    O2 5182   2.415   4.614  10.419  0.2208 -0.1944  0.6208
  346MPD2     C 5183   1.770   0.475  14.082 -0.6145 -0.2865  0.6916
  346MPD2    C1 5184   1.828   0.600  14.069  0.6878 -0.4305 -0.2336
  346MPD2    C2 5185   1.885   0.651  14.183  0.8226 -0.1510 -0.8576
  346MPD2    C3 5186   1.880   0.592  14.309 -0.3783 -0.4016 -0.1706
  346MPD2    C4 5187   1.820   0.471  14.316  0.0670 -0.6610  0.4442
  346MPD2    C5 5188   1.768   0.414  14.204  0.0136  0.3508  0.4930
  346MPD2     H 5189   1.935   0.747  14.180 -0.4906  0.6159  1.0603
  346MPD2    H1 5190   1.817   0.415  14.409  0.1179 -0.1433  0.7580
  346MPD2    H2 5191   1.724   0.428  13.995 -1.2177  1.3352  0.1356
  346MPD2    H3 5192   1.726   0.315  14.222 -1.5539  1.1216  1.1162
  346MPD2     N 5193   1.921   0.644  14.438  0.2566 -0.2300  0.3407
  346MPD2    H5 5194   1.902   0.579  14.513 -0.7690 -1.3975 -0.9255
  346MPD2    N1 5195   1.841   0.666  13.944  0.2055  0.7008  0.6021
  346MPD2    H7 5196   1.889   0.755  13.946 -0.1345  0.9075 -0.5116
  347TMC3    C1 5197   2.033   0.792  14.588  0.4025  0.3199 -0.5553
  347TMC3    C2 5198   2.136   0.883  14.597  0.3679 -0.1330  0.6917
  347TMC3    C3 5199   2.223   0.887  14.706  0.8128 -0.0318 -0.0986
  347TMC3    C4 5200   2.013   0.697  14.681 -0.2814 -0.1116 -0.1480
  347TMC3    C5 5201   2.100   0.704  14.788 -0.3130 -0.6307 -0.5381
  347TMC3    C6 5202   2.206   0.793  14.804  0.1031 -0.7897 -0.5261
  347TMC3     C 5203   1.976   0.770  14.460 -0.3089  0.4577  0.0041
  347TMC3     O 5204   1.991   0.864  14.381  0.0368  0.5499 -0.1665
  347TMC3     H 5205   2.150   0.955  14.518 -2.0642 -1.5474 -1.0328
  347TMC3    H1 5206   1.929   0.629  14.670 -0.0785 -0.1320 -1.6650
  347TMC3    H2 5207   2.280   0.775  14.881 -1.5139  2.4223  1.7748
  347TMC3    C7 5208   2.081   0.600  14.887  0.7048  0.4194  0.0400
  347TMC3    C8 5209   2.367   0.922  14.691 -0.3238 -0.1647  0.4166
  347TMC3    O1 5210   1.999   0.515  14.861 -0.3296  0.2033 -0.0693
  347TMC3    O2 5211   2.434   0.879  14.780 -0.0885 -0.5800  0.0213
  348MPD2     C 5212   0.351   0.591  12.401  0.1318  0.0971 -0.1556
  348MPD2    C1 5213   0.448   0.570  12.312 -0.0148  0.4477  0.0920
  348MPD2    C2 5214   0.446   0.636  12.190 -0.1248 -0.4512  0.6045
  348MPD2    C3 5215   0.332   0.704  12.150  1.0978  0.1767 -0.3227
  348MPD2    C4 5216   0.225   0.710  12.233 -0.9032  0.4987  0.3561
  348MPD2    C5 5217   0.241   0.659  12.359 -0.1374  0.6666 -0.1241
  348MPD2     H 5218   0.538   0.634  12.133 -0.9533  2.4023 -0.8261
  348MPD2    H1 5219   0.124   0.741  12.211 -0.8465  1.0535  0.8839
  348MPD2    H2 5220   0.356   0.563  12.506 -0.8874  1.4323  0.2548
  348MPD2    H3 5221   0.165   0.666  12.435  0.4832  0.7375  0.4941
  348MPD2     N 5222   0.313   0.762  12.022  0.1893 -0.0296 -0.2087
  348MPD2    H5 5223   0.241   0.832  12.010  0.7873  1.1848  3.1018
  348MPD2    N1 5224   0.556   0.483  12.338 -0.4145  0.3352 -0.3827
  348MPD2    H7 5225   0.636   0.500  12.278  0.9697 -1.5434  0.9064
  349TMC3    C1 5226   0.681   0.313  12.414  0.5958 -0.1149 -0.0944
  349TMC3    C2 5227   0.660   0.185  12.451  0.2736 -0.5167 -0.7176
  349TMC3    C3 5228   0.740   0.095  12.384  0.9058  0.2565 -0.4176
  349TMC3    C4 5229   0.766   0.354  12.312  0.3689  0.3128 -0.2818
  349TMC3    C5 5230   0.833   0.256  12.242  0.3762 -0.0145  0.3135
  349TMC3    C6 5231   0.826   0.126  12.278 -0.6444  0.2582  0.3028
  349TMC3     C 5232   0.571   0.401  12.441  0.5618  0.1796  0.4312
  349TMC3     O 5233   0.496   0.360  12.528  0.0265 -0.3492 -0.3758
  349TMC3     H 5234   0.594   0.155  12.531  0.9629  0.9829  0.4206
  349TMC3    H1 5235   0.792   0.458  12.296  1.3507  0.3940  1.9055
  349TMC3    H2 5236   0.886   0.054  12.224 -0.2703  0.7022  0.1309
  349TMC3    C7 5237   0.855   0.280  12.098 -0.2081 -0.3024 -0.0859
  349TMC3    C8 5238   0.769   4.698  12.473 -0.3551 -0.3282 -0.1889
  349TMC3    O1 5239   0.849   0.194  12.009 -0.0894 -0.3774  0.4075
  349TMC3    O2 5240   0.724   4.703  12.588 -0.2352 -0.1519 -0.0759
  350MPD2     C 5241   4.547   3.630   9.794  0.0854  0.2754  0.2589
  350MPD2    C1 5242   4.563   3.532   9.888  0.5340 -0.4751  0.2843
  350MPD2    C2 5243   4.650   3.547   9.990 -0.8284  0.3216  0.6228
  350MPD2    C3 5244   0.004   3.665   9.999 -0.1307 -0.6520  0.5890
  350MPD2    C4 5245   4.706   3.767   9.909  0.5691 -0.0730  0.0459
  350MPD2    C5 5246   4.615   3.747   9.808 -0.8435  0.1858 -0.2700
  350MPD2     H 5247   4.655   3.469  10.064 -2.0795  0.1429  0.5121
  350MPD2    H1 5248   0.026   3.865   9.919 -0.7065  0.2931  1.9742
  350MPD2    H2 5249   4.483   3.612   9.708  0.3595  0.5409  0.0016
  350MPD2    H3 5250   4.595   3.826   9.737  1.2554  1.5773  0.6723
  350MPD2     N 5251   0.099   3.664  10.098  0.5065 -0.1765  0.2032
  350MPD2    H5 5252   0.119   3.577  10.145 -0.6309 -0.6500 -0.1904
  350MPD2    N1 5253   4.482   3.414   9.896 -0.2146  0.8529  0.4050
  350MPD2    H7 5254   4.506   3.343   9.964  1.9026 -0.3109 -1.5818
  351TMC3    C1 5255   4.307   3.266   9.842  0.2611  0.4794 -0.1059
  351TMC3    C2 5256   4.392   3.160   9.877  0.3102 -0.5193 -0.6876
  351TMC3    C3 5257   4.327   3.047   9.908 -0.1120  0.0874 -0.4265
  351TMC3    C4 5258   4.172   3.256   9.829  0.4890  0.1386  0.3836
  351TMC3    C5 5259   4.122   3.130   9.845 -0.2568 -0.0290 -0.0860
  351TMC3    C6 5260   4.193   3.033   9.903  0.2786 -0.8025  0.1471
  351TMC3     C 5261   4.370   3.393   9.818 -0.0697  0.0822  0.6393
  351TMC3     O 5262   4.307   3.471   9.750 -0.0412 -0.0014 -0.7058
  351TMC3     H 5263   4.499   3.163   9.860  0.6521 -1.7283  1.3019
  351TMC3    H1 5264   4.116   3.346   9.806 -1.4640 -1.5235 -1.4053
  351TMC3    H2 5265   4.154   2.936   9.930  0.9094 -0.9053  0.7006
  351TMC3    C7 5266   3.983   3.095   9.833 -0.1284 -0.1996  0.4768
  351TMC3    C8 5267   4.401   2.928   9.921 -0.0489 -0.8667  0.9009
  351TMC3    O1 5268   3.948   2.995   9.898  0.4638 -0.0612 -0.4892
  351TMC3    O2 5269   4.347   2.828   9.876 -0.6120  0.1284 -0.4596
  352MPD2     C 5270   2.919   0.466   1.407  0.1769  0.5212  0.2709
  352MPD2    C1 5271   2.781   0.463   1.402  0.9812  0.5337  0.6139
  352MPD2    C2 5272   2.714   0.351   1.441  0.0059 -0.8832 -0.3215
  352MPD2    C3 5273   2.784   0.233   1.479  0.3087 -0.2957  0.3685
  352MPD2    C4 5274   2.925   0.239   1.474  0.1346 -0.8867  0.1903
  352MPD2    C5 5275   2.987   0.359   1.445  0.0193 -0.5316 -0.5144
  352MPD2     H 5276   2.606   0.357   1.446  0.0570  0.1230 -0.3608
  352MPD2    H1 5277   2.985   0.155   1.505 -0.6880 -1.0651  1.2741
  352MPD2    H2 5278   2.972   0.559   1.392  1.4794 -0.6922 -2.6884
  352MPD2    H3 5279   3.095   0.358   1.446  0.0144 -1.5622 -1.1005
  352MPD2     N 5280   2.724   0.110   1.518  0.1126  0.3449  0.7238
  352MPD2    H5 5281   2.786   0.029   1.522 -2.3099 -1.5993 -1.1189
  352MPD2    N1 5282   2.728   0.581   1.349 -0.0039  0.3531 -0.2506
  352MPD2    H7 5283   2.795   0.657   1.351  0.4143 -0.0842  2.2840
  353TMC3    C1 5284   2.562   4.675   1.571 -0.1642 -0.2614 -0.1445
  353TMC3    C2 5285   2.663   4.610   1.626  0.2315 -0.2121  0.0312
  353TMC3    C3 5286   2.656   4.472   1.643 -0.2388  0.2004 -0.2287
  353TMC3    C4 5287   2.449   4.610   1.537 -0.4679 -0.1991 -0.6148
  353TMC3    C5 5288   2.442   4.471   1.553  0.2049  0.2081 -0.2868
  353TMC3    C6 5289   2.546   4.401   1.606 -0.3584 -0.7105 -0.3818
  353TMC3     C 5290   2.581   0.082   1.517 -0.1922 -0.4942 -0.0996
  353TMC3     O 5291   2.487   0.143   1.466  0.2520 -0.0899 -0.0347
  353TMC3     H 5292   2.756   4.655   1.659  0.6964 -1.8027  0.8975
  353TMC3    H1 5293   2.370   4.657   1.478 -0.8919 -2.3136 -1.7213
  353TMC3    H2 5294   2.547   4.293   1.616 -1.9573 -0.7226 -0.3793
  353TMC3    C7 5295   2.341   4.403   1.478 -0.6860 -0.3585 -0.2533
  353TMC3    C8 5296   2.757   4.403   1.725  0.2321  0.5642 -0.1331
  353TMC3    O1 5297   2.293   4.456   1.376  0.0133  0.0329  0.5322
  353TMC3    O2 5298   2.826   4.472   1.802 -0.0489  0.0130  0.4740
  354TMC3    C1 5299   0.386   1.491  13.353 -0.0599  0.4526  0.0064
  354TMC3    C2 5300   0.431   1.613  13.362 -0.1238 -0.1697 -0.3512
  354TMC3    C3 5301   0.489   1.660  13.246  0.2164 -0.6867  0.2538
  354TMC3    C4 5302   0.419   1.404  13.251 -0.0972  0.5651  1.3364
  354TMC3    C5 5303   0.468   1.456  13.132 -0.3380  0.0602 -0.3823
  354TMC3    C6 5304   0.517   1.584  13.137  0.0652 -0.3883  0.2594
  354TMC3     C 5305   0.321   1.432  13.470  0.0849  0.6422 -0.3771
  354TMC3     O 5306   0.291   1.318  13.441 -0.3377 -0.3747 -0.2755
  354TMC3     H 5307   0.419   1.677  13.449  0.5367  0.1878 -0.5236
  354TMC3    H1 5308   0.372   1.307  13.236 -1.2145  1.2599  0.3217
  354TMC3    H2 5309   0.571   1.630  13.056 -0.3777 -0.8804 -0.3168
  354TMC3    C7 5310   0.497   1.374  13.017  1.2843  0.7288  0.2039
  354TMC3    C8 5311   0.466   1.805  13.214  0.1170  0.3457  0.0971
  354TMC3    O1 5312   0.511   1.256  13.035 -0.3650  0.1902 -0.8618
  354TMC3    O2 5313   0.535   1.839  13.118 -0.3322 -0.6676  0.4226
  355MPD2     C 5314   0.139   2.530  11.726 -0.3875  0.0913 -0.0044
  355MPD2    C1 5315   0.256   2.568  11.663  0.3012 -0.3958  0.7082
  355MPD2    C2 5316   0.379   2.540  11.724 -0.1548 -0.5186  0.8515
  355MPD2    C3 5317   0.377   2.496  11.860  1.2831  0.3943  0.4276
  355MPD2    C4 5318   0.259   2.457  11.919  0.0614 -0.5174  0.0260
  355MPD2    C5 5319   0.141   2.475  11.852  0.4063  0.2602  0.7178
  355MPD2     H 5320   0.472   2.562  11.674  0.0990 -0.8648  1.1666
  355MPD2    H1 5321   0.260   2.412  12.018  2.1685 -2.4765 -0.8767
  355MPD2    H2 5322   0.048   2.546  11.670  0.3169  0.4752 -1.0468
  355MPD2    H3 5323   0.044   2.451  11.892  0.5311 -2.3893 -0.5489
  355MPD2     N 5324   0.505   2.482  11.930 -0.0373 -0.3408 -0.3208
  355MPD2    H5 5325   0.498   2.457  12.028 -0.0608  0.7357 -0.0544
  355MPD2    N1 5326   0.248   2.644  11.542  0.7490  0.0456 -0.4236
  355MPD2    H7 5327   0.163   2.691  11.514 -0.1446 -0.8403  0.7754
  356TMC3    C1 5328   0.716   2.582  11.979  0.0328  0.0268  0.6904
  356TMC3    C2 5329   0.826   2.652  11.930  0.6490 -1.3231  0.1979
  356TMC3    C3 5330   0.884   2.752  12.000 -0.0488  0.1211 -0.0417
  356TMC3    C4 5331   0.667   2.623  12.103 -0.6228 -0.5535 -0.3253
  356TMC3    C5 5332   0.727   2.725  12.170 -0.0126 -0.6935  0.8015
  356TMC3    C6 5333   0.845   2.790  12.125 -0.0935 -0.3589 -0.3355
  356TMC3     C 5334   0.630   2.526  11.874 -0.0238  0.5189 -0.3130
  356TMC3     O 5335   0.663   2.530  11.755 -0.1288 -0.4162  0.5113
  356TMC3     H 5336   0.857   2.625  11.829 -2.2391  1.2105 -1.3664
  356TMC3    H1 5337   0.572   2.584  12.139  1.2620 -3.6138  1.3678
  356TMC3    H2 5338   0.895   2.868  12.180  0.4464  0.1421 -1.5512
  356TMC3    C7 5339   0.694   2.731  12.316 -0.5830 -0.2394 -0.5611
  356TMC3    C8 5340   0.996   2.822  11.940  0.3443 -0.1776  0.8216
  356TMC3    O1 5341   0.639   2.630  12.360  0.0110  0.1533 -0.2070
  356TMC3    O2 5342   1.053   2.751  11.862  0.7073 -0.1947  0.4886
  357MPD2     C 5343   4.635   1.899   1.108 -0.8510  0.2916 -0.1964
  357MPD2    C1 5344   4.708   1.793   1.158 -0.3418  0.2559 -0.3621
  357MPD2    C2 5345   0.015   1.796   1.294  0.4592  0.7932 -0.4272
  357MPD2    C3 5346   4.687   1.892   1.378  0.1788  0.1222  0.9485
  357MPD2    C4 5347   4.596   1.984   1.332 -0.3271 -0.5967  0.5331
  357MPD2    C5 5348   4.579   1.989   1.198 -0.7485 -0.3902  0.0723
  357MPD2     H 5349   0.089   1.726   1.331  0.2425 -0.8095 -3.0714
  357MPD2    H1 5350   4.553   2.056   1.401  3.0309  0.7438  1.2187
  357MPD2    H2 5351   4.606   1.914   1.005  1.6294 -0.7084 -1.0262
  357MPD2    H3 5352   4.516   2.069   1.163  0.3782  1.5299  2.4450
  357MPD2     N 5353   0.010   1.905   1.512 -0.4469  0.4036  0.4544
  357MPD2    H5 5354   4.689   1.974   1.572 -3.7499 -0.5418 -0.9390
  357MPD2    N1 5355   0.039   1.697   1.069  0.0015  0.3187  0.7714
  357MPD2    H7 5356   0.016   1.707   0.971  0.8255 -3.5364  0.1781
  358TMC3    C1 5357   0.154   1.504   1.008 -0.0732 -0.0287  0.2257
  358TMC3    C2 5358   0.090   1.496   0.885  0.0341  0.6141  0.0155
  358TMC3    C3 5359   0.120   1.381   0.812  0.3117  0.1617 -0.1756
  358TMC3    C4 5360   0.261   1.424   1.045  0.0847 -0.1515  0.5862
  358TMC3    C5 5361   0.292   1.315   0.966  0.0394 -0.8512  0.0963
  358TMC3    C6 5362   0.216   1.289   0.858  1.3698 -0.2266  0.0039
  358TMC3     C 5363   0.102   1.582   1.110  1.3294 -0.4275 -0.1984
  358TMC3     O 5364   0.121   1.540   1.220 -0.1998  0.1989  0.3443
  358TMC3     H 5365   0.004   1.556   0.860  1.4787  3.0498  0.8979
  358TMC3    H1 5366   0.295   1.442   1.146 -1.1027 -0.0013  0.9681
  358TMC3    H2 5367   0.263   1.213   0.796  1.4394 -0.1119 -0.0825
  358TMC3    C7 5368   0.406   1.238   0.985 -0.0822  1.0649 -0.0622
  358TMC3    C8 5369   0.059   1.376   0.682  0.3691 -0.4432  0.0365
  358TMC3    O1 5370   0.450   1.170   0.892  0.3851  0.4443  0.7485
  358TMC3    O2 5371   0.003   1.479   0.638 -0.0525  0.3198  0.3026
  359MPD2     C 5372   0.404   0.808  12.726  0.1452  0.6195  0.1173
  359MPD2    C1 5373   0.284   0.860  12.679 -0.3855 -0.2764 -0.5852
  359MPD2    C2 5374   0.173   0.851  12.759 -0.4262 -0.4689 -0.9202
  359MPD2    C3 5375   0.173   0.776  12.876 -1.1239  0.1783 -0.3199
  359MPD2    C4 5376   0.280   0.710  12.908 -0.0842 -0.3998  0.0924
  359MPD2    C5 5377   0.396   0.725  12.833 -0.7989 -0.1385 -0.3179
  359MPD2     H 5378   0.080   0.891  12.720 -0.4473  0.2372 -0.1574
  359MPD2    H1 5379   0.287   0.650  12.998  1.9964 -3.7745 -2.3245
  359MPD2    H2 5380   0.498   0.824  12.674  0.2650 -0.7112 -0.0693
  359MPD2    H3 5381   0.486   0.684  12.877  1.6162  2.6039 -2.7427
  359MPD2     N 5382   0.063   0.765  12.965  0.0907 -0.4792 -0.6946
  359MPD2    H5 5383   0.068   0.692  13.035 -0.6958 -0.1621 -0.3121
  359MPD2    N1 5384   0.276   0.926  12.549 -0.4516  0.2583 -0.7208
  359MPD2    H7 5385   0.186   0.967  12.528 -1.2655 -0.1735  1.9040
  360TMC3    C1 5386   0.327   1.040  12.354  0.2904  0.4030  0.6935
  360TMC3    C2 5387   0.420   1.132  12.303  0.3933 -0.3028  0.1070
  360TMC3    C3 5388   0.377   1.205  12.199  0.1681  0.0613  0.7875
  360TMC3    C4 5389   0.205   1.025  12.302 -0.4276  1.1786  0.2851
  360TMC3    C5 5390   0.166   1.106  12.198 -0.4049 -0.1781  0.7664
  360TMC3    C6 5391   0.248   1.206  12.147 -0.6501 -0.3571 -0.2711
  360TMC3     C 5392   0.380   0.963  12.466 -0.2580  0.4720 -0.5635
  360TMC3     O 5393   0.502   0.957  12.469 -0.0456  0.2319  0.6711
  360TMC3     H 5394   0.514   1.158  12.351  0.6067  0.3913 -0.6797
  360TMC3    H1 5395   0.128   0.954  12.330 -0.4036  0.6570 -0.9619
  360TMC3    H2 5396   0.215   1.281  12.075  1.3324  0.1756 -0.6292
  360TMC3    C7 5397   0.075   1.056  12.107 -0.0707 -0.1667 -0.8135
  360TMC3    C8 5398   0.467   1.299  12.151 -0.1997 -0.2355 -0.0339
  360TMC3    O1 5399   0.123   0.967  12.038 -0.1051  0.1346  0.3282
  360TMC3    O2 5400   0.426   1.415  12.157 -0.2431 -0.7807 -0.2531
  361MPD2     C 5401   1.999   0.239  17.369  0.3276 -0.1230 -0.0968
  361MPD2    C1 5402   2.003   0.126  17.283  0.9272  0.5646  0.3403
  361MPD2    C2 5403   2.123   0.057  17.286  0.1981 -0.5985 -0.2848
  361MPD2    C3 5404   2.236   0.089  17.357 -0.7405 -1.1107 -0.0491
  361MPD2    C4 5405   2.236   0.208  17.427 -0.4646  0.6004  0.3841
  361MPD2    C5 5406   2.118   0.281  17.437  0.2666  0.1735  0.0462
  361MPD2     H 5407   2.134   4.696  17.220  0.5759 -0.6837 -0.1144
  361MPD2    H1 5408   2.322   0.237  17.487  0.3990  1.4455 -1.2692
  361MPD2    H2 5409   1.918   0.310  17.380 -0.4781 -1.0615 -0.0375
  361MPD2    H3 5410   2.119   0.368  17.501 -2.6694  0.9181 -0.9075
  361MPD2     N 5411   2.350   4.721  17.375 -0.4066  0.2215  0.3981
  361MPD2    H5 5412   2.414   0.015  17.452 -0.3398  0.2669  0.3322
  361MPD2    N1 5413   1.894   0.090  17.200 -0.2591  0.4110 -0.3394
  361MPD2    H7 5414   1.906   0.014  17.134  0.5760  1.4296 -1.3636
  362TMC3    C1 5415   1.674   0.039  17.146  0.4888 -0.5315 -0.6336
  362TMC3    C2 5416   1.569   4.702  17.213 -0.6474 -0.4427 -0.2134
  362TMC3    C3 5417   1.484   4.625  17.143  0.5321 -0.6250  0.5765
  362TMC3    C4 5418   1.696   0.013  17.011  0.2977  0.6965  0.2062
  362TMC3    C5 5419   1.606   4.655  16.947 -0.3607  0.3651 -0.1408
  362TMC3    C6 5420   1.499   4.593  17.010 -0.3179 -0.3888 -0.2574
  362TMC3     C 5421   1.764   0.126  17.221 -0.1021  0.5885  0.2392
  362TMC3     O 5422   1.715   0.201  17.304  0.8369  0.1005  0.1423
  362TMC3     H 5423   1.559   4.721  17.319  0.7631 -0.9193  0.0050
  362TMC3    H1 5424   1.781   0.061  16.963  0.6982 -0.7436 -0.5106
  362TMC3    H2 5425   1.427   4.530  16.959 -0.2046 -0.2708 -0.5675
  362TMC3    C7 5426   1.581   4.688  16.809 -0.2894 -0.3178 -0.4807
  362TMC3    C8 5427   1.348   4.595  17.193 -0.5835 -0.2078 -0.1537
  362TMC3    O1 5428   1.617   0.075  16.770  0.3385  0.1708  0.0084
  362TMC3    O2 5429   1.291   4.505  17.131  0.1681  0.1749 -1.4323
  363TMC3    C1 5430   4.698   2.928   9.267  0.3902  0.1887 -0.2312
  363TMC3    C2 5431   0.090   2.882   9.337 -0.2071 -0.1223  0.1484
  363TMC3    C3 5432   0.091   2.753   9.377  0.2029  0.0645 -0.0184
  363TMC3    C4 5433   4.588   2.847   9.249  1.0226 -0.5844  0.0303
  363TMC3    C5 5434   4.603   2.720   9.292 -0.1269  0.1217  0.0314
  363TMC3    C6 5435   4.713   2.669   9.357  0.1917  0.2909 -0.6719
  363TMC3     C 5436   4.696   3.063   9.206  0.8035 -0.4925 -0.3622
  363TMC3     O 5437   4.598   3.106   9.144 -0.3488  0.2134  0.1518
  363TMC3     H 5438   0.186   2.931   9.331 -0.3988  0.4334  1.6002
  363TMC3    H1 5439   4.511   2.887   9.185  2.2320  3.1963  0.9581
  363TMC3    H2 5440   4.700   2.576   9.412  2.4336  0.3057 -0.1210
  363TMC3    C7 5441   4.483   2.637   9.291  0.4254 -0.0185  0.4765
  363TMC3    C8 5442   0.205   2.716   9.460  0.2263  0.6012  0.2369
  363TMC3    O1 5443   4.493   2.527   9.348  0.4689 -0.2326  0.1943
  363TMC3    O2 5444   0.274   2.806   9.511 -0.1987 -0.3628 -0.3991
  364MPD2     C 5445   3.845   2.243  10.221  0.1472 -0.6321  0.8627
  364MPD2    C1 5446   3.984   2.226  10.216  0.1390  0.6387 -0.3770
  364MPD2    C2 5447   4.048   2.142  10.298  0.5168  0.3460 -0.8249
  364MPD2    C3 5448   3.972   2.060  10.378  0.0688 -0.3643  0.3763
  364MPD2    C4 5449   3.835   2.058  10.364  0.2568 -0.4475 -0.1636
  364MPD2    C5 5450   3.775   2.155  10.289 -0.0587 -0.1412 -0.7809
  364MPD2     H 5451   4.156   2.137  10.288  0.6779  0.5693  0.8612
  364MPD2    H1 5452   3.775   1.988  10.421  0.5721 -2.2842 -2.0554
  364MPD2    H2 5453   3.792   2.310  10.154 -1.7330 -2.5965  0.3972
  364MPD2    H3 5454   3.668   2.162  10.296 -0.0042 -0.8970  0.8266
  364MPD2     N 5455   4.029   1.973  10.475  0.3676 -0.4007  0.4318
  364MPD2    H5 5456   3.967   1.918  10.532 -2.4275  0.0011 -2.2380
  364MPD2    N1 5457   4.051   2.316  10.133 -0.6179  0.0668 -0.3164
  364MPD2    H7 5458   3.998   2.393  10.094 -0.9477  0.8532  1.7244
  365TMC3    C1 5459   4.237   2.423  10.040  0.1067 -0.7863 -0.4661
  365TMC3    C2 5460   4.361   2.399   9.988 -0.2570 -0.1857 -0.0533
  365TMC3    C3 5461   4.475   2.461  10.036  0.2475 -0.2838 -0.0645
  365TMC3    C4 5462   4.232   2.531  10.132 -0.1194  0.2448 -0.2664
  365TMC3    C5 5463   4.342   2.609  10.160  0.5794 -0.3598  0.1342
  365TMC3    C6 5464   4.469   2.570  10.122 -0.5864  0.5159 -0.0522
  365TMC3     C 5465   4.182   2.299  10.091  0.3404 -0.1071  0.3917
  365TMC3     O 5466   4.255   2.201  10.100  0.5333 -0.1631  0.3987
  365TMC3     H 5467   4.363   2.317   9.918  0.8604  0.1934 -0.4723
  365TMC3    H1 5468   4.144   2.542  10.194 -0.2742  0.0188 -0.4445
  365TMC3    H2 5469   4.549   2.627  10.168 -0.4380 -0.8962  1.4659
  365TMC3    C7 5470   4.339   2.697  10.277 -0.0343  0.2200  0.1795
  365TMC3    C8 5471   4.582   2.368  10.063  0.0419 -0.0811  0.4952
  365TMC3    O1 5472   4.398   2.803  10.283  0.3678  0.7448 -0.9830
  365TMC3    O2 5473   4.685   2.413  10.111 -0.7818 -0.1578 -0.1144
  366MPD2     C 5474   3.008   2.586  14.989  0.3055 -0.4589  0.0136
  366MPD2    C1 5475   3.005   2.723  14.997  0.2117  0.3070 -0.5312
  366MPD2    C2 5476   3.112   2.797  15.031  0.4470  0.0317 -0.2295
  366MPD2    C3 5477   3.236   2.737  15.031  0.1642 -0.0324 -0.6235
  366MPD2    C4 5478   3.249   2.597  15.016  0.5254 -0.6544  0.0998
  366MPD2    C5 5479   3.131   2.524  14.994 -1.2122 -0.0085 -0.8336
  366MPD2     H 5480   3.102   2.903  15.051 -0.2474 -0.3358  1.3213
  366MPD2    H1 5481   3.340   2.539  15.011  0.6141 -0.4502 -0.7057
  366MPD2    H2 5482   2.925   2.531  14.947  1.9242 -1.1499 -2.2667
  366MPD2    H3 5483   3.135   2.419  14.966 -0.0879  0.0248 -0.7964
  366MPD2     N 5484   3.339   2.828  15.076  0.3575  0.1551  0.3403
  366MPD2    H5 5485   3.314   2.926  15.088 -1.9037 -0.6558  2.1184
  366MPD2    N1 5486   2.880   2.792  14.999 -0.4035 -0.0614  0.1281
  366MPD2    H7 5487   2.879   2.893  14.991 -1.8112  0.0761  1.8406
  367TMC3    C1 5488   2.702   2.851  15.136 -0.1556 -0.9427 -0.0448
  367TMC3    C2 5489   2.793   2.916  15.213 -0.4960 -0.5596 -0.0849
  367TMC3    C3 5490   2.756   3.033  15.272  0.1313 -0.2401  0.9622
  367TMC3    C4 5491   2.578   2.893  15.107  0.0928  0.6187 -0.7570
  367TMC3    C5 5492   2.550   3.021  15.160 -0.7474 -0.3441 -0.1046
  367TMC3    C6 5493   2.632   3.088  15.243 -0.0160  0.5042  0.4585
  367TMC3     C 5494   2.765   2.740  15.062  0.0238  0.1665  0.1220
  367TMC3     O 5495   2.741   2.627  15.080  1.0074  0.2355 -0.3572
  367TMC3     H 5496   2.890   2.871  15.231 -0.6015 -0.2910  1.1640
  367TMC3    H1 5497   2.515   2.827  15.048 -2.1207  3.0573 -1.1235
  367TMC3    H2 5498   2.600   3.185  15.279  1.3764  1.1605 -0.0593
  367TMC3    C7 5499   2.416   3.064  15.155  0.3755  0.1532 -0.2632
  367TMC3    C8 5500   2.851   3.101  15.348  0.4792 -0.0973 -0.5194
  367TMC3    O1 5501   2.379   3.157  15.230 -0.2845 -0.1662  0.0833
  367TMC3    O2 5502   2.933   3.030  15.411  0.2904 -0.0256  0.5282
  368MPD2     C 5503   2.888   4.680  13.241 -0.5460 -0.8711  0.5019
  368MPD2    C1 5504   2.912   0.086  13.201  0.3039  0.4221  0.1669
  368MPD2    C2 5505   3.041   0.143  13.175  0.3733  0.0113 -0.9135
  368MPD2    C3 5506   3.149   0.053  13.192 -0.0289 -0.8245 -0.3036
  368MPD2    C4 5507   3.125   4.653  13.247  0.5065  0.6942 -0.5281
  368MPD2    C5 5508   2.997   4.610  13.262 -0.1254  0.0394  0.1395
  368MPD2     H 5509   3.059   0.243  13.138 -0.4153  1.0495  1.4784
  368MPD2    H1 5510   3.206   4.582  13.262 -0.4962 -0.9574 -2.7778
  368MPD2    H2 5511   2.790   4.633  13.241  0.4590 -2.9449 -0.1836
  368MPD2    H3 5512   2.983   4.507  13.292 -1.4506  0.8986  2.5385
  368MPD2     N 5513   3.281   0.091  13.165 -0.0948 -0.0369 -0.0251
  368MPD2    H5 5514   3.349   0.017  13.186 -1.0045 -0.6380  0.7884
  368MPD2    N1 5515   2.798   0.171  13.178 -0.0151  0.0444 -0.3692
  368MPD2    H7 5516   2.711   0.120  13.191  0.5969 -0.9677 -0.1518
  369TMC3    C1 5517   2.655   0.336  13.098 -0.3178 -0.0762 -0.1499
  369TMC3    C2 5518   2.642   0.447  13.024 -0.2482 -0.5861  0.1794
  369TMC3    C3 5519   2.545   0.540  13.056 -0.2903  0.5254  0.6849
  369TMC3    C4 5520   2.573   0.304  13.205 -1.2324  0.5294  0.0025
  369TMC3    C5 5521   2.475   0.397  13.226 -0.5149  0.5876  0.1709
  369TMC3    C6 5522   2.456   0.514  13.153 -0.2940 -0.6149  0.4659
  369TMC3     C 5523   2.793   0.298  13.122 -0.2890 -0.2911  0.1920
  369TMC3     O 5524   2.881   0.372  13.086 -0.4309 -0.2330  0.6967
  369TMC3     H 5525   2.717   0.474  12.950 -1.9468  1.8727 -0.6417
  369TMC3    H1 5526   2.595   0.231  13.281  0.0677 -0.3546 -1.2202
  369TMC3    H2 5527   2.376   0.583  13.175 -0.8516 -0.7910 -1.0448
  369TMC3    C7 5528   2.385   0.378  13.344 -0.2011 -0.0187 -0.2538
  369TMC3    C8 5529   2.606   0.673  13.076 -0.5320 -0.1701  0.1178
  369TMC3    O1 5530   2.377   0.260  13.385 -0.3889  0.1019 -0.3681
  369TMC3    O2 5531   2.557   0.726  13.172 -0.4544 -0.0747 -0.4076
  370TMC3    C1 5532   3.087   0.568  16.516 -0.0628  0.5101  0.0950
  370TMC3    C2 5533   3.026   0.530  16.637 -0.1861 -0.1253  0.4234
  370TMC3    C3 5534   2.968   0.408  16.636  0.5278  0.2760  0.1592
  370TMC3    C4 5535   3.091   0.488  16.405 -0.6240 -0.6771  0.1518
  370TMC3    C5 5536   3.019   0.376  16.405 -0.6200  0.9198  0.8649
  370TMC3    C6 5537   2.954   0.340  16.518  0.0935 -0.4700  0.1659
  370TMC3     C 5538   3.170   0.698  16.527  0.5897 -0.9529  0.2603
  370TMC3     O 5539   3.170   0.750  16.639  0.1815  0.2726 -0.5039
  370TMC3     H 5540   3.022   0.585  16.731 -1.0790  0.8023 -0.1553
  370TMC3    H1 5541   3.139   0.528  16.316 -0.9016  0.4265  0.5013
  370TMC3    H2 5542   2.902   0.245  16.522 -0.1601 -0.2845  1.1429
  370TMC3    C7 5543   3.029   0.283  16.298 -0.5681  0.2542 -0.3594
  370TMC3    C8 5544   3.010   0.313  16.737 -0.0629 -0.1851 -0.4638
  370TMC3    O1 5545   2.950   0.189  16.305 -0.4782 -0.7158 -0.2728
  370TMC3    O2 5546   3.051   0.199  16.705  0.3417  0.2353 -1.0422
  371TMC3    C1 5547   4.628   3.857  15.643 -0.1406  0.3029  0.6311
  371TMC3    C2 5548   4.584   3.838  15.769 -0.6468  0.2453  0.0855
  371TMC3    C3 5549   4.530   3.945  15.836  0.2279 -0.4007 -0.6386
  371TMC3    C4 5550   4.632   3.982  15.576  0.2797 -0.1408 -0.2720
  371TMC3    C5 5551   4.577   4.087  15.658 -0.4975  0.1232 -0.5963
  371TMC3    C6 5552   4.521   4.073  15.784  0.4514 -0.0690  0.8962
  371TMC3     C 5553   4.627   3.751  15.552 -0.2826 -0.2651  0.2721
  371TMC3     O 5554   4.630   3.780  15.434 -0.2460  0.3575  0.2572
  371TMC3     H 5555   4.590   3.751  15.833 -0.1370 -1.8608 -2.8425
  371TMC3    H1 5556   4.679   3.995  15.480  2.7000 -2.2520  0.6372
  371TMC3    H2 5557   4.497   4.161  15.842  0.8516  0.4370  0.2925
  371TMC3    C7 5558   4.567   4.220  15.607 -0.1592  0.4802  0.2337
  371TMC3    C8 5559   4.461   3.928  15.963 -1.0460 -0.8474 -0.4071
  371TMC3    O1 5560   4.586   4.317  15.678 -0.1646  0.1418 -0.2711
  371TMC3    O2 5561   4.503   3.833  16.031 -0.2681 -0.3306 -0.3161
  372MPD2     C 5562   3.558   0.608  13.151  0.2001  0.3129 -0.2497
  372MPD2    C1 5563   3.620   0.547  13.259  0.0010  0.5754  0.1936
  372MPD2    C2 5564   3.553   0.469  13.350  0.4006 -0.1607  0.1834
  372MPD2    C3 5565   3.418   0.441  13.333  0.2627  0.0736  0.0660
  372MPD2    C4 5566   3.351   0.492  13.223 -0.1643  0.5371 -0.1870
  372MPD2    C5 5567   3.420   0.578  13.132  0.4170 -0.1404 -0.3673
  372MPD2     H 5568   3.604   0.434  13.439 -0.8960 -1.0444  0.5808
  372MPD2    H1 5569   3.247   0.468  13.205  0.1488 -1.7848  0.9574
  372MPD2    H2 5570   3.603   0.671  13.075  2.2836  0.1803  0.8587
  372MPD2    H3 5571   3.365   0.616  13.047  0.4951 -0.2078 -0.4473
  372MPD2     N 5572   3.352   0.349  13.425  0.0150  0.0581 -0.6621
  372MPD2    H5 5573   3.414   0.295  13.484 -2.8378 -1.4015  0.9640
  372MPD2    N1 5574   3.754   0.583  13.293 -0.1257  0.3644  0.1304
  372MPD2    H7 5575   3.781   0.559  13.388  0.1491  1.1208  0.2448
  373TMC3    C1 5576   3.200   0.206  13.522 -0.1943 -0.0974 -0.2745
  373TMC3    C2 5577   3.131   0.232  13.638  0.3653 -0.0514  0.5013
  373TMC3    C3 5578   3.156   0.149  13.742 -0.3545  0.0617 -0.2081
  373TMC3    C4 5579   3.290   0.096  13.506  0.1566 -0.1522  0.7957
  373TMC3    C5 5580   3.307   0.018  13.617 -0.5292 -0.2089  1.0823
  373TMC3    C6 5581   3.242   0.042  13.742 -0.5769 -0.3752  0.3626
  373TMC3     C 5582   3.219   0.319  13.429  0.0049  0.6440  0.5491
  373TMC3     O 5583   3.123   0.384  13.390 -0.1428  0.6810  0.0404
  373TMC3     H 5584   3.061   0.315  13.647  1.3185  0.5870  2.2537
  373TMC3    H1 5585   3.336   0.073  13.411 -0.6582  0.9074  0.1484
  373TMC3    H2 5586   3.251   4.714  13.837  2.0964 -0.1487  0.2369
  373TMC3    C7 5587   3.431   4.666  13.620 -0.1941 -0.5408  0.5929
  373TMC3    C8 5588   3.121   0.199  13.875 -0.3712  0.1400 -0.1877
  373TMC3    O1 5589   3.494   4.659  13.514  0.1540 -0.4370  0.4977
  373TMC3    O2 5590   3.020   0.268  13.877 -0.3428  0.3677 -0.5084
  374TMC3    C1 5591   4.554   0.295   9.821 -0.3151 -0.2438  0.4182
  374TMC3    C2 5592   4.541   0.418   9.870 -0.5651  0.1731 -0.2379
  374TMC3    C3 5593   4.416   0.471   9.866  0.3302  0.0154 -0.0674
  374TMC3    C4 5594   4.449   0.225   9.767  0.7478 -0.5448 -0.3247
  374TMC3    C5 5595   4.325   0.280   9.766 -0.4752 -0.4346  0.8857
  374TMC3    C6 5596   4.304   0.406   9.807  0.3375 -0.4035 -0.7483
  374TMC3     C 5597   4.673   0.224   9.869 -0.0813  0.8723 -0.3764
  374TMC3     O 5598   0.033   0.297   9.918  0.6494  0.7368  0.6989
  374TMC3     H 5599   4.616   0.475   9.925 -1.9792  0.3445  1.5197
  374TMC3    H1 5600   4.472   0.126   9.729 -2.1683 -1.6111  0.7574
  374TMC3    H2 5601   4.210   0.458   9.795  0.2502 -0.4308 -0.2069
  374TMC3    C7 5602   4.216   0.198   9.716 -0.0167  0.5306  0.2434
  374TMC3    C8 5603   4.402   0.619   9.888  0.1487 -0.0520  0.0331
  374TMC3    O1 5604   4.250   0.095   9.658 -0.3589 -0.0704 -0.3615
  374TMC3    O2 5605   4.312   0.677   9.824  0.3495  0.2596  0.3019
  375MPD2     C 5606   0.074   1.245  17.004  0.3898  0.7008  0.1907
  375MPD2    C1 5607   4.684   1.193  16.947 -0.4513  0.1333 -0.6970
  375MPD2    C2 5608   4.690   1.083  16.860  0.2431  0.3521 -0.0544
  375MPD2    C3 5609   0.087   1.022  16.848  0.4373  0.3442  0.6531
  375MPD2    C4 5610   0.205   1.070  16.899 -0.1868 -0.0239 -0.6782
  375MPD2    C5 5611   0.190   1.178  16.987  0.2628 -0.0973  0.1204
  375MPD2     H 5612   4.600   1.049  16.809 -0.7748  1.5842  0.9244
  375MPD2    H1 5613   0.304   1.031  16.882  0.1287  0.3142  0.3549
  375MPD2    H2 5614   0.076   1.318  17.084  0.8787  0.4716  0.3863
  375MPD2    H3 5615   0.283   1.212  17.031  0.3740 -0.9882  0.5532
  375MPD2     N 5616   0.104   0.911  16.766  0.0514 -0.2353  0.1356
  375MPD2    H5 5617   0.199   0.880  16.751  0.0038 -1.0364  1.4611
  375MPD2    N1 5618   4.550   1.246  16.975  0.3051 -0.2801  0.5975
  375MPD2    H7 5619   4.474   1.180  16.958 -2.4770  3.2771 -0.6228
  376TMC3    C1 5620   0.048   0.767  16.594 -0.4029 -0.4908  0.0457
  376TMC3    C2 5621   0.170   0.713  16.587  0.3406  0.1993 -0.7453
  376TMC3    C3 5622   0.199   0.634  16.480  0.1363 -0.3480  0.2334
  376TMC3    C4 5623   4.683   0.752  16.491  0.7913 -0.2832 -0.6081
  376TMC3    C5 5624   4.710   0.669  16.389 -0.3477 -0.3871  0.3715
  376TMC3    C6 5625   0.111   0.612  16.380 -0.1805 -0.8091 -0.6052
  376TMC3     C 5626   0.004   0.844  16.701  0.0712  0.3292  0.2575
  376TMC3     O 5627   4.607   0.857  16.714 -0.3549  0.1857  0.3826
  376TMC3     H 5628   0.242   0.732  16.666 -0.4895  1.3011 -0.2665
  376TMC3    H1 5629   4.589   0.806  16.482  0.6249 -0.5944 -0.7311
  376TMC3    H2 5630   0.150   0.555  16.297 -0.8251  1.3374 -2.3827
  376TMC3    C7 5631   4.632   0.694  16.269  0.7690  0.4469 -0.7574
  376TMC3    C8 5632   0.334   0.618  16.446 -0.0399 -0.1404  0.9535
  376TMC3    O1 5633   4.565   0.793  16.263 -0.5613  0.2729  0.0419
  376TMC3    O2 5634   0.343   0.610  16.324  0.1349  0.0749  0.5841
  377MPD2     C 5635   1.971   0.725  12.474 -0.5739 -0.3425  0.0808
  377MPD2    C1 5636   2.034   0.641  12.554 -0.6720  0.1170 -0.2597
  377MPD2    C2 5637   1.971   0.593  12.673 -0.5213  0.8686 -0.1302
  377MPD2    C3 5638   1.837   0.625  12.700 -0.1270  0.4705 -0.4267
  377MPD2    C4 5639   1.778   0.719  12.622  0.3057 -0.6136  0.6910
  377MPD2    C5 5640   1.845   0.762  12.509 -0.4778 -0.2659 -0.1755
  377MPD2     H 5641   2.024   0.518  12.730 -0.9740 -0.3421 -1.2935
  377MPD2    H1 5642   1.680   0.761  12.640 -0.0544 -0.4245 -1.7530
  377MPD2    H2 5643   2.015   0.773  12.387 -0.1749  0.5484  0.7728
  377MPD2    H3 5644   1.796   0.831  12.441 -0.2164 -1.1416 -1.2557
  377MPD2     N 5645   1.767   0.556  12.804 -0.2712  0.3666 -0.0172
  377MPD2    H5 5646   1.673   0.591  12.820 -0.5557  0.0031 -0.8754
  377MPD2    N1 5647   2.165   0.608  12.512 -0.5516  0.0919 -0.1550
  377MPD2    H7 5648   2.192   0.664  12.432  0.7659  1.5119  1.3126
  378TMC3    C1 5649   2.521   0.528  12.306 -0.1469 -0.1681  0.9542
  378TMC3    C2 5650   2.398   0.538  12.368 -0.2285 -0.6462 -0.0620
  378TMC3    C3 5651   2.390   0.526  12.505  0.0046  0.0602 -0.4875
  378TMC3    C4 5652   2.637   0.517  12.378  0.2797  0.5671  0.1724
  378TMC3    C5 5653   2.619   0.524  12.517  0.1643  0.1937 -0.1949
  378TMC3    C6 5654   2.500   0.515  12.579 -0.3837 -0.2627 -0.9564
  378TMC3     C 5655   2.524   0.525  12.158 -0.5549  0.1260  0.3673
  378TMC3     O 5656   2.421   0.511  12.097 -0.2066  0.2769  0.0248
  378TMC3     H 5657   2.304   0.535  12.314  0.4505  0.1314 -1.2964
  378TMC3    H1 5658   2.739   0.513  12.339  0.5631  0.9124  0.8710
  378TMC3    H2 5659   2.499   0.517  12.688 -1.0768  0.2042 -0.9688
  378TMC3    C7 5660   2.736   0.551  12.600 -0.2847  0.2012  0.1016
  378TMC3    C8 5661   2.266   0.529  12.573  0.4015 -0.8841  0.1532
  378TMC3    O1 5662   2.725   0.528  12.720  0.4596 -0.0353 -0.2259
  378TMC3    O2 5663   2.268   0.461  12.674 -0.3264 -0.1968 -0.1133
  379MPD2     C 5664   3.116   3.131  16.442 -0.2423 -0.2472 -0.7907
  379MPD2    C1 5665   3.227   3.071  16.393  0.4705  0.1034 -0.0378
  379MPD2    C2 5666   3.301   2.989  16.476  1.0144  0.2090 -0.3438
  379MPD2    C3 5667   3.263   2.971  16.607 -0.4527  0.4410 -0.0296
  379MPD2    C4 5668   3.139   3.017  16.660 -0.2496  0.4825 -0.8379
  379MPD2    C5 5669   3.072   3.104  16.573 -0.3382  0.4919 -0.3096
  379MPD2     H 5670   3.394   2.949  16.437  0.8943 -2.6041  2.2747
  379MPD2    H1 5671   3.101   3.011  16.762  1.2641  2.1284 -0.1637
  379MPD2    H2 5672   3.061   3.210  16.392  2.8693  1.5813 -1.3141
  379MPD2    H3 5673   2.981   3.151  16.608 -1.4984 -2.0152  0.0722
  379MPD2     N 5674   3.346   2.897  16.693  0.0608 -0.4448  0.0035
  379MPD2    H5 5675   3.304   2.866  16.779  0.5197 -1.3613 -0.0966
  379MPD2    N1 5676   3.255   3.108  16.262  0.3013 -0.1430 -0.1791
  379MPD2    H7 5677   3.197   3.183  16.228 -2.4680 -1.2775  2.0126
  380TMC3    C1 5678   3.382   3.119  16.064  0.5378  0.3543  0.4655
  380TMC3    C2 5679   3.511   3.106  16.010 -0.6624  0.0358  0.4045
  380TMC3    C3 5680   3.529   3.166  15.885  0.3866 -0.5361 -0.0378
  380TMC3    C4 5681   3.281   3.173  15.992 -0.5006 -0.2107 -0.0733
  380TMC3    C5 5682   3.302   3.220  15.866 -0.2222 -0.3670  0.4398
  380TMC3    C6 5683   3.426   3.227  15.812  0.4854 -0.6804  0.0616
  380TMC3     C 5684   3.357   3.053  16.190 -0.0285  0.6011  0.4087
  380TMC3     O 5685   3.434   2.959  16.221  0.0033 -0.6015 -0.2958
  380TMC3     H 5686   3.591   3.061  16.067 -0.3826  0.6393  0.4792
  380TMC3    H1 5687   3.179   3.177  16.027 -0.6629  0.0835 -0.5809
  380TMC3    H2 5688   3.441   3.283  15.720  2.7687  0.4505  1.1075
  380TMC3    C7 5689   3.203   3.317  15.824  0.9080  0.3449  0.2783
  380TMC3    C8 5690   3.661   3.212  15.848  0.4997 -0.1637  0.0650
  380TMC3    O1 5691   3.177   3.405  15.902 -0.2032 -0.0556  0.0698
  380TMC3    O2 5692   3.674   3.241  15.731 -0.2677 -0.5637 -0.5672
  381TMC3    C1 5693   3.177   4.415  16.455  0.2016  0.3825 -0.0252
  381TMC3    C2 5694   3.228   4.535  16.404  0.0179  0.3607  0.5557
  381TMC3    C3 5695   3.222   4.646  16.481  0.0337 -0.0510 -0.5843
  381TMC3    C4 5696   3.109   4.409  16.571  0.0638  0.5662  0.3043
  381TMC3    C5 5697   3.095   4.523  16.640  0.4609 -0.9108 -0.4157
  381TMC3    C6 5698   3.156   4.641  16.605  0.0685  0.6045 -0.0986
  381TMC3     C 5699   3.177   4.290  16.379 -0.1727  0.1275  0.0914
  381TMC3     O 5700   3.144   4.192  16.440 -0.1119  0.0493  0.0748
  381TMC3     H 5701   3.293   4.544  16.317 -1.0227  1.5193 -0.0931
  381TMC3    H1 5702   3.054   4.320  16.601 -0.6405  0.9750  0.2416
  381TMC3    H2 5703   3.160   4.723  16.676  2.6830 -1.6493  2.3411
  381TMC3    C7 5704   3.017   4.512  16.766 -0.3478  0.2594  0.3460
  381TMC3    C8 5705   3.320   0.028  16.462 -0.9083  0.3430 -0.2579
  381TMC3    O1 5706   3.015   4.401  16.821 -0.2053  0.5405 -0.3342
  381TMC3    O2 5707   3.408   4.713  16.386 -0.4641 -0.4313 -0.2066
  382MPD2     C 5708   2.242   2.059  17.301 -0.2278  1.0623 -0.6580
  382MPD2    C1 5709   2.257   2.066  17.439  0.3346 -0.4413 -0.1161
  382MPD2    C2 5710   2.235   1.954  17.516  0.2907  0.3701  0.2921
  382MPD2    C3 5711   2.210   1.830  17.453  0.3831 -1.4987 -0.4790
  382MPD2    C4 5712   2.203   1.821  17.315  0.4028  0.0605  0.3249
  382MPD2    C5 5713   2.218   1.935  17.238  0.2243 -0.6817  0.6970
  382MPD2     H 5714   2.240   1.965  17.624 -0.2148 -0.6645  0.4239
  382MPD2    H1 5715   2.185   1.732  17.257 -0.0757  0.6788 -0.4778
  382MPD2    H2 5716   2.262   2.142  17.235 -0.0830  1.3461 -0.2569
  382MPD2    H3 5717   2.204   1.940  17.131  2.8314 -0.9220  0.3540
  382MPD2     N 5718   2.169   1.713  17.519  0.3837  0.5461  1.0847
  382MPD2    H5 5719   2.143   1.631  17.465  1.5702  0.8489  0.0576
  382MPD2    N1 5720   2.311   2.183  17.495 -0.0585 -0.4121  0.7446
  382MPD2    H7 5721   2.320   2.183  17.596 -0.6639  1.3016  0.7889
  383TMC3    C1 5722   2.141   1.564  17.690  0.5686 -0.8121 -0.0633
  383TMC3    C2 5723   2.033   1.506  17.634 -1.0574  0.1814  0.5233
  383TMC3    C3 5724   1.993   1.383  17.679 -0.3832 -0.8130 -0.3763
  383TMC3    C4 5725   2.180   1.516   0.111 -0.0140  0.4295  0.8194
  383TMC3    C5 5726   2.146   1.393   0.152 -0.2752  0.2795  0.1971
  383TMC3    C6 5727   2.057   1.319   0.082  0.4718 -0.2938 -0.0562
  383TMC3     C 5728   2.181   1.696  17.650 -0.4330 -0.1618 -0.2378
  383TMC3     O 5729   2.245   1.761   0.038  0.4300  0.1522  0.3874
  383TMC3     H 5730   1.977   1.545  17.550  2.1182 -0.1508 -1.7610
  383TMC3    H1 5731   2.257   1.576   0.158  0.5140 -0.9949  1.7597
  383TMC3    H2 5732   2.017   1.234   0.137 -1.5902  0.2143 -0.7849
  383TMC3    C7 5733   2.239   1.316   0.229 -0.1162 -0.5892  0.0211
  383TMC3    C8 5734   1.884   1.310  17.618  0.1981  0.7511  0.2922
  383TMC3    O1 5735   2.255   1.199   0.195  0.0589  0.0196 -0.0209
  383TMC3    O2 5736   1.804   1.379  17.554  0.3179  0.2160 -0.1775
  384MPD2     C 5737   3.854   3.547  11.673 -0.0392 -0.1943  0.3570
  384MPD2    C1 5738   3.848   3.457  11.782 -1.0214 -0.3333  0.1157
  384MPD2    C2 5739   3.907   3.335  11.770 -0.0743 -0.0662 -0.4419
  384MPD2    C3 5740   3.977   3.293  11.663 -0.6631 -0.4461 -1.1806
  384MPD2    C4 5741   3.992   3.378  11.559 -0.3854 -0.6830  1.0257
  384MPD2    C5 5742   3.932   3.500  11.566  0.7554  0.4017  0.3574
  384MPD2     H 5743   3.891   3.266  11.852 -0.5564 -1.7179 -1.9173
  384MPD2    H1 5744   4.037   3.344  11.466 -0.0759 -1.4262  1.4432
  384MPD2    H2 5745   3.805   3.643  11.672 -0.2121 -0.3017 -0.8298
  384MPD2    H3 5746   3.946   3.573  11.487 -1.9330 -0.5233 -0.9740
  384MPD2     N 5747   4.045   3.169  11.662 -0.0347  0.0201 -0.1924
  384MPD2    H5 5748   4.134   3.157  11.614 -0.3750 -0.0200 -0.8210
  384MPD2    N1 5749   3.786   3.490  11.904  0.0747 -0.6754  0.6301
  384MPD2    H7 5750   3.801   3.432  11.986  2.1934 -1.4874 -0.3430
  385TMC3    C1 5751   4.101   2.980  11.777  0.4266  0.8012 -0.0584
  385TMC3    C2 5752   4.076   2.850  11.747  0.0644 -0.4728 -1.1784
  385TMC3    C3 5753   4.117   2.757  11.840  0.2838  0.5711  0.4025
  385TMC3    C4 5754   4.183   3.027  11.870 -0.2863 -0.2157  0.0403
  385TMC3    C5 5755   4.219   2.931  11.959 -0.4057 -0.1862 -0.3007
  385TMC3    C6 5756   4.187   2.799  11.949 -0.4326  0.5030  0.3341
  385TMC3     C 5757   3.994   3.068  11.744  0.1857  0.0460 -0.1237
  385TMC3     O 5758   3.880   3.036  11.787  0.3188 -0.2877  0.4674
  385TMC3     H 5759   4.003   2.820  11.672  0.0705 -1.0341 -0.9551
  385TMC3    H1 5760   4.196   3.132  11.894  1.5928 -0.2713 -0.7639
  385TMC3    H2 5761   4.224   2.725  12.019 -1.2262 -0.7493 -0.5570
  385TMC3    C7 5762   4.181   2.975  12.095  0.5146  0.1139 -0.2588
  385TMC3    C8 5763   4.101   2.617  11.831 -0.5753  0.2445  0.4672
  385TMC3    O1 5764   4.199   3.088  12.132 -0.9949 -0.1810  0.0801
  385TMC3    O2 5765   4.109   2.551  11.935  0.2219  0.0118 -0.6575
  386TMC3    C1 5766   4.293   0.862  12.368 -0.5344 -0.4506  0.1621
  386TMC3    C2 5767   4.308   0.911  12.235 -0.0107 -0.8340 -0.2962
  386TMC3    C3 5768   4.204   0.967  12.164 -0.5791  0.5529  0.1662
  386TMC3    C4 5769   4.170   0.870  12.432  0.0562 -0.6304  0.0799
  386TMC3    C5 5770   4.071   0.930  12.359  0.7515  0.0780 -0.5882
  386TMC3    C6 5771   4.078   0.972  12.230 -0.1539 -0.2671 -0.1895
  386TMC3     C 5772   4.399   0.780  12.423  0.3340  0.4967 -0.9872
  386TMC3     O 5773   4.392   0.746  12.543 -0.2241  0.3570  0.1879
  386TMC3     H 5774   4.407   0.917  12.191  1.3793 -0.8125  2.8486
  386TMC3    H1 5775   4.150   0.825  12.529 -0.4776 -1.5251 -0.4457
  386TMC3    H2 5776   3.990   0.991  12.169 -0.5563 -1.5977 -0.0202
  386TMC3    C7 5777   3.941   0.941  12.422  0.2646 -0.1444 -0.3135
  386TMC3    C8 5778   4.190   0.939  12.022 -0.7256 -0.4301  0.5738
  386TMC3    O1 5779   3.850   0.969  12.352 -0.1636 -0.5732 -0.2072
  386TMC3    O2 5780   4.092   0.984  11.968  0.8083  0.0489  0.3248
  387MPD2     C 5781   1.203   1.124   9.993 -0.5508 -0.3909 -0.2730
  387MPD2    C1 5782   1.312   1.102  10.078 -0.4327 -0.2285 -0.1296
  387MPD2    C2 5783   1.348   0.979  10.107 -0.1461 -0.5878 -0.2306
  387MPD2    C3 5784   1.309   0.869  10.039  0.8053 -0.0512  0.3222
  387MPD2    C4 5785   1.207   0.883   9.951 -0.1443  0.6005  0.0301
  387MPD2    C5 5786   1.160   1.008   9.934 -0.2700  0.0913  0.1520
  387MPD2     H 5787   1.423   0.963  10.184  0.5364  2.6805 -0.2542
  387MPD2    H1 5788   1.163   0.797   9.903 -2.1127  0.4546  2.0986
  387MPD2    H2 5789   1.153   1.219   9.978  2.3270  1.5706  2.6893
  387MPD2    H3 5790   1.086   1.015   9.855  0.8648  1.7683 -0.7628
  387MPD2     N 5791   1.359   0.753  10.093 -0.1495 -0.5689 -0.1256
  387MPD2    H5 5792   1.428   0.761  10.167  0.3708  0.0823 -0.6773
  387MPD2    N1 5793   1.386   1.204  10.144 -0.0389  0.3564 -0.4854
  387MPD2    H7 5794   1.463   1.180  10.205 -1.0847 -0.5362  0.4760
  388TMC3    C1 5795   1.477   1.402  10.216 -0.2122  0.5414 -0.2450
  388TMC3    C2 5796   1.457   1.531  10.261  0.4449 -0.7062 -0.5552
  388TMC3    C3 5797   1.574   1.591  10.309 -0.5857  0.7576 -0.2560
  388TMC3    C4 5798   1.600   1.341  10.210  0.9306 -0.2085  0.0490
  388TMC3    C5 5799   1.707   1.405  10.260 -0.1198 -0.3929 -0.0295
  388TMC3    C6 5800   1.697   1.538  10.305 -0.6762  0.4059 -0.1312
  388TMC3     C 5801   1.362   1.333  10.147  0.6311 -0.6611 -0.2997
  388TMC3     O 5802   1.273   1.404  10.109 -0.1356  0.1690 -0.3261
  388TMC3     H 5803   1.355   1.567  10.270 -0.0799 -1.4148 -3.8666
  388TMC3    H1 5804   1.616   1.248  10.157 -1.0524 -0.6219  0.1699
  388TMC3    H2 5805   1.793   1.579  10.335 -0.3916  0.9119 -1.7738
  388TMC3    C7 5806   1.838   1.336  10.260  0.2827  0.5035 -0.4210
  388TMC3    C8 5807   1.565   1.704  10.400  0.0486  0.0551  0.1663
  388TMC3    O1 5808   1.928   1.388  10.195  0.2051 -0.2197  0.2630
  388TMC3    O2 5809   1.659   1.724  10.475  0.4545 -0.1461  0.0052
  389MPD2     C 5810   0.998   4.235  11.644 -0.6479 -0.3587  0.0410
  389MPD2    C1 5811   0.962   4.127  11.571 -0.1395 -0.3901 -0.4870
  389MPD2    C2 5812   0.923   4.011  11.632 -0.2788  0.0831  0.0276
  389MPD2    C3 5813   0.895   4.018  11.768  0.5979 -0.6023  0.0374
  389MPD2    C4 5814   0.929   4.128  11.846  0.2378 -0.2467 -0.0479
  389MPD2    C5 5815   0.985   4.235  11.780 -0.1802  0.5553  0.0193
  389MPD2     H 5816   0.893   3.926  11.573 -1.6297 -1.0026  2.3086
  389MPD2    H1 5817   0.897   4.152  11.947  2.3691 -2.9703  1.2461
  389MPD2    H2 5818   1.024   4.328  11.595  0.6584 -0.1042  1.1986
  389MPD2    H3 5819   1.009   4.320  11.843 -1.1953  0.3241  0.7214
  389MPD2     N 5820   0.827   3.910  11.826  0.0638  0.3301  0.1829
  389MPD2    H5 5821   0.804   3.831  11.767 -1.5623  0.2545  0.9263
  389MPD2    N1 5822   0.979   4.140  11.428  0.0687  0.6206  0.2252
  389MPD2    H7 5823   0.992   4.232  11.387 -0.2640 -0.6337 -2.7576
  390TMC3    C1 5824   0.664   3.804  11.939 -0.3072  0.0423  0.9304
  390TMC3    C2 5825   0.625   3.764  11.814 -0.0572  0.4688 -0.0338
  390TMC3    C3 5826   0.497   3.713  11.803 -0.0050  0.5873  0.4007
  390TMC3    C4 5827   0.575   3.823  12.037  0.6032  0.3585 -0.9153
  390TMC3    C5 5828   0.452   3.759  12.032 -0.1260  0.4344  0.1190
  390TMC3    C6 5829   0.410   3.704  11.911  0.4375 -0.6448 -0.3617
  390TMC3     C 5830   0.762   3.911  11.945 -0.5375 -0.1465  0.4344
  390TMC3     O 5831   0.765   3.997  12.032  0.5931 -0.8111 -0.6817
  390TMC3     H 5832   0.687   3.737  11.729  0.6214  0.8362  0.3523
  390TMC3    H1 5833   0.605   3.865  12.133 -2.0792 -1.3500  0.7021
  390TMC3    H2 5834   0.331   3.631  11.897 -1.1820  1.7350 -3.6294
  390TMC3    C7 5835   0.352   3.782  12.138  0.0310 -0.2487  0.6783
  390TMC3    C8 5836   0.461   3.621  11.695 -0.5079  0.3446  0.8342
  390TMC3    O1 5837   0.382   3.857  12.231  0.5326 -0.9461  0.0082
  390TMC3    O2 5838   0.550   3.556  11.639 -0.0714  0.2063 -0.1145
  391MPD2     C 5839   4.719   0.610  11.409 -0.2673 -0.4375 -0.5067
  391MPD2    C1 5840   0.121   0.666  11.376  0.0641  0.4420  0.7205
  391MPD2    C2 5841   0.137   0.707  11.238  0.5830  0.1393 -0.2704
  391MPD2    C3 5842   0.044   0.693  11.146  0.0652 -0.0981  0.9996
  391MPD2    C4 5843   4.647   0.632  11.181 -0.3196  0.6492 -0.0360
  391MPD2    C5 5844   4.632   0.591  11.308 -0.3964 -0.1708 -0.5439
  391MPD2     H 5845   0.230   0.745  11.197 -0.8177  3.9776  0.0676
  391MPD2    H1 5846   4.568   0.609  11.110  0.3093 -0.0768 -0.4947
  391MPD2    H2 5847   4.702   0.577  11.511  0.2992  1.9882  0.3896
  391MPD2    H3 5848   4.538   0.544  11.337 -0.2606  1.0312  1.9081
  391MPD2     N 5849   0.072   0.749  11.015 -0.6357  0.5805  0.4028
  391MPD2    H5 5850   0.161   0.796  11.010 -0.3983 -0.0501 -1.3904
  391MPD2    N1 5851   0.212   0.693  11.480 -0.1634  0.0560  0.3131
  391MPD2    H7 5852   0.188   0.661  11.573 -1.0473  1.5597  0.5949
  392TMC3    C1 5853   0.034   0.824  10.801  0.3639 -1.0089  0.9291
  392TMC3    C2 5854   0.001   0.772  10.680 -0.1416 -0.6513  0.5750
  392TMC3    C3 5855   4.713   0.861  10.581 -0.4784  0.4157  0.6291
  392TMC3    C4 5856   0.061   0.954  10.828 -0.5238 -0.1186  0.6653
  392TMC3    C5 5857   0.049   1.039  10.724 -0.0589 -0.5465 -0.5175
  392TMC3    C6 5858   0.022   0.992  10.599  0.6611  0.4365 -0.1900
  392TMC3     C 5859   4.711   0.736  10.907  0.8054 -0.0734  0.6410
  392TMC3     O 5860   4.616   0.657  10.894  0.0563  0.6833  0.2315
  392TMC3     H 5861   4.709   0.666  10.663 -0.5800 -0.7102  1.3431
  392TMC3    H1 5862   0.100   0.986  10.924  0.5223  1.4057 -0.2620
  392TMC3    H2 5863   0.024   1.059  10.514 -0.7736  0.5875 -0.1125
  392TMC3    C7 5864   0.133   1.159  10.738  0.1545  0.5337  0.9157
  392TMC3    C8 5865   4.669   0.818  10.452 -0.7408 -0.3900 -0.6881
  392TMC3    O1 5866   0.167   1.186  10.856 -0.2406  0.3838 -0.1903
  392TMC3    O2 5867   4.709   0.708  10.409  0.6402  0.1075 -0.0660
  393TMC3    C1 5868   3.839   3.502   9.958  0.6707 -0.0530 -0.1767
  393TMC3    C2 5869   3.721   3.453   9.983 -0.0826  0.1566 -0.8508
  393TMC3    C3 5870   3.707   3.364  10.087  0.5238 -0.2649 -0.2289
  393TMC3    C4 5871   3.950   3.463  10.029 -0.3041 -0.1006 -0.1545
  393TMC3    C5 5872   3.938   3.376  10.138 -0.0503 -0.6115  0.7424
  393TMC3    C6 5873   3.811   3.326  10.161  0.4011 -0.2608  0.0696
  393TMC3     C 5874   3.865   3.574   9.833 -0.4148 -0.4424 -0.3060
  393TMC3     O 5875   3.983   3.580   9.806  0.0980 -0.3752 -0.0901
  393TMC3     H 5876   3.637   3.464   9.916  1.1987  0.2502 -2.4606
  393TMC3    H1 5877   4.047   3.501  10.000  0.3924 -2.3428 -0.7710
  393TMC3    H2 5878   3.799   3.265  10.250  1.1613 -0.1912  0.2197
  393TMC3    C7 5879   4.048   3.303  10.186  0.1069  0.5535 -0.1012
  393TMC3    C8 5880   3.578   3.311  10.130 -0.4359 -0.2979 -0.8012
  393TMC3    O1 5881   4.025   3.183  10.191 -0.1018  0.2654  0.0653
  393TMC3    O2 5882   3.562   3.282  10.247 -0.1996 -0.2203 -0.1865
  394TMC3    C1 5883   0.967   4.089  11.202 -0.4171  0.4235 -0.0057
  394TMC3    C2 5884   0.877   4.042  11.111  0.2063  0.1325  0.0169
  394TMC3    C3 5885   0.865   4.105  10.993 -0.4054 -0.4023 -0.8928
  394TMC3    C4 5886   1.060   4.188  11.165 -0.0274 -0.0061  0.1611
  394TMC3    C5 5887   1.046   4.238  11.048  0.6238  0.9140 -0.8379
  394TMC3    C6 5888   0.954   4.199  10.956  0.6164 -0.2565 -0.0053
  394TMC3     C 5889   0.953   4.042  11.337  0.6619  0.1648  0.3399
  394TMC3     O 5890   0.901   3.933  11.336 -0.2281  0.2477 -0.7436
  394TMC3     H 5891   0.809   3.963  11.141  1.5687 -1.4783 -1.1284
  394TMC3    H1 5892   1.142   4.212  11.232  0.5095 -1.1812 -0.0667
  394TMC3    H2 5893   0.952   4.244  10.858 -0.0264 -1.2986 -0.4773
  394TMC3    C7 5894   1.168   4.297  10.991  0.6470 -0.7924 -0.5502
  394TMC3    C8 5895   0.780   4.049  10.890 -0.3297 -0.2412 -0.3355
  394TMC3    O1 5896   1.154   4.372  10.896  0.9156  0.1085  0.0473
  394TMC3    O2 5897   0.700   3.967  10.927 -0.5971  0.0873  0.5935
  395TMC3    C1 5898   1.222   1.004  14.409  0.0201  0.1082 -0.2701
  395TMC3    C2 5899   1.095   1.050  14.372  0.5258  0.1796 -0.1013
  395TMC3    C3 5900   1.059   1.183  14.397 -0.2358 -0.5423 -0.1989
  395TMC3    C4 5901   1.304   1.096  14.468 -0.1075  0.3177  0.0399
  395TMC3    C5 5902   1.271   1.222  14.480 -0.5652 -0.3665  0.3332
  395TMC3    C6 5903   1.151   1.275  14.447 -0.9334 -0.0039 -0.0838
  395TMC3     C 5904   1.195   0.898  14.499 -0.5559  0.3825  0.5202
  395TMC3     O 5905   1.188   0.933  14.615  0.0473  0.7064  0.1602
  395TMC3     H 5906   1.023   0.980  14.330  0.9487 -0.2852 -0.0519
  395TMC3    H1 5907   1.383   1.058  14.532 -0.3670  1.4605  1.0474
  395TMC3    H2 5908   1.129   1.381  14.460  1.0490  0.4451 -0.3969
  395TMC3    C7 5909   1.373   1.331  14.487 -0.1891 -0.2262 -0.3067
  395TMC3    C8 5910   0.926   1.202  14.447 -0.4916 -0.4258  0.0675
  395TMC3    O1 5911   1.336   1.435  14.539  0.2236 -0.3553 -0.3060
  395TMC3    O2 5912   0.912   1.300  14.515  0.2172 -0.4829 -0.1068
  396MPD2     C 5913   0.899   1.492  16.567 -0.2300  0.7151 -0.0409
  396MPD2    C1 5914   0.881   1.482  16.702  0.1194 -0.0543  0.0122
  396MPD2    C2 5915   0.851   1.584  16.783 -0.4703  0.1923 -0.1349
  396MPD2    C3 5916   0.859   1.709  16.724 -0.1922  0.5004 -0.1235
  396MPD2    C4 5917   0.865   1.718  16.586  1.0999  0.3435  0.4747
  396MPD2    C5 5918   0.886   1.610  16.507  0.3433  0.5694  0.1308
  396MPD2     H 5919   0.828   1.575  16.888  0.2788  0.8744  0.0870
  396MPD2    H1 5920   0.879   1.810  16.530 -0.3956 -1.1096 -2.3248
  396MPD2    H2 5921   0.912   1.405  16.504  0.0029 -0.5121  1.6940
  396MPD2    H3 5922   0.897   1.619  16.399 -3.3842  0.7967 -0.2609
  396MPD2     N 5923   0.830   1.819  16.799  0.5595  0.0125  0.3798
  396MPD2    H5 5924   0.837   1.811  16.900 -3.0938 -0.0956  0.6131
  396MPD2    N1 5925   0.876   1.349  16.747 -0.3556 -0.4861  0.4590
  396MPD2    H7 5926   0.893   1.283  16.672 -0.1505 -1.9970  1.8359
  397TMC3    C1 5927   0.845   1.159  16.881  0.1647 -0.6227 -0.1070
  397TMC3    C2 5928   0.851   1.109  16.754  0.6136  0.8204  0.5953
  397TMC3    C3 5929   0.753   1.029  16.702 -0.2909 -0.5251 -0.0501
  397TMC3    C4 5930   0.734   1.121  16.955  0.6521 -0.3913  0.1742
  397TMC3    C5 5931   0.638   1.047  16.899  0.3279 -0.2502  0.2928
  397TMC3    C6 5932   0.643   0.999  16.772  1.3132  0.5861  0.1279
  397TMC3     C 5933   0.850   1.302  16.872  1.2587 -0.2372 -0.5175
  397TMC3     O 5934   0.848   1.366  16.974  0.3376 -0.5255  0.0887
  397TMC3     H 5935   0.943   1.118  16.698  0.9317  2.4829  1.3813
  397TMC3    H1 5936   0.720   1.164  17.054 -0.0496 -1.0968  0.3790
  397TMC3    H2 5937   0.561   0.945  16.726  1.2216 -0.3069  1.3286
  397TMC3    C7 5938   0.552   0.963  16.987  0.5086  0.5775 -0.4420
  397TMC3    C8 5939   0.733   1.074  16.561 -0.2779  0.0227 -0.0892
  397TMC3    O1 5940   0.490   0.879  16.931 -0.2738 -0.1136  0.4623
  397TMC3    O2 5941   0.819   1.156  16.527  0.5756 -0.2215  0.1847
  398MPD2     C 5942   3.357   2.745   0.349 -0.0790  0.0153  0.5323
  398MPD2    C1 5943   3.487   2.697   0.355  0.8241  0.9905  0.4278
  398MPD2    C2 5944   3.583   2.758   0.271 -0.4026  0.4081  0.7467
  398MPD2    C3 5945   3.552   2.844   0.166  0.0402  0.1077 -0.0837
  398MPD2    C4 5946   3.420   2.887   0.165  0.8748  0.1112  0.3281
  398MPD2    C5 5947   3.330   2.842   0.254 -0.5661  0.0933  0.6778
  398MPD2     H 5948   3.689   2.735   0.276 -0.6055 -0.5321  0.6885
  398MPD2    H1 5949   3.388   2.956   0.088  1.0035 -0.0070  0.1682
  398MPD2    H2 5950   3.272   2.716   0.410 -0.4892  1.6110  0.7267
  398MPD2    H3 5951   3.225   2.868   0.248 -0.5678  0.1972  1.1170
  398MPD2     N 5952   3.637   2.881   0.066  0.8697  0.0865 -0.0930
  398MPD2    H5 5953   3.608   2.961   0.011  3.8753  1.7225  0.6416
  398MPD2    N1 5954   3.527   2.599   0.451  0.1856 -0.6402 -0.1082
  398MPD2    H7 5955   3.625   2.573   0.443  0.3049 -0.5295  0.9662
  399TMC3    C1 5956   3.510   2.432   0.618 -0.1395 -0.2463  0.2682
  399TMC3    C2 5957   3.645   2.420   0.601  0.1565  0.0184  0.4495
  399TMC3    C3 5958   3.705   2.344   0.705  0.2870  0.7106 -0.1170
  399TMC3    C4 5959   3.434   2.393   0.725  0.3121  0.2684 -0.1843
  399TMC3    C5 5960   3.502   2.310   0.816  0.2594 -0.5841  0.2237
  399TMC3    C6 5961   3.638   2.287   0.806 -0.1153  0.0081  0.2233
  399TMC3     C 5962   3.449   2.529   0.533  0.8197 -0.0906 -0.2056
  399TMC3     O 5963   3.332   2.556   0.557  0.2166 -0.1088  0.6773
  399TMC3     H 5964   3.701   2.443   0.512 -0.1548  3.6457  1.1865
  399TMC3    H1 5965   3.328   2.410   0.733  0.3705  0.0466  1.1073
  399TMC3    H2 5966   3.688   2.244   0.892 -1.0301 -2.1123 -0.3015
  399TMC3    C7 5967   3.436   2.284   0.944  0.4447 -0.2099 -0.2192
  399TMC3    C8 5968   3.849   2.324   0.703 -0.5055 -0.9921  0.1634
  399TMC3    O1 5969   3.502   2.272   1.046 -0.6620  0.4087 -0.0000
  399TMC3    O2 5970   3.878   2.212   0.750  0.6259 -0.0433 -0.1245
  400TMC3    C1 5971   1.791   0.969  17.147 -0.0490  0.2994  0.4336
  400TMC3    C2 5972   1.696   0.873  17.130  0.4575  0.9259 -0.6447
  400TMC3    C3 5973   1.595   0.884  17.039  0.0268 -0.1842 -0.4887
  400TMC3    C4 5974   1.766   1.095  17.083 -0.2634 -0.4818 -0.2329
  400TMC3    C5 5975   1.657   1.107  17.002  0.5291  0.2265  0.0336
  400TMC3    C6 5976   1.575   1.003  16.977 -0.0642 -0.2028 -0.4129
  400TMC3     C 5977   1.885   0.954  17.259 -0.9581 -0.2596  0.2584
  400TMC3     O 5978   1.885   0.845  17.318 -0.2759  0.2226  0.5486
  400TMC3     H 5979   1.709   0.777  17.180  0.7872  1.2793 -0.0481
  400TMC3    H1 5980   1.831   1.179  17.108 -0.6538 -0.5312  0.9282
  400TMC3    H2 5981   1.492   1.003  16.907 -0.4338 -2.0380  0.0149
  400TMC3    C7 5982   1.619   1.233  16.938 -0.6741 -0.1622  0.1423
  400TMC3    C8 5983   1.482   0.793  17.060  0.3613  0.0086 -0.0491
  400TMC3    O1 5984   1.515   1.233  16.876  0.5843 -0.1392 -0.1535
  400TMC3    O2 5985   1.466   0.759  17.174 -0.1714 -0.1198  0.0151
  401MPD2     C 5986   0.924   4.709   1.475  0.5271  0.0106  0.4083
  401MPD2    C1 5987   1.040   4.636   1.448 -0.3139  0.0073  0.7839
  401MPD2    C2 5988   1.027   4.504   1.412 -0.5403  0.4204  0.0136
  401MPD2    C3 5989   0.903   4.439   1.414 -0.5913 -0.1295  0.0536
  401MPD2    C4 5990   0.788   4.510   1.443  0.4436  0.4846  0.1951
  401MPD2    C5 5991   0.803   4.646   1.482  0.2872  0.0600  0.4046
  401MPD2     H 5992   1.118   4.453   1.383 -0.9408 -1.1480  1.5890
  401MPD2    H1 5993   0.693   4.458   1.446  0.6476  0.2180  1.9345
  401MPD2    H2 5994   0.920   0.092   1.487 -1.0345  0.2108 -1.8732
  401MPD2    H3 5995   0.720   4.706   1.516  0.3927  0.5778 -0.2404
  401MPD2     N 5996   0.899   4.309   1.360  0.5139 -0.5918  0.0116
  401MPD2    H5 5997   0.989   4.276   1.327 -0.7067 -2.0074 -1.9069
  401MPD2    N1 5998   1.171   4.689   1.448  0.3734 -0.4244  0.2713
  401MPD2    H7 5999   1.248   4.628   1.423 -1.0219 -0.2004 -4.6463
  402TMC3    C1 6000   0.852   4.084   1.332  0.6120  0.2336  0.8377
  402TMC3    C2 6001   0.795   3.968   1.370  0.2983 -0.9415 -0.3968
  402TMC3    C3 6002   0.850   3.850   1.324  0.2074  0.0472  0.2138
  402TMC3    C4 6003   0.941   4.081   1.224  0.0446  0.0110  0.3295
  402TMC3    C5 6004   0.988   3.965   1.181 -0.4961  0.3294  0.5226
  402TMC3    C6 6005   0.950   3.846   1.234 -0.2507  0.7528 -0.1761
  402TMC3     C 6006   0.804   4.216   1.374  0.5614 -0.8390  0.2628
  402TMC3     O 6007   0.701   4.229   1.445  0.2340 -0.3496 -0.3948
  402TMC3     H 6008   0.726   3.971   1.453  1.7983  2.2670  0.7134
  402TMC3    H1 6009   0.981   4.173   1.181 -0.1008 -0.4294 -0.7344
  402TMC3    H2 6010   0.992   3.752   1.199 -2.7368 -0.4854  0.1655
  402TMC3    C7 6011   1.114   3.965   1.118  0.1273  0.5831 -0.0922
  402TMC3    C8 6012   0.849   3.735   1.420  0.1931 -0.0237 -0.7103
  402TMC3    O1 6013   1.177   4.068   1.137 -1.0593 -0.0234 -0.6078
  402TMC3    O2 6014   0.931   3.649   1.411 -0.5429  0.2549 -0.2545
  403MPD2     C 6015   3.250   3.674  13.590 -0.5107  0.0948  0.2090
  403MPD2    C1 6016   3.323   3.553  13.604 -0.4365  0.3546 -0.1237
  403MPD2    C2 6017   3.425   3.539  13.698 -0.4534  0.6434 -0.4503
  403MPD2    C3 6018   3.457   3.647  13.768  0.0364  1.1044  0.3591
  403MPD2    C4 6019   3.403   3.774  13.745 -0.2836  0.0463  0.3961
  403MPD2    C5 6020   3.294   3.778  13.657 -0.1704  1.2803  0.1934
  403MPD2     H 6021   3.478   3.447  13.719 -0.0610  0.8606 -0.4853
  403MPD2    H1 6022   3.428   3.860  13.806  0.0319 -0.0788  0.4409
  403MPD2    H2 6023   3.171   3.679  13.516 -0.0890  1.3620 -0.1501
  403MPD2    H3 6024   3.244   3.873  13.639 -1.9452  0.2423 -0.3600
  403MPD2     N 6025   3.574   3.635  13.847 -0.4275  0.2295 -0.4341
  403MPD2    H5 6026   3.625   3.548  13.834 -0.8208 -0.2051  0.9008
  403MPD2    N1 6027   3.279   3.437  13.531  0.3794 -0.3755 -0.2345
  403MPD2    H7 6028   3.213   3.448  13.455  0.5787  0.3097 -0.3124
  404TMC3    C1 6029   3.298   3.209  13.463 -0.4604  0.5965  0.1659
  404TMC3    C2 6030   3.276   3.079  13.506  0.9296 -0.0883  0.2268
  404TMC3    C3 6031   3.273   2.984  13.408  0.1709 -0.7951  0.2926
  404TMC3    C4 6032   3.301   3.244  13.325  0.5215 -0.5042  0.3743
  404TMC3    C5 6033   3.293   3.142  13.235  0.6774 -0.0965  0.1460
  404TMC3    C6 6034   3.283   3.010  13.274 -0.1318 -0.1111 -0.0263
  404TMC3     C 6035   3.308   3.308  13.571  1.1683  0.0721 -0.0955
  404TMC3     O 6036   3.347   3.265  13.682 -0.2816 -0.0359 -0.4639
  404TMC3     H 6037   3.240   3.054  13.605  0.2219 -3.1085 -0.8027
  404TMC3    H1 6038   3.332   3.344  13.296  0.3246 -0.2134  1.1437
  404TMC3    H2 6039   3.282   2.931  13.199 -1.0001  0.9189 -1.0999
  404TMC3    C7 6040   3.317   3.188  13.097  0.3667 -0.0855 -0.2858
  404TMC3    C8 6041   3.293   2.845  13.452  0.5157  0.3721 -0.1498
  404TMC3    O1 6042   3.369   3.298  13.086  0.0508  0.6181 -0.1753
  404TMC3    O2 6043   3.313   2.760  13.361  0.1852  0.0120 -0.7094
  405MPD2     C 6044   3.711   3.868  14.878 -0.1570  0.2547  0.4699
  405MPD2    C1 6045   3.688   3.807  14.753 -0.7725  0.1727  0.1892
  405MPD2    C2 6046   3.574   3.836  14.683  0.3323 -0.0010 -0.4447
  405MPD2    C3 6047   3.485   3.934  14.729  0.3208 -0.5861 -0.1746
  405MPD2    C4 6048   3.522   4.007  14.842  0.2517  0.9680  0.4628
  405MPD2    C5 6049   3.627   3.966  14.922 -0.5441 -0.6365  0.2092
  405MPD2     H 6050   3.546   3.785  14.591  0.5806  0.6670 -0.8859
  405MPD2    H1 6051   3.460   4.089  14.875 -0.7289  1.1845 -1.9487
  405MPD2    H2 6052   3.800   3.843  14.933  1.2544  1.3596 -1.3022
  405MPD2    H3 6053   3.650   4.031  15.005 -0.2983  0.3909 -0.6585
  405MPD2     N 6054   3.371   3.952  14.646 -0.0268  0.0800 -0.1859
  405MPD2    H5 6055   3.354   3.879  14.578  1.7573  0.5146 -1.0816
  405MPD2    N1 6056   3.780   3.709  14.708 -0.7526  0.9327  0.0592
  405MPD2    H7 6057   3.866   3.678  14.752 -1.5323 -0.2430  0.7703
  406TMC3    C1 6058   2.957   3.952  14.496  0.2524 -0.2476 -0.6169
  406TMC3    C2 6059   2.994   3.887  14.384 -0.3408 -0.8314  0.3233
  406TMC3    C3 6060   3.128   3.894  14.355  0.3432 -0.1226 -0.4133
  406TMC3    C4 6061   3.044   4.017  14.580  0.5446 -0.7483 -0.5401
  406TMC3    C5 6062   3.180   4.022  14.553 -0.8074 -0.2266  0.3338
  406TMC3    C6 6063   3.225   3.956  14.433 -0.4862  0.0358  1.0189
  406TMC3     C 6064   2.811   3.982  14.500 -0.4492  0.0122  0.5060
  406TMC3     O 6065   2.739   3.948  14.405  0.0715 -0.2433  0.7084
  406TMC3     H 6066   2.924   3.846  14.312 -1.5296 -2.1030  2.2168
  406TMC3    H1 6067   3.012   4.083  14.661 -0.5143 -1.5696 -0.2878
  406TMC3    H2 6068   3.327   3.973  14.401  0.0230  1.0456  3.2015
  406TMC3    C7 6069   3.273   4.045  14.653  0.0368 -0.2360 -0.3507
  406TMC3    C8 6070   3.172   3.815  14.241  0.0002 -0.3180  0.3753
  406TMC3    O1 6071   3.257   4.135  14.735  0.6055 -0.5032 -0.1708
  406TMC3    O2 6072   3.086   3.788  14.155  0.4815 -0.3005 -0.2578
  407MPD2     C 6073   0.785   0.443   9.914  0.9159 -0.0652  0.1292
  407MPD2    C1 6074   0.917   0.496   9.935  0.0116 -0.3509  0.0858
  407MPD2    C2 6075   0.932   0.613  10.000  0.5016  0.1365 -0.5657
  407MPD2    C3 6076   0.834   0.673  10.070  0.4452  0.3632  0.5115
  407MPD2    C4 6077   0.706   0.626  10.047 -0.2342  0.1466  0.7345
  407MPD2    C5 6078   0.682   0.514   9.970 -0.0752 -0.1820 -0.2703
  407MPD2     H 6079   1.031   0.656  10.005  0.2550  0.6087  0.2451
  407MPD2    H1 6080   0.623   0.674  10.098 -1.2506 -1.6619  0.7519
  407MPD2    H2 6081   0.761   0.353   9.860 -0.1779 -0.3316  1.0412
  407MPD2    H3 6082   0.582   0.482   9.942 -0.2757 -1.8968  2.4238
  407MPD2     N 6083   0.851   0.794  10.138  0.0798 -0.0451  0.6214
  407MPD2    H5 6084   0.771   0.857  10.138  1.6955  2.0441  1.2831
  407MPD2    N1 6085   1.034   0.439   9.871  0.5624 -0.1883 -0.5671
  407MPD2    H7 6086   1.117   0.495   9.882  1.0635 -0.6479 -1.9876
  408TMC3    C1 6087   1.177   0.288   9.759  0.5164 -0.0777  0.3998
  408TMC3    C2 6088   1.275   0.381   9.757  0.1156  0.4601 -0.0186
  408TMC3    C3 6089   1.405   0.348   9.724 -0.1719 -0.0532 -1.2469
  408TMC3    C4 6090   1.205   0.161   9.716 -0.2040  0.6389  0.0426
  408TMC3    C5 6091   1.337   0.129   9.684  0.3387  0.1406 -0.0506
  408TMC3    C6 6092   1.439   0.219   9.690 -0.2151  0.3495  0.1620
  408TMC3     C 6093   1.049   0.314   9.809 -0.6146  0.1742 -0.8146
  408TMC3     O 6094   0.955   0.235   9.795 -0.2130 -0.4116 -0.2598
  408TMC3     H 6095   1.252   0.486   9.774  2.1321  0.9538 -0.3764
  408TMC3    H1 6096   1.126   0.087   9.712 -0.9628  1.4486 -0.0848
  408TMC3    H2 6097   1.541   0.192   9.667  0.2151  0.4723  1.9145
  408TMC3    C7 6098   1.381   4.718   9.688  0.7100  0.3402  0.5259
  408TMC3    C8 6099   1.520   0.434   9.735  0.3176 -0.6881  0.4310
  408TMC3    O1 6100   1.306   4.638   9.638  0.0909  0.6681 -0.4375
  408TMC3    O2 6101   1.625   0.382   9.771 -0.1807 -0.7043 -0.0890
  409MPD2     C 6102   0.670   0.617  17.147 -0.4443 -0.9338 -0.0252
  409MPD2    C1 6103   0.718   0.692  17.249  0.6960 -0.2758 -0.3277
  409MPD2    C2 6104   0.805   0.796  17.231  0.0835 -0.3768  0.1510
  409MPD2    C3 6105   0.865   0.813  17.108 -0.4287  0.0705 -0.8398
  409MPD2    C4 6106   0.813   0.737  17.000  0.1185 -0.0201 -0.5435
  409MPD2    C5 6107   0.713   0.639  17.023  0.4135 -0.7462 -0.7717
  409MPD2     H 6108   0.850   0.855  17.310  0.0001 -0.2635  0.1138
  409MPD2    H1 6109   0.853   0.749  16.901  0.4233 -0.1122 -0.4317
  409MPD2    H2 6110   0.597   0.542  17.175 -0.2335 -1.0122  0.3079
  409MPD2    H3 6111   0.677   0.584  16.937 -0.9167 -0.4567 -0.4071
  409MPD2     N 6112   0.974   0.895  17.079  0.2775 -0.2347 -0.7428
  409MPD2    H5 6113   0.992   0.901  16.979 -3.5729  0.1014 -1.4356
  409MPD2    N1 6114   0.695   0.641  17.379  0.2722  0.4742  0.3601
  409MPD2    H7 6115   0.622   0.571  17.381 -0.9032  1.7037  0.8002
  410TMC3    C1 6116   1.191   0.992  17.107  0.3023  0.3278  0.3391
  410TMC3    C2 6117   1.286   1.022  17.208  0.4920 -0.0627  0.0674
  410TMC3    C3 6118   1.350   1.139  17.207  0.3272  0.2400 -0.5599
  410TMC3    C4 6119   1.168   1.080  17.010 -0.7337  0.3121  0.3792
  410TMC3    C5 6120   1.220   1.209  17.026  0.2546 -0.3192  0.1272
  410TMC3    C6 6121   1.316   1.240  17.121  0.3125 -0.0211  0.0287
  410TMC3     C 6122   1.077   0.925  17.164 -0.5532 -0.4638 -0.1392
  410TMC3     O 6123   1.078   0.891  17.281  0.0430 -0.3460  0.2587
  410TMC3     H 6124   1.289   0.952  17.291 -1.7235 -0.3435 -0.0770
  410TMC3    H1 6125   1.097   1.051  16.934  0.2752  4.0085 -1.9929
  410TMC3    H2 6126   1.353   1.339  17.145  2.8962 -0.8746 -0.3927
  410TMC3    C7 6127   1.211   1.291  16.908  0.6610  0.0501  0.2215
  410TMC3    C8 6128   1.461   1.169  17.300 -0.0052 -0.6463 -1.0632
  410TMC3    O1 6129   1.188   1.228  16.810 -0.1180  0.6432  0.7101
  410TMC3    O2 6130   1.521   1.277  17.299 -0.7099  0.1037  0.9123
  411MPD2     C 6131   1.783   2.167  14.537 -0.2609 -0.8390 -0.2581
  411MPD2    C1 6132   1.647   2.165  14.557 -1.0366  0.3944 -0.2715
  411MPD2    C2 6133   1.571   2.060  14.505 -0.4625 -0.3822 -0.3289
  411MPD2    C3 6134   1.636   1.956  14.441 -0.7570 -0.8999 -0.7900
  411MPD2    C4 6135   1.770   1.963  14.427 -0.6531  0.3352 -0.1133
  411MPD2    C5 6136   1.847   2.064  14.478 -0.3207  0.9352  0.2751
  411MPD2     H 6137   1.465   2.060  14.532 -0.9280  0.7819 -2.1233
  411MPD2    H1 6138   1.824   1.900  14.357 -0.8577  2.9463 -2.5887
  411MPD2    H2 6139   1.850   2.249  14.561 -1.3377  0.9015 -3.2179
  411MPD2    H3 6140   1.952   2.083  14.459 -0.4279  1.3898  0.1303
  411MPD2     N 6141   1.571   1.854  14.369  0.3304 -0.3671 -0.5027
  411MPD2    H5 6142   1.633   1.789  14.322 -0.2384  0.6337 -2.6670
  411MPD2    N1 6143   1.574   2.285  14.602  0.3521  0.2765 -0.0735
  411MPD2    H7 6144   1.473   2.275  14.599  0.3529  0.3627 -0.4129
  412TMC3    C1 6145   1.391   1.743  14.286 -0.0363  0.2411 -0.2671
  412TMC3    C2 6146   1.289   1.656  14.319 -0.6604 -0.7954  0.0717
  412TMC3    C3 6147   1.222   1.591  14.216  0.2660  0.0865  0.3243
  412TMC3    C4 6148   1.424   1.770  14.160 -1.1430 -0.2631  0.6174
  412TMC3    C5 6149   1.354   1.713  14.059 -0.1498  0.3445 -0.1592
  412TMC3    C6 6150   1.253   1.627  14.089 -0.2609  0.6442 -0.1579
  412TMC3     C 6151   1.438   1.829  14.390 -0.3314  0.0316 -0.0131
  412TMC3     O 6152   1.375   1.854  14.492 -0.6611 -0.0756  0.5327
  412TMC3     H 6153   1.244   1.660  14.417  0.3809 -0.9206  0.5586
  412TMC3    H1 6154   1.483   1.861  14.148  1.1050 -1.8796 -0.7395
  412TMC3    H2 6155   1.201   1.574  14.010  0.1328  2.7290 -1.8134
  412TMC3    C7 6156   1.305   1.801  13.951  0.2253 -0.2150 -0.5313
  412TMC3    C8 6157   1.075   1.582  14.233  0.1903 -0.1111 -0.4702
  412TMC3    O1 6158   1.182   1.789  13.938 -0.3558  0.2767 -0.5861
  412TMC3    O2 6159   1.022   1.526  14.329  0.4536  0.7465  0.4190
  413MPD2     C 6160   2.860   0.068  15.708  0.1252 -0.8817 -0.5800
  413MPD2    C1 6161   2.880   0.062  15.569 -0.7423  0.7150  0.3588
  413MPD2    C2 6162   2.969   4.692  15.513 -0.0020 -0.2703 -0.0906
  413MPD2    C3 6163   3.031   4.600  15.590  0.1615 -0.0788 -0.2872
  413MPD2    C4 6164   3.008   4.606  15.727  0.6505 -0.5151  0.0435
  413MPD2    C5 6165   2.917   4.695  15.779  0.3231 -0.1052 -0.7365
  413MPD2     H 6166   2.994   4.686  15.408  0.8753  2.0154 -0.0223
  413MPD2    H1 6167   3.040   4.524  15.789  0.3815 -0.7945 -0.1882
  413MPD2    H2 6168   2.793   0.142  15.748 -0.1516 -0.1828 -2.3204
  413MPD2    H3 6169   2.898   4.684  15.886  1.6144 -0.1019 -0.5053
  413MPD2     N 6170   3.118   4.502  15.529  0.5731  0.2362 -0.4215
  413MPD2    H5 6171   3.116   4.491  15.428 -0.4649  1.2455 -0.5121
  413MPD2    N1 6172   2.795   0.151  15.500 -0.0120 -0.3906 -0.3641
  413MPD2    H7 6173   2.745   0.213  15.563 -1.4103 -1.7435 -0.1297
  414TMC3    C1 6174   3.292   4.342  15.508 -0.2821  0.0508 -0.6727
  414TMC3    C2 6175   3.346   4.227  15.571 -0.4751 -0.0666  0.0896
  414TMC3    C3 6176   3.409   4.146  15.482 -0.2678  0.4981 -0.2188
  414TMC3    C4 6177   3.303   4.374  15.378  0.3436  0.3933 -0.0817
  414TMC3    C5 6178   3.367   4.286  15.295 -0.5436  0.0933 -0.2507
  414TMC3    C6 6179   3.415   4.171  15.347 -0.0902  0.1520 -0.5648
  414TMC3     C 6180   3.213   4.429  15.599 -0.6449  0.4584  0.1498
  414TMC3     O 6181   3.226   4.416  15.720 -0.7962  0.3058  0.3115
  414TMC3     H 6182   3.336   4.203  15.676  0.7481  0.7019  0.3861
  414TMC3    H1 6183   3.269   4.464  15.328  0.1848  0.7895  0.7319
  414TMC3    H2 6184   3.469   4.107  15.280  2.0594  0.0150  1.2947
  414TMC3    C7 6185   3.475   4.348  15.221  0.3658 -0.3224 -0.6683
  414TMC3    C8 6186   3.511   4.063  15.532 -0.2686 -0.1915  0.1277
  414TMC3    O1 6187   3.578   4.372  15.286  0.3729 -0.1802  0.3878
  414TMC3    O2 6188   3.550   3.973  15.459  0.0637 -0.6885 -0.4039
  415TMC3    C1 6189   2.858   3.000   9.793  0.5738 -0.2094 -0.6721
  415TMC3    C2 6190   2.945   2.996   9.685  0.6452 -0.0075 -0.0119
  415TMC3    C3 6191   2.901   3.054   9.564  0.0079 -0.0928  0.3434
  415TMC3    C4 6192   2.737   3.054   9.779 -0.9406 -0.5376 -0.0907
  415TMC3    C5 6193   2.689   3.113   9.662 -0.3050 -0.2444 -0.4715
  415TMC3    C6 6194   2.780   3.115   9.551 -0.3949 -0.3040  0.2551
  415TMC3     C 6195   2.890   2.960   9.932  0.2506  0.3394 -0.8407
  415TMC3     O 6196   2.800   2.964  10.018  0.5257 -0.1165 -0.2216
  415TMC3     H 6197   3.049   2.966   9.689  0.5162 -0.2589  1.2047
  415TMC3    H1 6198   2.668   3.049   9.863  1.6342  1.9698  2.1948
  415TMC3    H2 6199   2.747   3.164   9.460 -2.0077 -1.4527  0.2291
  415TMC3    C7 6200   2.549   3.145   9.633 -0.0464 -0.3840  0.7637
  415TMC3    C8 6201   2.994   3.083   9.459 -0.6610  0.5852 -0.1666
  415TMC3    O1 6202   2.527   3.187   9.520  0.0877 -0.5083  0.2824
  415TMC3    O2 6203   2.956   3.157   9.369 -0.3141  0.6636  0.4910
  416MPD2     C 6204   0.262   1.736  11.062  0.4770 -0.1353  0.2885
  416MPD2    C1 6205   0.276   1.698  11.192 -0.5418  0.2005 -0.2824
  416MPD2    C2 6206   0.239   1.565  11.224  0.3698 -0.3952 -0.0142
  416MPD2    C3 6207   0.204   1.483  11.124 -0.5810 -0.1877  1.0459
  416MPD2    C4 6208   0.172   1.533  10.993  0.0963 -0.0377  0.1965
  416MPD2    C5 6209   0.214   1.657  10.962  0.1775 -0.3192  0.1037
  416MPD2     H 6210   0.243   1.530  11.327 -2.2889 -1.7002 -0.3561
  416MPD2    H1 6211   0.155   1.467  10.909  2.2228 -0.3852  0.0409
  416MPD2    H2 6212   0.293   1.836  11.032  0.5975 -0.3097 -0.1702
  416MPD2    H3 6213   0.215   1.687  10.858 -0.2042 -0.3675  0.0866
  416MPD2     N 6214   0.175   1.348  11.145  0.3643 -0.1355 -0.2769
  416MPD2    H5 6215   0.130   1.297  11.070 -0.0731  1.8625 -1.3628
  416MPD2    N1 6216   0.298   1.804  11.282 -1.2809  0.1613 -0.2979
  416MPD2    H7 6217   0.314   1.896  11.244  2.0119 -0.3654 -0.1713
  417TMC3    C1 6218   0.321   1.919  11.495  0.0440 -0.3630 -0.0843
  417TMC3    C2 6219   0.320   1.896  11.635 -0.1750  0.2448  0.0976
  417TMC3    C3 6220   0.272   2.001  11.707  0.7401 -0.5126  0.2732
  417TMC3    C4 6221   0.264   2.036  11.439  0.6246  0.1646 -0.3150
  417TMC3    C5 6222   0.207   2.126  11.519  0.1208  0.9273  0.3665
  417TMC3    C6 6223   0.203   2.110  11.654  0.0564 -0.2430 -0.6789
  417TMC3     C 6224   0.303   1.795  11.422 -0.4513 -0.3303  0.1130
  417TMC3     O 6225   0.290   1.691  11.486 -0.1224 -0.0578  0.3655
  417TMC3     H 6226   0.348   1.801  11.679 -0.3949 -0.0688 -0.4369
  417TMC3    H1 6227   0.269   2.039  11.331 -0.6845  0.0808 -0.3797
  417TMC3    H2 6228   0.159   2.192  11.711 -0.5684 -2.0930  1.4769
  417TMC3    C7 6229   0.110   2.218  11.458 -0.4712  0.3616 -0.1373
  417TMC3    C8 6230   0.260   1.996  11.845 -0.1135 -0.8044 -0.9882
  417TMC3    O1 6231   0.128   2.232  11.336 -0.4448  0.3179  0.6189
  417TMC3    O2 6232   0.244   2.105  11.902 -0.2875 -0.4281 -0.0924
  418TMC3    C1 6233   3.999   2.836  17.480  0.6852 -0.5941 -0.5882
  418TMC3    C2 6234   3.888   2.788  17.537 -0.2103  0.2094 -0.1043
  418TMC3    C3 6235   3.829   2.875  17.633  0.3884 -0.0557 -0.1962
  418TMC3    C4 6236   4.056   2.954  17.507 -0.0614  0.1135  1.0876
  418TMC3    C5 6237   4.006   3.033  17.610 -1.4313  0.3292  0.3033
  418TMC3    C6 6238   3.887   2.990  17.664  0.5794  0.6478 -0.0054
  418TMC3     C 6239   4.047   2.764  17.363  0.7821 -0.0555 -0.4405
  418TMC3     O 6240   4.093   2.824  17.271  0.2792  0.4629  0.3306
  418TMC3     H 6241   3.839   2.696  17.508  1.7929 -0.1216 -2.4227
  418TMC3    H1 6242   4.151   2.975  17.460 -0.3013 -0.5498  0.3084
  418TMC3    H2 6243   3.857   3.035   0.060 -0.4199  0.1596 -0.0916
  418TMC3    C7 6244   4.100   3.048   0.025 -0.6648 -0.3136 -0.0792
  418TMC3    C8 6245   3.746   2.807   0.034 -0.1366  0.5064  0.1809
  418TMC3    O1 6246   4.066   2.998   0.133  0.4185  0.1195 -0.5384
  418TMC3    O2 6247   3.767   2.691   0.064  0.5099  0.1546  0.2610
  419MPD2     C 6248   2.439   1.617  12.244  0.0208 -0.2250  0.7447
  419MPD2    C1 6249   2.366   1.730  12.260 -1.0693 -0.5616 -0.8848
  419MPD2    C2 6250   2.325   1.772  12.394  0.3522 -0.5431 -0.6530
  419MPD2    C3 6251   2.369   1.708  12.509 -0.3292 -0.0300 -0.5636
  419MPD2    C4 6252   2.440   1.594  12.489  0.1668 -0.2769  0.1034
  419MPD2    C5 6253   2.476   1.555  12.362  0.4333 -1.0620  0.5881
  419MPD2     H 6254   2.267   1.862  12.409  0.0080 -1.0243  0.9328
  419MPD2    H1 6255   2.470   1.519  12.561  0.5571 -0.9884 -0.7918
  419MPD2    H2 6256   2.463   1.573  12.148  0.0640  2.4606 -0.4921
  419MPD2    H3 6257   2.531   1.462  12.357  2.1191 -0.0721  0.9403
  419MPD2     N 6258   2.344   1.772  12.635  1.1144 -0.3418 -0.0003
  419MPD2    H5 6259   2.276   1.847  12.636 -2.1723 -3.2741  0.2422
  419MPD2    N1 6260   2.335   1.812  12.151 -0.7808 -0.7538 -0.0005
  419MPD2    H7 6261   2.277   1.891  12.174  0.3917 -0.4703  2.0146
  420TMC3    C1 6262   2.356   1.825  12.868 -0.3088  0.2595 -0.3104
  420TMC3    C2 6263   2.233   1.889  12.858  0.0722  0.0409 -0.0350
  420TMC3    C3 6264   2.206   1.974  12.963 -0.8432 -0.0538 -0.0235
  420TMC3    C4 6265   2.437   1.842  12.976 -0.1303  0.8203 -0.0470
  420TMC3    C5 6266   2.398   1.926  13.075 -0.4113  0.1560  0.2809
  420TMC3    C6 6267   2.283   1.993  13.075 -0.0548 -0.0723  0.5641
  420TMC3     C 6268   2.400   1.741  12.756 -0.6934  0.3947  0.5002
  420TMC3     O 6269   2.480   1.654  12.785  0.2491 -0.0550 -0.2142
  420TMC3     H 6270   2.160   1.872  12.781 -0.7391 -2.0864  1.1951
  420TMC3    H1 6271   2.535   1.796  12.978  0.3035  1.6459 -2.6142
  420TMC3    H2 6272   2.252   2.068  13.147 -1.2417  1.2658 -1.3178
  420TMC3    C7 6273   2.457   1.899  13.200  0.0514  0.4124  0.4425
  420TMC3    C8 6274   2.082   2.047  12.953 -0.3911  0.2328 -0.2585
  420TMC3    O1 6275   2.391   1.916  13.298 -0.3876  0.6896 -0.7618
  420TMC3    O2 6276   2.039   2.062  12.838  0.2586  0.3790 -0.4300
  421TMC3    C1 6277   3.767   3.705  13.973 -0.1360  0.1480  0.4001
  421TMC3    C2 6278   3.816   3.790  14.071 -0.2048  0.5768 -0.0270
  421TMC3    C3 6279   3.935   3.762  14.128  0.7798 -0.0173 -0.1335
  421TMC3    C4 6280   3.841   3.595  13.931  0.4480  0.3664  0.5418
  421TMC3    C5 6281   3.959   3.572  13.989  0.0774 -0.1780 -0.2014
  421TMC3    C6 6282   4.001   3.653  14.094 -0.1834 -0.5200 -0.4712
  421TMC3     C 6283   3.632   3.731  13.930  0.4279 -0.7196 -0.1849
  421TMC3     O 6284   3.578   3.837  13.969 -0.3910  0.7877 -0.0015
  421TMC3     H 6285   3.756   3.873  14.108 -0.3520 -0.0564  1.1520
  421TMC3    H1 6286   3.818   3.542  13.840 -0.2091 -0.6043  1.2755
  421TMC3    H2 6287   4.084   3.617  14.154 -0.0008  1.4423  0.4605
  421TMC3    C7 6288   4.026   3.447  13.962  0.7123 -0.5642 -0.1746
  421TMC3    C8 6289   3.981   3.837  14.238 -0.6288  0.5388 -0.0387
  421TMC3    O1 6290   4.149   3.453  13.975 -0.0156 -0.2349 -0.0022
  421TMC3    O2 6291   4.102   3.834  14.254 -0.4017  0.5901 -0.0658
  422TMC3    C1 6292   1.261   4.654  12.624 -0.6052 -0.0546 -0.2596
  422TMC3    C2 6293   1.223   0.060  12.597  0.6675  0.1701 -0.1629
  422TMC3    C3 6294   1.152   0.127  12.693  0.0526  0.6928  0.1118
  422TMC3    C4 6295   1.217   4.587  12.734  0.1819  0.5707  0.3292
  422TMC3    C5 6296   1.137   4.654  12.820  0.3399 -0.0389 -0.0011
  422TMC3    C6 6297   1.098   0.061  12.796 -0.2276 -1.1466  0.8468
  422TMC3     C 6298   1.355   4.594  12.523 -0.6060  1.0444 -0.0231
  422TMC3     O 6299   1.351   4.642  12.410  0.2909  0.5850  0.2930
  422TMC3     H 6300   1.272   0.111  12.515  1.0609 -2.8614 -1.8138
  422TMC3    H1 6301   1.243   4.482  12.743 -0.5276  0.5653  2.2861
  422TMC3    H2 6302   1.048   0.118  12.873 -2.6057  0.0905 -1.6289
  422TMC3    C7 6303   1.073   4.574  12.920  0.5697 -0.0549  0.2330
  422TMC3    C8 6304   1.121   0.266  12.662  0.7566 -0.2728 -0.0606
  422TMC3    O1 6305   1.130   4.483  12.979 -0.4161  0.3384 -0.1370
  422TMC3    O2 6306   1.206   0.328  12.596 -0.2930  0.2451 -0.3340
  423MPD2     C 6307   2.881   1.129   0.904 -0.0486 -0.2611 -0.6190
  423MPD2    C1 6308   2.844   0.997   0.915 -0.3864 -0.4722  0.2704
  423MPD2    C2 6309   2.846   0.915   0.803 -0.6050 -0.1250  0.1831
  423MPD2    C3 6310   2.893   0.966   0.684  0.5289  0.5147  0.2821
  423MPD2    C4 6311   2.926   1.097   0.670 -1.1850  0.0430  0.5880
  423MPD2    C5 6312   2.924   1.175   0.783  0.5151  0.3486 -0.3537
  423MPD2     H 6313   2.825   0.810   0.818 -0.5713 -0.0332  0.8612
  423MPD2    H1 6314   2.968   1.137   0.579 -1.1459  0.2443  0.6937
  423MPD2    H2 6315   2.878   1.196   0.988 -0.7959 -0.6433 -0.3452
  423MPD2    H3 6316   2.947   1.281   0.777 -0.0125  0.4968  0.1949
  423MPD2     N 6317   2.908   0.881   0.569  0.3323 -0.3779 -0.1328
  423MPD2    H5 6318   2.960   0.916   0.490  1.4047  0.6265  1.0243
  423MPD2    N1 6319   2.797   0.940   1.038 -0.1680  0.1541 -0.0112
  423MPD2    H7 6320   2.788   0.839   1.031  3.1183 -0.1588  0.2318
  424TMC3    C1 6321   2.658   0.936   1.236  0.4845  0.1957  0.2307
  424TMC3    C2 6322   2.671   0.803   1.232 -0.6786 -0.0651 -0.3618
  424TMC3    C3 6323   2.570   0.731   1.278 -0.2146  0.7203  0.2531
  424TMC3    C4 6324   2.546   1.003   1.283 -0.1580 -0.4229 -0.6151
  424TMC3    C5 6325   2.446   0.921   1.329  0.0284  0.2914  0.0290
  424TMC3    C6 6326   2.456   0.783   1.332 -0.0713 -0.3347 -0.1393
  424TMC3     C 6327   2.739   1.011   1.142  0.4064 -0.6013 -0.5299
  424TMC3     O 6328   2.750   1.133   1.162  0.0678  0.2737 -0.8264
  424TMC3     H 6329   2.763   0.761   1.192  0.7695  2.3025  0.4738
  424TMC3    H1 6330   2.541   1.112   1.282 -2.6277 -0.5412 -0.3166
  424TMC3    H2 6331   2.377   0.716   1.363  0.6114 -0.2580  1.7486
  424TMC3    C7 6332   2.317   0.990   1.338  0.3012  0.4305 -0.1491
  424TMC3    C8 6333   2.601   0.596   1.328 -1.3853 -0.3913  0.0212
  424TMC3    O1 6334   2.304   1.102   1.286 -0.0323  0.3089 -0.0756
  424TMC3    O2 6335   2.503   0.521   1.337  0.2539 -0.0889  0.4044
  425MPD2     C 6336   1.889   4.564  17.498 -0.4081  0.3792 -0.6482
  425MPD2    C1 6337   1.832   4.441  17.457 -0.1962 -1.2031 -0.0851
  425MPD2    C2 6338   1.702   4.417  17.490  1.0907 -0.2361  0.6937
  425MPD2    C3 6339   1.625   4.514  17.549  0.3591  0.4511  0.2932
  425MPD2    C4 6340   1.676   4.634  17.583 -0.0861 -0.4303 -0.3627
  425MPD2    C5 6341   1.808   4.649  17.561  0.6273  0.3149 -0.0392
  425MPD2     H 6342   1.661   4.325  17.452  1.2188  0.4837 -1.1802
  425MPD2    H1 6343   1.621   4.715  17.630  1.1075 -0.4360  1.0322
  425MPD2    H2 6344   1.992   4.588  17.475 -0.2110  1.3261  1.2204
  425MPD2    H3 6345   1.856   0.013  17.605  0.3539 -0.4369  1.7761
  425MPD2     N 6346   1.487   4.481  17.579 -0.0592  1.2158  0.0033
  425MPD2    H5 6347   1.464   4.385  17.556  1.6278  0.7461  0.2627
  425MPD2    N1 6348   1.903   4.343  17.386 -0.1539  0.0471 -0.1780
  425MPD2    H7 6349   1.844   4.267  17.352 -2.1079  1.1710  0.6712
  426TMC3    C1 6350   2.081   4.232  17.290  0.1034  0.5614 -0.4390
  426TMC3    C2 6351   1.994   4.183  17.197 -0.5016 -0.4240 -0.2128
  426TMC3    C3 6352   2.043   4.110  17.096  0.0473 -0.2514  0.0623
  426TMC3    C4 6353   2.212   4.189  17.288  0.0295 -0.9635 -0.2619
  426TMC3    C5 6354   2.259   4.100  17.193  0.2232  0.5431 -0.2460
  426TMC3    C6 6355   2.170   4.057  17.096  0.5697 -0.2157 -0.7795
  426TMC3     C 6356   2.039   4.341  17.374 -0.7535 -0.1625 -0.3219
  426TMC3     O 6357   2.131   4.413  17.406 -0.3750  0.1137 -0.1535
  426TMC3     H 6358   1.894   4.223  17.184 -1.5400 -3.3179 -1.2178
  426TMC3    H1 6359   2.286   4.233  17.354 -1.9183 -0.8337  1.8409
  426TMC3    H2 6360   2.199   3.976  17.030  0.6146 -2.1684  1.6136
  426TMC3    C7 6361   2.342   3.996  17.230  0.0788  0.1206 -0.2432
  426TMC3    C8 6362   1.949   4.028  17.021  0.7288  0.0570  0.0503
  426TMC3    O1 6363   2.408   3.943  17.141 -0.1655 -0.0553 -0.1773
  426TMC3    O2 6364   1.995   3.957  16.934  0.0962  0.3382  0.7357
  427MPD2     C 6365   0.645   2.156  14.706 -0.0700 -0.1019  0.6773
  427MPD2    C1 6366   0.609   2.039  14.777  0.2455  0.1880 -0.0245
  427MPD2    C2 6367   0.480   2.014  14.814 -0.2552  0.1089  0.4383
  427MPD2    C3 6368   0.386   2.109  14.779 -0.3640  0.3517  0.6423
  427MPD2    C4 6369   0.416   2.220  14.703 -0.1945 -0.3771  0.2807
  427MPD2    C5 6370   0.549   2.248  14.676  0.1520 -0.4725  0.2822
  427MPD2     H 6371   0.466   1.928  14.878 -0.2050 -0.5061 -0.3696
  427MPD2    H1 6372   0.336   2.291  14.684 -1.4736 -1.3001  2.1979
  427MPD2    H2 6373   0.746   2.179  14.674 -1.2998  1.4072 -2.1867
  427MPD2    H3 6374   0.577   2.345  14.638  1.3262 -0.6627  0.6637
  427MPD2     N 6375   0.248   2.090  14.808 -0.0138  0.0494 -0.4345
  427MPD2    H5 6376   0.183   2.155  14.765  0.7700  0.5063 -0.9172
  427MPD2    N1 6377   0.695   1.940  14.816 -0.2262 -0.0256 -0.5002
  427MPD2    H7 6378   0.660   1.874  14.884  1.1550  0.3460  0.5800
  428TMC3    C1 6379   0.898   1.838  14.871  0.3578  0.2478  0.1221
  428TMC3    C2 6380   0.839   1.716  14.899  0.3657  0.1915 -0.2809
  428TMC3    C3 6381   0.902   1.629  14.986 -0.0986 -0.1787 -0.0380
  428TMC3    C4 6382   1.017   1.870  14.931  0.4307  0.1649  0.2873
  428TMC3    C5 6383   1.081   1.779  15.011  0.3782 -0.0821  1.0084
  428TMC3    C6 6384   1.020   1.665  15.048 -0.0127 -0.0609  0.1346
  428TMC3     C 6385   0.827   1.945  14.800 -0.0618 -0.3206 -0.1005
  428TMC3     O 6386   0.896   2.022  14.731  0.6774 -0.4267 -0.0095
  428TMC3     H 6387   0.743   1.685  14.859  0.6007 -0.5821 -0.2450
  428TMC3    H1 6388   1.064   1.966  14.910 -1.4115  1.1593  0.6889
  428TMC3    H2 6389   1.061   1.581  15.104 -0.4109 -0.5302 -0.2735
  428TMC3    C7 6390   1.177   1.837  15.102 -0.0680 -0.1426 -0.4666
  428TMC3    C8 6391   0.838   1.501  15.019 -0.0993 -0.2383 -0.2870
  428TMC3    O1 6392   1.166   1.811  15.220 -0.3917 -0.4645 -0.1970
  428TMC3    O2 6393   0.912   1.411  15.051 -0.0088 -0.3907  0.2732
  429MPD2     C 6394   1.856   1.574   0.334 -0.5283 -0.0282 -0.1577
  429MPD2    C1 6395   1.777   1.510   0.241 -0.3413 -0.3151 -0.1327
  429MPD2    C2 6396   1.753   1.589   0.127  0.5527  0.5602  0.0182
  429MPD2    C3 6397   1.815   1.713   0.109  0.2700  0.2598  0.0434
  429MPD2    C4 6398   1.896   1.772   0.205  0.3904  0.8303  0.8535
  429MPD2    C5 6399   1.917   1.699   0.320 -0.2771 -0.2086  0.6374
  429MPD2     H 6400   1.700   1.544   0.044  2.9432 -0.0967 -1.1414
  429MPD2    H1 6401   1.944   1.868   0.191  0.2720  0.9817  1.4548
  429MPD2    H2 6402   1.880   1.528   0.429 -0.8880 -0.5053 -0.3015
  429MPD2    H3 6403   1.987   1.730   0.397  2.3424 -0.4351 -1.6346
  429MPD2     N 6404   1.794   1.776  17.682 -1.0141  0.6866  0.3196
  429MPD2    H5 6405   1.738   1.731  17.611 -0.2860 -0.3318  0.3903
  429MPD2    N1 6406   1.720   1.379   0.257 -0.0616 -0.0863  0.2552
  429MPD2    H7 6407   1.660   1.338   0.185  0.7504  0.8527 -0.9535
  430TMC3    C1 6408   1.828   1.924  17.509  0.3927 -0.3000 -0.2753
  430TMC3    C2 6409   1.866   2.049  17.470  0.1406 -0.1555  0.3121
  430TMC3    C3 6410   1.905   2.069  17.340 -0.3157  0.0143 -0.0904
  430TMC3    C4 6411   1.821   1.815  17.423  0.1000 -0.1370 -0.1714
  430TMC3    C5 6412   1.863   1.840  17.296  0.1098  0.5489 -0.1763
  430TMC3    C6 6413   1.914   1.962  17.254 -0.5567 -0.2771  0.2669
  430TMC3     C 6414   1.838   1.900  17.649 -0.3317  0.2397 -0.0361
  430TMC3     O 6415   1.899   1.990   0.010 -0.2211 -0.2722 -0.1614
  430TMC3     H 6416   1.851   2.127  17.544  0.6882 -0.4476  0.7297
  430TMC3    H1 6417   1.779   1.717  17.447 -1.9261  0.7572 -0.0173
  430TMC3    H2 6418   1.937   1.978  17.149 -0.7766 -0.7033  0.1550
  430TMC3    C7 6419   1.833   1.739  17.202 -0.6081  0.6953 -0.8781
  430TMC3    C8 6420   1.858   2.187  17.267  0.4339  0.6541  0.1714
  430TMC3    O1 6421   1.832   1.625  17.246  0.1089  0.3487 -0.3600
  430TMC3    O2 6422   1.834   2.177  17.147  0.4549 -0.2074  0.4189
  431MPD2     C 6423   2.371   2.466  12.518  0.4616  0.0469 -0.3763
  431MPD2    C1 6424   2.447   2.491  12.405 -0.6056  0.9718 -0.8176
  431MPD2    C2 6425   2.417   2.433  12.292 -0.0293  0.3738 -0.9466
  431MPD2    C3 6426   2.324   2.330  12.286 -0.0764  0.4874  0.2229
  431MPD2    C4 6427   2.248   2.300  12.397 -0.2925  0.7701  0.2285
  431MPD2    C5 6428   2.270   2.377  12.513  0.9064 -0.7350 -0.1182
  431MPD2     H 6429   2.480   2.460  12.209 -0.4743 -0.2706 -1.4901
  431MPD2    H1 6430   2.175   2.221  12.409  3.3364 -2.5675  0.3444
  431MPD2    H2 6431   2.410   2.514  12.608 -1.2225  0.6662  0.0264
  431MPD2    H3 6432   2.212   2.355  12.602 -1.5428 -0.5878 -1.6891
  431MPD2     N 6433   2.310   2.250  12.177  0.3970  0.1207  0.1779
  431MPD2    H5 6434   2.242   2.176  12.177 -0.5572  0.9915  1.2919
  431MPD2    N1 6435   2.571   2.565  12.397 -0.3389  0.2862 -0.3873
  431MPD2    H7 6436   2.610   2.566  12.304 -1.7161  1.6843 -0.9585
  432TMC3    C1 6437   2.355   2.165  11.960  1.0507 -0.6741  0.6022
  432TMC3    C2 6438   2.424   2.179  11.840  0.0806 -0.1990 -0.0633
  432TMC3    C3 6439   2.490   2.074  11.782 -0.5921  0.4623  0.1085
  432TMC3    C4 6440   2.340   2.041  12.014  0.4398 -0.4841 -0.2133
  432TMC3    C5 6441   2.394   1.931  11.945  0.3209 -0.0180 -0.3927
  432TMC3    C6 6442   2.482   1.944  11.839 -0.0485  0.5099 -0.6716
  432TMC3     C 6443   2.364   2.278  12.049  0.7198  0.3072  0.5299
  432TMC3     O 6444   2.432   2.368  12.009 -0.2285 -1.1381 -0.2798
  432TMC3     H 6445   2.445   2.277  11.799  3.0088 -0.9923 -0.5013
  432TMC3    H1 6446   2.269   2.017  12.092 -0.7663  0.2918 -1.0657
  432TMC3    H2 6447   2.537   1.858  11.803  0.0749 -0.3358  1.5384
  432TMC3    C7 6448   2.404   1.819  12.035  0.4223  0.2355  0.0563
  432TMC3    C8 6449   2.604   2.116  11.696 -0.9330 -0.3666  0.3663
  432TMC3    O1 6450   2.492   1.743  12.001 -0.2352  0.0418 -0.0702
  432TMC3    O2 6451   2.578   2.213  11.627 -0.1333 -0.1465  0.0254
  433MPD2     C 6452   1.086   1.066  10.887  0.2536  0.4830  0.7334
  433MPD2    C1 6453   1.070   0.936  10.941 -0.4631  0.0440  0.5181
  433MPD2    C2 6454   1.079   0.913  11.082  0.7714  0.0741 -0.2837
  433MPD2    C3 6455   1.090   1.022  11.168 -0.8588  0.0769 -1.0746
  433MPD2    C4 6456   1.108   1.144  11.110 -0.2472  0.3158 -0.4718
  433MPD2    C5 6457   1.102   1.165  10.977 -0.3002  0.0407  0.0436
  433MPD2     H 6458   1.088   0.811  11.117 -2.2906 -0.3568 -0.7419
  433MPD2    H1 6459   1.118   1.234  11.171  0.3650 -0.8859  1.1980
  433MPD2    H2 6460   1.080   1.086  10.781  0.8423  0.3124  0.6641
  433MPD2    H3 6461   1.119   1.267  10.945 -1.6997  0.2487 -0.0017
  433MPD2     N 6462   1.118   0.999  11.303 -0.2592  0.7009 -0.3799
  433MPD2    H5 6463   1.126   0.903  11.334 -2.7009  0.5654 -0.1982
  433MPD2    N1 6464   1.048   0.827  10.852 -0.3457 -0.8939  0.3677
  433MPD2    H7 6465   1.065   0.847  10.753  1.1680 -2.5847  0.2868
  434TMC3    C1 6466   1.075   0.598  10.795  0.1660  0.4290  0.1855
  434TMC3    C2 6467   1.142   0.496  10.860 -0.4893  0.3558 -0.5501
  434TMC3    C3 6468   1.264   0.464  10.812 -0.4224 -0.6494  0.5454
  434TMC3    C4 6469   1.117   0.650  10.673 -0.0067  0.0173  0.1531
  434TMC3    C5 6470   1.233   0.590  10.618  0.7960 -0.4123 -0.0960
  434TMC3    C6 6471   1.310   0.505  10.689 -0.5541  0.3833 -0.5713
  434TMC3     C 6472   1.021   0.696  10.887  0.2682  0.1875 -0.4574
  434TMC3     O 6473   0.996   0.645  10.996 -0.2422 -0.7311 -0.3447
  434TMC3     H 6474   1.106   0.452  10.952 -0.5067 -0.2125 -0.8334
  434TMC3    H1 6475   1.045   0.703  10.612  0.2426 -0.6226 -0.6908
  434TMC3    H2 6476   1.395   0.459  10.638 -1.3284 -0.1239 -1.4080
  434TMC3    C7 6477   1.247   0.586  10.476  0.3817 -0.5187 -0.2575
  434TMC3    C8 6478   1.358   0.412  10.897  0.6679 -0.6568 -0.0793
  434TMC3    O1 6479   1.354   0.624  10.430 -0.3604 -0.4993 -0.1301
  434TMC3    O2 6480   1.317   0.369  11.003  0.7580 -0.1790  0.0432
  435MPD2     C 6481   3.186   0.427  15.649  0.3854  0.1339 -0.0983
  435MPD2    C1 6482   3.194   0.418  15.784 -0.6557 -0.4996  0.7473
  435MPD2    C2 6483   3.312   0.412  15.847 -0.1424  0.3722 -0.0500
  435MPD2    C3 6484   3.432   0.434  15.781  0.1484 -0.2982  1.1354
  435MPD2    C4 6485   3.426   0.448  15.643 -0.2875 -0.4233 -0.4397
  435MPD2    C5 6486   3.307   0.443  15.581  0.0815  0.2471 -0.5540
  435MPD2     H 6487   3.311   0.393  15.953  0.0403 -1.9371 -0.4537
  435MPD2    H1 6488   3.511   0.459  15.576  1.2365  0.0929  1.5897
  435MPD2    H2 6489   3.094   0.440  15.594 -0.5856 -2.5438  0.9124
  435MPD2    H3 6490   3.286   0.449  15.475  1.1023  1.5381 -0.6839
  435MPD2     N 6491   3.551   0.417  15.863 -0.2985 -0.0093  0.0053
  435MPD2    H5 6492   3.542   0.420  15.964  0.5743 -0.2553  0.0905
  435MPD2    N1 6493   3.077   0.410  15.858 -0.1777  0.5211  0.4259
  435MPD2    H7 6494   3.085   0.394  15.958 -0.2667 -1.4952  0.1040
  436TMC3    C1 6495   2.791   0.566  16.121 -0.3459 -0.3680 -0.0974
  436TMC3    C2 6496   2.885   0.496  16.044  0.0173  0.3576  0.2383
  436TMC3    C3 6497   2.846   0.454  15.919  0.2034  1.0401  0.0601
  436TMC3    C4 6498   2.670   0.607  16.074  0.4012  0.5167 -0.0965
  436TMC3    C5 6499   2.631   0.557  15.954  0.8630 -0.1191 -0.2993
  436TMC3    C6 6500   2.716   0.477  15.879  0.6416 -0.0656  0.0693
  436TMC3     C 6501   2.841   0.652  16.231  0.9106 -0.7477  0.4288
  436TMC3     O 6502   2.957   0.693  16.221 -0.4984 -0.2651 -0.9529
  436TMC3     H 6503   2.984   0.477  16.085  1.4052  2.0459 -2.3450
  436TMC3    H1 6504   2.597   0.656  16.138  0.3445  1.3757 -0.8213
  436TMC3    H2 6505   2.672   0.437  15.789 -0.7479  0.3094  0.5860
  436TMC3    C7 6506   2.502   0.589  15.910  0.4572  0.4871  0.0062
  436TMC3    C8 6507   2.947   0.423  15.818 -0.2014  0.8295 -0.1119
  436TMC3    O1 6508   2.446   0.678  15.975  0.1918 -0.5618  0.0056
  436TMC3    O2 6509   2.899   0.384  15.714  0.5802  0.4964 -0.0524
  437TMC3    C1 6510   1.736   2.912  12.452 -0.0225 -0.4228  0.4098
  437TMC3    C2 6511   1.630   2.991  12.486 -0.1495  0.5683 -0.3860
  437TMC3    C3 6512   1.576   3.072  12.393  0.0102 -0.4063  0.1219
  437TMC3    C4 6513   1.788   2.914  12.330  0.4591  0.3661 -0.9890
  437TMC3    C5 6514   1.738   3.007  12.240  0.4193  0.1559 -0.4406
  437TMC3    C6 6515   1.631   3.085  12.265 -0.1896  0.2427  0.2603
  437TMC3     C 6516   1.806   2.833  12.557  0.0606 -0.9067  0.0346
  437TMC3     O 6517   1.740   2.779  12.645  0.3722 -0.3422  0.0803
  437TMC3     H 6518   1.588   2.972  12.584 -1.0658 -0.4583 -0.9677
  437TMC3    H1 6519   1.884   2.865  12.314 -0.1979 -1.2902  0.1704
  437TMC3    H2 6520   1.595   3.167  12.205  2.0652  0.7069 -0.4715
  437TMC3    C7 6521   1.831   3.060  12.149  0.1692  0.3872 -0.6502
  437TMC3    C8 6522   1.491   3.175  12.443 -0.2044 -0.1711  0.5029
  437TMC3    O1 6523   1.783   3.112  12.053 -0.6682 -0.5052  0.1790
  437TMC3    O2 6524   1.511   3.213  12.557 -0.2708  0.0902  0.0385
  438MPD2     C 6525   4.335   3.223  16.378  0.0630 -0.1973 -0.3322
  438MPD2    C1 6526   4.422   3.271  16.473 -0.0877  0.2903  0.1482
  438MPD2    C2 6527   4.385   3.286  16.603  0.9719  0.2421 -0.8285
  438MPD2    C3 6528   4.250   3.269  16.633 -0.1382  0.3140 -0.4379
  438MPD2    C4 6529   4.166   3.229  16.531  0.6918 -1.3230 -0.0196
  438MPD2    C5 6530   4.209   3.194  16.408 -0.1612  0.1029 -0.4541
  438MPD2     H 6531   4.451   3.322  16.681 -0.6281 -0.9847  1.1120
  438MPD2    H1 6532   4.061   3.233  16.558  0.4218  0.6766 -1.3435
  438MPD2    H2 6533   4.365   3.192  16.278 -0.3786 -0.2365 -0.4513
  438MPD2    H3 6534   4.140   3.153  16.335  0.5495  0.2859 -1.2273
  438MPD2     N 6535   4.207   3.275  16.765  0.0979 -0.3965  0.5831
  438MPD2    H5 6536   4.110   3.252  16.784 -0.1353 -1.5777 -2.0751
  438MPD2    N1 6537   4.555   3.302  16.435 -0.0439 -0.3883  0.1203
  438MPD2    H7 6538   4.610   3.342  16.510 -0.5037  0.9158 -0.2443
  439TMC3    C1 6539   0.029   3.325  16.302 -0.2274 -0.6062  0.4571
  439TMC3    C2 6540   0.085   3.377  16.183  0.2197  0.0087  0.4683
  439TMC3    C3 6541   0.222   3.373  16.174 -0.5792  0.1695 -0.3389
  439TMC3    C4 6542   0.101   3.271  16.400 -0.3022 -0.1778  0.3227
  439TMC3    C5 6543   0.239   3.274  16.389 -0.4282  0.4912 -0.6584
  439TMC3    C6 6544   0.295   3.328  16.274 -0.6151 -0.2026 -0.3040
  439TMC3     C 6545   4.605   3.312  16.307  0.3460 -0.2647  0.5025
  439TMC3     O 6546   4.541   3.318  16.204  0.4625 -0.3406  0.2507
  439TMC3     H 6547   0.022   3.402  16.100  1.5176  0.3096 -0.4271
  439TMC3    H1 6548   0.063   3.213  16.484  0.7025 -2.2233 -0.6403
  439TMC3    H2 6549   0.403   3.333  16.276 -0.5845 -1.2670  0.7354
  439TMC3    C7 6550   0.298   3.169  16.464  0.0428 -0.2576 -0.7804
  439TMC3    C8 6551   0.292   3.436  16.071  0.0260 -0.8993  0.1115
  439TMC3    O1 6552   0.266   3.144  16.579  0.2934 -0.4368 -0.1820
  439TMC3    O2 6553   0.364   3.532  16.114  0.3585  0.5286  0.4375
  440MPD2     C 6554   3.501   3.635  15.073 -0.5095  0.2925 -0.5247
  440MPD2    C1 6555   3.539   3.707  15.187 -0.2352 -0.0690 -0.1911
  440MPD2    C2 6556   3.660   3.693  15.244  0.3716 -0.2469  0.2421
  440MPD2    C3 6557   3.758   3.612  15.190  0.7359 -0.1887 -1.0347
  440MPD2    C4 6558   3.722   3.535  15.078  0.0298 -0.1953  0.3133
  440MPD2    C5 6559   3.595   3.548  15.024  0.6187  0.5194 -0.2422
  440MPD2     H 6560   3.676   3.749  15.335 -0.1354 -0.9325  0.7532
  440MPD2    H1 6561   3.795   3.481  15.018  2.2189 -0.4660  3.2065
  440MPD2    H2 6562   3.404   3.655  15.028 -0.7619 -0.7665 -0.4476
  440MPD2    H3 6563   3.561   3.495  14.935 -0.4067  1.9586 -0.7091
  440MPD2     N 6564   3.893   3.613  15.231  0.1470 -0.2638 -0.1335
  440MPD2    H5 6565   3.956   3.545  15.191  0.9182  1.0938 -1.2245
  440MPD2    N1 6566   3.448   3.788  15.262 -0.1149 -0.2040  0.2100
  440MPD2    H7 6567   3.488   3.827  15.347 -2.1212 -0.3284  1.1975
  441TMC3    C1 6568   4.092   3.688  15.345  0.5045 -0.1749 -0.0675
  441TMC3    C2 6569   4.139   3.803  15.401 -0.0879 -0.4715 -0.1469
  441TMC3    C3 6570   4.181   3.791  15.528 -0.4133  0.3560 -0.1258
  441TMC3    C4 6571   4.124   3.562  15.398  0.1027 -0.1386 -0.6206
  441TMC3    C5 6572   4.173   3.555  15.523 -0.1386 -0.2191  0.5825
  441TMC3    C6 6573   4.209   3.671  15.590 -0.8158  0.4952  0.2840
  441TMC3     C 6574   3.948   3.702  15.315  0.0410 -0.2526 -0.5441
  441TMC3     O 6575   3.900   3.808  15.351 -0.0452  0.7962  0.4430
  441TMC3     H 6576   4.113   3.904  15.370 -1.3504 -0.5551  0.6313
  441TMC3    H1 6577   4.093   3.469  15.351  1.7976 -0.4775 -1.0705
  441TMC3    H2 6578   4.234   3.672  15.696  3.2959  2.3326 -0.7261
  441TMC3    C7 6579   4.106   3.442  15.597 -0.8849 -0.0769  0.3223
  441TMC3    C8 6580   4.124   3.871  15.621 -0.2129 -0.0105  0.2347
  441TMC3    O1 6581   4.035   3.363  15.535  0.1065  0.1075 -0.0630
  441TMC3    O2 6582   4.182   3.885  15.729  0.3287 -0.0852  0.3643
  442MPD2     C 6583   1.583   3.845  16.563  0.8209  0.4278  0.7851
  442MPD2    C1 6584   1.446   3.839  16.549  0.3111  0.3999 -0.0549
  442MPD2    C2 6585   1.401   3.761  16.440  0.3215 -0.0438  0.4184
  442MPD2    C3 6586   1.489   3.699  16.348  0.5758 -0.2343 -0.8793
  442MPD2    C4 6587   1.626   3.717  16.363  0.0566  0.1040  0.2379
  442MPD2    C5 6588   1.669   3.796  16.466  0.8118 -0.0408  0.2135
  442MPD2     H 6589   1.297   3.731  16.437 -1.2176  5.0679  2.1294
  442MPD2    H1 6590   1.698   3.675  16.295 -0.2073  0.6100 -0.3533
  442MPD2    H2 6591   1.632   3.894  16.646  2.0598  0.8922 -0.2221
  442MPD2    H3 6592   1.776   3.794  16.482  0.5671  1.0761  1.9838
  442MPD2     N 6593   1.451   3.613  16.241 -0.2701 -0.5763  0.4488
  442MPD2    H5 6594   1.526   3.578  16.184 -1.0217  0.4012 -1.1405
  442MPD2    N1 6595   1.356   3.899  16.635 -0.1215 -0.0534  0.1419
  442MPD2    H7 6596   1.263   3.858  16.643 -0.8515  1.3770 -0.8464
  443TMC3    C1 6597   1.300   4.017  16.826  0.1239  0.8168 -0.7116
  443TMC3    C2 6598   1.276   4.137  16.886  0.3641  0.2586 -0.1162
  443TMC3    C3 6599   1.179   4.137  16.995 -0.2014  0.1966 -0.6588
  443TMC3    C4 6600   1.250   3.902  16.883  0.7742 -0.5331 -0.2584
  443TMC3    C5 6601   1.180   3.905  17.001 -0.4546 -0.2184 -0.1120
  443TMC3    C6 6602   1.135   4.017  17.047 -0.1993 -0.6317  0.2446
  443TMC3     C 6603   1.392   4.001  16.719 -0.2105  0.3243  0.7684
  443TMC3     O 6604   1.465   4.090  16.693 -0.5867 -0.6020 -0.5875
  443TMC3     H 6605   1.329   4.224  16.849  0.6984  0.5339  1.0236
  443TMC3    H1 6606   1.289   3.807  16.846  2.4498  0.2548 -0.4801
  443TMC3    H2 6607   1.057   4.021  17.123 -0.6068  2.7111 -0.3419
  443TMC3    C7 6608   1.123   3.784  17.054 -0.6355 -0.6304 -0.7367
  443TMC3    C8 6609   1.123   4.263  17.045  0.0474  0.5375  0.1798
  443TMC3    O1 6610   1.109   3.687  16.984  0.2951  0.0236 -0.0091
  443TMC3    O2 6611   1.103   4.267  17.168 -0.2565 -0.9454  0.3033
  444MPD2     C 6612   1.621   3.496  17.181  0.0896 -0.6692 -0.1918
  444MPD2    C1 6613   1.552   3.380  17.185 -0.2989  0.1264  0.0105
  444MPD2    C2 6614   1.621   3.269  17.143 -0.7137 -0.3771  0.0535
  444MPD2    C3 6615   1.748   3.274  17.090 -0.2571  0.0949 -0.2628
  444MPD2    C4 6616   1.815   3.396  17.085  0.1989  0.5022 -0.4661
  444MPD2    C5 6617   1.747   3.507  17.132  0.1801 -0.4914 -0.5452
  444MPD2     H 6618   1.574   3.171  17.135 -1.3611 -0.0606 -0.0212
  444MPD2    H1 6619   1.919   3.410  17.055  0.7605 -2.1164  0.3343
  444MPD2    H2 6620   1.574   3.591  17.204  0.5509 -1.0259  2.1402
  444MPD2    H3 6621   1.795   3.604  17.131  0.6110 -0.7118 -1.0609
  444MPD2     N 6622   1.807   3.154  17.058 -0.6816  0.0504  0.4939
  444MPD2    H5 6623   1.766   3.067  17.091 -1.6885  0.2058 -0.3531
  444MPD2    N1 6624   1.422   3.361  17.242  0.3118 -0.0793  0.3296
  444MPD2    H7 6625   1.390   3.265  17.244 -1.8862  0.6693  0.6946
  445TMC3    C1 6626   1.980   3.020  16.985  0.2962  0.2163 -0.5154
  445TMC3    C2 6627   1.955   2.926  17.079  0.2282 -0.1768  0.4788
  445TMC3    C3 6628   2.008   2.800  17.058 -0.4028 -0.2207  0.2142
  445TMC3    C4 6629   2.052   2.990  16.871 -0.0637 -0.4149 -0.1294
  445TMC3    C5 6630   2.104   2.864  16.856 -0.7978 -0.9776 -0.6423
  445TMC3    C6 6631   2.082   2.766  16.947  0.1540  0.4674 -0.3988
  445TMC3     C 6632   1.926   3.145  16.991  0.4276  0.0356  1.0124
  445TMC3     O 6633   1.981   3.230  16.926 -0.0500 -0.5330  0.0898
  445TMC3     H 6634   1.881   2.942  17.156  0.8912 -0.7844  1.2513
  445TMC3    H1 6635   2.069   3.073  16.803 -1.0738  0.6825  0.9520
  445TMC3    H2 6636   2.114   2.663  16.936 -1.7886 -0.2103  0.2760
  445TMC3    C7 6637   2.178   2.835  16.739  0.1569 -0.1486 -0.4684
  445TMC3    C8 6638   2.005   2.689  17.156 -0.4461  0.1512  0.7668
  445TMC3    O1 6639   2.263   2.920  16.717  0.5785  0.6574  0.0372
  445TMC3    O2 6640   2.028   2.574  17.122  0.6771  0.8975  0.1416
  446MPD2     C 6641   1.000   0.202  11.435  0.3453 -0.0506  0.0568
  446MPD2    C1 6642   0.965   0.261  11.316  0.1102 -0.3746 -0.3048
  446MPD2    C2 6643   1.060   0.349  11.259  0.0799  0.3732 -0.0820
  446MPD2    C3 6644   1.183   0.369  11.316 -0.8105 -0.8738  0.3293
  446MPD2    C4 6645   1.213   0.291  11.424 -0.3546 -0.3831  0.1406
  446MPD2    C5 6646   1.118   0.212  11.488 -0.6177 -0.6625  0.1181
  446MPD2     H 6647   1.037   0.398  11.166 -1.1640 -1.8863 -0.9796
  446MPD2    H1 6648   1.297   0.315  11.487 -0.3928 -0.3337  0.1721
  446MPD2    H2 6649   0.931   0.143  11.495  1.8125  0.1297  1.9175
  446MPD2    H3 6650   1.140   0.169  11.585  0.9434  0.8831  0.4505
  446MPD2     N 6651   1.262   0.478  11.266 -0.0481  0.4563  0.4727
  446MPD2    H5 6652   1.232   0.540  11.191  3.0627 -1.4329 -2.3231
  446MPD2    N1 6653   0.841   0.236  11.250  1.0121  0.5881  0.5634
  446MPD2    H7 6654   0.835   0.291  11.164  0.8366  0.2984  0.3923
  447TMC3    C1 6655   1.442   0.610  11.246  0.5871  1.1573 -0.7951
  447TMC3    C2 6656   1.394   0.655  11.125 -0.7289 -0.0349  0.0698
  447TMC3    C3 6657   1.479   0.717  11.046 -0.1613  0.0903  0.3501
  447TMC3    C4 6658   1.575   0.624  11.282 -0.0918  0.9617  0.2703
  447TMC3    C5 6659   1.660   0.683  11.191 -0.4055  0.1163  1.0538
  447TMC3    C6 6660   1.611   0.724  11.070 -0.2253 -0.2094  0.2552
  447TMC3     C 6661   1.383   0.504  11.315  0.0794 -0.4643 -0.3293
  447TMC3     O 6662   1.454   0.446  11.396  0.2179  0.1247 -0.3340
  447TMC3     H 6663   1.289   0.654  11.100 -0.4859 -2.3810 -0.8522
  447TMC3    H1 6664   1.609   0.601  11.383 -0.1082  0.7251  0.2221
  447TMC3    H2 6665   1.674   0.747  10.984  0.0624 -0.7927  0.3117
  447TMC3    C7 6666   1.805   0.668  11.186 -0.0361  0.3711 -0.7048
  447TMC3    C8 6667   1.425   0.793  10.937 -0.3352  0.2079 -0.5523
  447TMC3    O1 6668   1.866   0.721  11.093 -0.3750  0.4461 -0.0515
  447TMC3    O2 6669   1.344   0.739  10.870 -0.4672 -0.1237  0.0601
  448TMC3    C1 6670   4.064   4.690  17.072  1.0912  0.0478 -0.2271
  448TMC3    C2 6671   4.088   4.658  16.943 -0.0164  0.1436  0.0553
  448TMC3    C3 6672   4.195   4.575  16.918 -0.2991 -0.3723 -0.1806
  448TMC3    C4 6673   4.129   4.645  17.185 -0.8158 -0.0484 -0.1652
  448TMC3    C5 6674   4.228   4.558  17.155 -0.2475 -0.1987 -0.4349
  448TMC3    C6 6675   4.268   4.527  17.025 -0.3659 -0.3445  0.4470
  448TMC3     C 6676   4.000   0.102  17.076 -0.0114  0.2965  0.0996
  448TMC3     O 6677   4.012   0.175  16.977  0.2706 -0.2537  0.1148
  448TMC3     H 6678   4.026   4.689  16.859 -0.4625  1.4258  0.8490
  448TMC3    H1 6679   4.134   4.690  17.283  0.6492  0.8298 -0.6503
  448TMC3    H2 6680   4.351   4.462  17.000  0.5464  1.3062 -0.7878
  448TMC3    C7 6681   4.329   4.542  17.253  0.4019 -0.1731 -0.7222
  448TMC3    C8 6682   4.202   4.505  16.791  0.4413 -0.6253 -0.4471
  448TMC3    O1 6683   4.448   4.551  17.225 -0.0952  0.0253  0.6917
  448TMC3    O2 6684   4.244   4.390  16.802  0.1597  0.2393 -0.1001
  449MPD2     C 6685   1.235   3.258  13.850  0.2487  0.0836 -0.3706
  449MPD2    C1 6686   1.116   3.253  13.779  0.7097 -0.2920  0.0727
  449MPD2    C2 6687   0.998   3.257  13.852  0.1232 -0.0582 -0.3534
  449MPD2    C3 6688   0.995   3.270  13.986  0.7530 -0.7074  0.2240
  449MPD2    C4 6689   1.115   3.270  14.058 -0.2994 -0.0150 -0.2769
  449MPD2    C5 6690   1.235   3.265  13.988 -0.1152 -0.8407  0.1037
  449MPD2     H 6691   0.902   3.262  13.802  0.3437  0.4885 -0.7269
  449MPD2    H1 6692   1.117   3.262  14.166 -0.2064  1.6338 -0.1479
  449MPD2    H2 6693   1.328   3.260  13.795  1.8280  0.4014  2.3127
  449MPD2    H3 6694   1.326   3.251  14.045 -1.0292  0.3968  1.8489
  449MPD2     N 6695   0.869   3.266  14.047 -0.6868 -0.4885 -0.1388
  449MPD2    H5 6696   0.784   3.280  13.992  0.1198 -0.4450 -1.3729
  449MPD2    N1 6697   1.107   3.250  13.644 -0.2312 -0.1999 -0.8333
  449MPD2    H7 6698   1.010   3.247  13.615 -0.5487  0.1548  0.1858
  450TMC3    C1 6699   1.133   3.266  13.418  0.5381  0.2961  0.2177
  450TMC3    C2 6700   1.177   3.167  13.331  0.2079 -0.1221 -0.1744
  450TMC3    C3 6701   1.077   3.098  13.270  0.8445  0.4154 -0.3217
  450TMC3    C4 6702   1.001   3.300  13.428  0.8757  0.4730  0.3291
  450TMC3    C5 6703   0.907   3.231  13.363  0.0847 -0.1320  0.0190
  450TMC3    C6 6704   0.939   3.122  13.296  0.3822 -0.6571  0.4952
  450TMC3     C 6705   1.198   3.251  13.548 -0.7422 -0.2242 -0.1529
  450TMC3     O 6706   1.323   3.250  13.543  0.0110  0.8213 -0.5339
  450TMC3     H 6707   1.280   3.132  13.335  0.7981  1.4032 -1.9372
  450TMC3    H1 6708   0.977   3.393  13.479 -0.1529  0.7567 -0.6702
  450TMC3    H2 6709   0.872   3.066  13.233 -0.8502 -0.1014  1.3078
  450TMC3    C7 6710   0.794   3.220  13.455 -0.3599  0.2478 -0.3560
  450TMC3    C8 6711   1.114   3.041  13.141 -0.2633  0.1043  0.2592
  450TMC3    O1 6712   0.814   3.239  13.571  0.1806  0.2472 -0.3440
  450TMC3    O2 6713   1.027   3.045  13.057  0.2906  0.0707  0.1036
  451MPD2     C 6714   1.828   1.114   1.893 -0.0349  0.3319  0.2220
  451MPD2    C1 6715   1.894   1.182   1.795 -0.2342 -0.3616 -0.5339
  451MPD2    C2 6716   2.035   1.204   1.797 -0.8153  0.4812  0.1456
  451MPD2    C3 6717   2.109   1.148   1.900  0.0269 -0.3344 -0.3678
  451MPD2    C4 6718   2.042   1.088   2.001 -0.7428 -0.2398 -0.6602
  451MPD2    C5 6719   1.906   1.060   1.990 -0.6202 -0.0929 -1.3520
  451MPD2     H 6720   2.078   1.263   1.717 -0.3851  0.2831  0.2288
  451MPD2    H1 6721   2.090   1.056   2.093  1.3488  1.3750 -1.1832
  451MPD2    H2 6722   1.720   1.103   1.886  0.3030 -0.9819 -2.8438
  451MPD2    H3 6723   1.854   1.000   2.064  0.2015  0.0380 -0.6712
  451MPD2     N 6724   2.251   1.155   1.921  0.5032  0.2222  0.1519
  451MPD2    H5 6725   2.284   1.103   2.002 -1.8223 -0.0798  0.9051
  451MPD2    N1 6726   1.804   1.245   1.712 -0.0272 -0.1203  0.5520
  451MPD2    H7 6727   1.705   1.232   1.730 -0.4742  1.8966 -0.4191
  452TMC3    C1 6728   2.470   1.226   1.904  0.1573  0.5936 -0.6506
  452TMC3    C2 6729   2.513   1.121   1.970 -0.3657  0.1478 -0.0097
  452TMC3    C3 6730   2.643   1.118   2.020 -0.1077  0.6536  0.1377
  452TMC3    C4 6731   2.551   1.335   1.896 -0.0334  0.2194 -0.0718
  452TMC3    C5 6732   2.677   1.325   1.940 -0.2413 -0.0592 -0.5880
  452TMC3    C6 6733   2.729   1.215   2.003  0.0453  0.9194 -0.0668
  452TMC3     C 6734   2.338   1.222   1.843  0.2614 -0.2963  0.1022
  452TMC3     O 6735   2.312   1.308   1.761  1.0801 -0.1147  0.0288
  452TMC3     H 6736   2.452   1.032   1.974  0.1956 -0.2748 -0.8937
  452TMC3    H1 6737   2.529   1.421   1.834 -0.2371  1.6739  2.0254
  452TMC3    H2 6738   2.837   1.209   1.995 -0.3034 -3.4181 -1.6629
  452TMC3    C7 6739   2.760   1.442   1.922  0.5378 -0.3497 -0.1931
  452TMC3    C8 6740   2.695   0.987   2.050  0.4565  0.7835  0.2275
  452TMC3    O1 6741   2.727   1.534   1.849 -0.2123 -0.1961 -0.2826
  452TMC3    O2 6742   2.619   0.892   2.034  0.2329 -0.3149 -0.6169
  453TMC3    C1 6743   3.532   3.992  11.620 -0.0677  0.2711 -0.1402
  453TMC3    C2 6744   3.486   3.871  11.659  0.1479 -1.3096  0.1015
  453TMC3    C3 6745   3.435   3.791  11.561 -0.0471  0.2981  0.5716
  453TMC3    C4 6746   3.546   4.043  11.494  0.3369 -0.5324  0.2627
  453TMC3    C5 6747   3.480   3.961  11.403  0.2505  0.1460 -0.0874
  453TMC3    C6 6748   3.419   3.840  11.432  0.6286  0.2191  0.1550
  453TMC3     C 6749   3.623   4.068  11.707  0.0699  0.4701 -0.8684
  453TMC3     O 6750   3.684   4.158  11.661 -0.2238  0.5601 -0.3926
  453TMC3     H 6751   3.474   3.830  11.758 -3.6436  0.1921  0.3019
  453TMC3    H1 6752   3.585   4.140  11.467 -0.0321 -0.2306  0.8189
  453TMC3    H2 6753   3.362   3.778  11.363  0.4071  1.4620 -0.7869
  453TMC3    C7 6754   3.450   4.005  11.267 -0.6215 -0.6836  0.3101
  453TMC3    C8 6755   3.334   3.683  11.605 -0.0193 -0.3907 -0.7504
  453TMC3    O1 6756   3.359   3.955  11.206  0.7862  0.5600  0.0742
  453TMC3    O2 6757   3.228   3.687  11.548 -0.0205 -0.0608  0.2823
  454MPD2     C 6758   2.340   3.150  16.373  0.4596 -0.0378 -0.2985
  454MPD2    C1 6759   2.226   3.083  16.356 -0.3656  0.6691  0.1042
  454MPD2    C2 6760   2.118   3.112  16.441 -0.6515 -0.3307 -0.6405
  454MPD2    C3 6761   2.116   3.217  16.530 -0.2219  0.0665  0.5014
  454MPD2    C4 6762   2.233   3.289  16.538 -0.7308  0.4867  0.2409
  454MPD2    C5 6763   2.343   3.254  16.463 -0.2645 -0.7596 -0.0744
  454MPD2     H 6764   2.031   3.053  16.414 -0.6574 -0.5600 -0.1135
  454MPD2    H1 6765   2.252   3.372  16.606 -1.8750  0.0945  1.0351
  454MPD2    H2 6766   2.429   3.144  16.311  0.5341  1.8918 -0.3792
  454MPD2    H3 6767   2.440   3.303  16.471 -1.5394  1.5256  1.2628
  454MPD2     N 6768   2.002   3.258  16.603 -0.4104 -0.5620  0.0985
  454MPD2    H5 6769   2.009   3.349  16.649  0.2529  0.4897 -2.0597
  454MPD2    N1 6770   2.211   2.974  16.267 -0.5262 -0.1943 -0.1553
  454MPD2    H7 6771   2.119   2.933  16.254  0.5047 -2.4691 -0.2966
  455TMC3    C1 6772   1.777   3.269  16.654  0.4186  0.1407 -0.3985
  455TMC3    C2 6773   1.809   3.386  16.713  0.9073 -0.0350  0.8489
  455TMC3    C3 6774   1.713   3.487  16.701 -0.0184  0.5987  0.3725
  455TMC3    C4 6775   1.654   3.252  16.595  0.7923 -0.3771  1.1252
  455TMC3    C5 6776   1.557   3.347  16.603  0.8371  0.4169 -0.8446
  455TMC3    C6 6777   1.585   3.466  16.655 -0.4892 -0.3634 -0.0030
  455TMC3     C 6778   1.883   3.188  16.614  0.7964 -0.0574 -0.4606
  455TMC3     O 6779   1.852   3.080  16.569 -0.4272  0.2006 -0.5463
  455TMC3     H 6780   1.902   3.403  16.765  1.0290  1.5876  0.1229
  455TMC3    H1 6781   1.625   3.160  16.546 -1.6434  0.4866  0.9104
  455TMC3    H2 6782   1.518   3.547  16.627 -0.1824 -0.0688  0.1259
  455TMC3    C7 6783   1.459   3.354  16.491 -0.3824 -0.3344 -0.8776
  455TMC3    C8 6784   1.739   3.603  16.788 -0.6009  0.1247  0.8586
  455TMC3    O1 6785   1.357   3.408  16.527 -0.0176  0.4095  0.1050
  455TMC3    O2 6786   1.852   3.621  16.826 -0.1089 -0.4994  0.0056
  456MPD2     C 6787   0.256   4.044  15.674 -0.1686  0.1310 -0.8400
  456MPD2    C1 6788   0.251   3.918  15.733 -0.0697  0.0450  0.4921
  456MPD2    C2 6789   0.207   3.907  15.862  1.2344 -0.3372 -0.5303
  456MPD2    C3 6790   0.175   4.022  15.927  0.4382 -0.5696  0.5208
  456MPD2    C4 6791   0.186   4.148  15.874 -0.2654  0.4459  0.2675
  456MPD2    C5 6792   0.241   4.157  15.750  0.6425 -0.3039  0.1472
  456MPD2     H 6793   0.196   3.809  15.907  2.9227 -0.7116 -0.9545
  456MPD2    H1 6794   0.155   4.238  15.924  1.2180 -0.7809  3.4144
  456MPD2    H2 6795   0.300   4.056  15.576 -0.2552  0.3438 -0.8547
  456MPD2    H3 6796   0.252   4.256  15.708 -1.8058  0.0327  0.3037
  456MPD2     N 6797   0.114   4.001  16.050  0.1943 -0.0260  0.1436
  456MPD2    H5 6798   0.121   3.906  16.082  0.3573  0.2532  0.9345
  456MPD2    N1 6799   0.289   3.806  15.659  0.2569  0.2595  0.2566
  456MPD2    H7 6800   0.305   3.800  15.558 -3.6155  0.6024 -0.3794
  457TMC3    C1 6801   4.694   4.050  16.233 -0.2956  0.4983  0.2992
  457TMC3    C2 6802   4.574   4.107  16.255  0.3139 -0.2529  0.7325
  457TMC3    C3 6803   4.506   4.067  16.369  0.0827 -0.5788  0.4562
  457TMC3    C4 6804   0.018   3.944  16.308 -0.7068  0.8290 -0.3716
  457TMC3    C5 6805   4.667   3.903  16.420 -0.3812  0.1330  0.5558
  457TMC3    C6 6806   4.550   3.964  16.451 -0.5085 -0.2700 -0.3377
  457TMC3     C 6807   0.042   4.098  16.123 -0.2730  0.0834 -0.2684
  457TMC3     O 6808   0.033   4.214  16.108  0.1963  0.1076  0.1488
  457TMC3     H 6809   4.539   4.187  16.191  1.8048  0.9103  1.3691
  457TMC3    H1 6810   0.125   3.932  16.297 -1.0313 -0.4122 -2.1108
  457TMC3    H2 6811   4.507   3.942  16.548  2.5285 -0.5876  0.9298
  457TMC3    C7 6812   0.011   3.828  16.527 -0.6468 -0.6732  0.2213
  457TMC3    C8 6813   4.428   4.172  16.434 -0.3318 -0.2519  0.2696
  457TMC3    O1 6814   4.687   3.838  16.642  0.3948 -0.4721  0.0579
  457TMC3    O2 6815   4.421   4.176  16.554  0.4319  0.3855 -0.3131
  458MPD2     C 6816   2.304   3.184  12.015 -0.2457  0.2012  0.4187
  458MPD2    C1 6817   2.311   3.131  12.142 -0.2001 -0.1153 -0.3023
  458MPD2    C2 6818   2.191   3.093  12.205 -0.4741 -0.2975  0.2560
  458MPD2    C3 6819   2.071   3.100  12.134  0.2350 -0.2024  0.4371
  458MPD2    C4 6820   2.067   3.164  12.011  0.1754  0.3926  0.2377
  458MPD2    C5 6821   2.184   3.201  11.953 -0.0212  0.3902 -0.1503
  458MPD2     H 6822   2.193   3.049  12.304  2.0610 -1.1564 -0.1802
  458MPD2    H1 6823   1.986   3.156  11.940  0.3625 -2.8204  0.3686
  458MPD2    H2 6824   2.395   3.220  11.968 -0.2167  1.0304  1.0935
  458MPD2    H3 6825   2.168   3.253  11.859  0.6135 -0.8412 -0.9585
  458MPD2     N 6826   1.956   3.060  12.200  0.0661 -0.3055 -0.0168
  458MPD2    H5 6827   1.966   3.010  12.288  0.3574  1.1468  0.7648
  458MPD2    N1 6828   2.435   3.133  12.211  0.1822  0.8621 -0.1571
  458MPD2    H7 6829   2.520   3.157  12.162 -0.2003  1.5701 -0.4726
  459TMC3    C1 6830   2.581   3.124  12.397  0.0714 -0.0026  0.5868
  459TMC3    C2 6831   2.657   3.220  12.341  0.2056 -0.4014 -0.1022
  459TMC3    C3 6832   2.781   3.239  12.393 -0.4604 -0.3258 -0.1081
  459TMC3    C4 6833   2.621   3.047  12.506 -0.5024  0.8658 -0.7021
  459TMC3    C5 6834   2.733   3.090  12.569 -0.3706  0.1990  0.0168
  459TMC3    C6 6835   2.818   3.185  12.514  0.3682  0.2496 -0.1035
  459TMC3     C 6836   2.449   3.098  12.339  0.4658 -0.4622 -0.4275
  459TMC3     O 6837   2.378   3.035  12.416 -0.0403 -0.1731  0.6472
  459TMC3     H 6838   2.626   3.284  12.260  2.1518 -1.0766 -1.3961
  459TMC3    H1 6839   2.566   2.959  12.535  1.0800 -0.1263 -0.7371
  459TMC3    H2 6840   2.915   3.193  12.560 -0.2344 -1.5347  1.5174
  459TMC3    C7 6841   2.769   3.042  12.704  0.0416  0.2924  0.6277
  459TMC3    C8 6842   2.869   3.341  12.341 -0.3917 -0.7272 -0.0634
  459TMC3    O1 6843   2.719   2.936  12.738 -0.4520 -0.1703  0.3350
  459TMC3    O2 6844   2.960   3.357  12.419 -0.2631 -0.1452 -0.2635
  460MPD2     C 6845   1.565   1.094  10.790 -0.1037  0.2744  0.5753
  460MPD2    C1 6846   1.473   0.998  10.808 -0.2173  0.0562 -0.3940
  460MPD2    C2 6847   1.369   0.996  10.714  0.0318 -0.0275  0.0997
  460MPD2    C3 6848   1.343   1.099  10.627  0.5470 -0.1733 -0.1283
  460MPD2    C4 6849   1.426   1.203  10.629  0.1972 -0.5744 -0.6836
  460MPD2    C5 6850   1.540   1.199  10.706  0.3322 -0.2781 -0.1191
  460MPD2     H 6851   1.301   0.911  10.712 -0.1247  0.0227  2.5557
  460MPD2    H1 6852   1.410   1.286  10.562  1.8804 -0.1093 -0.5024
  460MPD2    H2 6853   1.653   1.095  10.854 -1.2795  1.3269  2.1870
  460MPD2    H3 6854   1.605   1.285  10.696  0.3721 -0.5335 -1.9719
  460MPD2     N 6855   1.237   1.075  10.536  0.6242 -0.2726  0.4795
  460MPD2    H5 6856   1.189   0.986  10.538 -0.1083  0.0860 -2.2082
  460MPD2    N1 6857   1.504   0.901  10.903 -0.7806  0.2923 -0.2841
  460MPD2    H7 6858   1.586   0.918  10.960 -0.7549  0.2161 -0.2982
  461TMC3    C1 6859   1.104   1.134  10.338 -0.4773  0.7543  0.1859
  461TMC3    C2 6860   1.097   1.009  10.302 -0.7065  0.1511  0.3789
  461TMC3    C3 6861   0.998   0.978  10.216  0.2047 -0.2304 -0.0692
  461TMC3    C4 6862   1.034   1.232  10.282 -0.4778 -0.0336  0.7164
  461TMC3    C5 6863   0.958   1.201  10.178  0.3329 -0.4518 -0.3565
  461TMC3    C6 6864   0.928   1.074  10.149  0.2769 -0.3744 -0.2423
  461TMC3     C 6865   1.187   1.176  10.450  0.6920 -0.1238 -0.0126
  461TMC3     O 6866   1.221   1.294  10.453  0.1461  0.4625 -0.5521
  461TMC3     H 6867   1.148   0.926  10.350 -0.9438 -1.5054 -2.2086
  461TMC3    H1 6868   1.029   1.332  10.323  3.7047  0.7960 -0.8810
  461TMC3    H2 6869   0.851   1.061  10.073  2.2902 -3.4977 -1.7353
  461TMC3    C7 6870   0.903   1.309  10.087  0.1099  0.4968 -0.9495
  461TMC3    C8 6871   0.974   0.832  10.192 -0.0748 -0.3226  0.2955
  461TMC3    O1 6872   0.790   1.304  10.041 -0.3625 -0.1329  0.6196
  461TMC3    O2 6873   1.060   0.758  10.234  0.2313 -0.3469  0.3253
  462TMC3    C1 6874   1.737   1.750   0.644  0.7702  0.1882  0.2181
  462TMC3    C2 6875   1.850   1.704   0.700  0.2194  0.0019 -0.3144
  462TMC3    C3 6876   1.860   1.572   0.734  0.0811 -0.0220 -0.4839
  462TMC3    C4 6877   1.633   1.667   0.612  0.6903  0.5793  0.3329
  462TMC3    C5 6878   1.647   1.533   0.643 -0.5025  0.3077  0.1201
  462TMC3    C6 6879   1.758   1.485   0.705 -0.0433  0.4547 -0.0652
  462TMC3     C 6880   1.754   1.881   0.581  0.7448 -0.0429 -0.0445
  462TMC3     O 6881   1.861   1.909   0.532 -0.7596  0.0251  0.3076
  462TMC3     H 6882   1.935   1.763   0.733  0.3149  0.8532 -2.1038
  462TMC3    H1 6883   1.547   1.704   0.558  0.8125 -0.7096 -0.7398
  462TMC3    H2 6884   1.773   1.378   0.717 -1.7402  0.3148  0.7810
  462TMC3    C7 6885   1.551   1.430   0.611  0.5989  0.6264  0.1680
  462TMC3    C8 6886   1.993   1.513   0.739  0.2631  0.0139 -0.1186
  462TMC3    O1 6887   1.569   1.317   0.657  0.3888  0.5036 -0.0563
  462TMC3    O2 6888   2.083   1.579   0.785 -0.8730  0.3109 -0.2443
  463MPD2     C 6889   2.413   4.534   1.954  0.1260 -0.1123  1.2831
  463MPD2    C1 6890   2.346   4.640   1.908 -0.6458 -0.3577  0.1559
  463MPD2    C2 6891   2.416   0.029   1.864  0.0575 -0.4398  0.2387
  463MPD2    C3 6892   2.552   0.045   1.886  0.2073  0.1188  0.0943
  463MPD2    C4 6893   2.615   4.661   1.945  0.6030 -0.1235 -0.9016
  463MPD2    C5 6894   2.544   4.539   1.975  0.1383 -0.4321  0.7497
  463MPD2     H 6895   2.356   0.113   1.830 -0.2376 -1.2706 -1.2586
  463MPD2    H1 6896   2.720   4.654   1.972  0.5319  4.3536  0.5477
  463MPD2    H2 6897   2.374   4.434   1.973 -0.3158  0.4323  3.2257
  463MPD2    H3 6898   2.596   4.448   2.003 -1.0535 -1.5089 -0.5606
  463MPD2     N 6899   2.630   0.161   1.864 -0.2736 -0.0246  0.0895
  463MPD2    H5 6900   2.731   0.155   1.867 -0.3741 -2.0490 -0.2406
  463MPD2    N1 6901   2.206   4.637   1.869  0.4018 -0.0251  0.7802
  463MPD2    H7 6902   2.170   4.713   1.812 -1.7115 -2.9290 -1.7198
  464TMC3    C1 6903   1.975   4.579   1.876 -0.1404 -0.4439 -0.3240
  464TMC3    C2 6904   1.953   4.667   1.775  0.4329 -0.3524  0.2778
  464TMC3    C3 6905   1.822   4.703   1.757  0.2120 -0.4927  0.8916
  464TMC3    C4 6906   1.881   4.506   1.939 -1.2049 -0.4529  0.4424
  464TMC3    C5 6907   1.751   4.539   1.911  0.3159 -0.0327  0.5966
  464TMC3    C6 6908   1.721   4.646   1.833  0.7651 -0.4680  0.5854
  464TMC3     C 6909   2.113   4.552   1.918 -0.2874 -0.5076 -0.6369
  464TMC3     O 6910   2.135   4.463   2.002  0.3797 -0.1486 -0.0988
  464TMC3     H 6911   2.028   4.722   1.719 -0.5577  1.4863  0.7583
  464TMC3    H1 6912   1.908   4.449   2.027  0.4508  1.2765  1.0688
  464TMC3    H2 6913   1.617   4.675   1.823  1.2018  0.8299 -0.1099
  464TMC3    C7 6914   1.648   4.480   1.989 -0.3904 -0.2135  0.0660
  464TMC3    C8 6915   1.790   0.092   1.669 -0.6668  0.2165  0.0728
  464TMC3    O1 6916   1.547   4.538   2.027  0.5805  0.5674 -0.3010
  464TMC3    O2 6917   1.878   0.122   1.585  0.1983 -0.4459 -0.3391
  465MPD2     C 6918   4.357   3.591  16.437  0.7484  0.0956 -0.0383
  465MPD2    C1 6919   4.270   3.622  16.543 -0.1013 -0.0220 -0.6520
  465MPD2    C2 6920   4.138   3.643  16.501 -0.4345  0.0140 -0.2597
  465MPD2    C3 6921   4.100   3.634  16.369 -0.3944  0.5993  0.1776
  465MPD2    C4 6922   4.196   3.595  16.275  0.1830 -0.2167 -0.4756
  465MPD2    C5 6923   4.325   3.575  16.308 -0.2052 -1.1486  0.2214
  465MPD2     H 6924   4.061   3.669  16.573  0.9795  1.9662  0.5364
  465MPD2    H1 6925   4.179   3.589  16.168  0.5637 -0.1840 -0.5363
  465MPD2    H2 6926   4.461   3.571  16.461  0.5829  2.0463  2.3875
  465MPD2    H3 6927   4.401   3.547  16.236 -0.7334  2.0492 -1.5623
  465MPD2     N 6928   3.959   3.653  16.342  0.0047  0.3731  0.0147
  465MPD2    H5 6929   3.904   3.688  16.419 -0.5457  0.3338 -0.3615
  465MPD2    N1 6930   4.306   3.637  16.683 -0.3476  0.5670  0.5529
  465MPD2    H7 6931   4.236   3.664  16.751  0.0642 -1.1678  1.6603
  466TMC3    C1 6932   3.553   3.682  16.306  0.1240 -0.0197 -0.1988
  466TMC3    C2 6933   3.533   3.821  16.295 -0.1689  0.4121 -1.2782
  466TMC3    C3 6934   3.631   3.892  16.232 -0.3746  0.2535 -0.0461
  466TMC3    C4 6935   3.671   3.619  16.282  0.0482 -0.4912  0.0482
  466TMC3    C5 6936   3.765   3.698  16.225  0.4761  0.4813  0.1885
  466TMC3    C6 6937   3.745   3.830  16.185 -0.3451 -0.1908  0.4648
  466TMC3     C 6938   3.458   3.604  16.385 -0.1502  0.6365  0.0810
  466TMC3     O 6939   3.502   3.500  16.432  0.0850 -0.4313 -0.2177
  466TMC3     H 6940   3.438   3.862  16.327  0.9362  0.6046  1.7703
  466TMC3    H1 6941   3.701   3.525  16.325  1.6023 -1.0602 -2.2578
  466TMC3    H2 6942   3.834   3.887  16.161  0.9940 -2.2875  0.4324
  466TMC3    C7 6943   3.903   3.654  16.217  0.3555 -0.1195 -0.0360
  466TMC3    C8 6944   3.627   4.036  16.242 -0.0975  0.2946 -0.2774
  466TMC3    O1 6945   3.951   3.664  16.103  0.3620 -0.5943 -0.1379
  466TMC3    O2 6946   3.707   4.096  16.176  0.0261  0.0740  0.2808
  467TMC3    C1 6947   4.693   2.362  14.003 -0.3314 -0.2055 -0.3115
  467TMC3    C2 6948   4.638   2.484  14.025 -0.4598  0.4893  0.6188
  467TMC3    C3 6949   4.502   2.498  14.010  0.3137  0.1338  0.2329
  467TMC3    C4 6950   4.614   2.255  13.984 -0.3231 -0.2305  0.2033
  467TMC3    C5 6951   4.478   2.265  13.983  0.6670 -0.0975  0.0426
  467TMC3    C6 6952   4.419   2.388  13.987  1.0307  0.4032 -0.0345
  467TMC3     C 6953   0.116   2.357  13.985 -0.1775 -0.8542  0.7125
  467TMC3     O 6954   0.182   2.439  14.055 -0.1432  0.5521 -0.2557
  467TMC3     H 6955   4.707   2.567  14.031  0.4162 -0.2450  0.8160
  467TMC3    H1 6956   4.670   2.165  14.001 -0.3944 -0.6032 -1.5089
  467TMC3    H2 6957   4.312   2.402  13.980  1.0969  0.0387 -1.8220
  467TMC3    C7 6958   4.425   2.180  14.090  0.0157  0.1519 -0.3997
  467TMC3    C8 6959   4.476   2.628  13.954 -0.1427 -0.4132 -0.3151
  467TMC3    O1 6960   4.506   2.101  14.135 -0.1889 -0.3524 -0.0975
  467TMC3    O2 6961   4.568   2.696  13.927 -0.0873  0.1378 -0.4241
  468MPD2     C 6962   3.721   0.752  10.776  0.7184  0.0617 -0.4721
  468MPD2    C1 6963   3.778   0.696  10.891 -0.1960  0.2559  0.1269
  468MPD2    C2 6964   3.774   0.555  10.900  0.1840 -0.4960 -0.1226
  468MPD2    C3 6965   3.718   0.481  10.798  0.8163  0.0303  0.1316
  468MPD2    C4 6966   3.644   0.543  10.708 -0.1233  0.5864 -0.4977
  468MPD2    C5 6967   3.660   0.677  10.683  0.0424 -0.0691  0.3912
  468MPD2     H 6968   3.810   0.507  10.990  0.0080 -0.9663 -0.3036
  468MPD2    H1 6969   3.586   0.485  10.638  1.3322  0.7163 -1.8253
  468MPD2    H2 6970   3.729   0.856  10.748  1.6587  0.1626  0.1887
  468MPD2    H3 6971   3.604   0.737  10.611  3.5129  1.2137 -1.2539
  468MPD2     N 6972   3.726   0.336  10.789 -0.8297 -0.6384  0.5397
  468MPD2    H5 6973   3.675   0.286  10.717  0.0849 -0.1809 -0.4320
  468MPD2    N1 6974   3.852   0.766  10.988  0.6767 -0.0899 -0.1138
  468MPD2    H7 6975   3.885   0.710  11.066 -1.5339  2.1197  2.3886
  469TMC3    C1 6976   3.873   0.950  11.140 -0.6760  0.2775  0.1116
  469TMC3    C2 6977   3.972   0.881  11.200  0.4877  0.0067 -0.1578
  469TMC3    C3 6978   3.998   0.914  11.330  0.0973 -0.2158 -0.4418
  469TMC3    C4 6979   3.815   1.059  11.193 -0.5560 -0.1791 -0.8217
  469TMC3    C5 6980   3.862   1.106  11.314 -0.3641  0.0444  0.4813
  469TMC3    C6 6981   3.949   1.026  11.386 -0.4656 -0.1054  0.1800
  469TMC3     C 6982   3.822   0.902  11.012  0.3292  0.0628 -0.1314
  469TMC3     O 6983   3.731   0.968  10.961  0.1585 -0.4890 -0.1949
  469TMC3     H 6984   4.019   0.793  11.157  0.7698  0.8493 -1.5745
  469TMC3    H1 6985   3.746   1.122  11.138  1.7951  1.6859 -1.6226
  469TMC3    H2 6986   3.995   1.070  11.474 -2.0784  2.0472 -0.0485
  469TMC3    C7 6987   3.826   1.243  11.349  0.3481  0.2502 -0.6394
  469TMC3    C8 6988   4.109   0.846  11.393  0.1962  0.0456  0.7717
  469TMC3    O1 6989   3.771   1.310  11.264  0.1779 -0.0940 -0.0787
  469TMC3    O2 6990   4.202   0.835  11.320  0.0020  0.0296 -0.2598
  470TMC3    C1 6991   0.824   1.475   0.172 -0.0593  0.4016  0.6666
  470TMC3    C2 6992   0.809   1.592   0.253 -0.7981 -0.8670 -0.0904
  470TMC3    C3 6993   0.855   1.572   0.382 -0.2859 -0.1725 -0.0473
  470TMC3    C4 6994   0.866   1.353   0.220  0.0609  0.6653 -0.5052
  470TMC3    C5 6995   0.895   1.339   0.352 -0.1962 -0.1408  0.5542
  470TMC3    C6 6996   0.888   1.446   0.431  0.5074  0.5374 -0.1379
  470TMC3     C 6997   0.808   1.486   0.031  0.5120 -0.2213  0.1470
  470TMC3     O 6998   0.864   1.401  17.668  0.3206  0.3736 -0.7046
  470TMC3     H 6999   0.793   1.690   0.210  0.5274 -0.4533  0.3475
  470TMC3    H1 7000   0.869   1.266   0.155  1.5167  1.1405 -1.0783
  470TMC3    H2 7001   0.916   1.444   0.536 -0.3214 -0.1489  0.0711
  470TMC3    C7 7002   0.887   1.207   0.411 -0.2771 -1.1116  0.6276
  470TMC3    C8 7003   0.832   1.678   0.488  0.0559  0.3523  0.1108
  470TMC3    O1 7004   0.817   1.120   0.371  0.1334 -0.1503 -0.1785
  470TMC3    O2 7005   0.880   1.673   0.600 -0.3663  0.4500 -0.1385
  471MPD2     C 7006   1.474   2.536  17.249 -0.7551 -0.3311 -0.3963
  471MPD2    C1 7007   1.492   2.410  17.194  0.1474  0.1517 -0.2805
  471MPD2    C2 7008   1.603   2.331  17.217 -0.3931  0.2764  0.6599
  471MPD2    C3 7009   1.700   2.370  17.306 -0.7484 -0.0729  0.4702
  471MPD2    C4 7010   1.675   2.485  17.374  0.1186 -0.4012 -0.3351
  471MPD2    C5 7011   1.571   2.567  17.337  0.7410  0.1963  0.1432
  471MPD2     H 7012   1.605   2.235  17.166  1.5880  1.3662 -1.3185
  471MPD2    H1 7013   1.736   2.511  17.460  0.5526 -0.6864 -0.5558
  471MPD2    H2 7014   1.386   2.598  17.234 -1.6331 -1.6378 -0.5920
  471MPD2    H3 7015   1.563   2.656  17.399 -1.4803  0.2895 -0.2977
  471MPD2     N 7016   1.808   2.286  17.345  0.0771 -0.5693 -0.1952
  471MPD2    H5 7017   1.853   2.303  17.434 -0.9065 -0.3730  0.2627
  471MPD2    N1 7018   1.405   2.356  17.096 -0.2678 -0.3209  0.2745
  471MPD2    H7 7019   1.432   2.268  17.053 -2.1561 -0.4758 -0.5672
  472TMC3    C1 7020   1.218   2.326  16.954 -0.1427 -0.2688  0.2084
  472TMC3    C2 7021   1.163   2.375  16.842  0.2513 -0.6109  0.3462
  472TMC3    C3 7022   1.092   2.286  16.764 -0.2111  0.5451  0.1055
  472TMC3    C4 7023   1.233   2.193  16.979 -0.0247 -0.0919  0.4183
  472TMC3    C5 7024   1.178   2.104  16.892 -0.2233  0.0923 -0.2357
  472TMC3    C6 7025   1.094   2.153  16.791  0.6362  0.3636 -0.6153
  472TMC3     C 7026   1.301   2.415  17.034 -0.9050  0.2661 -0.2608
  472TMC3     O 7027   1.282   2.536  17.032  0.4905 -0.3560  0.3643
  472TMC3     H 7028   1.157   2.482  16.826  0.3732 -0.7356 -0.5585
  472TMC3    H1 7029   1.262   2.154  17.076  1.4982 -0.8773 -0.3575
  472TMC3    H2 7030   1.043   2.075  16.735  0.8364  0.4395 -0.9015
  472TMC3    C7 7031   1.208   1.958  16.906  0.1867  0.1603 -0.9500
  472TMC3    C8 7032   0.997   2.348  16.664  0.6523  0.3483 -0.0172
  472TMC3    O1 7033   1.245   1.919  17.016 -0.8141  0.0369  0.0165
  472TMC3    O2 7034   1.007   2.470  16.650  0.0301 -0.1097 -0.3547
  473MPD2     C 7035   1.501   4.707  14.422 -0.4460  0.1220 -0.4335
  473MPD2    C1 7036   1.472   0.034  14.301 -0.1115 -0.3185  0.1851
  473MPD2    C2 7037   1.478   0.171  14.283  0.6981 -0.5217 -0.3426
  473MPD2    C3 7038   1.492   0.264  14.383 -0.8689 -0.7451  0.0068
  473MPD2    C4 7039   1.532   0.213  14.505  0.1485  0.3020  0.5214
  473MPD2    C5 7040   1.537   0.074  14.522 -0.4174 -0.1517  0.0379
  473MPD2     H 7041   1.454   0.201  14.182 -0.8086  0.5098  0.3377
  473MPD2    H1 7042   1.539   0.277  14.592 -1.5505 -0.9463  1.5889
  473MPD2    H2 7043   1.501   4.601  14.445  1.0987 -0.4142 -2.8830
  473MPD2    H3 7044   1.550   0.032  14.621 -3.0033  0.2586  0.5388
  473MPD2     N 7045   1.478   0.401  14.357  0.1025  0.3472 -0.2293
  473MPD2    H5 7046   1.480   0.458  14.441 -0.3261 -0.7862  0.5403
  473MPD2    N1 7047   1.438   4.681  14.189  0.5552 -0.2547  0.8729
  473MPD2    H7 7048   1.423   0.006  14.101  2.0918  1.0021  1.3136
  474TMC3    C1 7049   1.469   0.609  14.243 -0.2332 -0.6803  0.4741
  474TMC3    C2 7050   1.494   0.657  14.115  0.5725 -0.2818  0.2151
  474TMC3    C3 7051   1.562   0.773  14.104 -0.0941  0.2237 -0.8423
  474TMC3    C4 7052   1.510   0.665  14.358  0.2081  0.1440  0.1877
  474TMC3    C5 7053   1.581   0.782  14.338  0.5967 -0.2880 -0.0724
  474TMC3    C6 7054   1.597   0.842  14.212 -0.5476 -0.0131  0.6084
  474TMC3     C 7055   1.463   0.463  14.238  0.1409 -0.8193  0.1806
  474TMC3     O 7056   1.443   0.418  14.127 -0.2671  0.8014 -0.0330
  474TMC3     H 7057   1.456   0.614  14.023 -1.4540 -0.4243  1.1086
  474TMC3    H1 7058   1.475   0.641  14.457  2.0851 -0.2057  0.7753
  474TMC3    H2 7059   1.661   0.930  14.210 -0.4436 -0.1137 -0.8281
  474TMC3    C7 7060   1.599   0.875  14.445 -0.1255 -0.0458  0.3476
  474TMC3    C8 7061   1.565   0.845  13.971  0.3655  0.4207  0.3155
  474TMC3    O1 7062   1.559   0.989  14.422  0.0777 -0.1372 -0.5771
  474TMC3    O2 7063   1.499   0.800  13.883 -0.0326 -0.1961  0.1300
  475MPD2     C 7064   4.515   3.256  10.413  0.6511 -0.0762 -0.0530
  475MPD2    C1 7065   4.501   3.382  10.364 -0.2047  0.1976  0.1734
  475MPD2    C2 7066   4.382   3.418  10.302 -0.2000  0.0046  0.2584
  475MPD2    C3 7067   4.276   3.329  10.291  0.6322  0.0636 -0.3830
  475MPD2    C4 7068   4.280   3.200  10.343 -0.7111 -0.5200 -0.5515
  475MPD2    C5 7069   4.409   3.165  10.395 -0.5790 -0.1624  0.0365
  475MPD2     H 7070   4.361   3.516  10.261  1.2865  0.8351  1.4728
  475MPD2    H1 7071   4.200   3.128  10.330 -1.3730  0.2795 -0.9401
  475MPD2    H2 7072   4.603   3.209  10.454  0.3991  1.1764  1.9397
  475MPD2    H3 7073   4.425   3.062  10.427  1.4923  0.3457  0.6340
  475MPD2     N 7074   4.164   3.374  10.211  0.5121  0.2020 -0.6040
  475MPD2    H5 7075   4.169   3.471  10.182 -0.2682  0.6186  0.6273
  475MPD2    N1 7076   4.598   3.485  10.388  0.3445 -0.7484  0.0714
  475MPD2    H7 7077   4.574   3.581  10.368  0.5346 -0.3173  1.8783
  476TMC3    C1 7078   0.072   3.597  10.437 -0.0273 -0.2878  0.0299
  476TMC3    C2 7079   0.153   3.613  10.331 -0.6673 -1.2275  0.1589
  476TMC3    C3 7080   0.187   3.741  10.296 -0.1370  0.3413  0.4975
  476TMC3    C4 7081   0.037   3.699  10.518  0.2783 -0.4799 -0.0920
  476TMC3    C5 7082   0.070   3.826  10.481 -0.4754 -0.5958  0.6924
  476TMC3    C6 7083   0.150   3.841  10.379  0.0447 -0.3074 -0.3204
  476TMC3     C 7084   0.002   3.468  10.441 -0.5127 -0.4963 -0.3430
  476TMC3     O 7085   0.067   3.364  10.433  0.0571  0.3878  0.1376
  476TMC3     H 7086   0.190   3.526  10.277 -0.7894 -0.8924 -0.4640
  476TMC3    H1 7087   4.698   3.674  10.603 -1.0683 -0.8041 -1.1949
  476TMC3    H2 7088   0.173   3.943  10.351  3.3314 -1.2179 -0.9420
  476TMC3    C7 7089   0.097   3.919  10.598 -0.2768  0.1899 -0.0779
  476TMC3    C8 7090   0.160   3.778  10.154 -0.1081 -0.7698 -0.2992
  476TMC3    O1 7091   0.190   3.996  10.588 -0.1731  0.0537  0.3354
  476TMC3    O2 7092   0.167   3.897  10.116 -0.3245 -0.1759 -0.6645
  477MPD2     C 7093   2.191   4.694  11.777 -0.1203 -1.0759  0.2278
  477MPD2    C1 7094   2.086   4.607  11.777 -0.3828 -0.1239 -0.4530
  477MPD2    C2 7095   2.101   4.493  11.861 -0.2138 -0.1264  0.8259
  477MPD2    C3 7096   2.219   4.463  11.929 -0.4289  0.5854 -0.2806
  477MPD2    C4 7097   2.314   4.563  11.924 -0.5391 -0.4688 -0.2459
  477MPD2    C5 7098   2.302   4.676  11.851 -0.7363  0.6773  0.2470
  477MPD2     H 7099   2.020   4.421  11.851 -0.8200  0.4872  1.3039
  477MPD2    H1 7100   2.411   4.541  11.966  0.1944  1.1231 -1.0811
  477MPD2    H2 7101   2.199   0.057  11.712  0.4279 -0.8168  0.6385
  477MPD2    H3 7102   2.386   0.021  11.854 -1.7853  1.9428  0.8107
  477MPD2     N 7103   2.232   4.341  11.999  0.3866 -0.0200  0.5548
  477MPD2    H5 7104   2.154   4.278  11.990 -0.2772  0.7007  1.2369
  477MPD2    N1 7105   1.983   4.638  11.688  0.8243 -0.2695 -0.2924
  477MPD2    H7 7106   1.992   4.724  11.635 -1.0812  1.0463  1.5001
  478TMC3    C1 7107   1.770   4.632  11.598  0.5537 -0.7071  0.1393
  478TMC3    C2 7108   1.639   4.653  11.649  0.0260  0.3178 -0.2404
  478TMC3    C3 7109   1.568   0.038  11.596  0.1487 -0.3591 -1.2248
  478TMC3    C4 7110   1.816   4.708  11.489 -1.0653 -0.0198 -0.1615
  478TMC3    C5 7111   1.731   0.074  11.426 -0.1515 -0.3120  0.8114
  478TMC3    C6 7112   1.611   0.106  11.484  0.0394 -0.6934 -0.4090
  478TMC3     C 7113   1.861   4.576  11.695 -0.1103 -0.7892 -0.4955
  478TMC3     O 7114   1.816   4.484  11.765  0.2199 -0.4739 -0.3484
  478TMC3     H 7115   1.610   4.592  11.733 -1.5585  3.0763  1.1858
  478TMC3    H1 7116   1.915   4.684  11.451 -0.1308  2.6158  0.6491
  478TMC3    H2 7117   1.548   0.187  11.450  0.5534 -0.3210 -0.4553
  478TMC3    C7 7118   1.785   0.152  11.315  0.1035  0.0498  0.3501
  478TMC3    C8 7119   1.473   0.096  11.686  0.3784  0.0785  0.0818
  478TMC3    O1 7120   1.907   0.142  11.290  0.0965 -0.0770  0.2962
  478TMC3    O2 7121   1.430   0.019  11.776 -0.0333 -0.2316 -0.3096
  479MPD2     C 7122   1.457   2.051  14.998  0.6178  0.0299  0.2124
  479MPD2    C1 7123   1.386   1.978  15.087 -0.2232 -0.0118  0.0753
  479MPD2    C2 7124   1.411   1.990  15.224  0.3027 -0.5265  0.7483
  479MPD2    C3 7125   1.519   2.066  15.270 -0.5740 -0.0601  0.4153
  479MPD2    C4 7126   1.589   2.132  15.173 -0.2965  0.6823 -0.0092
  479MPD2    C5 7127   1.554   2.127  15.042 -0.6910  0.5674  0.4449
  479MPD2     H 7128   1.352   1.929  15.292 -1.0041 -2.0050 -1.6956
  479MPD2    H1 7129   1.675   2.189  15.207  1.6676 -2.6194  0.5782
  479MPD2    H2 7130   1.421   2.062  14.896 -0.3134  2.2158  0.7757
  479MPD2    H3 7131   1.614   2.182  14.970 -1.6034  0.9201 -0.0383
  479MPD2     N 7132   1.557   2.090  15.409 -0.5080  0.1602 -0.4910
  479MPD2    H5 7133   1.642   2.143  15.419 -0.7589  0.1694  1.7348
  479MPD2    N1 7134   1.269   1.914  15.034 -0.1041  0.0111 -0.0120
  479MPD2    H7 7135   1.263   1.924  14.933 -0.3346 -1.6834 -0.1616
  480TMC3    C1 7136   1.214   1.834  15.622 -0.9768 -0.5546  0.0280
  480TMC3    C2 7137   1.113   1.878  15.546  0.4078  0.5956  0.9578
  480TMC3    C3 7138   1.129   2.003  15.485  0.0098  1.0803 -0.0934
  480TMC3    C4 7139   1.342   1.889  15.607  1.0999 -0.2313 -0.1140
  480TMC3    C5 7140   1.356   1.999  15.527 -0.3748 -0.5388 -0.2878
  480TMC3    C6 7141   1.250   2.075  15.488 -0.4034 -0.0174 -0.9046
  480TMC3     C 7142   1.181   1.737  15.719  0.5048 -1.0959 -0.2437
  480TMC3     O 7143   1.099   1.652  15.684 -0.3371 -0.0358 -0.5726
  480TMC3     H 7144   1.023   1.818  15.554 -0.8218  2.5452  1.5799
  480TMC3    H1 7145   1.424   1.823  15.634  0.7749  0.2817  2.0911
  480TMC3    H2 7146   1.256   2.180  15.465  0.8614  0.5085  1.8392
  480TMC3    C7 7147   1.490   2.052  15.526 -0.2072  0.0609  0.6007
  480TMC3    C8 7148   1.021   2.035  15.391  0.1829 -0.0486 -0.9130
  480TMC3    O1 7149   1.533   2.067  15.641 -0.1074 -0.0556 -0.1353
  480TMC3    O2 7150   0.906   1.988  15.399 -0.4015 -0.0692 -0.5669
  481MPD2     C 7151   2.909   1.467  14.346 -0.0837  0.1577  0.7882
  481MPD2    C1 7152   2.774   1.463  14.328 -0.4239  0.0607  0.3111
  481MPD2    C2 7153   2.694   1.434  14.439  0.5500 -0.1651 -0.4150
  481MPD2    C3 7154   2.754   1.418  14.567 -0.3833  0.0899  0.2774
  481MPD2    C4 7155   2.891   1.428  14.575 -0.2862  0.0084 -0.1760
  481MPD2    C5 7156   2.966   1.447  14.466  0.6325  0.4393 -0.4067
  481MPD2     H 7157   2.587   1.424  14.438  0.6458 -1.4525  2.1104
  481MPD2    H1 7158   2.945   1.420  14.668  1.0860  2.9840 -0.7121
  481MPD2    H2 7159   2.971   1.492  14.261 -1.5884 -1.7282 -0.8764
  481MPD2    H3 7160   3.075   1.440  14.470  0.6006 -0.6618 -1.1923
  481MPD2     N 7161   2.681   1.400  14.682 -0.5531 -0.3919 -0.0171
  481MPD2    H5 7162   2.736   1.403  14.768  1.0249  3.0536 -1.1302
  481MPD2    N1 7163   2.724   1.482  14.197 -0.6097  0.1726  0.0435
  481MPD2    H7 7164   2.792   1.483  14.121 -1.2030  1.1509 -0.4734
  482TMC3    C1 7165   2.571   1.478  14.014  0.4707 -0.4734  0.4207
  482TMC3    C2 7166   2.462   1.416  13.965 -0.2690 -0.6015  0.2779
  482TMC3    C3 7167   2.439   1.432  13.831  0.0235 -0.3425  0.2415
  482TMC3    C4 7168   2.665   1.545  13.943  0.3651  0.2057  0.3020
  482TMC3    C5 7169   2.629   1.556  13.816  0.4131 -0.6727  0.0928
  482TMC3    C6 7170   2.516   1.514  13.758  0.2914  0.2907  0.5912
  482TMC3     C 7171   2.594   1.455  14.154  0.2349  0.3683  0.7258
  482TMC3     O 7172   2.498   1.408  14.218 -0.5338  0.3368 -0.3489
  482TMC3     H 7173   2.401   1.357  14.032 -0.3461 -0.6807  0.1359
  482TMC3    H1 7174   2.754   1.589  13.986  1.6100 -2.6303  0.6448
  482TMC3    H2 7175   2.499   1.527  13.652  0.4350 -1.9789  0.2897
  482TMC3    C7 7176   2.720   1.640  13.734  0.3805 -0.2246  0.0074
  482TMC3    C8 7177   2.338   1.353  13.761 -0.0680 -0.0568  0.0671
  482TMC3    O1 7178   2.828   1.671  13.779  0.2436 -0.3232  0.4679
  482TMC3    O2 7179   2.296   1.249  13.815  0.8651 -0.2570  0.1819
  483TMC3    C1 7180   1.340   0.126   1.480  0.1037  0.6273 -0.1672
  483TMC3    C2 7181   1.373   0.236   1.407  0.4273  0.4931  1.0225
  483TMC3    C3 7182   1.484   0.240   1.334  0.2934 -0.0248  0.0437
  483TMC3    C4 7183   1.428   0.027   1.510 -0.0618  0.0184  0.2230
  483TMC3    C5 7184   1.537   0.027   1.424 -0.2162 -0.6374 -0.1265
  483TMC3    C6 7185   1.564   0.130   1.333  0.4234  0.6955 -0.0358
  483TMC3     C 7186   1.199   0.098   1.475  0.5164 -0.1288  0.2938
  483TMC3     O 7187   1.121   0.194   1.481  0.7901 -0.3668 -0.0176
  483TMC3     H 7188   1.308   0.322   1.414 -0.0104  0.3310 -1.3835
  483TMC3    H1 7189   1.396   4.665   1.568 -0.3954 -0.1594 -0.2300
  483TMC3    H2 7190   1.626   0.114   1.245  1.0390  2.2094  0.1172
  483TMC3    C7 7191   1.616   4.625   1.412  0.0630 -0.4554  0.3644
  483TMC3    C8 7192   1.495   0.333   1.223 -0.0195  0.1837 -0.3775
  483TMC3    O1 7193   1.566   4.534   1.472 -0.4263 -0.1850  0.5942
  483TMC3    O2 7194   1.394   0.401   1.202  0.8433 -0.4861  0.0896
  484MPD2     C 7195   2.863   3.617  12.104 -0.1964 -0.0339 -0.2969
  484MPD2    C1 7196   2.916   3.518  12.186 -0.0424  0.3199  0.6043
  484MPD2    C2 7197   3.052   3.498  12.195  0.4859  0.3147 -0.4838
  484MPD2    C3 7198   3.136   3.585  12.133 -0.0573  0.1462 -0.2559
  484MPD2    C4 7199   3.085   3.696  12.072 -0.9920 -0.1556 -0.8197
  484MPD2    C5 7200   2.950   3.711  12.059  0.0152  0.0590  0.3585
  484MPD2     H 7201   3.094   3.421  12.260 -1.9030 -0.6239 -0.0502
  484MPD2    H1 7202   3.147   3.762  12.012 -2.6042  2.5973  0.5511
  484MPD2    H2 7203   2.756   3.623  12.090 -0.0925  1.2169 -0.5100
  484MPD2    H3 7204   2.909   3.797  12.006 -0.0147 -0.3502 -0.2869
  484MPD2     N 7205   3.277   3.582  12.143  0.1837  0.5654  0.1555
  484MPD2    H5 7206   3.320   3.664  12.104 -0.4289  0.2652 -1.1565
  484MPD2    N1 7207   2.823   3.430  12.245  0.2938 -0.0701 -0.1324
  484MPD2    H7 7208   2.723   3.445  12.235  0.6662  0.1353 -3.2345
  485TMC3    C1 7209   3.500   3.520  12.204  0.3757 -0.6101  0.4332
  485TMC3    C2 7210   3.589   3.427  12.257  0.4873 -0.3546  0.0589
  485TMC3    C3 7211   3.719   3.446  12.232 -0.0802 -0.0845  0.0189
  485TMC3    C4 7212   3.543   3.602  12.096 -0.2121 -0.5812 -0.3675
  485TMC3    C5 7213   3.676   3.599  12.062 -0.5173 -0.1304  1.0819
  485TMC3    C6 7214   3.763   3.541  12.145 -0.4796  0.1089 -0.1479
  485TMC3     C 7215   3.359   3.486  12.205  1.1538  0.0887 -0.1149
  485TMC3     O 7216   3.324   3.381  12.264  0.1502 -0.4801 -0.2205
  485TMC3     H 7217   3.538   3.349  12.312  1.5609 -1.0196  0.1254
  485TMC3    H1 7218   3.479   3.646  12.021 -0.3317 -1.7160 -0.9315
  485TMC3    H2 7219   3.869   3.551  12.127 -0.4292  0.6950  0.4717
  485TMC3    C7 7220   3.702   3.596  11.916 -1.0138 -0.2410  0.0522
  485TMC3    C8 7221   3.804   3.324  12.218 -0.3240  0.3389 -0.3098
  485TMC3    O1 7222   3.632   3.654  11.835  0.2819 -0.5178 -0.0726
  485TMC3    O2 7223   3.901   3.341  12.147  0.0884  0.1607  0.1880
  486MPD2     C 7224   0.552   2.308  12.827  0.1413  0.7119  0.7678
  486MPD2    C1 7225   0.555   2.297  12.693 -0.0931  0.4679  0.2845
  486MPD2    C2 7226   0.509   2.399  12.618 -0.0776 -0.3924  0.7420
  486MPD2    C3 7227   0.482   2.525  12.676 -0.2030  0.8092 -0.7135
  486MPD2    C4 7228   0.476   2.530  12.813 -0.1897  0.4478  0.2784
  486MPD2    C5 7229   0.509   2.424  12.879  0.5052  0.6560  0.0735
  486MPD2     H 7230   0.501   2.389  12.510 -2.2243  1.3672  0.7437
  486MPD2    H1 7231   0.448   2.619  12.868  0.3974 -0.9364  2.8088
  486MPD2    H2 7232   0.589   2.231  12.893  3.0914  1.5174  0.0596
  486MPD2    H3 7233   0.511   2.441  12.987 -2.4645  1.1526  0.0455
  486MPD2     N 7234   0.458   2.641  12.597  0.2113 -0.3344 -0.1718
  486MPD2    H5 7235   0.472   2.632  12.497 -0.9546 -0.4854 -0.3190
  486MPD2    N1 7236   0.587   2.172  12.641 -0.6205 -0.0455 -0.3672
  486MPD2    H7 7237   0.610   2.098  12.707  0.2423  0.2590 -0.3243
  487TMC3    C1 7238   0.668   2.012  12.496 -0.0476  0.1454 -0.3909
  487TMC3    C2 7239   0.612   1.906  12.433 -0.2340  0.5614 -0.0197
  487TMC3    C3 7240   0.687   1.786  12.428  0.5789 -0.1300  0.4887
  487TMC3    C4 7241   0.778   2.000  12.571  0.1501  0.3244  0.2353
  487TMC3    C5 7242   0.841   1.879  12.572  0.5149  0.8385 -0.4233
  487TMC3    C6 7243   0.802   1.776  12.499  0.6800  0.3862  0.0631
  487TMC3     C 7244   0.591   2.134  12.509 -0.2719 -0.3965 -0.3035
  487TMC3     O 7245   0.536   2.184  12.415  0.3919  0.7890  0.6639
  487TMC3     H 7246   0.518   1.915  12.380  1.0605 -1.0314 -2.6218
  487TMC3    H1 7247   0.816   2.086  12.625  1.5681  1.0838 -1.9925
  487TMC3    H2 7248   0.879   1.705  12.469 -0.4477 -0.2068 -1.3964
  487TMC3    C7 7249   0.872   1.841  12.708 -0.0775 -0.0744 -0.0629
  487TMC3    C8 7250   0.600   1.679  12.470 -0.0232 -0.2586 -0.0570
  487TMC3    O1 7251   0.886   1.933  12.790 -0.1744  0.3520 -0.3339
  487TMC3    O2 7252   0.491   1.707  12.512  0.3014  0.0941 -0.1394
  488MPD2     C 7253   0.720   3.396  16.352  0.2088 -0.4662  0.3167
  488MPD2    C1 7254   0.750   3.471  16.459 -0.0138 -0.3393 -0.5365
  488MPD2    C2 7255   0.733   3.417  16.588  0.5348  0.2378 -0.2542
  488MPD2    C3 7256   0.693   3.290  16.604  0.4862 -0.1755 -0.2936
  488MPD2    C4 7257   0.668   3.214  16.490 -0.3111  0.1844 -0.2356
  488MPD2    C5 7258   0.682   3.269  16.365  0.4350 -0.0170  0.0523
  488MPD2     H 7259   0.765   3.472  16.677 -3.8149 -1.3225  2.2556
  488MPD2    H1 7260   0.631   3.112  16.492 -1.7188  0.6786 -0.9154
  488MPD2    H2 7261   0.740   3.423  16.249  0.2432  1.2461  0.7757
  488MPD2    H3 7262   0.656   3.208  16.279  4.0489 -1.8604  0.2865
  488MPD2     N 7263   0.687   3.239  16.736 -0.2220 -0.4947 -0.0217
  488MPD2    H5 7264   0.699   3.300  16.816 -0.8845  2.5153 -2.2251
  488MPD2    N1 7265   0.801   3.604  16.441  0.2774  0.1701  0.8952
  488MPD2    H7 7266   0.850   3.652  16.517 -1.7749  4.1692 -0.2800
  489TMC3    C1 7267   0.673   3.102  16.913  0.8169 -0.2597  0.1960
  489TMC3    C2 7268   0.773   3.181  16.965  0.7603  0.0395  0.9866
  489TMC3    C3 7269   0.753   3.216  17.092 -0.5223 -0.2538  0.3567
  489TMC3    C4 7270   0.567   3.049  16.981 -0.0501 -0.1480 -0.5112
  489TMC3    C5 7271   0.558   3.089  17.109  0.2432 -0.3952  0.0834
  489TMC3    C6 7272   0.655   3.172  17.167  0.1046 -0.6631 -0.0948
  489TMC3     C 7273   0.662   3.106  16.774 -0.4670 -0.1023  0.2884
  489TMC3     O 7274   0.632   3.008  16.706 -0.1797  0.2004  0.1690
  489TMC3     H 7275   0.862   3.209  16.910 -1.2493  1.2629 -1.6335
  489TMC3    H1 7276   0.484   3.001  16.931 -2.0530  2.6128  0.1349
  489TMC3    H2 7277   0.644   3.219  17.264  1.0159 -0.9594  0.1498
  489TMC3    C7 7278   0.444   3.052  17.194  0.0983 -0.1123  0.1552
  489TMC3    C8 7279   0.843   3.317  17.138 -0.6786  0.6943 -0.1156
  489TMC3    O1 7280   0.470   3.048  17.316 -0.4964 -0.2455  0.1250
  489TMC3    O2 7281   0.941   3.338  17.067  0.6208  0.1964 -0.4230
  490MPD2     C 7282   1.575   2.706   0.034  0.3498 -0.5090  0.1880
  490MPD2    C1 7283   1.633   2.605   0.115  0.8337 -0.1676  0.3210
  490MPD2    C2 7284   1.712   2.644   0.222  0.3895  0.1268 -0.1262
  490MPD2    C3 7285   1.739   2.775   0.249  0.0633  0.0456 -0.1356
  490MPD2    C4 7286   1.685   2.880   0.172 -0.0977 -0.0910  0.1478
  490MPD2    C5 7287   1.600   2.840   0.068 -0.4020 -0.0282  0.5072
  490MPD2     H 7288   1.742   2.560   0.285 -1.6734  0.6403  1.5196
  490MPD2    H1 7289   1.706   2.985   0.188 -2.3788  0.4010 -0.0998
  490MPD2    H2 7290   1.509   2.695  17.645  1.0780  1.3948 -0.6313
  490MPD2    H3 7291   1.567   2.923   0.007 -3.7068 -1.5321  0.2145
  490MPD2     N 7292   1.819   2.827   0.360 -0.4068 -0.3032  0.3846
  490MPD2    H5 7293   1.831   2.928   0.356 -1.0415 -0.1137  3.1018
  490MPD2    N1 7294   1.611   2.468   0.093 -0.0898 -0.3433  0.5815
  490MPD2    H7 7295   1.659   2.399   0.149 -1.6469 -1.0916  0.9646
  491TMC3    C1 7296   1.507   2.279   0.008 -0.0182 -0.1970  0.0501
  491TMC3    C2 7297   1.463   2.234   0.127 -0.0128 -0.2171  0.2725
  491TMC3    C3 7298   1.364   2.139   0.125  0.1748  0.1180  0.2381
  491TMC3    C4 7299   1.450   2.236  17.589 -0.4526 -0.0142 -0.6028
  491TMC3    C5 7300   1.354   2.140  17.584 -0.2616 -0.1618 -0.0018
  491TMC3    C6 7301   1.314   2.083   0.010  0.1709  0.0168 -0.5237
  491TMC3     C 7302   1.518   2.419  17.697  0.9640  0.4517  0.0060
  491TMC3     O 7303   1.445   2.464  17.609  0.0982  0.4848 -0.2022
  491TMC3     H 7304   1.493   2.284   0.218 -1.2160  2.4267 -0.7911
  491TMC3    H1 7305   1.496   2.270  17.497  0.7186 -0.7764 -0.3089
  491TMC3    H2 7306   1.219   2.032   0.018  1.2565 -1.4771  2.8951
  491TMC3    C7 7307   1.248   2.176  17.494  0.0358  0.5482 -0.0182
  491TMC3    C8 7308   1.249   2.208   0.189 -0.1306 -0.2924  0.2827
  491TMC3    O1 7309   1.167   2.088  17.460  0.2650  0.0417 -0.0040
  491TMC3    O2 7310   1.146   2.227   0.127  0.2285  0.5041  0.0241
  492MPD2     C 7311   1.935   3.506  11.649  0.1755 -0.3310 -0.5150
  492MPD2    C1 7312   1.827   3.479  11.561  0.3670 -0.5071 -0.2734
  492MPD2    C2 7313   1.732   3.379  11.600 -0.2509 -0.0548 -0.1889
  492MPD2    C3 7314   1.744   3.307  11.719  0.9729 -0.0622  0.6801
  492MPD2    C4 7315   1.846   3.342  11.804 -0.0114  0.4404  0.0163
  492MPD2    C5 7316   1.931   3.450  11.777 -0.5004  0.5214  0.2256
  492MPD2     H 7317   1.647   3.360  11.535  0.2209  1.3977 -1.2261
  492MPD2    H1 7318   1.846   3.297  11.903 -1.2468  1.7141  0.6001
  492MPD2    H2 7319   2.010   3.581  11.630  0.4489 -0.4137  0.2522
  492MPD2    H3 7320   2.005   3.497  11.841 -0.6983  0.5104  0.4657
  492MPD2     N 7321   1.666   3.200  11.767  0.1884 -0.2512  0.5840
  492MPD2    H5 7322   1.699   3.161  11.855  1.6405 -0.7932 -0.2011
  492MPD2    N1 7323   1.819   3.563  11.451  0.2642  0.4541 -0.2303
  492MPD2    H7 7324   1.886   3.639  11.442 -1.0113  1.7121  0.7606
  493TMC3    C1 7325   1.743   3.654  11.235  0.5604  0.7250  0.0881
  493TMC3    C2 7326   1.858   3.720  11.214 -0.0614  0.0524 -0.2127
  493TMC3    C3 7327   1.861   3.816  11.126  0.2713 -0.0112  0.4761
  493TMC3    C4 7328   1.635   3.668  11.156  0.1842 -0.7188 -0.0819
  493TMC3    C5 7329   1.640   3.772  11.062  0.2121  0.1572 -0.5239
  493TMC3    C6 7330   1.748   3.853  11.055 -0.0132 -0.0503  0.0411
  493TMC3     C 7331   1.726   3.559  11.349  0.3520  0.0566  0.7434
  493TMC3     O 7332   1.637   3.480  11.331 -0.3418  0.3312 -0.1749
  493TMC3     H 7333   1.951   3.689  11.260  1.1320  3.0576 -0.6446
  493TMC3    H1 7334   1.558   3.593  11.147 -0.8389  0.2487  0.4783
  493TMC3    H2 7335   1.746   3.941  10.993  1.5500 -0.7161 -0.9449
  493TMC3    C7 7336   1.522   3.811  10.987  0.0268 -0.1518  0.5258
  493TMC3    C8 7337   1.977   3.906  11.129 -0.2102  0.4644  0.2006
  493TMC3    O1 7338   1.534   3.883  10.889 -0.5672 -0.2447 -0.0272
  493TMC3    O2 7339   2.042   3.907  11.236  0.1791 -0.2696 -0.0849
  494TMC3    C1 7340   2.506   0.477   0.661 -0.0963  0.5315  0.0945
  494TMC3    C2 7341   2.488   0.340   0.665  0.4053  0.1679 -0.4746
  494TMC3    C3 7342   2.500   0.269   0.545  0.0124  0.2644 -0.5934
  494TMC3    C4 7343   2.521   0.546   0.543 -0.0446 -0.2697 -0.0437
  494TMC3    C5 7344   2.539   0.469   0.428  0.0727  0.4150  0.3802
  494TMC3    C6 7345   2.529   0.336   0.424  0.3849 -0.4269 -0.1538
  494TMC3     C 7346   2.445   0.546   0.776  0.1633 -0.5456 -0.0573
  494TMC3     O 7347   2.363   0.487   0.844  0.5457 -0.2702  0.6106
  494TMC3     H 7348   2.453   0.292   0.755  0.2394  0.9770 -0.1134
  494TMC3    H1 7349   2.521   0.654   0.533  1.1333 -0.2373  0.3509
  494TMC3    H2 7350   2.557   0.279   0.336  0.5770 -2.1160  1.0067
  494TMC3    C7 7351   2.556   0.528   0.294 -0.5214 -0.1304 -0.3105
  494TMC3    C8 7352   2.484   0.125   0.554  0.6849 -0.6264  0.6006
  494TMC3    O1 7353   2.532   0.458   0.199  0.0192  0.3104  0.1791
  494TMC3    O2 7354   2.509   0.073   0.663  0.8643  0.3823  0.7890
  495TMC3    C1 7355   1.526   2.490  14.690 -0.3991  0.2318  0.2593
  495TMC3    C2 7356   1.470   2.578  14.600 -0.6128 -0.9469 -0.4453
  495TMC3    C3 7357   1.339   2.612  14.618 -0.0684 -0.4611  0.1017
  495TMC3    C4 7358   1.461   2.437  14.799  0.0138  0.6731  0.3502
  495TMC3    C5 7359   1.333   2.480  14.818 -0.4125  1.1456 -0.2291
  495TMC3    C6 7360   1.270   2.557  14.725  0.9142 -0.2615  0.3482
  495TMC3     C 7361   1.626   2.408  14.628 -0.1226 -0.8268 -0.2544
  495TMC3     O 7362   1.733   2.460  14.602  0.2036  0.4213  0.3209
  495TMC3     H 7363   1.538   2.606  14.521 -1.3322 -2.2035 -1.5159
  495TMC3    H1 7364   1.492   2.354  14.861  0.3182  2.3782  2.4774
  495TMC3    H2 7365   1.168   2.590  14.743  1.2111  2.1732 -2.4556
  495TMC3    C7 7366   1.262   2.407  14.918  0.7390 -0.1726  0.0603
  495TMC3    C8 7367   1.261   2.626  14.500 -0.2937  0.2410  0.2610
  495TMC3    O1 7368   1.331   2.379  15.016  0.0099  0.4950  0.3051
  495TMC3    O2 7369   1.141   2.642  14.521  0.0742 -0.0078  0.1511
  496MPD2     C 7370   2.959   2.205  15.350 -0.1257 -0.1781  0.0367
  496MPD2    C1 7371   2.965   2.081  15.405 -0.2620  0.0201  0.4599
  496MPD2    C2 7372   3.008   2.072  15.537 -0.2095 -0.3540  0.6990
  496MPD2    C3 7373   3.052   2.180  15.608 -0.6272 -0.4791 -0.0928
  496MPD2    C4 7374   3.062   2.296  15.539  0.3300  0.1256 -0.2305
  496MPD2    C5 7375   3.014   2.308  15.412  0.3525 -0.6473  0.3836
  496MPD2     H 7376   3.024   1.973  15.576 -0.2125 -0.5808  0.1220
  496MPD2    H1 7377   3.108   2.384  15.583  1.9589  0.2078 -2.1020
  496MPD2    H2 7378   2.920   2.218  15.249  3.2397 -1.2772 -1.4388
  496MPD2    H3 7379   3.018   2.410  15.377  1.6763 -0.0736  2.2058
  496MPD2     N 7380   3.115   2.175  15.740 -0.3268 -0.5211 -0.3096
  496MPD2    H5 7381   3.137   2.259  15.791  0.0894 -0.8884  0.1116
  496MPD2    N1 7382   2.937   1.977  15.314  0.3747  0.5549 -0.5141
  496MPD2    H7 7383   2.904   2.005  15.222 -0.2306 -0.2254 -0.5243
  497TMC3    C1 7384   3.161   2.079  15.946 -0.1021 -0.3317 -0.3022
  497TMC3    C2 7385   3.158   1.969  16.029  0.1051 -0.1552  0.4652
  497TMC3    C3 7386   3.247   1.972  16.134 -0.6129 -0.4124  0.3782
  497TMC3    C4 7387   3.245   2.179  15.966  0.1142  0.8012  0.2732
  497TMC3    C5 7388   3.327   2.177  16.073 -0.2364 -0.5298 -0.1616
  497TMC3    C6 7389   3.334   2.075  16.161  0.1299  0.1688  0.3559
  497TMC3     C 7390   3.106   2.063  15.818 -0.0864  0.0029  0.4721
  497TMC3     O 7391   3.061   1.955  15.793 -0.1918 -0.1148  0.1625
  497TMC3     H 7392   3.083   1.892  16.016 -1.2112  1.1320  0.4058
  497TMC3    H1 7393   3.257   2.253  15.888 -1.0223  0.1867 -0.4864
  497TMC3    H2 7394   3.401   2.074  16.247 -0.2459 -0.3440  0.6462
  497TMC3    C7 7395   3.320   2.304  16.137  0.9983  0.9358  0.3065
  497TMC3    C8 7396   3.187   1.929  16.261 -0.1887 -0.1555  0.1156
  497TMC3    O1 7397   3.291   2.403  16.072 -1.0193 -0.1361 -0.3411
  497TMC3    O2 7398   3.211   2.005  16.357  0.7433  0.3494  0.3413
  498MPD2     C 7399   3.454   3.073   9.241  0.6849  0.1059  1.0338
  498MPD2    C1 7400   3.464   3.013   9.364  0.4063  0.4470  0.2214
  498MPD2    C2 7401   3.346   2.999   9.445  0.0958  0.3420  0.7997
  498MPD2    C3 7402   3.225   3.041   9.393 -0.1772  0.3649  0.5404
  498MPD2    C4 7403   3.217   3.101   9.267 -0.0043  0.1471 -0.0472
  498MPD2    C5 7404   3.333   3.118   9.192  0.5898  0.0275  0.3215
  498MPD2     H 7405   3.349   2.954   9.543 -1.0747  2.2791  1.7074
  498MPD2    H1 7406   3.120   3.124   9.224 -0.1748  1.5084  1.0841
  498MPD2    H2 7407   3.540   3.080   9.176 -1.1830  0.3016 -1.4071
  498MPD2    H3 7408   3.324   3.157   9.091  0.9285  1.7913  0.9657
  498MPD2     N 7409   3.112   3.018   9.470  0.5381  0.3903  0.0621
  498MPD2    H5 7410   3.133   2.957   9.549 -1.7115  1.2789  1.3418
  498MPD2    N1 7411   3.586   2.967   9.424 -0.7084  0.5958  0.1342
  498MPD2    H7 7412   3.580   2.909   9.507  1.5152 -1.4199 -1.0828
  499TMC3    C1 7413   3.815   2.905   9.426 -1.3851 -0.5786 -0.2340
  499TMC3    C2 7414   3.786   2.778   9.463  0.3325 -0.5073 -0.3541
  499TMC3    C3 7415   3.897   2.709   9.515  0.3591  0.6859  0.0089
  499TMC3    C4 7416   3.938   2.959   9.430  0.2810  0.3597 -0.0990
  499TMC3    C5 7417   4.041   2.890   9.489 -0.1808 -0.8261  0.0052
  499TMC3    C6 7418   4.025   2.768   9.538 -0.0255  0.3612 -0.1606
  499TMC3     C 7419   3.713   3.005   9.384 -0.1643 -0.1927 -0.4370
  499TMC3     O 7420   3.744   3.095   9.309 -0.7431  0.1153  0.5193
  499TMC3     H 7421   3.692   2.735   9.431  0.3072 -0.4245 -0.3923
  499TMC3    H1 7422   3.959   3.060   9.395 -1.0785 -0.1412 -2.2958
  499TMC3    H2 7423   4.107   2.707   9.576 -0.2473 -0.7902 -1.5608
  499TMC3    C7 7424   4.168   2.959   9.488  0.7589 -0.8448  0.4708
  499TMC3    C8 7425   3.865   2.571   9.562  0.0308  0.0913  0.6205
  499TMC3    O1 7426   4.161   3.070   9.434 -0.1298  0.4487 -0.3365
  499TMC3    O2 7427   3.755   2.524   9.531 -0.4117 -0.0721 -0.2202
  500MPD2     C 7428   0.597   4.406  10.995 -0.1868 -0.4880  0.4181
  500MPD2    C1 7429   0.661   4.455  10.883 -0.6866 -0.2451 -0.9181
  500MPD2    C2 7430   0.608   4.428  10.754 -1.0108 -0.3408  0.1782
  500MPD2    C3 7431   0.497   4.352  10.751  0.0293 -0.3309  0.3554
  500MPD2    C4 7432   0.429   4.312  10.863  0.0517  0.2618  0.3575
  500MPD2    C5 7433   0.481   4.339  10.983 -0.4914  1.1371  0.0305
  500MPD2     H 7434   0.637   4.476  10.661  2.2144  0.3572  1.5268
  500MPD2    H1 7435   0.337   4.256  10.859  0.6168 -0.6401 -0.1077
  500MPD2    H2 7436   0.622   4.434  11.096  0.1999  1.2959 -0.1716
  500MPD2    H3 7437   0.431   4.315  11.076 -0.7460 -1.0075 -0.6506
  500MPD2     N 7438   0.433   4.315  10.630 -0.0803 -0.4248 -0.8668
  500MPD2    H5 7439   0.341   4.273  10.633 -0.8003  1.0658 -2.2159
  500MPD2    N1 7440   0.778   4.531  10.902  0.0470  0.0906  0.9490
  500MPD2    H7 7441   0.819   4.570  10.817  1.3402 -0.9518  1.0963
  501TMC3    C1 7442   0.963   4.655  10.987 -0.3774  0.1681  0.3617
  501TMC3    C2 7443   0.968   0.011  10.872  0.6424  0.7652  0.2260
  501TMC3    C3 7444   1.083   0.070  10.856  0.4596 -0.2339 -0.2907
  501TMC3    C4 7445   1.052   4.667  11.091  0.4197  0.0686  0.3749
  501TMC3    C5 7446   1.159   0.026  11.071  0.2639 -0.1927  0.8109
  501TMC3    C6 7447   1.180   0.078  10.951  0.1716  0.4342 -0.8268
  501TMC3     C 7448   0.843   4.574  11.013 -0.0362  0.4538 -0.6226
  501TMC3     O 7449   0.823   4.533  11.126 -0.2189 -0.1445  0.1340
  501TMC3     H 7450   0.900   4.718  10.789 -1.2978 -0.2678  1.9985
  501TMC3    H1 7451   1.044   4.598  11.174 -0.3150 -0.1625  0.1095
  501TMC3    H2 7452   1.274   0.129  10.932  0.5261  0.4078  0.8582
  501TMC3    C7 7453   1.281   4.719  11.139  0.4547  0.8481 -0.3333
  501TMC3    C8 7454   1.099   0.154  10.733 -0.3192  0.4290  0.2998
  501TMC3    O1 7455   1.382   4.697  11.071  0.1628  0.1509  0.6570
  501TMC3    O2 7456   1.208   0.203  10.719 -0.0486 -0.5622 -0.0349
  502TMC3    C1 7457   0.517   2.666  15.119  0.0399 -0.5650 -1.1029
  502TMC3    C2 7458   0.533   2.780  15.044 -0.1279 -0.2536 -0.1646
  502TMC3    C3 7459   0.414   2.845  15.012 -0.4820  0.5435  0.5321
  502TMC3    C4 7460   0.396   2.617  15.154  0.3066 -0.1543  0.0039
  502TMC3    C5 7461   0.279   2.674  15.109 -0.4918 -0.4655  1.4804
  502TMC3    C6 7462   0.290   2.792  15.036  0.0470  0.5901 -0.4104
  502TMC3     C 7463   0.620   2.622  15.215  0.0734 -0.3879 -0.3482
  502TMC3     O 7464   0.732   2.632  15.176 -0.5180 -0.2633  0.5996
  502TMC3     H 7465   0.630   2.827  15.034 -1.4115  2.0374 -1.8319
  502TMC3    H1 7466   0.388   2.517  15.196 -0.7343  1.0137  2.5699
  502TMC3    H2 7467   0.208   2.860  15.014  0.0955  0.8413  0.2057
  502TMC3    C7 7468   0.177   2.665  15.209 -0.0508 -0.5364  1.3033
  502TMC3    C8 7469   0.422   2.992  15.018 -0.2023  0.2227  0.0246
  502TMC3    O1 7470   0.221   2.640  15.319 -0.2339  0.1869 -0.9071
  502TMC3    O2 7471   0.335   3.059  14.964  0.1963  0.1163 -0.0284
  503MPD2     C 7472   2.791   3.997  17.122  0.0101 -0.0870 -1.0304
  503MPD2    C1 7473   2.751   3.990  17.250 -0.4470 -0.3811  0.1575
  503MPD2    C2 7474   2.780   3.869  17.318  0.5894  0.0266 -0.4749
  503MPD2    C3 7475   2.856   3.768  17.257  0.0846  0.4918 -0.0466
  503MPD2    C4 7476   2.892   3.780  17.122  0.2004  0.3921  0.4186
  503MPD2    C5 7477   2.863   3.900  17.064 -1.1166 -0.0106 -0.1505
  503MPD2     H 7478   2.755   3.856  17.422 -1.2061 -1.4504 -1.0793
  503MPD2    H1 7479   2.950   3.711  17.062 -1.4735 -0.7558  0.1180
  503MPD2    H2 7480   2.770   4.086  17.064 -0.7688  1.9358  2.3575
  503MPD2    H3 7481   2.883   3.909  16.958 -0.6304 -2.2561 -0.2387
  503MPD2     N 7482   2.894   3.665  17.338  1.4429 -0.1385 -0.4702
  503MPD2    H5 7483   2.875   3.675  17.438  1.9359  0.4634 -0.4368
  503MPD2    N1 7484   2.671   4.085  17.318 -0.0525 -0.0819  0.8825
  503MPD2    H7 7485   2.661   4.069  17.417 -0.1721  0.3138  0.9341
  504TMC3    C1 7486   2.977   3.453  17.394 -0.3421 -0.1189 -0.5056
  504TMC3    C2 7487   3.046   3.495  17.505 -0.3307 -0.1738 -0.1822
  504TMC3    C3 7488   3.098   3.399  17.587 -0.0059 -0.1541  0.2502
  504TMC3    C4 7489   2.974   3.322  17.358 -0.6353 -0.0448  0.6770
  504TMC3    C5 7490   3.024   3.231  17.443  0.4139 -0.4524 -0.1634
  504TMC3    C6 7491   3.090   3.262  17.561 -0.2426 -0.5617  0.8593
  504TMC3     C 7492   2.936   3.540  17.291 -0.5504  0.6078  1.6156
  504TMC3     O 7493   2.947   3.505  17.174  0.2780 -0.8105  0.2582
  504TMC3     H 7494   3.058   3.600  17.528 -0.0502 -0.5579  1.3773
  504TMC3    H1 7495   2.922   3.290  17.267 -0.3532  3.1016 -0.5700
  504TMC3    H2 7496   3.132   3.184  17.624  1.3394 -0.2839  0.1500
  504TMC3    C7 7497   3.065   3.116  17.372 -0.4937  0.3939 -0.2451
  504TMC3    C8 7498   3.140   3.433   0.022  0.2294 -0.4784 -0.2574
  504TMC3    O1 7499   3.068   3.124  17.252 -0.1410  0.0428 -0.4766
  504TMC3    O2 7500   3.154   3.552   0.036 -0.1693  0.1440  0.7890
  505MPD2     C 7501   2.242   3.152  10.593  0.1624  0.8255  0.5617
  505MPD2    C1 7502   2.204   3.030  10.558 -0.0229  0.6060 -0.5928
  505MPD2    C2 7503   2.289   2.926  10.589 -0.3865  0.2677 -0.4830
  505MPD2    C3 7504   2.404   2.941  10.656 -0.2265  0.5047 -0.4453
  505MPD2    C4 7505   2.436   3.067  10.698 -0.6128  0.3017  0.7890
  505MPD2    C5 7506   2.366   3.178  10.654 -0.1474  0.3217  0.0233
  505MPD2     H 7507   2.259   2.823  10.569  3.6228 -0.8060 -0.9117
  505MPD2    H1 7508   2.527   3.084  10.755  1.0889  1.1001 -2.1725
  505MPD2    H2 7509   2.183   3.230  10.546 -0.2631  0.0701 -0.1471
  505MPD2    H3 7510   2.405   3.275  10.680 -0.0681  0.4194 -0.4603
  505MPD2     N 7511   2.475   2.825  10.685 -0.5740 -0.4538 -0.0544
  505MPD2    H5 7512   2.446   2.736  10.646  1.4098  0.4522 -3.6517
  505MPD2    N1 7513   2.082   3.017  10.489  0.0412  0.2143 -0.2120
  505MPD2    H7 7514   2.037   3.107  10.474 -1.9746 -0.8703 -0.6826
  506TMC3    C1 7515   1.921   2.917  10.342  0.6998 -0.0860  0.6842
  506TMC3    C2 7516   1.953   2.989  10.226 -0.4457 -0.0336  0.0981
  506TMC3    C3 7517   1.898   2.934  10.112 -0.3488  0.1902  0.4894
  506TMC3    C4 7518   1.850   2.798  10.345  0.2184 -0.3004  0.7601
  506TMC3    C5 7519   1.830   2.741  10.222  0.2611  0.0053 -0.5774
  506TMC3    C6 7520   1.835   2.814  10.106  0.0326 -0.6495 -0.5443
  506TMC3     C 7521   2.032   2.899  10.438  0.1825 -0.1876  0.1027
  506TMC3     O 7522   2.087   2.791  10.433 -0.6116 -0.1368  0.1436
  506TMC3     H 7523   2.022   3.072  10.226 -0.0930 -0.3427 -2.1362
  506TMC3    H1 7524   1.826   2.741  10.434  0.4716 -0.4104  0.7566
  506TMC3    H2 7525   1.809   2.768  10.011  0.8319  0.1125 -1.1382
  506TMC3    C7 7526   1.866   2.607  10.207 -0.1109  0.4699  0.4673
  506TMC3    C8 7527   1.931   2.971   9.980  0.2308 -0.1239 -0.3349
  506TMC3    O1 7528   1.842   2.545  10.103 -0.1951  0.3818 -0.1586
  506TMC3    O2 7529   1.861   2.938   9.885 -0.0976 -0.5155  0.1322
  507TMC3    C1 7530   3.746   3.307  14.620 -0.2981  0.3000 -0.8590
  507TMC3    C2 7531   3.778   3.264  14.495  0.2235 -0.7370  0.5746
  507TMC3    C3 7532   3.818   3.349  14.404  0.2307  0.0872 -0.0291
  507TMC3    C4 7533   3.770   3.438  14.666  0.6136  0.8663  0.0542
  507TMC3    C5 7534   3.825   3.523  14.575 -1.1046 -0.3909 -0.0132
  507TMC3    C6 7535   3.844   3.476  14.444  0.2201 -0.2653  0.5764
  507TMC3     C 7536   3.629   3.235  14.680  0.2867 -0.2396 -0.1685
  507TMC3     O 7537   3.578   3.284  14.777 -0.4047 -0.1548  0.4730
  507TMC3     H 7538   3.777   3.157  14.474  1.6659 -0.8461  1.0618
  507TMC3    H1 7539   3.747   3.464  14.769  0.7794 -0.1266  0.3447
  507TMC3    H2 7540   3.876   3.546  14.368 -0.7048 -1.4737 -0.9265
  507TMC3    C7 7541   3.769   3.654  14.577 -0.0402 -0.1714 -0.2532
  507TMC3    C8 7542   3.719   3.355  14.296 -0.1790 -0.9966 -0.4961
  507TMC3    O1 7543   3.711   3.686  14.473  0.2721  0.2735 -0.2754
  507TMC3    O2 7544   3.687   3.254  14.235 -0.8146 -0.3397  0.3767
  508MPD2     C 7545   4.608   0.503  15.957 -0.6320 -0.4172  0.3324
  508MPD2    C1 7546   4.612   0.617  16.038  0.1989 -0.7702  0.3453
  508MPD2    C2 7547   4.584   0.736  15.978  0.6737 -0.6306 -0.0818
  508MPD2    C3 7548   4.536   0.752  15.843 -0.1560  0.3560  0.1881
  508MPD2    C4 7549   4.523   0.636  15.764  0.5713 -0.7877 -0.4180
  508MPD2    C5 7550   4.559   0.514  15.829  0.1644 -0.3807 -0.8700
  508MPD2     H 7551   4.596   0.831  16.029  1.0087 -1.5970  1.6144
  508MPD2    H1 7552   4.493   0.641  15.660 -1.1046 -0.4120  0.0858
  508MPD2    H2 7553   4.635   0.402  15.988 -2.7754 -1.6223 -1.7176
  508MPD2    H3 7554   4.547   0.425  15.769 -1.7923 -0.0738 -0.9406
  508MPD2     N 7555   4.536   0.877  15.782  0.3946 -0.4907 -0.3105
  508MPD2    H5 7556   4.571   0.955  15.838 -2.3636  1.8852 -1.9241
  508MPD2    N1 7557   4.657   0.598  16.173 -0.4593  0.7599 -0.2238
  508MPD2    H7 7558   4.693   0.507  16.201 -0.2074  0.6880 -0.7713
  509TMC3    C1 7559   4.431   1.180  15.439  0.5862  0.2840  0.8098
  509TMC3    C2 7560   4.551   1.247  15.460  0.3135 -0.3918  0.3392
  509TMC3    C3 7561   4.622   1.204  15.567  1.2820 -0.3941 -0.2752
  509TMC3    C4 7562   4.391   1.073  15.515 -0.2034  0.6643 -0.0184
  509TMC3    C5 7563   4.483   1.029  15.611  0.4872 -0.5350 -0.7104
  509TMC3    C6 7564   4.599   1.096  15.638  0.0155 -0.4440 -0.6602
  509TMC3     C 7565   4.342   1.242  15.346 -0.2068  0.9463  0.2446
  509TMC3     O 7566   4.251   1.166  15.307 -0.6979 -0.1440  0.0589
  509TMC3     H 7567   4.589   1.330  15.402  2.7349 -1.8291 -0.1360
  509TMC3    H1 7568   4.299   1.016  15.505  1.3521 -1.7285 -0.5721
  509TMC3    H2 7569   4.669   1.053  15.709 -0.5760  0.6844  0.6132
  509TMC3    C7 7570   4.456   0.901  15.675  0.5312 -0.1519  0.7899
  509TMC3    C8 7571   0.041   1.241  15.573 -0.6831  0.1832 -1.0522
  509TMC3    O1 7572   4.358   0.834  15.644 -0.1074  0.0293  0.0169
  509TMC3    O2 7573   0.120   1.154  15.613 -0.5902  0.0587  0.4247
  510MPD2     C 7574   2.607   2.770  14.646 -0.0232  0.5086 -0.5262
  510MPD2    C1 7575   2.646   2.653  14.701 -0.4635  0.0183 -0.8043
  510MPD2    C2 7576   2.771   2.595  14.664  0.9981 -0.4625 -0.2227
  510MPD2    C3 7577   2.838   2.656  14.563  0.0622 -0.0997 -0.6872
  510MPD2    C4 7578   2.778   2.760  14.492  0.9053 -0.0399  0.3246
  510MPD2    C5 7579   2.661   2.815  14.534 -0.5077  0.1271  1.2165
  510MPD2     H 7580   2.810   2.505  14.710  1.0366 -0.6435 -0.6143
  510MPD2    H1 7581   2.808   2.805  14.398  0.1482  1.3921  0.7757
  510MPD2    H2 7582   2.507   2.805  14.672  0.2909 -0.9211  2.5270
  510MPD2    H3 7583   2.621   2.897  14.475  2.6293  0.6521 -0.1623
  510MPD2     N 7584   2.952   2.587  14.506  0.1224  0.2085 -0.6043
  510MPD2    H5 7585   2.981   2.496  14.541  0.6513  0.9272  0.7982
  510MPD2    N1 7586   2.582   2.587  14.808  0.8388  0.1566 -0.2969
  510MPD2    H7 7587   2.634   2.505  14.836 -0.1483 -0.7712 -1.1841
  511TMC3    C1 7588   2.413   2.527  14.971 -0.1737  0.7826  0.5961
  511TMC3    C2 7589   2.336   2.575  15.070 -0.1481 -0.6742 -0.2047
  511TMC3    C3 7590   2.263   2.484  15.141 -0.5347  0.1263 -0.5910
  511TMC3    C4 7591   2.428   2.401  14.945  0.4152  0.0849  0.5478
  511TMC3    C5 7592   2.359   2.311  15.028 -0.5242  0.0940 -0.1506
  511TMC3    C6 7593   2.280   2.355  15.122  0.7407 -0.5107  0.6039
  511TMC3     C 7594   2.463   2.628  14.872 -0.2912 -0.3272  0.1003
  511TMC3     O 7595   2.407   2.736  14.866  0.2796 -0.2708 -0.6764
  511TMC3     H 7596   2.318   2.682  15.079 -0.4802 -0.8831  1.5675
  511TMC3    H1 7597   2.496   2.375  14.865 -2.3064 -0.6651 -1.5219
  511TMC3    H2 7598   2.215   2.288  15.177 -1.2093  1.7074  0.9962
  511TMC3    C7 7599   2.359   2.170  14.984  0.0994 -0.1517 -0.0396
  511TMC3    C8 7600   2.184   2.541  15.252 -0.1246  0.0215  1.2253
  511TMC3    O1 7601   2.394   2.153  14.870 -0.5699 -0.2075 -0.1988
  511TMC3    O2 7602   2.113   2.636  15.226 -0.0365  0.1210 -0.9936
  512TMC3    C1 7603   1.200   2.232  13.189 -0.5651 -0.1566  0.1133
  512TMC3    C2 7604   1.305   2.179  13.254  0.3896 -0.3912  0.2549
  512TMC3    C3 7605   1.380   2.086  13.193  0.4432 -0.0915  0.7054
  512TMC3    C4 7606   1.180   2.191  13.060  0.2731 -0.5129 -0.4006
  512TMC3    C5 7607   1.265   2.103  12.997 -0.4050  0.4725 -1.1148
  512TMC3    C6 7608   1.370   2.052  13.064 -0.4689  0.4322  0.2100
  512TMC3     C 7609   1.095   2.291  13.280 -0.0464  0.7724  1.3273
  512TMC3     O 7610   1.126   2.309  13.397  0.8323  0.3621 -0.2360
  512TMC3     H 7611   1.321   2.206  13.358  1.1743 -1.7687  0.4907
  512TMC3    H1 7612   1.108   2.246  13.002  1.5920  2.6989  1.0171
  512TMC3    H2 7613   1.430   1.975  13.016 -1.9229  0.3452 -1.4506
  512TMC3    C7 7614   1.224   2.045  12.875  0.0393 -0.1543  0.2939
  512TMC3    C8 7615   1.484   2.016  13.266 -0.1984  0.6741  0.4059
  512TMC3    O1 7616   1.170   2.124  12.797 -0.5056 -0.9213 -0.1628
  512TMC3    O2 7617   1.494   1.897  13.236  0.0524 -0.4064  0.5560
  513MPD2     C 7618   3.669   1.529  13.031 -0.6000  0.2376  0.1710
  513MPD2    C1 7619   3.795   1.523  12.979  0.5218 -0.5355  0.4754
  513MPD2    C2 7620   3.881   1.633  12.997  0.5784  0.2858  1.1799
  513MPD2    C3 7621   3.848   1.742  13.082  0.8355 -0.0908  0.0751
  513MPD2    C4 7622   3.725   1.741  13.135 -0.0464 -0.5216  0.3520
  513MPD2    C5 7623   3.640   1.639  13.109 -0.3939 -0.4189  0.1822
  513MPD2     H 7624   3.978   1.631  12.949  0.1820  1.0967  0.3391
  513MPD2    H1 7625   3.687   1.817  13.203  1.6508 -0.2959  1.0245
  513MPD2    H2 7626   3.591   1.456  13.014 -1.4213  1.2767 -0.5367
  513MPD2    H3 7627   3.536   1.649  13.139 -0.3057  2.4747 -0.4241
  513MPD2     N 7628   3.946   1.842  13.102 -0.2414 -0.0379 -0.0777
  513MPD2    H5 7629   4.034   1.836  13.052  0.0699 -2.3007  0.7229
  513MPD2    N1 7630   3.835   1.428  12.887 -0.2944  0.2021  0.7464
  513MPD2    H7 7631   3.930   1.443  12.854 -0.6827 -1.7059 -1.2630
  514TMC3    C1 7632   3.847   1.257  12.748  0.1839 -0.4977 -0.3948
  514TMC3    C2 7633   3.825   1.275  12.617 -0.4885  0.6850  0.1297
  514TMC3    C3 7634   3.938   1.274  12.539 -0.1570 -0.3104 -0.0676
  514TMC3    C4 7635   3.964   1.224  12.806 -0.2840  0.6073  0.0685
  514TMC3    C5 7636   4.073   1.234  12.725  0.2963  0.4245 -0.1318
  514TMC3    C6 7637   4.063   1.258  12.589  0.0155 -0.1416 -0.0238
  514TMC3     C 7638   3.756   1.327  12.833  0.5718  0.1845  0.8993
  514TMC3     O 7639   3.638   1.300  12.829  0.2235  0.4135  0.0951
  514TMC3     H 7640   3.724   1.299  12.586 -1.6724 -1.1829  2.5290
  514TMC3    H1 7641   3.970   1.214  12.913 -2.0051  0.5097  0.1614
  514TMC3    H2 7642   4.149   1.257  12.523  0.6937  0.6873  0.8394
  514TMC3    C7 7643   4.156   1.323  12.793  0.1849  0.6073  0.2375
  514TMC3    C8 7644   3.924   1.296  12.392 -0.1400 -0.0519 -0.1626
  514TMC3    O1 7645   4.169   1.431  12.741  0.6228  0.7059 -0.4185
  514TMC3    O2 7646   4.009   1.244  12.319 -0.3811 -0.0432  0.1063
  515MPD2     C 7647   1.393   3.918  14.746 -0.3474  0.2242  0.4686
  515MPD2    C1 7648   1.393   3.779  14.733  0.3836  0.6376  0.3816
  515MPD2    C2 7649   1.452   3.708  14.841  0.3234 -0.0683 -0.3917
  515MPD2    C3 7650   1.521   3.775  14.942 -0.0821 -0.2343  0.2394
  515MPD2    C4 7651   1.525   3.917  14.939 -0.2824 -0.4240  0.1982
  515MPD2    C5 7652   1.460   3.986  14.842  0.0987  0.1570 -0.6793
  515MPD2     H 7653   1.437   3.601  14.846  2.0369 -0.4226 -2.4482
  515MPD2    H1 7654   1.569   3.978  15.018 -0.1410  0.4989 -0.5973
  515MPD2    H2 7655   1.333   3.980  14.681  1.5305  1.0390 -0.5014
  515MPD2    H3 7656   1.443   4.093  14.854  0.8375  0.1384  0.5927
  515MPD2     N 7657   1.571   3.704  15.049 -0.0334  0.9954 -0.1445
  515MPD2    H5 7658   1.614   3.762  15.120 -2.3231  1.7618  0.6129
  515MPD2    N1 7659   1.315   3.708  14.635 -1.0594  0.0626 -0.7339
  515MPD2    H7 7660   1.300   3.608  14.641 -2.2567  0.1538 -2.0985
  516TMC3    C1 7661   1.118   3.703  14.504 -0.3022  0.9369 -0.0023
  516TMC3    C2 7662   1.083   3.698  14.371  0.3062  0.7479 -0.3184
  516TMC3    C3 7663   0.982   3.612  14.337 -0.3310 -1.0743 -0.5179
  516TMC3    C4 7664   1.056   3.635  14.601  0.2086 -0.0258 -0.3890
  516TMC3    C5 7665   0.953   3.553  14.565  0.1773  0.1165 -0.2866
  516TMC3    C6 7666   0.912   3.545  14.434 -0.3531  0.1046 -0.2966
  516TMC3     C 7667   1.242   3.770  14.534  0.1148  0.4286  0.2201
  516TMC3     O 7668   1.260   3.880  14.482 -0.0580 -0.1189 -0.3672
  516TMC3     H 7669   1.148   3.747  14.300  0.7571 -3.1311 -2.6275
  516TMC3    H1 7670   1.098   3.636  14.701  0.4353 -0.0915 -0.4853
  516TMC3    H2 7671   0.835   3.479  14.397  2.7110 -3.6812  0.0951
  516TMC3    C7 7672   0.940   3.442  14.657 -0.7927 -0.0818  0.6580
  516TMC3    C8 7673   0.932   3.605  14.202  0.8260 -0.0921  0.2534
  516TMC3    O1 7674   1.020   3.433  14.749 -0.0192 -0.4992 -0.3860
  516TMC3    O2 7675   0.815   3.579  14.189  0.4411  0.0801 -0.3217
  517MPD2     C 7676   0.809   0.099   0.227  0.0149  0.6421 -0.0019
  517MPD2    C1 7677   0.946   0.087   0.239 -0.0586 -0.2446 -0.4673
  517MPD2    C2 7678   1.015   0.202   0.282  0.7524 -0.1929 -0.1932
  517MPD2    C3 7679   0.957   0.333   0.305  0.8708 -0.2904  0.3845
  517MPD2    C4 7680   0.822   0.334   0.283 -0.3358 -0.5906  0.9989
  517MPD2    C5 7681   0.752   0.222   0.243 -0.6521  0.2937 -0.0079
  517MPD2     H 7682   1.122   0.194   0.299  0.7464 -0.4800 -0.2875
  517MPD2    H1 7683   0.777   0.431   0.302  0.8610  0.1787 -0.0788
  517MPD2    H2 7684   0.744   0.019   0.195 -0.1970  0.1582  1.6325
  517MPD2    H3 7685   0.646   0.237   0.225 -0.4516  1.6357 -0.0744
  517MPD2     N 7686   1.016   0.453   0.362 -0.6108  0.3214 -0.1719
  517MPD2    H5 7687   0.958   0.536   0.365  0.3256  1.0030 -0.9840
  517MPD2    N1 7688   1.013   4.690   0.216  0.0475  0.1201  0.0258
  517MPD2    H7 7689   1.109   4.685   0.251 -0.0133 -3.3108 -0.2379
  518TMC3    C1 7690   1.064   4.500   0.101 -0.3313 -0.1705 -0.7815
  518TMC3    C2 7691   1.029   4.371   0.086 -0.1313 -0.0615  0.0330
  518TMC3    C3 7692   1.128   4.297   0.019 -0.2914  0.4463  0.0933
  518TMC3    C4 7693   1.186   4.554   0.060 -0.3673  0.7191 -0.1666
  518TMC3    C5 7694   1.268   4.479  17.685  0.7818 -0.6896 -0.3351
  518TMC3    C6 7695   1.246   4.349  17.659 -0.0421 -0.2766 -0.1601
  518TMC3     C 7696   0.958   4.588   0.149 -0.4003 -0.5146  0.9793
  518TMC3     O 7697   0.844   4.558   0.106  0.0195 -0.2165 -0.1097
  518TMC3     H 7698   0.937   4.325   0.119 -0.0129  1.5734  2.6632
  518TMC3    H1 7699   1.194   4.662   0.050  1.5533  0.3995 -2.0981
  518TMC3    H2 7700   1.323   4.287  17.615 -1.3071 -1.1636 -1.1348
  518TMC3    C7 7701   1.392   4.554  17.645 -0.1950 -0.4343 -0.6298
  518TMC3    C8 7702   1.102   4.154  17.693 -0.2141 -0.3383 -0.0893
  518TMC3    O1 7703   1.398   4.672  17.686  0.1110  0.1017 -0.1900
  518TMC3    O2 7704   1.165   4.099  17.601  1.0994 -0.1447  0.0599
  519MPD2     C 7705   2.789   3.640  14.602  0.0211  0.2168  0.0789
  519MPD2    C1 7706   2.727   3.623  14.482  0.6448  0.4809 -0.7560
  519MPD2    C2 7707   2.791   3.554  14.379 -0.7265  0.2616  0.2432
  519MPD2    C3 7708   2.909   3.493  14.401 -0.6686 -0.5382 -0.5430
  519MPD2    C4 7709   2.970   3.506  14.522 -0.2229 -0.4587  0.4479
  519MPD2    C5 7710   2.907   3.574  14.625 -0.1882 -0.0072  0.7269
  519MPD2     H 7711   2.734   3.537  14.289 -2.8667 -0.3040  1.7056
  519MPD2    H1 7712   3.059   3.447  14.543  1.4657  1.7912 -0.4618
  519MPD2    H2 7713   2.744   3.698  14.681 -0.2844  1.6099 -1.1260
  519MPD2    H3 7714   2.960   3.591  14.717  0.5320 -0.3491  0.3784
  519MPD2     N 7715   2.984   3.431  14.300  0.0309 -0.0232  0.3466
  519MPD2    H5 7716   3.077   3.396  14.323  0.4470 -0.1045 -1.5072
  519MPD2    N1 7717   2.596   3.676  14.475  0.0821  0.0026 -0.1258
  519MPD2    H7 7718   2.560   3.731  14.552 -0.4481  0.1664 -0.4965
  520TMC3    C1 7719   3.027   3.364  14.076  0.5044  0.2484  0.1446
  520TMC3    C2 7720   2.992   3.383  13.943 -0.2547 -0.5293 -0.4728
  520TMC3    C3 7721   3.026   3.297  13.844 -0.3703 -0.3580 -0.5336
  520TMC3    C4 7722   3.119   3.264  14.110 -0.2576  0.8796  0.3437
  520TMC3    C5 7723   3.163   3.181  14.003  0.2108  0.0250  0.0563
  520TMC3    C6 7724   3.116   3.201  13.876 -0.0645  0.3080 -0.0309
  520TMC3     C 7725   2.934   3.405  14.178  0.0863 -0.1647 -0.2602
  520TMC3     O 7726   2.824   3.432  14.130 -0.1669  0.1857  0.1522
  520TMC3     H 7727   2.935   3.473  13.920 -1.4848 -0.7101  1.9013
  520TMC3    H1 7728   3.149   3.248  14.213  2.7779  0.3507 -0.6298
  520TMC3    H2 7729   3.142   3.128  13.800 -0.1229 -0.0517  0.2946
  520TMC3    C7 7730   3.273   3.088  14.018  0.1663  0.5776 -0.5578
  520TMC3    C8 7731   2.960   3.293  13.717 -0.6706  0.6137  0.2566
  520TMC3    O1 7732   3.275   3.018  14.116 -0.2148 -0.4626  0.1162
  520TMC3    O2 7733   3.014   3.234  13.625  0.4321 -0.7586 -0.7129
  521MPD2     C 7734   3.699   1.666  17.489 -0.9846  0.2296  0.0537
  521MPD2    C1 7735   3.665   1.571  17.394 -0.1429  0.4205  0.3405
  521MPD2    C2 7736   3.767   1.518  17.317 -0.3619 -0.0937 -0.0499
  521MPD2    C3 7737   3.900   1.552  17.333 -0.2000  0.3059  0.2124
  521MPD2    C4 7738   3.932   1.644  17.434  0.1960  0.9737  0.7839
  521MPD2    C5 7739   3.833   1.688  17.517  0.1099  0.1438 -0.2540
  521MPD2     H 7740   3.745   1.437  17.250  2.2941  1.0741 -2.3107
  521MPD2    H1 7741   4.036   1.674  17.432  0.5826 -0.2924  2.1123
  521MPD2    H2 7742   3.626   1.715  17.552 -3.0332  1.1326 -3.0045
  521MPD2    H3 7743   3.864   1.745  17.604  0.9971 -0.5644 -0.1019
  521MPD2     N 7744   3.992   1.508  17.236 -0.6707 -0.1615  0.0671
  521MPD2    H5 7745   3.957   1.441  17.168 -1.2341 -0.2641  0.4668
  521MPD2    N1 7746   3.534   1.521  17.390 -0.3052  0.2169 -0.6043
  521MPD2    H7 7747   3.528   1.443  17.326  1.7757 -1.6802  1.4824
  522TMC3    C1 7748   4.195   1.474  17.123  0.1048 -0.4505  0.2567
  522TMC3    C2 7749   4.321   1.428  17.138  0.1976 -0.8407 -0.0202
  522TMC3    C3 7750   4.379   1.370  17.034 -0.1459 -0.9641 -0.6635
  522TMC3    C4 7751   4.126   1.454  17.004 -0.2893  0.4285 -0.0772
  522TMC3    C5 7752   4.184   1.393  16.899  0.3686 -0.4483  0.0872
  522TMC3    C6 7753   4.315   1.354  16.912 -0.1260  0.2195  0.5686
  522TMC3     C 7754   4.132   1.533  17.234 -0.0395  0.3829  0.1743
  522TMC3     O 7755   4.208   1.583  17.315 -0.1337 -0.4968 -0.2774
  522TMC3     H 7756   4.372   1.426  17.234  0.9673  0.5920 -0.3918
  522TMC3    H1 7757   4.038   1.515  16.989  0.6345  1.3762 -1.5566
  522TMC3    H2 7758   4.362   1.307  16.826  0.6040  0.4884  0.8186
  522TMC3    C7 7759   4.122   1.380  16.769 -0.3727 -0.2947 -0.3895
  522TMC3    C8 7760   4.519   1.359  17.049  0.0810 -0.4577 -0.3046
  522TMC3    O1 7761   4.202   1.363  16.680  0.0404 -0.4106  0.1564
  522TMC3    O2 7762   4.589   1.424  17.125  0.6379 -0.1256  0.1829
  523MPD2     C 7763   1.056   1.653  10.064 -0.1052 -0.1873 -0.8166
  523MPD2    C1 7764   0.966   1.552  10.028 -0.6094  0.3450 -0.6686
  523MPD2    C2 7765   0.857   1.574   9.945 -0.0112  0.6354 -0.0397
  523MPD2    C3 7766   0.834   1.705   9.905 -0.3376 -0.5313  0.5187
  523MPD2    C4 7767   0.922   1.803   9.937 -0.0605 -0.1446  0.3809
  523MPD2    C5 7768   1.032   1.780  10.021  0.2771 -0.6423 -0.2863
  523MPD2     H 7769   0.786   1.494   9.928 -1.0428  1.6927 -0.7406
  523MPD2    H1 7770   0.908   1.904   9.902  1.5062 -0.8605 -2.2674
  523MPD2    H2 7771   1.140   1.625  10.127  0.7427  2.5065 -0.7579
  523MPD2    H3 7772   1.106   1.857  10.042 -0.4476  0.1678 -0.7089
  523MPD2     N 7773   0.728   1.750   9.824  0.4453  0.0264  0.4706
  523MPD2    H5 7774   0.737   1.840   9.780  1.0411  0.7509  2.0640
  523MPD2    N1 7775   0.993   1.418  10.077  0.2889  0.1789  0.2235
  523MPD2    H7 7776   1.087   1.403  10.111 -0.1898 -0.0875  1.4312
  524TMC3    C1 7777   0.545   1.744   9.683 -0.2132  0.1378  0.6498
  524TMC3    C2 7778   0.518   1.679   9.565  0.1810  0.2954  0.1075
  524TMC3    C3 7779   0.482   1.761   9.459 -0.5489 -0.4849  0.1569
  524TMC3    C4 7780   0.546   1.881   9.696 -0.0383  0.6447 -0.2535
  524TMC3    C5 7781   0.515   1.952   9.586  0.2540 -0.1716  0.2399
  524TMC3    C6 7782   0.476   1.898   9.472 -0.8940  0.6193 -0.4270
  524TMC3     C 7783   0.626   1.668   9.778  0.6859 -0.2776 -0.4266
  524TMC3     O 7784   0.617   1.547   9.788 -0.8716  0.3383 -0.0855
  524TMC3     H 7785   0.554   1.578   9.549  0.5808  0.6268 -1.1264
  524TMC3    H1 7786   0.570   1.928   9.791 -1.9662 -1.1429  1.1120
  524TMC3    H2 7787   0.439   1.962   9.392 -0.2207  1.3898 -0.1182
  524TMC3    C7 7788   0.547   2.096   9.606  0.1742  0.6252  0.2725
  524TMC3    C8 7789   0.425   1.719   9.336 -0.0896  0.1010 -0.3300
  524TMC3    O1 7790   0.625   2.122   9.691  0.6470  0.3667  0.2413
  524TMC3    O2 7791   0.429   1.793   9.238  0.2608  1.0955 -0.0231
  525MPD2     C 7792   4.046   2.875  14.437  0.4535 -0.6839 -0.0556
  525MPD2    C1 7793   4.181   2.879  14.463  0.4300  0.0366 -0.5693
  525MPD2    C2 7794   4.258   2.986  14.419 -0.4040 -0.4760 -0.4697
  525MPD2    C3 7795   4.197   3.097  14.363  0.0473 -0.0762  0.0875
  525MPD2    C4 7796   4.070   3.081  14.319  0.7497 -0.1592 -0.3115
  525MPD2    C5 7797   3.998   2.972  14.357  0.4115 -0.0905 -0.2246
  525MPD2     H 7798   4.363   2.993  14.446 -0.6498 -2.9073  1.1042
  525MPD2    H1 7799   4.015   3.151  14.256  2.2752  0.0395 -1.4251
  525MPD2    H2 7800   3.994   2.782  14.456 -0.0244 -0.7324 -1.6210
  525MPD2    H3 7801   3.894   2.972  14.330  0.2252 -0.4509  0.5016
  525MPD2     N 7802   4.269   3.211  14.316 -0.4647  0.0761 -0.2655
  525MPD2    H5 7803   4.206   3.286  14.288 -0.3183  2.2448  5.1346
  525MPD2    N1 7804   4.255   2.783  14.537  0.0335 -0.1441  0.1663
  525MPD2    H7 7805   4.353   2.804  14.554 -0.3925  1.0143  1.2324
  526TMC3    C1 7806   4.288   2.607  14.688 -0.7341  0.0005  0.5843
  526TMC3    C2 7807   4.227   2.570  14.807 -0.0473  0.2394  0.3013
  526TMC3    C3 7808   4.306   2.549  14.923 -0.5035  0.1279 -0.7699
  526TMC3    C4 7809   4.425   2.623  14.684  0.0296  0.1529  0.0482
  526TMC3    C5 7810   4.497   2.609  14.796 -0.0474  0.3953  0.3759
  526TMC3    C6 7811   4.441   2.573  14.922 -0.5388 -0.6293  0.2290
  526TMC3     C 7812   4.197   2.667  14.593 -0.2947  0.5439 -0.3086
  526TMC3     O 7813   4.080   2.624  14.593  0.3807  1.0440 -0.2988
  526TMC3     H 7814   4.122   2.544  14.803  0.4483 -2.0004  2.2211
  526TMC3    H1 7815   4.477   2.656  14.594 -0.3925 -1.8958 -0.9474
  526TMC3    H2 7816   4.514   2.552  14.999  0.7235  0.7168 -0.6130
  526TMC3    C7 7817   4.637   2.655  14.794 -0.1474  0.0028 -0.2988
  526TMC3    C8 7818   4.252   2.557  15.056  0.1368 -0.6495 -0.5690
  526TMC3    O1 7819   4.686   2.691  14.899 -0.1203  0.8793 -0.2070
  526TMC3    O2 7820   4.327   2.529  15.144  0.1067 -0.5229 -0.6022
  527MPD2     C 7821   1.846   0.967   1.522  0.0275 -0.1101  0.2299
  527MPD2    C1 7822   1.922   0.867   1.581 -0.6567 -0.4811 -0.2108
  527MPD2    C2 7823   2.053   0.853   1.540 -0.5452 -0.0146  0.8480
  527MPD2    C3 7824   2.109   0.946   1.455 -0.2918  0.2483 -0.2401
  527MPD2    C4 7825   2.035   1.048   1.398  0.3060 -0.4091  0.2650
  527MPD2    C5 7826   1.903   1.053   1.434  0.8864  1.0987  0.1111
  527MPD2     H 7827   2.120   0.777   1.578  0.3119  1.3776  2.1367
  527MPD2    H1 7828   2.079   1.127   1.338  0.6984 -1.2118 -0.5088
  527MPD2    H2 7829   1.744   0.989   1.549 -1.1308 -1.8649 -2.6892
  527MPD2    H3 7830   1.840   1.127   1.386 -0.0317 -1.0936 -2.0702
  527MPD2     N 7831   2.241   0.919   1.426  0.3974 -0.1402 -0.3239
  527MPD2    H5 7832   2.283   0.834   1.463 -1.5971 -1.4882 -1.1741
  527MPD2    N1 7833   1.870   0.777   1.672  0.0244 -0.6359  0.3255
  527MPD2    H7 7834   1.927   0.694   1.689 -0.7083 -1.0435  0.7604
  528TMC3    C1 7835   1.739   0.656   1.809  1.0712  0.0402 -0.0844
  528TMC3    C2 7836   1.841   0.567   1.826 -0.7310  0.2726 -0.8879
  528TMC3    C3 7837   1.827   0.475   1.932  0.8231 -0.3705 -0.1717
  528TMC3    C4 7838   1.631   0.660   1.900  0.6200 -0.1505  0.5643
  528TMC3    C5 7839   1.621   0.572   2.004 -0.0080 -0.2939 -0.2138
  528TMC3    C6 7840   1.720   0.477   2.023 -0.0107 -0.1426  0.3973
  528TMC3     C 7841   1.745   0.776   1.726 -0.2852 -0.1828  0.9363
  528TMC3     O 7842   1.661   0.863   1.720  0.0814  0.5927 -0.4013
  528TMC3     H 7843   1.911   0.546   1.747  1.1327 -0.5394  0.9773
  528TMC3    H1 7844   1.555   0.726   1.861  3.2520  2.7308  0.2946
  528TMC3    H2 7845   1.730   0.432   2.120  0.5645 -0.9896 -0.0559
  528TMC3    C7 7846   1.487   0.524   2.034  0.1838 -0.3780 -0.0965
  528TMC3    C8 7847   1.942   0.396   1.960 -0.2413  1.0063  0.2243
  528TMC3    O1 7848   1.481   0.402   2.040 -0.2054 -0.2304 -0.2362
  528TMC3    O2 7849   2.049   0.459   1.959  0.5087  0.2660 -0.1840
  529MPD2     C 7850   4.327   3.395   0.349  0.0465  0.4595 -0.2563
  529MPD2    C1 7851   4.338   3.473   0.460  0.1384  0.1684  0.3526
  529MPD2    C2 7852   4.313   3.609   0.455  0.2585  0.5194 -0.1568
  529MPD2    C3 7853   4.276   3.666   0.334  0.5902 -0.3903  0.4474
  529MPD2    C4 7854   4.267   3.587   0.224  0.4629 -0.4168 -0.2539
  529MPD2    C5 7855   4.278   3.451   0.231  0.7804 -0.4912 -0.3919
  529MPD2     H 7856   4.324   3.669   0.544  0.6838  0.6263 -0.2839
  529MPD2    H1 7857   4.237   3.631   0.129  0.5431  1.1665  0.4686
  529MPD2    H2 7858   4.341   3.287   0.345 -0.2008  0.4646 -1.3029
  529MPD2    H3 7859   4.263   3.397   0.139  2.5930 -1.6867  0.0066
  529MPD2     N 7860   4.246   3.802   0.318  0.3039 -0.3196  0.3519
  529MPD2    H5 7861   4.211   3.829   0.227 -2.7928  1.1622  1.9820
  529MPD2    N1 7862   4.386   3.425   0.582 -0.7429  0.6897  0.2210
  529MPD2    H7 7863   4.413   3.500   0.644 -2.6633  0.2748  1.5460
  530TMC3    C1 7864   4.452   3.264   0.742  0.5965  0.7485  0.0840
  530TMC3    C2 7865   4.566   3.335   0.778  0.3988  0.0334 -0.1771
  530TMC3    C3 7866   4.628   3.293   0.889 -0.5812  0.1535 -0.2664
  530TMC3    C4 7867   4.406   3.161   0.811 -0.0475  0.3231 -0.8497
  530TMC3    C5 7868   4.471   3.127   0.925  0.1424 -0.8247  1.0674
  530TMC3    C6 7869   4.588   3.186   0.956 -0.1943  0.1490 -0.2541
  530TMC3     C 7870   4.376   3.297   0.622  0.0260 -0.2318 -1.0766
  530TMC3     O 7871   4.314   3.202   0.574  0.3708  0.2276 -0.2661
  530TMC3     H 7872   4.610   3.410   0.713  0.6318 -0.7147 -0.8733
  530TMC3    H1 7873   4.317   3.106   0.784  0.3041 -0.3570 -0.6299
  530TMC3    H2 7874   4.629   3.164   1.054 -0.8211 -0.5602 -0.1460
  530TMC3    C7 7875   4.440   2.991   0.970 -0.2173  0.1323 -0.1635
  530TMC3    C8 7876   0.046   3.329   0.908  0.4152  0.1178 -0.4023
  530TMC3    O1 7877   4.529   2.901   0.967 -0.6834  0.3207  0.2381
  530TMC3    O2 7878   0.087   3.418   0.834 -0.2211  0.2767 -0.2103
  531MPD2     C 7879   4.376   1.495  13.231  0.0883  0.8307  0.1787
  531MPD2    C1 7880   4.325   1.563  13.126  0.2766  0.6520 -0.0876
  531MPD2    C2 7881   4.261   1.498  13.017 -0.2764 -0.1291  0.5414
  531MPD2    C3 7882   4.256   1.360  13.014  0.1580  1.1873 -0.0042
  531MPD2    C4 7883   4.315   1.294  13.122  0.2718  0.4189  0.7075
  531MPD2    C5 7884   4.375   1.358  13.228 -0.8959  1.1075  0.3246
  531MPD2     H 7885   4.227   1.547  12.926  1.3348 -0.7571 -0.4008
  531MPD2    H1 7886   4.307   1.186  13.129  2.6316  0.1225 -1.0650
  531MPD2    H2 7887   4.418   1.543  13.319  1.6699  0.4799 -0.3971
  531MPD2    H3 7888   4.433   1.300  13.300 -1.3154  1.3336  0.8472
  531MPD2     N 7889   4.190   1.282  12.920 -0.2817  0.0807 -0.0969
  531MPD2    H5 7890   4.182   1.183  12.942 -0.0250  0.4515  1.6549
  531MPD2    N1 7891   4.329   1.700  13.139 -0.1996  0.4923 -0.4449
  531MPD2    H7 7892   4.381   1.732  13.221  1.9480 -1.5282 -1.0055
  532TMC3    C1 7893   4.287   1.922  13.101 -0.2204  0.4450 -0.5628
  532TMC3    C2 7894   4.161   1.976  13.077  0.5177 -0.6885  0.5168
  532TMC3    C3 7895   4.083   2.005  13.188  0.1270 -0.2539 -0.4050
  532TMC3    C4 7896   4.342   1.922  13.227  0.7716 -0.0983  0.0057
  532TMC3    C5 7897   4.269   1.955  13.333 -0.1420 -0.4645  0.2619
  532TMC3    C6 7898   4.139   1.996  13.310  0.5200 -0.3445 -0.0194
  532TMC3     C 7899   4.274   1.787  13.051 -0.0188 -0.3280  0.0166
  532TMC3     O 7900   4.189   1.770  12.967  0.3413  0.1781 -0.0566
  532TMC3     H 7901   4.116   1.992  12.980  2.4260 -1.6210 -0.5242
  532TMC3    H1 7902   4.443   1.886  13.243  0.8002 -0.1344 -0.2538
  532TMC3    H2 7903   4.073   2.011  13.395  0.0520  1.8637 -0.7855
  532TMC3    C7 7904   4.298   1.885  13.457 -0.5885 -0.6064 -0.4756
  532TMC3    C8 7905   3.944   1.953  13.186  0.7928  0.0758  0.0541
  532TMC3    O1 7906   4.409   1.904  13.505 -0.4250  0.2600  0.3955
  532TMC3    O2 7907   3.859   1.987  13.271  0.1752 -0.4496 -0.3473
  533TMC3    C1 7908   4.441   3.376  14.311 -0.1924  0.2475 -0.3019
  533TMC3    C2 7909   4.566   3.413  14.357 -0.2814  0.2532  0.2328
  533TMC3    C3 7910   4.577   3.546  14.385 -0.7880 -0.3392 -0.3978
  533TMC3    C4 7911   4.342   3.465  14.278  0.9080 -0.3129  0.5989
  533TMC3    C5 7912   4.351   3.593  14.331 -0.0700  0.8709  0.5253
  533TMC3    C6 7913   4.472   3.638  14.383 -0.1717 -0.7137  0.5870
  533TMC3     C 7914   4.409   3.235  14.336 -1.1851  0.0705 -0.4413
  533TMC3     O 7915   4.501   3.158  14.357 -0.0614 -0.0323 -0.0185
  533TMC3     H 7916   4.649   3.346  14.376  0.3059  0.8480 -0.2391
  533TMC3    H1 7917   4.258   3.430  14.218  1.3518 -1.3630  0.5766
  533TMC3    H2 7918   4.481   3.732  14.436  2.1342  1.1216 -3.0464
  533TMC3    C7 7919   4.233   3.610  14.415  0.3790 -0.1582  0.4311
  533TMC3    C8 7920   4.695   3.586  14.464  0.6372  0.5705 -0.0596
  533TMC3    O1 7921   4.140   3.534  14.395 -0.2206 -0.0316  0.0426
  533TMC3    O2 7922   0.040   3.495  14.504  0.1661 -0.2922  0.3176
  534MPD2     C 7923   1.485   4.307   2.180  0.4390 -0.9917 -0.5259
  534MPD2    C1 7924   1.601   4.264   2.114 -0.3491 -0.7356 -0.9949
  534MPD2    C2 7925   1.648   4.138   2.139  0.0336 -0.0587 -0.1174
  534MPD2    C3 7926   1.585   4.056   2.226 -0.3967  0.6548  0.4316
  534MPD2    C4 7927   1.473   4.096   2.283 -0.3499  0.3961 -0.6856
  534MPD2    C5 7928   1.415   4.219   2.262 -0.0340 -0.0644 -0.2469
  534MPD2     H 7929   1.739   4.099   2.095 -0.7710 -2.9185  0.7441
  534MPD2    H1 7930   1.418   4.025   2.343  2.0437 -0.2559  0.7325
  534MPD2    H2 7931   1.442   4.406   2.175  1.2821 -0.6081 -0.2314
  534MPD2    H3 7932   1.321   4.244   2.310 -0.6221 -1.6969 -0.5544
  534MPD2     N 7933   1.632   3.925   2.256  0.0113 -0.1118  0.3204
  534MPD2    H5 7934   1.583   3.872   2.327 -1.5036 -1.5731 -1.7936
  534MPD2    N1 7935   1.679   4.346   2.022  0.5073  0.2823  0.7502
  534MPD2    H7 7936   1.764   4.305   1.984  1.4963  1.6458  1.4793
  535TMC3    C1 7937   1.772   3.729   2.258  0.2008  0.8404  0.1702
  535TMC3    C2 7938   1.661   3.652   2.266 -0.0310  0.5066 -0.3375
  535TMC3    C3 7939   1.679   3.516   2.249 -0.0372 -0.4047 -0.0762
  535TMC3    C4 7940   1.899   3.687   2.248  0.5445 -0.0741 -0.9659
  535TMC3    C5 7941   1.910   3.552   2.221 -0.4692  0.1730  0.0388
  535TMC3    C6 7942   1.804   3.462   2.220 -0.2198  0.4002  0.5307
  535TMC3     C 7943   1.754   3.872   2.224 -0.6832  0.6751 -0.5337
  535TMC3     O 7944   1.854   3.927   2.177 -0.0238 -0.3558 -0.7997
  535TMC3     H 7945   1.561   3.692   2.279 -0.1121  0.0210  0.5361
  535TMC3    H1 7946   1.980   3.758   2.235  0.5916  0.2103  0.9211
  535TMC3    H2 7947   1.818   3.361   2.184  1.7435 -0.7673  4.6189
  535TMC3    C7 7948   2.003   3.522   2.114 -0.0544 -0.1252  0.5682
  535TMC3    C8 7949   1.554   3.434   2.240  0.1699  0.0078 -0.1989
  535TMC3    O1 7950   1.944   3.470   2.020  1.5022  0.0351  0.1740
  535TMC3    O2 7951   1.450   3.495   2.220 -0.2481 -0.3472 -0.5814
  536MPD2     C 7952   0.192   2.334  16.739 -0.0024  0.4946 -0.3223
  536MPD2    C1 7953   0.322   2.363  16.685  0.4460 -0.5303 -0.6525
  536MPD2    C2 7954   0.338   2.430  16.561  0.2453 -0.6721  0.4816
  536MPD2    C3 7955   0.212   2.470  16.504  0.4543  0.6560  0.3401
  536MPD2    C4 7956   0.089   2.455  16.568  0.4457 -0.4169  0.4740
  536MPD2    C5 7957   0.079   2.383  16.687 -0.0184 -1.0942  0.7418
  536MPD2     H 7958   0.432   2.449  16.510 -0.3789 -1.1258 -0.8437
  536MPD2    H1 7959   4.722   2.502  16.533 -0.1600 -1.7423  0.2755
  536MPD2    H2 7960   0.194   2.289  16.837  1.2998  1.8220  0.2594
  536MPD2    H3 7961   4.706   2.370  16.733  0.5722 -2.4841  1.6155
  536MPD2     N 7962   0.215   2.548  16.387 -0.3675  0.6357  0.3244
  536MPD2    H5 7963   0.131   2.602  16.370 -0.6219 -0.8057 -3.0572
  536MPD2    N1 7964   0.431   2.312  16.757  0.3162  0.3710 -0.0531
  536MPD2    H7 7965   0.403   2.232  16.814  0.6911 -1.1070 -1.9390
  537TMC3    C1 7966   0.644   2.257  16.842 -0.3178 -0.7532 -0.0649
  537TMC3    C2 7967   0.741   2.302  16.926 -0.1104 -0.2828 -0.2871
  537TMC3    C3 7968   0.825   2.210  16.978 -0.2793  0.1710 -0.9116
  537TMC3    C4 7969   0.643   2.124  16.798 -0.2551 -0.2480  0.3490
  537TMC3    C5 7970   0.727   2.030  16.853  0.3574 -0.3475 -0.0435
  537TMC3    C6 7971   0.819   2.077  16.951  0.6603  0.1425 -0.0594
  537TMC3     C 7972   0.560   2.358  16.775  0.2707  0.0595 -0.7134
  537TMC3     O 7973   0.603   2.472  16.760 -0.1187 -0.0092  0.6203
  537TMC3     H 7974   0.754   2.408  16.941 -0.4990 -0.3802  0.7640
  537TMC3    H1 7975   0.575   2.100  16.717 -1.8071  2.8178  0.7746
  537TMC3    H2 7976   0.896   2.009  16.986 -0.2167 -1.2278 -0.7929
  537TMC3    C7 7977   0.764   1.930  16.750  0.0355 -0.1012 -0.1470
  537TMC3    C8 7978   0.907   2.236  17.094  0.7357 -0.4722 -0.7070
  537TMC3    O1 7979   0.738   1.961  16.634  0.1543  0.1332 -0.5225
  537TMC3    O2 7980   0.959   2.140  17.148  0.4761 -0.5059 -0.1577
  538TMC3    C1 7981   1.565   1.192  11.163 -0.3156 -0.7951  0.2868
  538TMC3    C2 7982   1.688   1.231  11.114 -0.1128  0.2769  0.5675
  538TMC3    C3 7983   1.691   1.340  11.033  0.1369  0.3837 -0.6375
  538TMC3    C4 7984   1.453   1.252  11.127 -0.1020 -0.2108  0.1012
  538TMC3    C5 7985   1.468   1.368  11.054  0.4070 -0.1612  0.0026
  538TMC3    C6 7986   1.583   1.410  10.990  0.5752  0.8042  0.0676
  538TMC3     C 7987   1.552   1.097  11.278 -0.1635 -0.6187  0.4510
  538TMC3     O 7988   1.451   1.082  11.341  0.8241 -0.2179 -0.2795
  538TMC3     H 7989   1.783   1.187  11.142  0.1591  1.0254  0.8289
  538TMC3    H1 7990   1.363   1.216  11.176  1.1390 -0.6273  2.0763
  538TMC3    H2 7991   1.598   1.487  10.915 -0.9732  0.3403 -0.7088
  538TMC3    C7 7992   1.352   1.457  11.060 -0.0707 -0.2746 -0.2271
  538TMC3    C8 7993   1.813   1.355  10.956 -0.1090 -0.4436 -0.3342
  538TMC3    O1 7994   1.253   1.425  11.124 -0.0496 -0.0904 -0.6910
  538TMC3    O2 7995   1.870   1.257  10.923 -0.2855  0.5359  0.3326
  539MPD2     C 7996   1.321   0.265  11.883  0.1408  0.1446 -0.8500
  539MPD2    C1 7997   1.357   0.304  11.754 -0.2443  0.2267  0.6053
  539MPD2    C2 7998   1.332   0.443  11.723  0.2831 -0.4365  0.5506
  539MPD2    C3 7999   1.254   0.518  11.813 -0.4152  0.0572 -0.4819
  539MPD2    C4 8000   1.217   0.465  11.933 -0.6210 -0.3612 -0.2362
  539MPD2    C5 8001   1.252   0.344  11.972  0.1525  0.4310 -0.0978
  539MPD2     H 8002   1.365   0.483  11.628  0.4439  3.5228  2.2645
  539MPD2    H1 8003   1.156   0.526  11.998  1.9376 -0.4255  2.1940
  539MPD2    H2 8004   1.338   0.163  11.914  2.9406  0.6484 -0.6961
  539MPD2    H3 8005   1.223   0.311  12.071 -0.6284 -2.4209 -1.2667
  539MPD2     N 8006   1.209   0.648  11.791  0.2445 -0.2353  0.4583
  539MPD2    H5 8007   1.181   0.695  11.876  1.9751 -0.4879  1.1716
  539MPD2    N1 8008   1.439   0.226  11.663 -0.2636  0.4640  0.4942
  539MPD2    H7 8009   1.477   0.279  11.584  0.2448  0.5466  0.7925
  540TMC3    C1 8010   1.194   0.851  11.662  0.0031 -0.2706 -0.2917
  540TMC3    C2 8011   1.207   0.924  11.548  0.1673  0.3503 -0.3025
  540TMC3    C3 8012   1.163   1.051  11.536 -0.0911  0.3647 -0.2367
  540TMC3    C4 8013   1.133   0.916  11.772  1.0690  0.9562  0.0446
  540TMC3    C5 8014   1.089   1.046  11.759  0.2610 -0.0160  0.5312
  540TMC3    C6 8015   1.101   1.116  11.639  0.5234  0.1525  0.0707
  540TMC3     C 8016   1.213   0.710  11.664  0.1962  1.2222 -0.6880
  540TMC3     O 8017   1.251   0.659  11.559 -0.5917  0.4070  0.1165
  540TMC3     H 8018   1.265   0.883  11.466 -1.4766 -2.5682  0.0027
  540TMC3    H1 8019   1.123   0.870  11.870  1.4285 -0.0228 -0.3715
  540TMC3    H2 8020   1.053   1.212  11.623  3.3429  1.0562 -2.8979
  540TMC3    C7 8021   1.001   1.086  11.867 -0.7196  0.1059  0.6290
  540TMC3    C8 8022   1.121   1.098  11.398  0.2381  0.3338  0.1437
  540TMC3    O1 8023   0.961   1.006  11.952  0.0554 -0.6188  0.0937
  540TMC3    O2 8024   1.081   1.212  11.392  0.1062 -0.2734  0.1947
  541MPD2     C 8025   0.253   2.052  13.346  0.3079  0.8165 -0.2860
  541MPD2    C1 8026   0.320   1.982  13.251 -0.3721 -0.2827  0.2670
  541MPD2    C2 8027   0.302   2.019  13.113  0.0088  0.0048 -1.1376
  541MPD2    C3 8028   0.231   2.139  13.081  0.1030  0.2559  0.1109
  541MPD2    C4 8029   0.180   2.217  13.179  0.6545  0.5274  0.3869
  541MPD2    C5 8030   0.192   2.170  13.308  0.6215 -0.0064  0.3483
  541MPD2     H 8031   0.344   1.953  13.039  1.3523 -0.4323  0.0268
  541MPD2    H1 8032   0.145   2.318  13.164 -0.3051 -0.0344 -1.2277
  541MPD2    H2 8033   0.249   2.026  13.451  1.1131 -1.4107 -0.7974
  541MPD2    H3 8034   0.168   2.232  13.393  1.1560  0.8089 -0.0828
  541MPD2     N 8035   0.223   2.188  12.950 -0.2618 -0.1211 -0.7223
  541MPD2    H5 8036   0.171   2.275  12.940 -0.7887 -0.4651 -0.9857
  541MPD2    N1 8037   0.381   1.863  13.295 -0.8703 -0.4003  0.1064
  541MPD2    H7 8038   0.343   1.819  13.379 -0.7916  0.3545  0.5319
  542TMC3    C1 8039   0.231   2.194  12.712 -0.3820 -0.5782 -0.1577
  542TMC3    C2 8040   0.247   2.113  12.603  0.4852 -0.4432  0.5289
  542TMC3    C3 8041   0.220   2.176  12.485  0.7118 -0.6805 -0.7993
  542TMC3    C4 8042   0.189   2.325  12.708  0.2572  0.1045 -0.5727
  542TMC3    C5 8043   0.142   2.372  12.592  0.6051 -0.6731 -0.3840
  542TMC3    C6 8044   0.169   2.307  12.472  0.1959 -0.3207 -0.0971
  542TMC3     C 8045   0.257   2.124  12.838  0.2857  0.5979  0.4017
  542TMC3     O 8046   0.302   2.011  12.834  0.5187 -0.1726  0.2831
  542TMC3     H 8047   0.281   2.010  12.602 -0.3324 -0.7406  2.1932
  542TMC3    H1 8048   0.211   2.387  12.794 -3.4776  1.7383 -0.8003
  542TMC3    H2 8049   0.140   2.357  12.380 -0.0871 -1.3779 -0.5911
  542TMC3    C7 8050   0.113   2.513  12.590 -0.8526 -0.1510 -0.6930
  542TMC3    C8 8051   0.235   2.113  12.355 -0.2872  0.0849 -1.0045
  542TMC3    O1 8052   0.142   2.573  12.693 -0.2002  0.2119  0.5996
  542TMC3    O2 8053   0.204   2.182  12.259 -0.5807  0.2430  0.2009
  543TMC3    C1 8054   4.225   3.292  17.005 -0.8356  0.0420 -0.0144
  543TMC3    C2 8055   4.104   3.222  17.003 -0.0837  0.1051  0.3460
  543TMC3    C3 8056   4.043   3.199  17.124  0.0648 -0.1531  0.6767
  543TMC3    C4 8057   4.285   3.333  17.117  0.2724 -0.4637  0.1661
  543TMC3    C5 8058   4.229   3.289  17.239  0.0308 -0.2440  0.2593
  543TMC3    C6 8059   4.103   3.230  17.246 -0.7052 -0.6725  0.2148
  543TMC3     C 8060   4.292   3.305  16.874 -0.1223  0.2711  0.8106
  543TMC3     O 8061   4.398   3.361  16.879  0.1454 -0.3621 -0.2040
  543TMC3     H 8062   4.056   3.179  16.915  0.6789 -0.5840  0.2588
  543TMC3    H1 8063   4.379   3.388  17.115 -1.1300  1.8765 -0.8360
  543TMC3    H2 8064   4.067   3.189  17.339 -3.2082  0.1947 -0.3558
  543TMC3    C7 8065   4.292   3.320  17.365 -0.0485  0.1971  0.7632
  543TMC3    C8 8066   3.931   3.106  17.119 -0.2182 -0.0454 -0.0179
  543TMC3    O1 8067   4.229   3.280  17.463 -0.1189  0.4357 -0.2050
  543TMC3    O2 8068   3.928   3.024  17.028  0.6999 -0.1887  0.3736
  544MPD2     C 8069   3.595   2.849  17.399 -0.3386 -0.1635 -0.2571
  544MPD2    C1 8070   3.673   2.805  17.295  0.1213  0.3000 -0.2450
  544MPD2    C2 8071   3.759   2.893  17.241  0.3274 -0.2018 -0.3735
  544MPD2    C3 8072   3.753   3.027  17.278  0.5150  0.4496 -0.3382
  544MPD2    C4 8073   3.663   3.075  17.373 -0.1949 -0.2669 -0.5231
  544MPD2    C5 8074   3.585   2.982  17.431  0.3184  0.2163  0.0205
  544MPD2     H 8075   3.824   2.865  17.159  0.7291 -1.8209  0.5031
  544MPD2    H1 8076   3.665   3.177  17.409 -1.1160 -1.2066  2.1987
  544MPD2    H2 8077   3.521   2.785  17.446 -0.6763 -1.3424 -2.3775
  544MPD2    H3 8078   3.513   3.021  17.504 -0.5649  0.1342 -0.8046
  544MPD2     N 8079   3.850   3.121  17.229 -0.5678  0.0259 -0.8862
  544MPD2    H5 8080   3.860   3.208  17.281 -0.8854  0.3689 -1.4141
  544MPD2    N1 8081   3.679   2.667  17.272 -0.1173  0.1788 -0.3989
  544MPD2    H7 8082   3.631   2.605  17.337  0.0990  0.6712  0.2264
  545TMC3    C1 8083   3.755   2.467  17.183 -0.0370  0.2069 -0.0981
  545TMC3    C2 8084   3.781   2.404  17.063  0.0715  0.4795  0.3567
  545TMC3    C3 8085   3.829   2.276  17.082  0.0197  0.2833 -0.2091
  545TMC3    C4 8086   3.762   2.407  17.309  0.6176  0.6060  1.0439
  545TMC3    C5 8087   3.799   2.277  17.313  0.0638  0.2263 -0.7972
  545TMC3    C6 8088   3.841   2.211  17.198 -0.5899  1.1117  0.0252
  545TMC3     C 8089   3.741   2.613  17.166 -0.0736  0.1953 -0.0834
  545TMC3     O 8090   3.777   2.668  17.061 -0.2370 -0.2422  0.7657
  545TMC3     H 8091   3.771   2.456  16.969  1.6665 -0.2680 -0.2326
  545TMC3    H1 8092   3.709   2.452  17.392  1.2432  1.1631  1.1398
  545TMC3    H2 8093   3.854   2.104  17.208 -0.3725  0.8679 -2.8682
  545TMC3    C7 8094   3.821   2.219  17.444  0.6307  0.3205  0.1269
  545TMC3    C8 8095   3.910   2.218  16.977  0.7246  0.1115 -0.0076
  545TMC3    O1 8096   3.767   2.280  17.535  0.3983  0.5716 -0.1361
  545TMC3    O2 8097   3.971   2.117  17.009  0.0061  0.1906  0.3557
  546MPD2     C 8098   0.807   2.680  17.522 -0.1725 -0.9902 -0.3532
  546MPD2    C1 8099   0.796   2.750  17.403  0.0058 -0.4600 -0.2020
  546MPD2    C2 8100   0.863   2.868  17.382 -1.4918 -0.4669  0.0617
  546MPD2    C3 8101   0.938   2.914  17.487 -0.2455  0.4484 -0.3712
  546MPD2    C4 8102   0.946   2.846  17.608 -0.6565 -0.3728 -0.3338
  546MPD2    C5 8103   0.881   2.726  17.620 -0.5211 -0.0007  0.5050
  546MPD2     H 8104   0.856   2.922  17.289  2.1769 -0.8891 -0.4683
  546MPD2    H1 8105   1.015   2.874  17.686  0.0967  2.3777 -2.0103
  546MPD2    H2 8106   0.763   2.581  17.531 -0.8605 -0.3898  3.1909
  546MPD2    H3 8107   0.903   2.674   0.016 -0.0842 -0.7728 -0.0408
  546MPD2     N 8108   1.003   3.044  17.499 -0.1844  0.2501 -0.0594
  546MPD2    H5 8109   1.041   3.076  17.587  1.9596  1.7147 -1.5078
  546MPD2    N1 8110   0.706   2.694  17.302  0.8600 -0.0135 -0.1598
  546MPD2    H7 8111   0.653   2.611  17.327  1.5589 -0.6879 -0.8619
  547TMC3    C1 8112   0.573   2.679  17.095  0.2644  0.1901  0.7503
  547TMC3    C2 8113   0.561   2.718  16.963 -0.3550  0.0132 -0.1127
  547TMC3    C3 8114   0.445   2.679  16.897 -1.1471  0.5696 -0.9385
  547TMC3    C4 8115   0.480   2.602  17.158 -0.1944 -0.5615  0.4680
  547TMC3    C5 8116   0.364   2.580  17.091 -0.6518 -0.4525 -0.1628
  547TMC3    C6 8117   0.346   2.609  16.957  0.0505  0.4824  0.5136
  547TMC3     C 8118   0.684   2.743  17.175 -0.1626  0.8707  0.5128
  547TMC3     O 8119   0.750   2.832  17.118  0.3348  0.0792 -0.5022
  547TMC3     H 8120   0.634   2.777  16.909  0.1073  1.1906  1.7715
  547TMC3    H1 8121   0.486   2.584  17.265  1.1267  0.1389  0.5176
  547TMC3    H2 8122   0.256   2.580  16.903  0.3678  2.6802 -1.1712
  547TMC3    C7 8123   0.262   2.499  17.156 -0.0710  0.1039 -0.3416
  547TMC3    C8 8124   0.405   2.750  16.775  0.2280  0.0501  0.5716
  547TMC3    O1 8125   0.297   2.454  17.257  0.1381  0.0617  0.0031
  547TMC3    O2 8126   0.302   2.814  16.785 -0.0630 -0.2489 -0.0965
  548MPD2     C 8127   0.673   4.022  12.533 -0.8520 -0.3041  0.7613
  548MPD2    C1 8128   0.583   3.947  12.612  0.0182  0.2141  0.1898
  548MPD2    C2 8129   0.628   3.849  12.698 -0.8915  0.2531  0.4483
  548MPD2    C3 8130   0.760   3.831  12.715 -0.2300  0.7142 -0.2964
  548MPD2    C4 8131   0.843   3.902  12.643  0.0671 -0.3265  0.1905
  548MPD2    C5 8132   0.805   4.000  12.552  0.4714  0.7216 -0.6604
  548MPD2     H 8133   0.553   3.786  12.744 -0.8108  0.1326  0.4145
  548MPD2    H1 8134   0.946   3.912  12.676 -0.0979  1.9644  0.0752
  548MPD2    H2 8135   0.636   4.097  12.465 -3.4624 -0.9054  1.5188
  548MPD2    H3 8136   0.879   4.062  12.504 -1.0653  3.0780 -0.0197
  548MPD2     N 8137   0.806   3.720  12.788  0.6129 -0.0793  0.4000
  548MPD2    H5 8138   0.733   3.660  12.826 -1.6026  2.9708  0.9847
  548MPD2    N1 8139   0.443   3.964  12.607 -0.9198  0.2074  0.7125
  548MPD2    H7 8140   0.390   3.896  12.660  1.7959 -3.7835 -1.6712
  549TMC3    C1 8141   0.223   4.039  12.582 -0.3634 -0.0070  0.4936
  549TMC3    C2 8142   0.141   4.144  12.568  0.0592 -0.4066  0.3703
  549TMC3    C3 8143   0.013   4.117  12.590 -0.0680 -0.5819 -0.5560
  549TMC3    C4 8144   0.181   3.914  12.630  0.5858 -0.1433  1.1655
  549TMC3    C5 8145   0.048   3.900  12.653 -0.7715 -0.0768 -0.4822
  549TMC3    C6 8146   4.682   4.004  12.642  0.5673 -1.0739  0.4377
  549TMC3     C 8147   0.364   4.054  12.541  0.3821 -0.5755 -0.5056
  549TMC3     O 8148   0.398   4.142  12.461  0.4562  0.6439 -0.2952
  549TMC3     H 8149   0.174   4.240  12.530 -2.9609  0.9737  1.3271
  549TMC3    H1 8150   0.250   3.831  12.635  0.2892 -0.4252  0.6367
  549TMC3    H2 8151   4.575   3.989  12.657  0.2470  1.1192  0.3706
  549TMC3    C7 8152   0.001   3.777  12.703 -0.2054  0.1983 -0.9767
  549TMC3    C8 8153   4.643   4.220  12.561  0.0865 -0.7364  0.6863
  549TMC3    O1 8154   4.644   3.784  12.792  0.0917 -0.0493  0.5100
  549TMC3    O2 8155   4.555   4.193  12.484  0.1032 -0.4703 -0.1392
  550TMC3    C1 8156   4.272   2.011  12.464  0.3567 -0.0383  0.6436
  550TMC3    C2 8157   4.231   2.014  12.595  0.7854  0.0784 -0.2235
  550TMC3    C3 8158   4.180   2.129  12.644  0.2174 -0.8080  0.2275
  550TMC3    C4 8159   4.272   2.122  12.377 -0.2996  0.0195 -0.4361
  550TMC3    C5 8160   4.207   2.226  12.431  0.5730 -0.1775  0.4456
  550TMC3    C6 8161   4.168   2.239  12.563  0.4270 -0.1520  0.5868
  550TMC3     C 8162   4.362   1.900  12.438 -0.7099  0.2707 -0.5409
  550TMC3     O 8163   4.423   1.859  12.535 -0.6110 -0.2402  0.1294
  550TMC3     H 8164   4.239   1.921  12.651 -0.8375 -0.0122 -0.1213
  550TMC3    H1 8165   4.304   2.120  12.274  0.3080  1.4758 -0.2804
  550TMC3    H2 8166   4.118   2.328  12.600  0.6954 -0.0367  0.6725
  550TMC3    C7 8167   4.141   2.316  12.335  0.1232  0.1829 -0.5283
  550TMC3    C8 8168   4.087   2.111  12.747 -0.2503  0.8156 -0.2077
  550TMC3    O1 8169   4.129   2.433  12.371  0.4583  0.2835  0.3886
  550TMC3    O2 8170   4.066   2.216  12.811  0.3345 -0.0262 -0.0224
  551TMC3    C1 8171   1.606   4.064  13.678  0.4510  0.1241 -0.4902
  551TMC3    C2 8172   1.690   4.071  13.569 -0.2378 -0.2668  0.4249
  551TMC3    C3 8173   1.777   4.181  13.566 -1.0536 -0.6130 -0.3795
  551TMC3    C4 8174   1.619   4.162  13.776  0.1989  0.3996 -0.4103
  551TMC3    C5 8175   1.696   4.269  13.761  0.5767 -0.0859 -0.6120
  551TMC3    C6 8176   1.778   4.281  13.655 -0.0830 -0.2104  0.6921
  551TMC3     C 8177   1.472   4.034  13.633  0.2298 -0.6368 -0.6633
  551TMC3     O 8178   1.378   4.103  13.672  0.0662  0.0405 -0.1832
  551TMC3     H 8179   1.696   3.999  13.488 -1.0183  0.0135  0.1227
  551TMC3    H1 8180   1.549   4.168  13.859  1.4604 -0.0873  0.6774
  551TMC3    H2 8181   1.853   4.360  13.653 -0.1560 -0.1301  1.1684
  551TMC3    C7 8182   1.701   4.363  13.872  0.5102  1.0053  0.0037
  551TMC3    C8 8183   1.850   4.218  13.444  0.5397  0.0119  0.0506
  551TMC3    O1 8184   1.673   4.324  13.983  0.2431  0.0652  0.5926
  551TMC3    O2 8185   1.842   4.124  13.373 -0.4551 -0.1097 -0.1620
  552MPD2     C 8186   3.873   1.930  13.639  0.5394 -0.3761  0.4153
  552MPD2    C1 8187   3.876   1.818  13.725  0.4877 -0.1179 -0.0946
  552MPD2    C2 8188   3.973   1.814  13.818 -0.3941 -0.3425 -0.1133
  552MPD2    C3 8189   4.071   1.916  13.825  0.4014 -0.3519 -0.0656
  552MPD2    C4 8190   4.077   2.019  13.729 -0.6074 -0.0852  0.4335
  552MPD2    C5 8191   3.971   2.022  13.638 -0.6336 -0.3618 -0.4496
  552MPD2     H 8192   3.970   1.725  13.879  1.1541 -1.1046 -1.1360
  552MPD2    H1 8193   4.155   2.094  13.726  0.5843 -1.3631 -1.2636
  552MPD2    H2 8194   3.788   1.943  13.573  2.1355 -0.5007 -1.6874
  552MPD2    H3 8195   3.951   2.117  13.589 -0.3705 -0.9415 -1.6815
  552MPD2     N 8196   4.176   1.907  13.921 -0.3574 -0.2490 -0.3887
  552MPD2    H5 8197   4.259   1.965  13.913  0.5478 -1.5560 -0.4778
  552MPD2    N1 8198   3.786   1.711  13.729 -0.0278 -0.2897  0.3983
  552MPD2    H7 8199   3.815   1.637  13.792 -1.3222 -2.1713 -1.2056
  553TMC3    C1 8200   3.601   1.573  13.691  0.3207  0.5696  0.3363
  553TMC3    C2 8201   3.493   1.544  13.613  0.3639  0.0411 -0.2632
  553TMC3    C3 8202   3.419   1.435  13.638 -0.2772  0.0832  0.3606
  553TMC3    C4 8203   3.642   1.489  13.796  0.5291  0.3682 -0.2538
  553TMC3    C5 8204   3.564   1.380  13.817  0.1550 -0.5992 -0.4129
  553TMC3    C6 8205   3.454   1.349  13.737  0.3511  0.4919  0.2411
  553TMC3     C 8206   3.682   1.688  13.644  0.5741  0.5532  0.6514
  553TMC3     O 8207   3.646   1.751  13.545  0.2008  0.1143  0.1060
  553TMC3     H 8208   3.466   1.615  13.536 -1.4056 -0.3422 -0.0108
  553TMC3    H1 8209   3.723   1.509  13.866  1.1117  0.9429 -1.0937
  553TMC3    H2 8210   3.407   1.253  13.755  1.0761  0.2810  0.9630
  553TMC3    C7 8211   3.609   1.277  13.914 -0.2336 -0.7085  0.3090
  553TMC3    C8 8212   3.382   1.365  13.515 -0.4388  0.1026 -0.6680
  553TMC3    O1 8213   3.533   1.206  13.979 -0.1221  0.2151  0.7216
  553TMC3    O2 8214   3.266   1.332  13.486 -0.2569 -0.4591 -0.2404
  554TMC3    C1 8215   0.383   0.830  11.804 -0.7476  0.2213  0.2709
  554TMC3    C2 8216   0.344   0.760  11.697 -0.5802  0.8398  0.1106
  554TMC3    C3 8217   0.411   0.773  11.578 -0.3223  0.3932  0.5865
  554TMC3    C4 8218   0.466   0.940  11.785  0.9480 -0.4454  0.2180
  554TMC3    C5 8219   0.527   0.960  11.665 -0.0303  0.1302 -0.1996
  554TMC3    C6 8220   0.501   0.871  11.560 -0.5659  0.8346 -0.5613
  554TMC3     C 8221   0.404   0.750  11.920 -0.0131  0.0065 -0.7421
  554TMC3     O 8222   0.486   0.661  11.909  0.1291 -0.7845 -0.3201
  554TMC3     H 8223   0.289   0.670  11.723  1.5962 -0.6336 -0.4635
  554TMC3    H1 8224   0.484   1.006  11.869  0.1532 -0.6940  0.5758
  554TMC3    H2 8225   0.555   0.872  11.466 -0.8177  1.0681 -0.7048
  554TMC3    C7 8226   0.574   1.087  11.625 -0.1200 -0.6480  0.0664
  554TMC3    C8 8227   0.344   0.742  11.455  0.0125  0.1251 -0.1828
  554TMC3    O1 8228   0.641   1.099  11.521 -0.1767 -0.0287  0.2453
  554TMC3    O2 8229   0.393   0.788  11.355 -0.2376  0.1984  0.3809
  555TMC3    C1 8230   4.533   0.374  15.442 -0.1810  0.6830  0.3585
  555TMC3    C2 8231   4.641   0.435  15.499  0.3555  0.2348 -0.8289
  555TMC3    C3 8232   0.007   0.357  15.565 -0.3818 -0.0452 -0.4919
  555TMC3    C4 8233   4.519   0.237  15.444  0.8856  0.4768  0.0899
  555TMC3    C5 8234   4.608   0.168  15.519  0.2514 -0.3919  0.6783
  555TMC3    C6 8235   4.722   0.223  15.571  0.2852 -0.7536  0.7138
  555TMC3     C 8236   4.426   0.461  15.391 -0.5799  0.0227 -0.7411
  555TMC3     O 8237   4.453   0.581  15.385 -0.1519 -0.0009 -0.0298
  555TMC3     H 8238   4.643   0.542  15.480  1.1385  0.5898  1.1700
  555TMC3    H1 8239   4.427   0.193  15.406  1.4905 -0.3302 -0.4339
  555TMC3    H2 8240   0.063   0.164  15.635  1.2155 -1.1564 -0.5995
  555TMC3    C7 8241   4.615   0.024  15.503  0.9212 -0.2629  0.0778
  555TMC3    C8 8242   0.139   0.419  15.575 -0.4707 -0.3247 -0.4764
  555TMC3    O1 8243   4.703   4.692  15.563 -0.8402 -0.2755  0.3144
  555TMC3    O2 8244   0.168   0.509  15.496 -0.0142  0.1985  0.1520
  556MPD2     C 8245   2.234   2.682  10.884  0.0346  0.5058 -1.2765
  556MPD2    C1 8246   2.255   2.551  10.910 -0.9123  0.1132  0.3625
  556MPD2    C2 8247   2.170   2.462  10.851  0.2671 -1.1465 -0.4620
  556MPD2    C3 8248   2.068   2.502  10.761  0.1208 -0.1727  1.2978
  556MPD2    C4 8249   2.049   2.636  10.737  0.4487 -1.1123 -0.8276
  556MPD2    C5 8250   2.138   2.719  10.791  0.5474 -0.1883 -1.0360
  556MPD2     H 8251   2.175   2.357  10.878 -3.4239 -1.0071  0.8107
  556MPD2    H1 8252   1.981   2.677  10.663 -0.6397 -0.5224  0.5094
  556MPD2    H2 8253   2.301   2.756  10.926 -0.4023  0.2780 -0.1775
  556MPD2    H3 8254   2.135   2.825  10.770 -1.0750 -0.2029 -0.8886
  556MPD2     N 8255   2.001   2.397  10.693 -0.2841 -0.2843  0.2973
  556MPD2    H5 8256   2.034   2.302  10.702  1.4648  0.2284 -0.7867
  556MPD2    N1 8257   2.343   2.499  11.006 -0.0443 -0.1776  0.1000
  556MPD2    H7 8258   2.346   2.399  11.021  2.5803 -0.2901 -1.1879
  557TMC3    C1 8259   1.834   2.286  10.580 -0.3759 -0.4839 -0.4747
  557TMC3    C2 8260   1.797   2.274  10.453  0.4005  0.1064 -0.6788
  557TMC3    C3 8261   1.786   2.161  10.380  0.4121  0.0468 -0.1745
  557TMC3    C4 8262   1.886   2.176  10.641  0.0225 -0.4678 -0.6082
  557TMC3    C5 8263   1.879   2.058  10.571 -0.6012  0.3913  0.0221
  557TMC3    C6 8264   1.816   2.045  10.450 -0.1810  0.1534 -0.3600
  557TMC3     C 8265   1.890   2.409  10.620  1.3587  0.2113 -0.2126
  557TMC3     O 8266   1.837   2.507  10.574 -0.5743  0.1813 -0.4194
  557TMC3     H 8267   1.762   2.367  10.408 -1.2668 -0.8306 -1.3088
  557TMC3    H1 8268   1.942   2.179  10.734 -0.1853  1.5332 -0.5587
  557TMC3    H2 8269   1.789   1.944  10.420  0.7873 -0.2322  0.0641
  557TMC3    C7 8270   1.886   1.937  10.654  0.5726  0.5190  0.7838
  557TMC3    C8 8271   1.719   2.168  10.256  0.6760  0.5559  0.1216
  557TMC3    O1 8272   1.871   1.945  10.775 -0.3608  0.1030  0.1749
  557TMC3    O2 8273   1.676   2.278  10.233 -0.0764 -0.1270  0.5132
  558TMC3    C1 8274   0.401   4.264  10.400 -0.5241 -0.3489 -0.1525
  558TMC3    C2 8275   0.265   4.274  10.400 -0.3248 -0.5346  0.5554
  558TMC3    C3 8276   0.196   4.210  10.302  0.7457  0.1933  0.1331
  558TMC3    C4 8277   0.467   4.217  10.290 -0.2031  0.2593 -0.4445
  558TMC3    C5 8278   0.395   4.172  10.186  0.5658  0.2744 -0.1941
  558TMC3    C6 8279   0.262   4.167  10.186  0.0262 -0.6379 -0.0606
  558TMC3     C 8280   0.487   4.314  10.502 -0.0923  0.1004 -0.3763
  558TMC3     O 8281   0.601   4.343  10.463 -0.5068  0.8971  0.9619
  558TMC3     H 8282   0.207   4.319  10.480  1.2581  2.0724  0.2577
  558TMC3    H1 8283   0.576   4.218  10.286 -0.2293  1.3705 -0.8530
  558TMC3    H2 8284   0.208   4.126  10.101 -2.4835  1.0233  0.7191
  558TMC3    C7 8285   0.458   4.143  10.061 -0.0618  1.0703 -0.4773
  558TMC3    C8 8286   0.049   4.191  10.302  0.6402 -0.4092  0.5245
  558TMC3    O1 8287   0.572   4.178  10.040 -0.3239 -0.5082  0.4981
  558TMC3    O2 8288   0.002   4.142  10.201  0.4317  0.4235 -0.0497
  559MPD2     C 8289   0.538   4.664  10.361  0.0858 -0.4606 -0.8273
  559MPD2    C1 8290   0.416   4.689  10.419  0.8443  0.1086  0.3963
  559MPD2    C2 8291   0.410   0.021  10.541 -0.3770  0.4682 -1.4341
  559MPD2    C3 8292   0.526   0.051  10.610  0.1812 -0.9089 -0.1067
  559MPD2    C4 8293   0.653   0.026  10.560  0.0729 -1.0359  0.1195
  559MPD2    C5 8294   0.656   4.691  10.436  0.0612 -0.2901  0.5784
  559MPD2     H 8295   0.313   0.020  10.591 -0.2203  0.5916 -1.1262
  559MPD2    H1 8296   0.742   0.028  10.622  2.3278 -0.5486 -3.0733
  559MPD2    H2 8297   0.550   4.624  10.261 -0.3203 -0.3251 -0.9309
  559MPD2    H3 8298   0.753   4.667  10.396 -0.0859 -0.3450  0.2542
  559MPD2     N 8299   0.508   0.095  10.741 -0.5148  0.1610 -0.5090
  559MPD2    H5 8300   0.410   0.103  10.767 -0.6146  0.0901 -0.8583
  559MPD2    N1 8301   0.305   4.666  10.340  0.4379  0.6819  0.0162
  559MPD2    H7 8302   0.313   4.644  10.242  1.1135  1.1268 -0.0242
  560TMC3    C1 8303   0.559   0.169  10.958 -0.6450  0.2134 -0.5989
  560TMC3    C2 8304   0.435   0.119  10.994 -0.0456 -0.3621 -0.0924
  560TMC3    C3 8305   0.412   0.082  11.124 -0.2019 -0.0148 -0.0221
  560TMC3    C4 8306   0.654   0.192  11.052 -0.2776 -0.3753 -0.2788
  560TMC3    C5 8307   0.633   0.144  11.181  0.0744  0.1685  0.0388
  560TMC3    C6 8308   0.513   0.083  11.220 -1.3528  0.4004  0.0037
  560TMC3     C 8309   0.608   0.140  10.823  0.7942 -0.4605  0.4943
  560TMC3     O 8310   0.726   0.160  10.804 -0.3267  0.4972  0.8724
  560TMC3     H 8311   0.360   0.112  10.916  0.2319 -0.9868 -0.3059
  560TMC3    H1 8312   0.755   0.223  11.028 -0.3067 -1.0411 -1.2883
  560TMC3    H2 8313   0.496   0.061  11.325 -0.4137 -0.5733 -0.0472
  560TMC3    C7 8314   0.735   0.152  11.282  0.2279  0.1934  0.6792
  560TMC3    C8 8315   0.308   4.713  11.154 -0.3534  0.4069 -0.2349
  560TMC3    O1 8316   0.713   0.084  11.379  0.2691 -0.5818  0.2949
  560TMC3    O2 8317   0.225   4.711  11.063  0.0493 -0.0348 -0.2980
  561TMC3    C1 8318   3.054   3.973  11.106  0.1141 -0.7315  0.1199
  561TMC3    C2 8319   2.977   3.891  11.182  0.3507  0.4698 -0.2417
  561TMC3    C3 8320   2.955   3.923  11.317 -0.6437  0.2375  0.5165
  561TMC3    C4 8321   3.103   4.097  11.152  0.5896 -0.1529  0.1288
  561TMC3    C5 8322   3.083   4.115  11.286 -0.4641  0.6084 -0.2405
  561TMC3    C6 8323   3.016   4.030  11.370 -0.0956  0.3544 -0.2408
  561TMC3     C 8324   3.074   3.956  10.962  0.1662  0.2221  0.6113
  561TMC3     O 8325   3.156   4.026  10.903  0.0488 -0.0413  0.0829
  561TMC3     H 8326   2.956   3.794  11.140 -0.2648  1.2683 -1.7631
  561TMC3    H1 8327   3.153   4.170  11.089  0.0706 -1.9210 -2.3030
  561TMC3    H2 8328   3.007   4.051  11.476  0.7399  0.5998 -0.2195
  561TMC3    C7 8329   3.178   4.208  11.351 -0.0504 -0.5518  0.1030
  561TMC3    C8 8330   2.913   3.822  11.408 -0.8717  0.7497  0.5774
  561TMC3    O1 8331   3.219   4.171  11.459 -0.2617  0.2364  0.2530
  561TMC3    O2 8332   2.952   3.706  11.389 -0.3946  0.3804 -0.0946
  562TMC3    C1 8333   4.083   0.704  15.986  0.1843  0.3301  0.0428
  562TMC3    C2 8334   3.974   0.740  15.909 -0.0778  1.0284  0.6857
  562TMC3    C3 8335   3.965   0.679  15.785  0.1757  0.3950  0.9974
  562TMC3    C4 8336   4.172   0.603  15.949  0.1158 -0.4158 -0.1166
  562TMC3    C5 8337   4.151   0.540  15.830  0.3585 -0.4998  0.4332
  562TMC3    C6 8338   4.051   0.580  15.749  0.1287  0.3665 -0.5679
  562TMC3     C 8339   4.090   0.768  16.118 -0.2467  0.8069 -0.1263
  562TMC3     O 8340   4.018   0.870  16.119  0.0493  0.1579  0.1287
  562TMC3     H 8341   3.913   0.826  15.935  0.2213  0.7542  2.3469
  562TMC3    H1 8342   4.263   0.598  16.008 -0.1155 -1.8730  0.1047
  562TMC3    H2 8343   4.032   0.528  15.656 -1.2805 -0.6891  0.3157
  562TMC3    C7 8344   4.230   0.421  15.794  0.3503 -0.5971 -0.2322
  562TMC3    C8 8345   3.854   0.723  15.695 -0.4024  0.3466 -0.4477
  562TMC3    O1 8346   4.228   0.379  15.680  0.0265  0.4982 -0.4605
  562TMC3    O2 8347   3.760   0.779  15.745 -0.4777 -0.0450 -0.5211
  563MPD2     C 8348   1.692   1.321  15.912  0.2796 -0.4170 -0.5710
  563MPD2    C1 8349   1.729   1.372  16.030 -0.4093 -0.1013  0.9402
  563MPD2    C2 8350   1.855   1.385  16.065  0.4889 -0.6757 -0.2837
  563MPD2    C3 8351   1.960   1.352  15.979 -0.5957  0.1077 -0.1294
  563MPD2    C4 8352   1.925   1.286  15.864 -0.7651 -0.6639 -0.3461
  563MPD2    C5 8353   1.793   1.281  15.827 -0.5691 -0.8667  0.2507
  563MPD2     H 8354   1.878   1.436  16.158  2.4027 -2.2542  0.1060
  563MPD2    H1 8355   1.993   1.225  15.805  1.5880 -0.9441  2.6845
  563MPD2    H2 8356   1.592   1.302  15.873 -1.1511  2.3814  1.7022
  563MPD2    H3 8357   1.761   1.227  15.739 -1.1135 -1.2782  0.7049
  563MPD2     N 8358   2.091   1.359  16.036 -0.0416 -1.0178  0.1567
  563MPD2    H5 8359   2.095   1.399  16.129  0.3674 -0.2944 -0.1696
  563MPD2    N1 8360   1.619   1.392  16.110 -0.3847  0.4909 -0.5299
  563MPD2    H7 8361   1.526   1.361  16.081 -0.3278 -0.1077 -0.0571
  564TMC3    C1 8362   1.532   1.422  16.334  0.2142  0.1805  0.0388
  564TMC3    C2 8363   1.421   1.346  16.301 -0.5959  0.2332  0.1883
  564TMC3    C3 8364   1.391   1.244  16.389  0.2149 -0.4626  0.8763
  564TMC3    C4 8365   1.599   1.405  16.451 -0.4998  0.2488  0.1450
  564TMC3    C5 8366   1.567   1.311  16.539  0.4525  0.0588  0.0306
  564TMC3    C6 8367   1.454   1.235  16.514  0.0804 -0.4199  0.2425
  564TMC3     C 8368   1.628   1.454  16.230  0.8072  0.5928 -0.4096
  564TMC3     O 8369   1.706   1.537  16.271 -0.0530  0.2233  0.2726
  564TMC3     H 8370   1.364   1.369  16.212 -0.5314 -0.8186 -0.1195
  564TMC3    H1 8371   1.696   1.450  16.471 -0.8901  1.4656 -0.6668
  564TMC3    H2 8372   1.427   1.166  16.593 -0.2559 -1.2136 -0.5671
  564TMC3    C7 8373   1.679   1.237  16.595 -0.6516 -0.5581  0.8741
  564TMC3    C8 8374   1.347   1.116  16.335 -0.1255  0.0354 -0.4085
  564TMC3    O1 8375   1.783   1.302  16.624 -0.0873  0.3034  0.1622
  564TMC3    O2 8376   1.370   1.021  16.408 -0.4349 -0.5990 -0.7432
  565TMC3    C1 8377   1.996   3.763  10.035 -0.2330 -0.0694  0.4616
  565TMC3    C2 8378   1.968   3.682  10.147 -0.3638 -0.4664  0.0810
  565TMC3    C3 8379   1.832   3.655  10.167 -0.5540 -0.1840  0.2299
  565TMC3    C4 8380   1.896   3.825   9.964 -0.4640  0.8026 -0.9540
  565TMC3    C5 8381   1.765   3.811  10.001 -0.8663  0.3040  0.3809
  565TMC3    C6 8382   1.731   3.717  10.094  0.5304  0.2641 -0.3611
  565TMC3     C 8383   2.133   3.796   9.994 -0.1288  0.2810 -0.1684
  565TMC3     O 8384   2.145   3.856   9.889 -0.1594 -0.7753 -0.7552
  565TMC3     H 8385   2.047   3.644  10.210  0.0789 -1.2068 -0.9207
  565TMC3    H1 8386   1.919   3.887   9.879 -0.9449 -0.5335 -2.0724
  565TMC3    H2 8387   1.631   3.722  10.136  0.4778  1.4360 -0.6268
  565TMC3    C7 8388   1.661   3.901   9.943  0.0331  0.3812 -0.4392
  565TMC3    C8 8389   1.803   3.560  10.272 -0.6901  0.0655  0.5063
  565TMC3    O1 8390   1.705   4.008   9.893 -0.0939  0.9549  0.5385
  565TMC3    O2 8391   1.881   3.546  10.364  0.0562 -0.0376 -0.1406
  566MPD2     C 8392   3.247   0.383  14.328  0.1411  0.1094 -0.8434
  566MPD2    C1 8393   3.358   0.362  14.247  0.4093  0.2539  0.3991
  566MPD2    C2 8394   3.350   0.294  14.127 -0.4489  0.2069  0.5608
  566MPD2    C3 8395   3.227   0.258  14.081 -0.4653 -0.2026 -1.0236
  566MPD2    C4 8396   3.109   0.277  14.144 -0.1114  0.0922  0.5220
  566MPD2    C5 8397   3.122   0.344  14.272 -1.2127  0.5805  0.6434
  566MPD2     H 8398   3.439   0.273  14.068  0.4699 -3.9319  3.4155
  566MPD2    H1 8399   3.007   0.257  14.112 -1.0390 -0.2926  3.6847
  566MPD2    H2 8400   3.247   0.425  14.428 -1.5043 -1.2464 -0.2622
  566MPD2    H3 8401   3.033   0.363  14.331 -2.5024  0.1077 -1.1431
  566MPD2     N 8402   3.224   0.194  13.958 -0.3080 -0.5437  0.1627
  566MPD2    H5 8403   3.317   0.172  13.925  0.0774  2.5291 -0.7550
  566MPD2    N1 8404   3.486   0.415  14.277  0.5100 -0.1159 -0.4081
  566MPD2    H7 8405   3.552   0.407  14.199  2.2463 -0.5236  1.1048
  567TMC3    C1 8406   3.665   0.519  14.391 -0.6051  0.0605  0.3373
  567TMC3    C2 8407   3.710   0.564  14.272  0.1606  0.7284  0.2144
  567TMC3    C3 8408   3.840   0.606  14.268  0.1571  0.4325  0.3484
  567TMC3    C4 8409   3.751   0.506  14.502  0.7692  0.4103  0.2736
  567TMC3    C5 8410   3.884   0.518  14.484 -0.1233  0.1983 -0.2961
  567TMC3    C6 8411   3.922   0.577  14.370 -0.6290 -0.4329  0.1470
  567TMC3     C 8412   3.533   0.467  14.395 -0.1223  0.0049  0.1308
  567TMC3     O 8413   3.480   0.456  14.503 -0.4496  0.3402  0.0794
  567TMC3     H 8414   3.643   0.581  14.189 -0.2452 -0.3654  0.3286
  567TMC3    H1 8415   3.713   0.455  14.590 -0.1656  1.2687  0.3668
  567TMC3    H2 8416   4.021   0.621  14.377 -1.1884  0.7283  0.8097
  567TMC3    C7 8417   3.970   0.552  14.596 -0.0498 -0.1737 -0.2963
  567TMC3    C8 8418   3.902   0.626  14.140  0.3724  0.2549  0.1566
  567TMC3    O1 8419   3.992   0.667  14.623  0.2549  0.0376  0.2669
  567TMC3    O2 8420   3.822   0.614  14.045  0.0109  0.1771 -0.2409
  568MPD2     C 8421   1.499   4.482  16.515 -0.7688 -0.4036 -0.3007
  568MPD2    C1 8422   1.497   4.591  16.602 -0.1098  0.0834 -0.3311
  568MPD2    C2 8423   1.428   4.709  16.566 -0.0378 -0.4585  0.0772
  568MPD2    C3 8424   1.361   4.720  16.445  0.5573 -0.5311 -0.3101
  568MPD2    C4 8425   1.383   4.625  16.349  0.1453 -0.9381 -0.1057
  568MPD2    C5 8426   1.455   4.510  16.388 -0.5268 -0.2377  0.1854
  568MPD2     H 8427   1.410   0.070  16.631  0.9459 -0.7601  0.7322
  568MPD2    H1 8428   1.342   4.631  16.249  2.5833 -1.7422 -1.1356
  568MPD2    H2 8429   1.535   4.383  16.540 -0.8652 -0.5908 -0.8988
  568MPD2    H3 8430   1.465   4.430  16.316  1.4875  1.5309 -1.5118
  568MPD2     N 8431   1.275   0.107  16.433 -0.2038  0.0428 -0.1419
  568MPD2    H5 8432   1.281   0.180  16.504  0.1264 -1.0072  0.8992
  568MPD2    N1 8433   1.538   4.582  16.740 -1.0161 -0.7841  0.2514
  568MPD2    H7 8434   1.556   4.490  16.781 -1.0714 -0.8666  0.0907
  569TMC3    C1 8435   1.135   0.265  16.332 -0.1855  0.0265  0.3920
  569TMC3    C2 8436   1.110   0.320  16.451  0.4626  0.5893 -0.0163
  569TMC3    C3 8437   1.082   0.456  16.457 -0.3369 -0.1611  0.0441
  569TMC3    C4 8438   1.127   0.338  16.217  0.4188  0.1512  0.0887
  569TMC3    C5 8439   1.102   0.473  16.222  0.0706  0.4141  0.8774
  569TMC3    C6 8440   1.080   0.526  16.344  0.4666 -0.4236 -0.1838
  569TMC3     C 8441   1.195   0.130  16.320 -0.1288  0.0498 -0.0688
  569TMC3     O 8442   1.174   0.052  16.225  0.2087 -0.4432  0.3432
  569TMC3     H 8443   1.121   0.269  16.546 -0.4451  1.6319  0.6452
  569TMC3    H1 8444   1.160   0.294  16.124  0.6626  2.6724 -1.0165
  569TMC3    H2 8445   1.045   0.628  16.357  0.7680 -0.2905 -0.4098
  569TMC3    C7 8446   1.144   0.560  16.118  0.0293 -0.3485  0.2576
  569TMC3    C8 8447   1.146   0.530  16.563  0.2946  0.6563  0.1331
  569TMC3    O1 8448   1.176   0.515  16.010  0.1593 -0.0731  0.2075
  569TMC3    O2 8449   1.214   0.626  16.530 -0.0652  0.5265  0.5576
  570TMC3    C1 8450   0.886   3.785  16.329 -0.5206 -0.1862  0.1926
  570TMC3    C2 8451   0.954   3.807  16.216 -0.2102 -0.4028 -0.3599
  570TMC3    C3 8452   1.055   3.902  16.215 -0.2947 -0.6927 -0.4726
  570TMC3    C4 8453   0.913   3.859  16.440 -1.0017 -0.1346 -0.3842
  570TMC3    C5 8454   0.995   3.972  16.430 -0.5273  0.5308 -0.0753
  570TMC3    C6 8455   1.070   3.993  16.319  0.1603 -0.3320  0.0310
  570TMC3     C 8456   0.804   3.670  16.317  0.3452 -0.9927 -0.0558
  570TMC3     O 8457   0.753   3.636  16.213  0.2866  0.1050  0.1603
  570TMC3     H 8458   0.955   3.724  16.147 -1.2983 -1.0493  0.3906
  570TMC3    H1 8459   0.837   3.866  16.517 -0.3370 -0.5660  0.3204
  570TMC3    H2 8460   1.150   4.066  16.314  1.3753 -1.6704 -0.4751
  570TMC3    C7 8461   1.011   4.062  16.555 -0.9541 -0.1670  0.5091
  570TMC3    C8 8462   1.165   3.893  16.121  0.2088 -0.0729  0.1844
  570TMC3    O1 8463   0.966   4.015  16.660  0.3906  0.6044  0.1763
  570TMC3    O2 8464   1.268   3.950  16.144 -0.9802 -0.4595 -0.4938
  571MPD2     C 8465   3.160   1.271   1.235 -0.1079  0.4523  0.0933
  571MPD2    C1 8466   3.202   1.242   1.107  0.2222  0.4063  0.0338
  571MPD2    C2 8467   3.230   1.355   1.033  0.1632  0.0706  0.5987
  571MPD2    C3 8468   3.234   1.483   1.088  0.1192  0.1784 -0.0265
  571MPD2    C4 8469   3.197   1.498   1.212 -0.7125 -0.7224  0.2188
  571MPD2    C5 8470   3.166   1.395   1.292 -0.8485 -0.3536  0.4546
  571MPD2     H 8471   3.261   1.344   0.930  1.0343 -1.0639  0.9849
  571MPD2    H1 8472   3.186   1.599   1.249  1.3907 -0.8688  1.2458
  571MPD2    H2 8473   3.140   1.188   1.302  0.7407 -0.3546 -0.6494
  571MPD2    H3 8474   3.151   1.409   1.398 -0.1785  1.4998  0.3079
  571MPD2     N 8475   3.289   1.592   1.014 -0.0104 -0.0942  1.2233
  571MPD2    H5 8476   3.306   1.679   1.064 -1.0885 -1.1706  3.4428
  571MPD2    N1 8477   3.214   1.111   1.057 -0.6197  0.0285 -0.4906
  571MPD2    H7 8478   3.190   1.041   1.127 -1.5545  0.2692 -0.5715
  572TMC3    C1 8479   3.410   1.709   0.852  0.2755 -0.2042 -0.0100
  572TMC3    C2 8480   3.493   1.756   0.955 -0.1123  0.0562  0.4378
  572TMC3    C3 8481   3.568   1.867   0.932 -0.0074  0.4401 -0.8906
  572TMC3    C4 8482   3.402   1.765   0.727  0.5567 -0.1352 -0.0669
  572TMC3    C5 8483   3.497   1.862   0.700  0.2973 -0.2231  0.3044
  572TMC3    C6 8484   3.580   1.910   0.802  0.0515  0.1620 -0.4541
  572TMC3     C 8485   3.325   1.590   0.881 -0.3731 -0.7480  0.3492
  572TMC3     O 8486   3.309   1.505   0.791  0.2267  0.0494 -0.0043
  572TMC3     H 8487   3.505   1.704   1.050  3.7316 -0.1342 -0.1733
  572TMC3    H1 8488   3.323   1.732   0.660  0.1804  2.6941 -1.0273
  572TMC3    H2 8489   3.640   1.999   0.788  0.6901 -0.2328 -0.2109
  572TMC3    C7 8490   3.465   1.952   0.593  0.2800 -0.3411 -0.0835
  572TMC3    C8 8491   3.654   1.907   1.048 -0.0922 -0.5301  1.2403
  572TMC3    O1 8492   3.344   1.971   0.568  0.0043 -0.2798 -0.0409
  572TMC3    O2 8493   3.748   1.982   1.032  0.1250  0.0787 -0.7702
  573MPD2     C 8494   0.108   1.096   0.451  0.5978  0.2862  0.0423
  573MPD2    C1 8495   0.074   1.229   0.487  0.2138  1.3189 -0.1646
  573MPD2    C2 8496   0.028   1.323   0.390 -0.1588  0.1979 -0.3044
  573MPD2    C3 8497   0.025   1.286   0.258  0.3844  1.1359  0.6864
  573MPD2    C4 8498   0.075   1.162   0.223  0.3224 -0.3762 -0.2395
  573MPD2    C5 8499   0.107   1.068   0.317  0.6355  0.7688 -0.5655
  573MPD2     H 8500   4.713   1.420   0.416  0.6242 -0.1440  2.1351
  573MPD2    H1 8501   0.074   1.127   0.121  0.5082  0.6237 -0.5807
  573MPD2    H2 8502   0.131   1.021   0.526  0.9237  0.4757  0.1311
  573MPD2    H3 8503   0.146   0.970   0.292 -1.0845 -0.2054  0.5807
  573MPD2     N 8504   4.707   1.365   0.149  0.2258  0.6219  0.4130
  573MPD2    H5 8505   4.720   1.314   0.062  0.2902 -2.5151  2.2558
  573MPD2    N1 8506   0.077   1.256   0.628 -0.4353 -0.5295  0.1614
  573MPD2    H7 8507   0.103   1.177   0.686  0.5973  1.2347  2.0713
  574TMC3    C1 8508   4.583   1.531   0.040 -0.0604  0.0767  0.2989
  574TMC3    C2 8509   4.503   1.639   0.055  0.4188  0.3636 -0.6350
  574TMC3    C3 8510   4.393   1.651  17.679  0.0505  0.2280 -0.0103
  574TMC3    C4 8511   4.548   1.441  17.644  0.9681  0.0570 -0.2239
  574TMC3    C5 8512   4.432   1.454  17.571  0.0451 -0.0980  0.0750
  574TMC3    C6 8513   4.349   1.557  17.589 -0.1282  0.4335  0.0128
  574TMC3     C 8514   4.646   1.488   0.161  0.2215  0.5605 -0.7896
  574TMC3     O 8515   4.617   1.555   0.262  0.5986  0.5867 -0.3336
  574TMC3     H 8516   4.525   1.714   0.130  1.4655 -0.3106 -0.2652
  574TMC3    H1 8517   4.596   1.344  17.636 -1.0680 -0.9214 -0.6754
  574TMC3    H2 8518   4.248   1.556  17.550 -0.1187  0.9423 -0.0288
  574TMC3    C7 8519   4.385   1.333  17.505 -0.2899 -0.2958  0.0682
  574TMC3    C8 8520   4.291   1.734   0.052 -0.6636 -0.4150 -0.2576
  574TMC3    O1 8521   4.266   1.305  17.508 -0.1879  0.2277 -0.5279
  574TMC3    O2 8522   4.289   1.743   0.173  0.0156 -0.1202 -0.1138
  575TMC3    C1 8523   1.952   3.018  10.958  0.3103  0.3515  0.2315
  575TMC3    C2 8524   1.847   2.945  11.004  0.0804  0.3109 -0.2520
  575TMC3    C3 8525   1.739   2.929  10.925 -0.3269 -0.3611 -0.2592
  575TMC3    C4 8526   1.944   3.088  10.843 -0.6015  0.3022  0.2091
  575TMC3    C5 8527   1.830   3.080  10.768 -0.2777 -0.1583 -0.0030
  575TMC3    C6 8528   1.728   2.988  10.804  0.1543  0.6573 -0.2607
  575TMC3     C 8529   2.082   3.000  11.021  0.1367  0.0422  0.2249
  575TMC3     O 8530   2.094   2.914  11.110  0.1008  0.9261 -0.0748
  575TMC3     H 8531   1.848   2.919  11.109 -0.3026  3.4221  0.5031
  575TMC3    H1 8532   2.014   3.159  10.799  0.3957 -1.5426 -1.1741
  575TMC3    H2 8533   1.640   2.956  10.748  2.9343 -1.0034 -3.6704
  575TMC3    C7 8534   1.812   3.163  10.650 -0.1896  0.4686 -0.3172
  575TMC3    C8 8535   1.628   2.862  10.980  0.4693 -0.0201 -0.0558
  575TMC3    O1 8536   1.884   3.259  10.626 -0.5579 -0.4103 -0.4295
  575TMC3    O2 8537   1.518   2.913  10.962  0.3951 -0.4583  0.3475
  576MPD2     C 8538   2.173   3.981  12.675  0.1419  0.1137 -0.9593
  576MPD2    C1 8539   2.125   4.074  12.585 -0.4218  0.7669  0.1525
  576MPD2    C2 8540   2.026   4.158  12.632 -0.6266  0.4519  0.4092
  576MPD2    C3 8541   1.969   4.146  12.761 -0.7549 -0.0317  0.6839
  576MPD2    C4 8542   2.011   4.041  12.843  0.1560 -0.0177 -0.2039
  576MPD2    C5 8543   2.114   3.965  12.797 -0.0289 -0.3118  0.1671
  576MPD2     H 8544   1.989   4.238  12.569  1.9714  2.4018  1.3861
  576MPD2    H1 8545   1.985   4.035  12.948 -0.9937  0.9580 -0.4231
  576MPD2    H2 8546   2.267   3.927  12.671  0.6951  0.7368  3.5549
  576MPD2    H3 8547   2.136   3.887  12.869  1.2575 -0.7373 -0.6949
  576MPD2     N 8548   1.870   4.237  12.803 -0.1608 -0.0287 -0.9142
  576MPD2    H5 8549   1.856   4.323  12.750  0.1253 -0.6906 -2.0522
  576MPD2    N1 8550   2.177   4.087  12.449  0.1393 -0.6192  0.3820
  576MPD2    H7 8551   2.149   4.167  12.393 -0.1483  0.8514  2.6557
  577TMC3    C1 8552   2.308   4.016  12.259 -0.6471 -0.0640  0.0293
  577TMC3    C2 8553   2.407   3.927  12.220 -0.0505 -1.1375 -0.3582
  577TMC3    C3 8554   2.456   3.955  12.097 -0.5833  0.3497  0.5558
  577TMC3    C4 8555   2.273   4.137  12.197  0.5354 -0.1380 -0.2228
  577TMC3    C5 8556   2.333   4.157  12.071 -0.4338  0.0054  0.0606
  577TMC3    C6 8557   2.426   4.065  12.020 -0.2253 -0.2012 -0.5520
  577TMC3     C 8558   2.271   3.997  12.400 -0.1068  0.0709 -0.0786
  577TMC3     O 8559   2.323   3.903  12.460  0.0970  1.1480  0.0721
  577TMC3     H 8560   2.434   3.838  12.275 -2.5086 -0.1123  2.5106
  577TMC3    H1 8561   2.215   4.211  12.253 -2.7922 -2.9043  0.0037
  577TMC3    H2 8562   2.470   4.081  11.922  0.4193 -1.9496 -0.5438
  577TMC3    C7 8563   2.353   4.289  12.029 -0.0872  0.5409 -0.2397
  577TMC3    C8 8564   2.536   3.844  12.037 -0.2502  0.4703  0.0774
  577TMC3    O1 8565   2.467   4.330  12.007 -0.0223 -0.1329  0.0679
  577TMC3    O2 8566   2.549   3.734  12.092  0.5691  0.0434 -0.3225
  578MPD2     C 8567   0.576   3.678   1.663  0.9388 -0.8510 -0.2938
  578MPD2    C1 8568   0.692   3.649   1.596  0.6378 -0.5519 -0.0685
  578MPD2    C2 8569   0.757   3.524   1.613 -0.3387 -0.6958  0.6231
  578MPD2    C3 8570   0.716   3.446   1.722  0.2939  0.4983 -0.3587
  578MPD2    C4 8571   0.609   3.489   1.794  0.3636  0.8705  0.4608
  578MPD2    C5 8572   0.539   3.599   1.767  0.2693 -0.0291 -1.0817
  578MPD2     H 8573   0.842   3.490   1.555 -0.9230 -1.7190  0.3622
  578MPD2    H1 8574   0.561   3.427   1.869 -0.8348 -0.5002 -1.4048
  578MPD2    H2 8575   0.517   3.764   1.633 -0.2170 -2.7082 -3.3500
  578MPD2    H3 8576   0.461   3.636   1.832 -0.4808 -1.0225 -1.4342
  578MPD2     N 8577   0.790   3.328   1.752 -0.4515 -0.0317  0.6880
  578MPD2    H5 8578   0.856   3.296   1.682 -1.1791 -0.8207  0.3642
  578MPD2    N1 8579   0.735   3.744   1.502  0.0246  0.2215  0.3188
  578MPD2    H7 8580   0.678   3.827   1.492  0.1160 -0.0333 -2.5401
  579TMC3    C1 8581   0.886   3.165   1.877  0.8088  0.1567  0.0791
  579TMC3    C2 8582   0.954   3.135   1.991  0.0649 -0.4331  0.2877
  579TMC3    C3 8583   0.992   3.005   2.009 -0.5013 -0.8271  0.6954
  579TMC3    C4 8584   0.878   3.075   1.773  0.0061  0.0511  0.5435
  579TMC3    C5 8585   0.940   2.950   1.794 -0.1432 -0.1643  0.1963
  579TMC3    C6 8586   0.996   2.917   1.911 -0.3617 -0.3412 -0.7334
  579TMC3     C 8587   0.807   3.283   1.877  0.4145 -0.0611  0.0111
  579TMC3     O 8588   0.764   3.328   1.983 -0.4897 -0.4888 -0.0562
  579TMC3     H 8589   0.965   3.208   2.071 -1.8099  0.6172 -0.4250
  579TMC3    H1 8590   0.823   3.098   1.683 -1.9640  0.2111  1.7989
  579TMC3    H2 8591   1.023   2.816   1.940 -0.5103 -0.4099 -0.8301
  579TMC3    C7 8592   0.984   2.865   1.682 -0.2913 -0.0389  0.0136
  579TMC3    C8 8593   1.086   2.980   2.113  1.1269 -0.2159 -0.2349
  579TMC3    O1 8594   1.078   2.790   1.702 -0.3639  0.2892  0.1119
  579TMC3    O2 8595   1.068   2.887   2.189 -0.2361  0.1004  0.2944
  580TMC3    C1 8596   4.215   3.519  11.861  0.1627 -0.1128 -0.2936
  580TMC3    C2 8597   4.207   3.552  11.994  0.2218  0.3366  0.8580
  580TMC3    C3 8598   4.286   3.486  12.079 -0.0903 -0.3014  0.0529
  580TMC3    C4 8599   4.287   3.418  11.818  0.0724  0.7084 -0.0589
  580TMC3    C5 8600   4.359   3.343  11.915 -0.8356 -0.3394 -0.3742
  580TMC3    C6 8601   4.357   3.378  12.048  0.1729  0.8400  0.6775
  580TMC3     C 8602   4.218   3.636  11.774 -0.5233  0.4513 -0.5140
  580TMC3     O 8603   4.321   3.652  11.708 -0.3192 -0.2595  0.5517
  580TMC3     H 8604   4.171   3.651  12.017  0.8791  0.7788 -0.0022
  580TMC3    H1 8605   4.297   3.403  11.711 -1.0666  0.5570 -0.1464
  580TMC3    H2 8606   4.424   3.343  12.126  0.6187  2.5885  1.0908
  580TMC3    C7 8607   4.445   3.229  11.880 -0.0198 -0.1611 -0.1128
  580TMC3    C8 8608   4.364   3.585  12.155  0.7714 -0.5182 -0.7123
  580TMC3    O1 8609   4.435   3.191  11.765  0.1317 -0.1155  0.0009
  580TMC3    O2 8610   4.304   3.643  12.247  0.1420  0.7475  0.0112
  581MPD2     C 8611   3.134   3.495  15.260 -0.2284  0.2864  0.2661
  581MPD2    C1 8612   3.146   3.377  15.187 -0.0505 -0.1818  0.2324
  581MPD2    C2 8613   3.036   3.327  15.122  0.0775  0.0154 -0.4590
  581MPD2    C3 8614   2.917   3.395  15.128 -0.0854 -0.2050 -0.3926
  581MPD2    C4 8615   2.910   3.521  15.195 -0.1552 -0.6064  0.3204
  581MPD2    C5 8616   3.021   3.567  15.254  0.1621  1.0817  0.1122
  581MPD2     H 8617   3.041   3.233  15.068  3.1993  0.8799 -1.6347
  581MPD2    H1 8618   2.814   3.572  15.200 -0.6230 -1.2645 -1.8513
  581MPD2    H2 8619   3.215   3.538  15.319  0.7164  2.4432 -2.6069
  581MPD2    H3 8620   3.020   3.653  15.320  0.7348  0.6046  0.7399
  581MPD2     N 8621   2.801   3.340  15.061  0.0954  0.4354 -0.1920
  581MPD2    H5 8622   2.815   3.268  14.990  0.2405 -0.0963  0.3782
  581MPD2    N1 8623   3.275   3.307  15.199  0.0585  0.6151  0.0269
  581MPD2    H7 8624   3.352   3.359  15.239  1.5000 -1.7177  0.3304
  582TMC3    C1 8625   3.431   3.140  15.203  1.1138  0.8665 -0.1854
  582TMC3    C2 8626   3.432   3.140  15.341  0.5130  0.8182 -0.1926
  582TMC3    C3 8627   3.451   3.021  15.408 -0.8094  0.4600 -0.4419
  582TMC3    C4 8628   3.469   3.033  15.137  0.1726  0.4875  0.0293
  582TMC3    C5 8629   3.498   2.915  15.208  0.0720 -0.6337  0.7186
  582TMC3    C6 8630   3.485   2.912  15.339  0.2929 -1.0518 -0.2513
  582TMC3     C 8631   3.305   3.183  15.155 -0.9809 -0.2695 -0.3336
  582TMC3     O 8632   3.229   3.105  15.097 -0.3235  0.3319  0.6710
  582TMC3     H 8633   3.378   3.218  15.393  1.1158  0.5682  0.8065
  582TMC3    H1 8634   3.465   3.041  15.029  0.8890 -3.2356 -0.2660
  582TMC3    H2 8635   3.497   2.812  15.379 -1.6083 -1.7212 -1.3680
  582TMC3    C7 8636   3.455   2.795  15.144  0.0838  0.0938  0.5739
  582TMC3    C8 8637   3.382   3.006  15.530 -0.1604  0.2501 -0.3943
  582TMC3    O1 8638   3.496   2.682  15.179 -0.5316  0.2184  0.0153
  582TMC3    O2 8639   3.290   3.084  15.556 -0.1978  0.2106 -0.1684
  583MPD2     C 8640   2.843   4.546  17.008 -0.4576  0.4134 -0.0340
  583MPD2    C1 8641   2.871   4.648  16.918 -0.5689  0.1039 -0.3550
  583MPD2    C2 8642   2.809   0.043  16.941 -0.0396 -0.4389  0.2728
  583MPD2    C3 8643   2.726   0.067  17.054  0.1923 -0.0201  0.4695
  583MPD2    C4 8644   2.695   4.688  17.143 -0.1687 -0.2367  0.2104
  583MPD2    C5 8645   2.753   4.561  17.119 -0.0766 -0.2090 -0.7991
  583MPD2     H 8646   2.822   0.132  16.881 -2.4631 -0.5344 -0.3773
  583MPD2    H1 8647   2.615   4.693  17.216 -0.2315  0.5707  0.0810
  583MPD2    H2 8648   2.879   4.444  17.012 -2.1052 -0.1495  0.2867
  583MPD2    H3 8649   2.729   4.471  17.173 -2.6566  1.8044  1.4067
  583MPD2     N 8650   2.680   0.202  17.071  0.0440  0.1567  0.1811
  583MPD2    H5 8651   2.692   0.265  16.993 -0.5457 -2.6029 -2.1287
  583MPD2    N1 8652   2.955   4.633  16.804 -0.3080 -0.2794  0.5125
  583MPD2    H7 8653   2.968   4.713  16.743  0.6356 -0.4753  0.4519
  584TMC3    C1 8654   2.635   0.398  17.188 -0.2391 -0.1386  0.4805
  584TMC3    C2 8655   2.703   0.470  17.099 -0.5280 -0.5404  0.6450
  584TMC3    C3 8656   2.733   0.601  17.131  0.3767 -0.6769 -0.4286
  584TMC3    C4 8657   2.583   0.452  17.304 -0.1002 -0.1571 -0.4923
  584TMC3    C5 8658   2.612   0.580  17.327 -0.2272 -0.5487 -0.0019
  584TMC3    C6 8659   2.681   0.654  17.243 -0.1843 -0.3087  0.0887
  584TMC3     C 8660   2.645   0.252  17.190  0.1481 -0.1214  0.1086
  584TMC3     O 8661   2.618   0.200  17.297 -0.0978  0.2262 -0.2334
  584TMC3     H 8662   2.733   0.423  17.006 -1.5995  3.4849 -1.7062
  584TMC3    H1 8663   2.518   0.386  17.360  2.0877 -1.7796  0.1590
  584TMC3    H2 8664   2.692   0.761  17.258  1.7553 -0.0719 -3.1067
  584TMC3    C7 8665   2.611   0.605  17.468 -0.7138 -0.4338 -0.0286
  584TMC3    C8 8666   2.808   0.681  17.027 -0.4906 -0.3167 -0.3397
  584TMC3    O1 8667   2.602   0.511  17.539  0.3404 -0.0666 -0.4837
  584TMC3    O2 8668   2.869   0.606  16.949 -1.1714  0.1943 -0.0254
  585MPD2     C 8669   1.834   3.030   1.302  0.4938  0.0911  0.1865
  585MPD2    C1 8670   1.943   3.085   1.241  0.6080  0.1228  0.1284
  585MPD2    C2 8671   2.000   3.022   1.131  0.2289  0.4348 -0.0669
  585MPD2    C3 8672   1.945   2.907   1.074 -0.2273  0.3732 -0.1108
  585MPD2    C4 8673   1.837   2.849   1.138 -0.0018  0.6118  0.4510
  585MPD2    C5 8674   1.793   2.907   1.252  0.6602 -0.1159 -0.5661
  585MPD2     H 8675   2.088   3.067   1.087  0.7849  1.3865  2.0254
  585MPD2    H1 8676   1.785   2.761   1.102 -0.5684  1.4226 -0.7382
  585MPD2    H2 8677   1.783   3.084   1.381 -0.6953  0.3609 -0.7562
  585MPD2    H3 8678   1.710   2.854   1.297  1.6337  0.0947  1.4488
  585MPD2     N 8679   1.981   2.855   0.946  0.2843 -0.4762 -0.1862
  585MPD2    H5 8680   1.932   2.772   0.913 -0.7655 -0.1436  0.4952
  585MPD2    N1 8681   1.987   3.214   1.281  0.2085 -0.6049  0.2795
  585MPD2    H7 8682   1.926   3.263   1.345  1.0835 -0.5776  1.0878
  586TMC3    C1 8683   2.088   2.869   0.736 -0.8643  0.1960  0.2849
  586TMC3    C2 8684   2.165   2.956   0.662  0.4834 -0.1301 -0.0457
  586TMC3    C3 8685   2.135   2.980   0.531 -0.3199 -0.2286 -0.3291
  586TMC3    C4 8686   1.987   2.799   0.673 -0.1122  0.1672  0.3659
  586TMC3    C5 8687   1.958   2.830   0.543  0.3566  0.0274  0.5296
  586TMC3    C6 8688   2.035   2.914   0.469 -0.6244  0.6520  0.2980
  586TMC3     C 8689   2.088   2.898   0.881  0.9197  0.1195  0.4097
  586TMC3     O 8690   2.191   2.956   0.924  0.2282 -0.2148 -0.3144
  586TMC3     H 8691   2.248   3.010   0.705  0.7096 -0.4601 -0.0654
  586TMC3    H1 8692   1.915   2.742   0.730  0.6050  0.1069  1.2179
  586TMC3    H2 8693   2.033   2.928   0.361  0.2811  0.3014  0.2365
  586TMC3    C7 8694   1.862   2.759   0.469  0.4297  0.3518  0.0526
  586TMC3    C8 8695   2.240   3.053   0.453 -0.1219 -0.6001 -0.0136
  586TMC3    O1 8696   1.827   2.647   0.504  0.4046 -0.1964 -0.1715
  586TMC3    O2 8697   2.358   3.028   0.465  0.2659 -0.0721 -0.5132
  587TMC3    C1 8698   3.918   1.747  16.823  0.4155 -0.2131  0.2073
  587TMC3    C2 8699   3.836   1.744  16.708 -0.0266 -0.8475 -0.0616
  587TMC3    C3 8700   3.895   1.749  16.583  0.0318 -0.3062  0.0983
  587TMC3    C4 8701   4.053   1.739  16.811  0.1219  0.2493 -0.0992
  587TMC3    C5 8702   4.108   1.741  16.683 -0.3822  0.4861  0.2240
  587TMC3    C6 8703   4.032   1.755  16.568 -0.4181  0.0249  0.5898
  587TMC3     C 8704   3.867   1.772  16.952  0.0254  0.5920  0.0250
  587TMC3     O 8705   3.947   1.751  17.042  0.2368 -0.0602 -0.5313
  587TMC3     H 8706   3.730   1.722  16.713  0.2015 -2.0604 -0.5580
  587TMC3    H1 8707   4.120   1.724  16.895 -0.8051 -0.6871  0.4708
  587TMC3    H2 8708   4.082   1.782  16.476  0.1956 -2.4074  0.2186
  587TMC3    C7 8709   4.250   1.742  16.652  0.1045 -0.5886 -0.2014
  587TMC3    C8 8710   3.815   1.813  16.474  0.1173  0.3553 -0.1196
  587TMC3    O1 8711   4.268   1.696  16.538 -0.7035  0.0576 -0.2016
  587TMC3    O2 8712   3.845   1.798  16.356 -0.4207 -0.3776  0.0176
  588TMC3    C1 8713   1.447   0.543  10.080 -0.0474 -0.1203  0.2235
  588TMC3    C2 8714   1.431   0.411  10.075 -0.9449 -0.0965  0.1548
  588TMC3    C3 8715   1.553   0.345  10.089 -0.1851 -0.1470 -0.0167
  588TMC3    C4 8716   1.568   0.616  10.086  0.1961  0.0546  0.6303
  588TMC3    C5 8717   1.684   0.549  10.105  0.2704 -0.3933 -0.2084
  588TMC3    C6 8718   1.677   0.409  10.101  0.2866  0.1532  0.4215
  588TMC3     C 8719   1.329   0.627  10.059 -0.2657 -0.0715  0.4604
  588TMC3     O 8720   1.247   0.577   9.978  0.1756 -0.4653 -0.1242
  588TMC3     H 8721   1.336   0.365  10.053  0.6649 -2.6961 -1.2877
  588TMC3    H1 8722   1.576   0.718  10.050 -0.0547 -0.1578 -0.0288
  588TMC3    H2 8723   1.773   0.360  10.097  0.1129 -0.1523 -0.0013
  588TMC3    C7 8724   1.808   0.620  10.115 -0.0881  0.4908  0.4158
  588TMC3    C8 8725   1.544   0.200  10.084 -0.1801  0.4755 -0.2046
  588TMC3    O1 8726   1.909   0.569  10.070 -0.0986 -0.2326 -0.1031
  588TMC3    O2 8727   1.450   0.152  10.020  0.4271  0.5341 -0.0194
  589TMC3    C1 8728   0.612   2.171   1.216 -0.0222  0.0404 -0.3018
  589TMC3    C2 8729   0.669   2.110   1.323  0.1828  0.3507  0.5047
  589TMC3    C3 8730   0.754   2.005   1.301  0.3731 -0.2959  0.3297
  589TMC3    C4 8731   0.621   2.121   1.091 -0.5414 -0.0392 -0.0733
  589TMC3    C5 8732   0.701   2.007   1.072 -0.4478  0.3158 -0.0222
  589TMC3    C6 8733   0.766   1.944   1.177 -0.1341  0.7828 -0.4970
  589TMC3     C 8734   0.531   2.295   1.231  0.9036  0.2704 -0.6275
  589TMC3     O 8735   0.456   2.326   1.142 -0.2851  0.5254 -0.7654
  589TMC3     H 8736   0.658   2.141   1.426 -0.7442 -0.2487  0.5893
  589TMC3    H1 8737   0.578   2.177   1.009 -1.3454  0.6613  0.8253
  589TMC3    H2 8738   0.822   1.852   1.163  2.3555  2.3121 -0.6413
  589TMC3    C7 8739   0.700   1.941   0.946 -0.3556  0.3803  0.0653
  589TMC3    C8 8740   0.794   1.919   1.416  0.7226  0.3264 -0.4798
  589TMC3    O1 8741   0.774   1.843   0.938 -0.0316  0.1430  0.3009
  589TMC3    O2 8742   0.722   1.923   1.513 -0.4292 -0.0542  0.2431
  590MPD2     C 8743   0.654   0.631  16.637 -0.4376 -1.0148 -0.7340
  590MPD2    C1 8744   0.571   0.641  16.528  0.2574 -0.5148  0.2076
  590MPD2    C2 8745   0.623   0.696  16.411 -0.0245  0.6806 -0.3492
  590MPD2    C3 8746   0.755   0.733  16.405  0.0152 -0.2893  0.6999
  590MPD2    C4 8747   0.838   0.712  16.513 -0.0868  0.5629 -0.4081
  590MPD2    C5 8748   0.787   0.664  16.633  0.0367 -0.4301  0.1308
  590MPD2     H 8749   0.564   0.706  16.320 -0.5586  3.2389  0.2736
  590MPD2    H1 8750   0.939   0.749  16.520 -0.2931  0.8101  1.2986
  590MPD2    H2 8751   0.607   0.599  16.729 -0.1596 -3.5141 -1.4760
  590MPD2    H3 8752   0.861   0.648  16.712  0.9880 -2.7181 -1.2377
  590MPD2     N 8753   0.785   0.813  16.289  0.4704 -0.0185 -0.4121
  590MPD2    H5 8754   0.709   0.845  16.231 -0.9615 -1.0060  0.9043
  590MPD2    N1 8755   0.429   0.614  16.542 -0.3731 -0.0758  0.6136
  590MPD2    H7 8756   0.399   0.615  16.639 -2.2586  1.8398  0.0337
  591TMC3    C1 8757   0.894   0.986  16.180 -0.0008 -0.3868 -0.0025
  591TMC3    C2 8758   0.808   0.988  16.072 -0.1805 -0.2605  0.1685
  591TMC3    C3 8759   0.789   1.107  16.006  0.3794 -0.2195 -0.1813
  591TMC3    C4 8760   0.956   1.101  16.227 -0.3087  0.0030  0.5273
  591TMC3    C5 8761   0.928   1.220  16.156  0.1937 -0.6350  0.3401
  591TMC3    C6 8762   0.843   1.228  16.048  0.2734  0.2235  0.3711
  591TMC3     C 8763   0.905   0.872  16.266 -0.2429  0.7190 -0.0497
  591TMC3     O 8764   1.004   0.870  16.337  0.7549 -0.5378  0.0243
  591TMC3     H 8765   0.745   0.911  16.028 -1.2787 -0.8897  2.8737
  591TMC3    H1 8766   1.024   1.107  16.311 -1.4505 -0.0571  1.4493
  591TMC3    H2 8767   0.804   1.325  16.019  0.6350  0.3972  0.4610
  591TMC3    C7 8768   0.990   1.338  16.193 -0.0683 -0.2481 -0.0934
  591TMC3    C8 8769   0.761   1.105  15.869 -0.3204  0.5812 -0.5170
  591TMC3    O1 8770   1.055   1.334  16.294  0.5440  0.1199  0.0220
  591TMC3    O2 8771   0.714   1.207  15.821 -0.2151  0.0807 -0.5133
  592MPD2     C 8772   1.174   3.234  11.702 -0.1918  0.0983  0.5576
  592MPD2    C1 8773   1.111   3.269  11.824 -0.0508 -0.4811  0.6083
  592MPD2    C2 8774   1.040   3.173  11.890  0.3506 -0.9261 -0.1162
  592MPD2    C3 8775   1.050   3.042  11.866  0.0517  0.2763 -0.4508
  592MPD2    C4 8776   1.117   3.009  11.746  0.0477  0.6022  0.1175
  592MPD2    C5 8777   1.173   3.102  11.664  0.3994 -0.1845 -0.1648
  592MPD2     H 8778   0.998   3.194  11.988  0.8984  0.0601 -0.0871
  592MPD2    H1 8779   1.111   2.911  11.700  0.5647  0.8782 -0.5422
  592MPD2    H2 8780   1.229   3.308  11.645  1.7770  0.1556  2.5456
  592MPD2    H3 8781   1.211   3.081  11.565  1.9775 -1.6411  0.7525
  592MPD2     N 8782   0.984   2.954  11.951  0.1643 -0.0833 -0.3431
  592MPD2    H5 8783   0.921   2.983  12.025  1.3860  0.3052  0.5483
  592MPD2    N1 8784   1.125   3.410  11.862  0.2882 -0.2077 -0.0635
  592MPD2    H7 8785   1.197   3.462  11.813 -0.6527  0.4057 -0.7843
  593TMC3    C1 8786   1.075   3.622  11.944 -0.0736  0.4328  0.2085
  593TMC3    C2 8787   1.065   3.691  12.059 -0.0183  0.0726 -0.6731
  593TMC3    C3 8788   1.120   3.818  12.069 -0.5480  0.0093 -0.0068
  593TMC3    C4 8789   1.142   3.677  11.836  0.0224  0.3973  0.1613
  593TMC3    C5 8790   1.183   3.806  11.836  0.3257 -0.7950 -0.1169
  593TMC3    C6 8791   1.179   3.874  11.955  0.2244 -0.0647 -0.4893
  593TMC3     C 8792   1.043   3.481  11.945 -0.5488  0.3724 -0.4738
  593TMC3     O 8793   0.944   3.441  12.008 -0.2926 -0.7560  0.3188
  593TMC3     H 8794   1.005   3.648  12.139  1.6148  0.3211  0.6750
  593TMC3    H1 8795   1.168   3.619  11.749 -1.7680 -1.4455  0.8743
  593TMC3    H2 8796   1.235   3.966  11.967  0.0331  0.1894 -1.5144
  593TMC3    C7 8797   1.298   3.832  11.759 -0.1721  0.0248  0.5199
  593TMC3    C8 8798   1.224   3.834  12.172 -0.5118  0.2544  0.1248
  593TMC3    O1 8799   1.289   3.815  11.637 -0.5638 -0.1305  0.1885
  593TMC3    O2 8800   1.337   3.822  12.125  0.0004  0.1104  0.2734
  594MPD2     C 8801   0.157   1.832  13.839  0.6082 -0.0603  0.2306
  594MPD2    C1 8802   0.107   1.867  13.960 -0.1836 -0.2917  0.1363
  594MPD2    C2 8803   0.184   1.940  14.049  0.3127 -0.6563  0.3876
  594MPD2    C3 8804   0.312   1.977  14.017  0.5391  0.1549 -0.2515
  594MPD2    C4 8805   0.372   1.924  13.903 -0.4444 -0.1757 -0.9743
  594MPD2    C5 8806   0.291   1.852  13.814  0.0709  0.1817  0.0258
  594MPD2     H 8807   0.140   1.967  14.145  1.1069  1.1113  0.2550
  594MPD2    H1 8808   0.473   1.945  13.870 -0.1281  1.2673  0.8703
  594MPD2    H2 8809   0.102   1.770  13.769  2.9112 -3.0046  0.9913
  594MPD2    H3 8810   0.344   1.800  13.736  1.5590 -0.7947  1.6888
  594MPD2     N 8811   0.379   2.062  14.109  0.2416  0.1982  0.5331
  594MPD2    H5 8812   0.327   2.092  14.190  1.1836 -1.9893  1.9554
  594MPD2    N1 8813   4.699   1.826  13.991 -0.4658 -0.1147  0.0844
  594MPD2    H7 8814   4.645   1.790  13.913  1.1233  0.3904 -1.2174
  595TMC3    C1 8815   0.691   2.332  14.289 -0.0145 -0.1838  0.0251
  595TMC3    C2 8816   0.661   2.217  14.217  0.0453 -0.3314 -0.2339
  595TMC3    C3 8817   0.531   2.199  14.190  0.2337  0.1984 -0.1086
  595TMC3    C4 8818   0.599   2.432  14.313  0.5537 -0.0515  0.4069
  595TMC3    C5 8819   0.469   2.418  14.274  0.5204 -0.4181 -0.0871
  595TMC3    C6 8820   0.437   2.296  14.214 -0.6980  0.3504 -0.1839
  595TMC3     C 8821   0.823   2.368  14.317 -1.1484  0.2957  0.1868
  595TMC3     O 8822   0.839   2.450  14.407 -0.0064 -0.2584 -0.0354
  595TMC3     H 8823   0.743   2.148  14.200  0.7152  0.5657 -0.6527
  595TMC3    H1 8824   0.625   2.528  14.357  1.9049  0.4846 -1.5689
  595TMC3    H2 8825   0.337   2.285  14.172 -0.6014  0.2249 -0.3795
  595TMC3    C7 8826   0.368   2.465  14.368 -0.5333 -0.1928 -0.6123
  595TMC3    C8 8827   0.507   2.106  14.084 -0.6594  0.2044 -0.0079
  595TMC3    O1 8828   0.272   2.396  14.382 -0.1911  0.4321  0.2401
  595TMC3    O2 8829   0.593   2.072  14.005 -0.4761  0.0932 -0.1945
  596MPD2     C 8830   3.727   4.556  16.972  0.0011  0.2170  0.7153
  596MPD2    C1 8831   3.724   4.676  16.904  0.6377  0.5553 -0.0829
  596MPD2    C2 8832   3.763   4.677  16.771  0.7857 -0.2726 -0.0377
  596MPD2    C3 8833   3.795   4.566  16.703 -0.2232  0.4586 -0.1309
  596MPD2    C4 8834   3.795   4.448  16.772  0.7567  0.4810 -0.5626
  596MPD2    C5 8835   3.776   4.446  16.908  0.2861 -0.2687  0.5120
  596MPD2     H 8836   3.746   0.050  16.725 -0.5597 -0.5126 -0.0472
  596MPD2    H1 8837   3.827   4.356  16.725 -0.6479 -0.6467  0.7029
  596MPD2    H2 8838   3.715   4.555  17.080 -3.6862  0.7844  0.3121
  596MPD2    H3 8839   3.789   4.361  16.974 -0.2941 -3.0766 -3.0620
  596MPD2     N 8840   3.829   4.564  16.569  0.2463 -0.2432 -0.4358
  596MPD2    H5 8841   3.833   4.475  16.520 -0.3246 -0.8137  0.5563
  596MPD2    N1 8842   3.673   0.069  16.962  0.3526 -0.5885  0.0743
  596MPD2    H7 8843   3.697   0.155  16.912  2.4936 -1.2586 -0.0638
  597TMC3    C1 8844   3.563   0.228  17.097  0.0453  0.2979  0.1196
  597TMC3    C2 8845   3.581   0.318  16.992 -0.5020  0.1055  0.6375
  597TMC3    C3 8846   3.538   0.448  17.007  0.5997  0.6207  0.0418
  597TMC3    C4 8847   3.483   0.264  17.208 -0.0643  0.2638  0.2045
  597TMC3    C5 8848   3.436   0.392  17.214  1.1879 -1.2793  0.6876
  597TMC3    C6 8849   3.457   0.488  17.114  0.4827  0.0770 -0.0608
  597TMC3     C 8850   3.603   0.087  17.084 -0.2143 -0.2273 -0.5811
  597TMC3     O 8851   3.581   0.009  17.178 -0.0338 -0.0910 -0.1476
  597TMC3     H 8852   3.642   0.298  16.904 -0.2816 -1.9065  1.2441
  597TMC3    H1 8853   3.461   0.183  17.277 -0.2129 -0.0363 -0.1975
  597TMC3    H2 8854   3.424   0.590  17.131  0.5882  0.1967 -0.5847
  597TMC3    C7 8855   3.342   0.422  17.322  0.2030  0.9983 -0.4839
  597TMC3    C8 8856   3.598   0.555  16.934 -0.0600 -0.5113  0.0106
  597TMC3    O1 8857   3.332   0.350  17.419  0.2257  0.2312 -0.1759
  597TMC3    O2 8858   3.710   0.535  16.896 -0.1284 -0.1893 -0.2719
  598TMC3    C1 8859   1.859   1.560  15.535 -0.1176 -0.5192  0.4901
  598TMC3    C2 8860   1.769   1.460  15.524 -0.6178  0.2346  0.4973
  598TMC3    C3 8861   1.750   1.400  15.403  0.5980 -0.4520 -0.2383
  598TMC3    C4 8862   1.941   1.588  15.429  0.6795 -0.2252  0.4112
  598TMC3    C5 8863   1.921   1.525  15.312 -0.6827  0.0510 -0.1376
  598TMC3    C6 8864   1.828   1.427  15.296 -0.1042 -0.2544 -0.3916
  598TMC3     C 8865   1.882   1.626  15.663  0.7256 -0.7337  0.1511
  598TMC3     O 8866   1.781   1.627  15.736 -0.1904 -0.0707  0.2175
  598TMC3     H 8867   1.704   1.439  15.608  0.3152 -1.3943  0.8213
  598TMC3    H1 8868   2.024   1.656  15.444 -0.7522  2.0489 -1.9054
  598TMC3    H2 8869   1.824   1.381  15.198 -0.2793  0.6999 -0.8308
  598TMC3    C7 8870   1.992   1.570  15.188  0.4021 -0.0956 -0.0897
  598TMC3    C8 8871   1.674   1.279  15.405  0.3655  0.8482  0.6813
  598TMC3    O1 8872   1.983   1.502  15.087 -0.0871  0.1388  0.1121
  598TMC3    O2 8873   1.647   1.230  15.510 -0.4332 -0.1633 -0.1816
  599MPD2     C 8874   1.854   3.093  15.507  0.3061 -0.4066  0.4109
  599MPD2    C1 8875   1.869   3.114  15.645  0.0647 -0.4609 -0.7407
  599MPD2    C2 8876   1.778   3.202  15.707  0.2308  0.2345  0.5277
  599MPD2    C3 8877   1.662   3.241  15.639 -0.5116  0.6234  0.4884
  599MPD2    C4 8878   1.649   3.201  15.507  0.5747 -0.0314  0.6249
  599MPD2    C5 8879   1.744   3.138  15.438 -0.7507  0.0289 -0.1704
  599MPD2     H 8880   1.791   3.209  15.814 -2.3031 -1.0864  0.9307
  599MPD2    H1 8881   1.562   3.234  15.451 -0.6215  0.9967  3.1235
  599MPD2    H2 8882   1.924   3.031  15.452 -0.2832 -0.0339 -0.7437
  599MPD2    H3 8883   1.738   3.129  15.330  2.1256 -0.4099 -0.2893
  599MPD2     N 8884   1.549   3.305  15.705  0.0598  0.1628 -0.6974
  599MPD2    H5 8885   1.463   3.313  15.651  0.7635  1.1084 -1.6781
  599MPD2    N1 8886   1.977   3.050  15.707  0.5594 -0.0204  0.0397
  599MPD2    H7 8887   2.043   3.011  15.641  0.6791 -1.3546  0.9466
  600TMC3    C1 8888   1.440   3.398  15.899  0.8455 -0.6054 -0.2012
  600TMC3    C2 8889   1.319   3.365  15.843  0.4046  0.0852 -0.4863
  600TMC3    C3 8890   1.209   3.391  15.918 -0.9265 -0.2025 -0.7037
  600TMC3    C4 8891   1.451   3.474  16.015  0.2854  0.3326 -0.5831
  600TMC3    C5 8892   1.334   3.505  16.079 -0.5032  0.2526  0.3612
  600TMC3    C6 8893   1.215   3.463  16.034 -0.5756  0.1391 -0.4806
  600TMC3     C 8894   1.558   3.349  15.836  0.4839 -0.3705  0.1029
  600TMC3     O 8895   1.660   3.385  15.890 -0.5240 -0.5716 -0.7260
  600TMC3     H 8896   1.307   3.304  15.755 -0.9182 -1.6406  0.8869
  600TMC3    H1 8897   1.546   3.515  16.048  0.3189 -0.7440  0.6653
  600TMC3    H2 8898   1.125   3.487  16.090  0.5615  1.4433  0.7791
  600TMC3    C7 8899   1.326   3.577  16.205  0.3489 -0.7255  0.3145
  600TMC3    C8 8900   1.072   3.362  15.876  0.5819 -0.3733 -0.2196
  600TMC3    O1 8901   1.214   3.601  16.257 -0.1949  0.1734 -0.3077
  600TMC3    O2 8902   0.982   3.432  15.917 -0.7215 -0.0559  0.1281
  601MPD2     C 8903   3.580   2.311   0.243  0.6439 -0.0674  0.3333
  601MPD2    C1 8904   3.463   2.259   0.296  0.0633  0.2887 -0.5354
  601MPD2    C2 8905   3.463   2.157   0.394 -0.0019  0.1100  0.0973
  601MPD2    C3 8906   3.583   2.107   0.438  0.2234 -0.9119  0.1772
  601MPD2    C4 8907   3.702   2.159   0.393 -0.1419  0.0561  0.0368
  601MPD2    C5 8908   3.698   2.255   0.294  0.1595 -0.4152  0.5350
  601MPD2     H 8909   3.362   2.137   0.426 -0.8982  1.9501 -1.5771
  601MPD2    H1 8910   3.798   2.114   0.415  0.4553  0.8912 -0.8670
  601MPD2    H2 8911   3.593   2.390   0.169  0.7516  0.8785  1.3718
  601MPD2    H3 8912   3.789   2.293   0.250  0.2823  0.7636  1.7951
  601MPD2     N 8913   3.578   2.003   0.531 -0.2561 -0.2153 -0.4329
  601MPD2    H5 8914   3.666   1.966   0.565 -0.2961 -0.4050 -0.5325
  601MPD2    N1 8915   3.338   2.317   0.271 -0.1474  0.1144 -0.9138
  601MPD2    H7 8916   3.256   2.286   0.322 -0.7426  1.0242 -1.3174
  602TMC3    C1 8917   3.160   2.406   0.153  0.7498  0.4413  0.0105
  602TMC3    C2 8918   3.118   2.533   0.124 -0.5603 -0.7672  0.2174
  602TMC3    C3 8919   3.003   2.555   0.056  0.2161  0.1932  0.1178
  602TMC3    C4 8920   3.088   2.291   0.123 -0.0065  0.1048  0.4221
  602TMC3    C5 8921   2.976   2.320   0.056 -0.2218 -0.0583  0.2803
  602TMC3    C6 8922   2.932   2.442   0.017 -0.0507  0.4879 -0.3939
  602TMC3     C 8923   3.303   2.395   0.166  0.0224 -0.1547  0.3159
  602TMC3     O 8924   3.362   2.455   0.079 -0.3521 -0.5040 -0.0385
  602TMC3     H 8925   3.193   2.611   0.133 -0.5812 -0.4437 -2.5610
  602TMC3    H1 8926   3.119   2.190   0.145 -0.0081 -0.2015 -0.9851
  602TMC3    H2 8927   2.829   2.450  17.681 -0.7092  2.2954  2.1381
  602TMC3    C7 8928   2.902   2.207  17.694 -0.2424  0.3788  0.2848
  602TMC3    C8 8929   2.961   2.685   0.018 -0.9418  0.7852  0.0871
  602TMC3    O1 8930   2.881   2.102   0.059 -0.4121  0.0486  0.0735
  602TMC3    O2 8931   2.996   2.781   0.085 -0.3222  0.6159 -0.1482
  603TMC3    C1 8932   1.587   2.989  11.311 -0.7715  0.2082  0.3371
  603TMC3    C2 8933   1.653   2.878  11.359  0.4051  0.3876 -0.5265
  603TMC3    C3 8934   1.777   2.905  11.411 -0.6473  0.0161 -0.0210
  603TMC3    C4 8935   1.646   3.114  11.300  0.4580  0.1307 -0.3745
  603TMC3    C5 8936   1.778   3.120  11.333 -0.0548 -0.0082  0.1193
  603TMC3    C6 8937   1.841   3.020  11.398 -0.0039  0.5756  0.4138
  603TMC3     C 8938   1.438   2.988  11.293 -0.3586  0.3087  0.1150
  603TMC3     O 8939   1.393   3.087  11.236 -0.0938  0.1098  0.0510
  603TMC3     H 8940   1.614   2.777  11.357 -0.6280  0.7731  0.4358
  603TMC3    H1 8941   1.595   3.208  11.279  1.3865  1.1501  1.9648
  603TMC3    H2 8942   1.948   3.021  11.384  0.1839  5.2380  2.1802
  603TMC3    C7 8943   1.859   3.232  11.285  0.3961 -0.5184  0.3286
  603TMC3    C8 8944   1.834   2.812  11.500  0.2081  0.0169  0.2375
  603TMC3    O1 8945   1.961   3.255  11.350 -0.7999  0.6718  0.0477
  603TMC3    O2 8946   1.795   2.696  11.479  0.3013 -0.0233 -0.2303
  604MPD2     C 8947   2.802   0.945  16.641 -0.2823  0.4447  0.1199
  604MPD2    C1 8948   2.705   0.850  16.655  0.3737 -0.5150 -0.5928
  604MPD2    C2 8949   2.694   0.752  16.559  0.2621 -0.3758  0.3882
  604MPD2    C3 8950   2.774   0.761  16.451 -0.5315  0.0866 -0.4463
  604MPD2    C4 8951   2.865   0.868  16.437 -0.0329  0.6724 -0.2220
  604MPD2    C5 8952   2.894   0.951  16.542  0.1833  0.1679 -0.3473
  604MPD2     H 8953   2.618   0.674  16.565  1.1689 -1.1565  1.7461
  604MPD2    H1 8954   2.942   0.874  16.362 -1.3733 -0.3573 -1.6706
  604MPD2    H2 8955   2.802   1.023  16.717  0.0774 -0.9394  1.5464
  604MPD2    H3 8956   2.976   1.022  16.536 -1.3910  2.0592  0.5897
  604MPD2     N 8957   2.756   0.670  16.341 -0.1696 -0.4351  0.2298
  604MPD2    H5 8958   2.676   0.609  16.356 -0.1630 -0.1414  1.4451
  604MPD2    N1 8959   2.614   0.866  16.760 -0.4199  0.1390 -0.6548
  604MPD2    H7 8960   2.618   0.947  16.821 -0.2781 -1.2780  1.1875
  605TMC3    C1 8961   2.432   0.861  16.895 -0.3257  0.3778  0.4051
  605TMC3    C2 8962   2.494   0.944  16.984 -0.5204 -0.5270 -0.7123
  605TMC3    C3 8963   2.427   1.057  17.025 -0.4869  0.1960 -0.3424
  605TMC3    C4 8964   2.297   0.877  16.874  0.0771  0.0273 -0.1144
  605TMC3    C5 8965   2.230   0.975  16.938  0.4372 -0.4392  0.0620
  605TMC3    C6 8966   2.288   1.074  17.009  0.6342 -0.4970  0.1365
  605TMC3     C 8967   2.507   0.794  16.785 -0.0675 -0.2676  0.0684
  605TMC3     O 8968   2.467   0.691  16.725 -0.1950  0.5442  1.1418
  605TMC3     H 8969   2.601   0.942  17.005 -0.2529  1.0285 -2.0183
  605TMC3    H1 8970   2.255   0.805  16.805 -0.5548 -0.4654  0.7771
  605TMC3    H2 8971   2.237   1.155  17.060  0.4397  0.1903 -1.1508
  605TMC3    C7 8972   2.095   1.015  16.888 -0.3091 -0.8463 -0.2901
  605TMC3    C8 8973   2.513   1.152  17.092  0.5616  0.5637 -0.1580
  605TMC3    O1 8974   2.059   1.131  16.899 -0.3481 -0.5393  0.3249
  605TMC3    O2 8975   2.520   1.161  17.215  0.7576  0.0961  0.0002
  606TMC3    C1 8976   4.171   4.054  17.029  0.4700  0.4466  0.4826
  606TMC3    C2 8977   4.083   4.100  17.125  0.0538 -0.1959  0.3461
  606TMC3    C3 8978   3.978   4.025  17.167 -0.2919  0.4977  0.5229
  606TMC3    C4 8979   4.139   3.949  16.952  0.0924  0.2525 -0.2584
  606TMC3    C5 8980   4.026   3.873  17.002 -0.7487 -0.2108  0.3376
  606TMC3    C6 8981   3.948   3.905  17.107  0.0977 -0.0725  0.1428
  606TMC3     C 8982   4.309   4.049  17.071  1.0987 -0.5680  0.4453
  606TMC3     O 8983   4.395   4.008  16.993 -0.2085 -0.3955 -0.3614
  606TMC3     H 8984   4.102   4.195  17.174  1.5132 -0.5083  0.3821
  606TMC3    H1 8985   4.208   3.900  16.884 -0.3240  1.6894 -1.7248
  606TMC3    H2 8986   3.857   3.850  17.127 -0.5387  0.6144 -0.8609
  606TMC3    C7 8987   3.994   3.759  16.910 -0.2892 -0.2707 -0.1548
  606TMC3    C8 8988   3.943   4.045  17.310 -0.1241  0.1328 -0.9241
  606TMC3    O1 8989   4.074   3.734  16.826  0.3985  0.4633  0.3620
  606TMC3    O2 8990   4.027   4.102  17.374 -0.5111 -0.2133 -0.1219
  607MPD2     C 8991   1.275   2.434  11.541  0.4415  0.1215  0.4605
  607MPD2    C1 8992   1.234   2.503  11.656 -0.8006 -0.3983  0.4604
  607MPD2    C2 8993   1.147   2.445  11.742  0.2361 -0.4519  0.3646
  607MPD2    C3 8994   1.099   2.319  11.715 -0.2419 -0.1029  0.3051
  607MPD2    C4 8995   1.143   2.250  11.605 -0.8449 -0.3342 -0.6667
  607MPD2    C5 8996   1.236   2.307  11.519  0.9737  0.2997 -0.4762
  607MPD2     H 8997   1.117   2.500  11.830 -2.6036 -2.2550  0.5198
  607MPD2    H1 8998   1.107   2.149  11.589 -1.5667 -0.4086  1.3434
  607MPD2    H2 8999   1.351   2.477  11.476  0.7067 -0.7707  0.1703
  607MPD2    H3 9000   1.271   2.255  11.431  0.3441 -2.7544  1.0458
  607MPD2     N 9001   1.002   2.268  11.811 -0.6419 -0.0266 -0.0219
  607MPD2    H5 9002   0.991   2.332  11.888  2.5743 -0.0286  0.4361
  607MPD2    N1 9003   1.283   2.633  11.702  1.0815  0.0684 -0.6248
  607MPD2    H7 9004   1.231   2.679  11.776  0.2336 -1.2225 -0.4120
  608TMC3    C1 9005   1.444   2.803  11.738  0.1117  0.3921  0.1375
  608TMC3    C2 9006   1.417   2.792  11.872  0.6491 -0.3275  0.1132
  608TMC3    C3 9007   1.445   2.897  11.949  0.9762 -0.2134 -0.1964
  608TMC3    C4 9008   1.494   2.914  11.678 -0.7220 -1.3871  0.0189
  608TMC3    C5 9009   1.522   3.015  11.764  0.1721  0.4388  0.7232
  608TMC3    C6 9010   1.504   3.007  11.903 -0.1140  0.6447  0.6617
  608TMC3     C 9011   1.394   2.695  11.648 -1.1142 -0.2441 -0.1995
  608TMC3     O 9012   1.466   2.672  11.554 -0.2454  0.1095 -1.0679
  608TMC3     H 9013   1.380   2.697  11.909  1.3201  0.5248  3.0294
  608TMC3    H1 9014   1.514   2.926  11.572  0.2257  0.1664  0.3749
  608TMC3    H2 9015   1.527   3.087  11.972  0.4128  1.4166 -0.4045
  608TMC3    C7 9016   1.560   3.144  11.706 -0.2557 -0.1142  0.0947
  608TMC3    C8 9017   1.373   2.917  12.081 -0.3476 -0.1615 -0.5790
  608TMC3    O1 9018   1.524   3.167  11.593  0.0120 -0.6532 -0.0037
  608TMC3    O2 9019   1.345   3.024  12.131 -0.2828 -0.4403  0.7343
  609TMC3    C1 9020   4.346   1.385   9.341  0.0205 -0.4154  0.1520
  609TMC3    C2 9021   4.374   1.379   9.208  0.1237 -0.4995  0.1637
  609TMC3    C3 9022   4.494   1.336   9.163 -0.3882  0.1764  0.1264
  609TMC3    C4 9023   4.435   1.349   9.425  0.1411 -0.0522 -0.2189
  609TMC3    C5 9024   4.546   1.293   9.378  0.4373 -0.1416  0.5278
  609TMC3    C6 9025   4.586   1.293   9.248 -0.6890  0.2009 -0.6578
  609TMC3     C 9026   4.219   1.437   9.382 -0.0902 -0.0829  0.6833
  609TMC3     O 9027   4.119   1.431   9.310  0.4778 -0.1155 -0.7315
  609TMC3     H 9028   4.305   1.424   9.138  0.4137  0.4575  0.4944
  609TMC3    H1 9029   4.426   1.356   9.533  0.9022  0.8422 -0.2130
  609TMC3    H2 9030   4.682   1.252   9.218 -0.8166  0.2561 -1.1369
  609TMC3    C7 9031   4.650   1.260   9.474  0.8645  0.2887  0.2599
  609TMC3    C8 9032   4.527   1.350   9.026 -0.7920 -0.0059  0.5423
  609TMC3    O1 9033   4.654   1.331   9.573  0.1904  0.5252 -0.1979
  609TMC3    O2 9034   4.473   1.445   8.968 -0.0180  0.1615  0.5588
  610TMC3    C1 9035   1.374   2.485  12.681 -0.2715  0.2169  0.1553
  610TMC3    C2 9036   1.400   2.533  12.556 -0.0081 -0.4665 -0.2456
  610TMC3    C3 9037   1.528   2.556  12.525  1.1286 -0.1371  0.2428
  610TMC3    C4 9038   1.479   2.443  12.763  0.1660  0.0088 -0.9712
  610TMC3    C5 9039   1.605   2.462  12.724 -0.8858  0.0127 -0.5980
  610TMC3    C6 9040   1.632   2.519  12.608  0.0993 -0.1973 -0.4534
  610TMC3     C 9041   1.237   2.477  12.736 -0.0423  0.5916  0.0551
  610TMC3     O 9042   1.153   2.451  12.653  0.1219  0.3613 -0.6099
  610TMC3     H 9043   1.321   2.581  12.498  0.8309  0.2937 -0.7668
  610TMC3    H1 9044   1.455   2.395  12.857 -1.3406 -0.7388 -1.7311
  610TMC3    H2 9045   1.734   2.512  12.572 -1.2865 -2.6556 -3.9885
  610TMC3    C7 9046   1.704   2.393  12.795 -0.0933 -0.2255 -0.0965
  610TMC3    C8 9047   1.561   2.556  12.382  0.0803  0.7696 -0.7062
  610TMC3    O1 9048   1.815   2.376  12.740  0.2562 -0.6301  0.0089
  610TMC3    O2 9049   1.669   2.598  12.347  0.5229  0.1934 -0.6773
  611MPD2     C 9050   1.068   3.410  10.217 -0.3217 -0.4609 -0.1784
  611MPD2    C1 9051   1.081   3.394  10.347 -0.4117 -0.1991  0.4378
  611MPD2    C2 9052   1.183   3.469  10.412  0.4195  1.2915  0.0292
  611MPD2    C3 9053   1.252   3.568  10.352 -0.3657 -0.2384 -0.6361
  611MPD2    C4 9054   1.225   3.593  10.219 -0.0065 -0.6231  0.7970
  611MPD2    C5 9055   1.136   3.515  10.150  0.5515 -0.3838 -0.0233
  611MPD2     H 9056   1.203   3.454  10.517 -1.7574 -0.1946  0.2294
  611MPD2    H1 9057   1.275   3.669  10.161 -0.5810 -1.4178 -0.7310
  611MPD2    H2 9058   1.007   3.348  10.153 -2.6738  2.5855 -0.9109
  611MPD2    H3 9059   1.119   3.531  10.045 -0.0461  3.1982  0.6206
  611MPD2     N 9060   1.348   3.651  10.418 -0.0994 -0.1235 -0.6360
  611MPD2    H5 9061   1.381   3.729  10.362  0.3949  0.3931  0.3807
  611MPD2    N1 9062   0.981   3.315  10.403  0.0686  0.6996 -0.2210
  611MPD2    H7 9063   0.924   3.259  10.341  0.1577  1.2029 -0.7591
  612TMC3    C1 9064   1.515   3.716  10.563  0.4091 -0.3657 -0.1901
  612TMC3    C2 9065   1.607   3.664  10.653  0.0167 -0.3149  0.9432
  612TMC3    C3 9066   1.730   3.731  10.661 -0.5131 -0.1472  0.1698
  612TMC3    C4 9067   1.546   3.817  10.478  0.4215 -0.3175  0.2413
  612TMC3    C5 9068   1.667   3.873  10.485  0.1240  0.4756 -0.8309
  612TMC3    C6 9069   1.758   3.839  10.581  0.1627 -0.2727 -0.1813
  612TMC3     C 9070   1.400   3.636  10.543 -0.1025  0.2904  0.3495
  612TMC3     O 9071   1.363   3.568  10.640  0.1409  0.8860 -0.1615
  612TMC3     H 9072   1.578   3.587  10.724  1.5784 -1.6369  0.1694
  612TMC3    H1 9073   1.483   3.844  10.394 -0.0874 -1.6586  0.1850
  612TMC3    H2 9074   1.860   3.874  10.590 -0.8760  1.5702  4.1319
  612TMC3    C7 9075   1.711   3.945  10.368  0.3337  0.1045 -0.4851
  612TMC3    C8 9076   1.826   3.693  10.765  1.5275 -0.3378 -0.5391
  612TMC3    O1 9077   1.633   3.975  10.279 -0.4071 -0.0060 -0.8985
  612TMC3    O2 9078   1.908   3.780  10.795  0.1401  0.1163  0.1029
  613MPD2     C 9079   0.485   0.286  16.797  1.3899 -0.5559  0.4146
  613MPD2    C1 9080   0.461   0.281  16.663  0.0756 -0.0691  0.2967
  613MPD2    C2 9081   0.343   0.231  16.621  0.3437  0.7297 -0.1093
  613MPD2    C3 9082   0.245   0.181  16.708  0.5260 -0.5411  0.4723
  613MPD2    C4 9083   0.273   0.194  16.841 -0.6483 -0.4112 -0.1608
  613MPD2    C5 9084   0.384   0.255  16.885  0.3397  0.6482 -0.4363
  613MPD2     H 9085   0.323   0.218  16.515 -0.2231  1.2956 -0.0749
  613MPD2    H1 9086   0.201   0.153  16.911  0.2346 -1.3063  0.2212
  613MPD2    H2 9087   0.577   0.327  16.838  0.9527  1.7920 -0.9323
  613MPD2    H3 9088   0.399   0.259  16.992 -0.2365  1.2018 -0.3709
  613MPD2     N 9089   0.131   0.115  16.670 -0.5247 -0.4432  0.0445
  613MPD2    H5 9090   0.086   0.063  16.745 -1.4967  1.1709  0.5599
  613MPD2    N1 9091   0.580   0.295  16.582 -0.4837 -0.3902  0.3785
  613MPD2    H7 9092   0.674   0.313  16.614  0.2469 -2.4537 -0.6414
  614TMC3    C1 9093   0.719   0.273  16.393 -0.3435 -0.3891  0.2315
  614TMC3    C2 9094   0.747   0.142  16.393 -0.8842 -0.0508  0.3474
  614TMC3    C3 9095   0.746   0.078  16.271 -0.3239 -0.3598 -0.1008
  614TMC3    C4 9096   0.711   0.335  16.270 -0.1637  0.3138 -0.0730
  614TMC3    C5 9097   0.713   0.269  16.149  0.0779 -0.5579 -0.1269
  614TMC3    C6 9098   0.747   0.141  16.145  0.2258 -0.5277 -0.5335
  614TMC3     C 9099   0.584   0.284  16.442  0.0932 -0.3874  0.5349
  614TMC3     O 9100   0.496   0.266  16.360 -0.8042  0.5461 -0.1387
  614TMC3     H 9101   0.727   0.090  16.485 -1.4797  1.3769  1.0224
  614TMC3    H1 9102   0.683   0.439  16.259 -0.3454 -0.1434 -4.0818
  614TMC3    H2 9103   0.756   0.094  16.047 -0.1119 -1.8589  0.0670
  614TMC3    C7 9104   0.722   0.343  16.029  0.1411 -0.5934  0.3934
  614TMC3    C8 9105   0.667   4.676  16.285 -0.1044  0.5467  0.4260
  614TMC3    O1 9106   0.786   0.447  16.027 -0.0567  0.2828 -0.5411
  614TMC3    O2 9107   0.646   4.634  16.394  0.2200  0.0567 -0.3889
  615MPD2     C 9108   4.200   1.162  15.919 -0.2833  0.0792  0.6129
  615MPD2    C1 9109   4.139   1.277  15.862  0.0923  0.4212 -0.2662
  615MPD2    C2 9110   4.073   1.265  15.740  0.7359  0.3555 -0.2510
  615MPD2    C3 9111   4.061   1.137  15.684 -0.0743 -0.4788 -0.0176
  615MPD2    C4 9112   4.112   1.027  15.748 -0.0233 -0.2112  0.0673
  615MPD2    C5 9113   4.196   1.044  15.859  0.7819 -0.8087  0.3039
  615MPD2     H 9114   4.029   1.352  15.692  0.0188  0.2437  0.2033
  615MPD2    H1 9115   4.105   0.924  15.714  2.3136 -1.1669  2.4435
  615MPD2    H2 9116   4.259   1.163  16.010 -0.8256 -0.3681  0.9653
  615MPD2    H3 9117   4.235   0.955  15.906  0.2644 -1.1344  0.1033
  615MPD2     N 9118   3.984   1.117  15.565  0.3317  0.1912 -0.0985
  615MPD2    H5 9119   3.958   1.022  15.543  0.6691 -0.1814  1.0861
  615MPD2    N1 9120   4.152   1.405  15.922 -0.0111 -0.4291 -0.3302
  615MPD2    H7 9121   4.100   1.480  15.878  1.3616  1.7155  1.7315
  616TMC3    C1 9122   4.205   1.584  16.053  0.6934  0.5173  0.7510
  616TMC3    C2 9123   4.298   1.657  16.125  0.0555 -1.0286  0.6543
  616TMC3    C3 9124   4.250   1.772  16.181 -0.1003 -0.0473  0.5897
  616TMC3    C4 9125   4.078   1.630  16.033 -0.1431  0.4264  0.1019
  616TMC3    C5 9126   4.037   1.742  16.091 -0.5855  0.4229 -0.4714
  616TMC3    C6 9127   4.124   1.819  16.160  0.2867  0.3683 -0.6353
  616TMC3     C 9128   4.230   1.446  16.025  0.0612  0.1179  0.2998
  616TMC3     O 9129   4.323   1.392  16.081  0.0152  0.5512 -0.9831
  616TMC3     H 9130   4.396   1.613  16.136 -1.0133 -3.8788 -1.2571
  616TMC3    H1 9131   4.003   1.577  15.975  1.1614 -2.8446  1.3986
  616TMC3    H2 9132   4.080   1.902  16.215 -0.5829  0.9973 -2.3039
  616TMC3    C7 9133   3.915   1.807  16.046 -0.4880 -0.4039 -0.0949
  616TMC3    C8 9134   4.341   1.869  16.241  0.4568  0.2335  0.0684
  616TMC3    O1 9135   3.821   1.724  16.024  0.5164  0.1248  0.0763
  616TMC3    O2 9136   4.289   1.969  16.295  0.5591 -0.1143 -0.7880
  617MPD2     C 9137   2.506   4.505  14.915  0.1519  0.0854  0.2287
  617MPD2    C1 9138   2.544   4.454  14.787  0.2292 -0.1531  0.2901
  617MPD2    C2 9139   2.440   4.421  14.708 -0.4371 -0.0664 -0.2070
  617MPD2    C3 9140   2.312   4.445  14.747 -0.2009 -0.4580 -0.6225
  617MPD2    C4 9141   2.279   4.490  14.868 -0.7263 -0.9446  0.0408
  617MPD2    C5 9142   2.382   4.532  14.953  0.2849 -0.0316  0.3176
  617MPD2     H 9143   2.459   4.379  14.610 -2.3819 -0.1068 -0.5653
  617MPD2    H1 9144   2.185   4.492  14.922  0.7000  1.4014  2.4710
  617MPD2    H2 9145   2.583   4.526  14.990 -2.0955  0.1200  2.5269
  617MPD2    H3 9146   2.369   4.559  15.057 -1.3182  0.9177 -0.1283
  617MPD2     N 9147   2.204   4.413  14.663  0.1562  0.3126  0.3855
  617MPD2    H5 9148   2.111   4.415  14.701  0.1632 -0.7942  0.4606
  617MPD2    N1 9149   2.675   4.432  14.748  0.2661 -0.4867  0.3748
  617MPD2    H7 9150   2.685   4.395  14.654  1.3701  0.9248 -0.0561
  618TMC3    C1 9151   2.903   4.468  14.717  0.8601  0.5950 -0.2243
  618TMC3    C2 9152   2.898   4.373  14.622  0.0782 -0.5287 -0.0134
  618TMC3    C3 9153   2.997   4.372  14.526  0.1653  0.1382 -0.2580
  618TMC3    C4 9154   2.973   4.581  14.690 -0.4612  0.2275 -0.3915
  618TMC3    C5 9155   3.052   4.589  14.583  0.0655 -0.4932  0.0551
  618TMC3    C6 9156   3.075   4.480  14.500 -0.1230 -0.3666  0.1150
  618TMC3     C 9157   2.789   4.487  14.806  0.9247 -0.0165  0.2570
  618TMC3     O 9158   2.800   4.560  14.905  0.2054 -0.6353 -0.1862
  618TMC3     H 9159   2.833   4.287  14.631  2.1494 -2.1054 -0.2143
  618TMC3    H1 9160   2.965   4.661  14.763 -2.4231  2.0215 -2.5855
  618TMC3    H2 9161   3.154   4.476  14.425 -0.5589  1.7996 -0.4477
  618TMC3    C7 9162   2.999   4.698  14.499  0.5644 -0.3819 -0.3626
  618TMC3    C8 9163   2.962   4.300  14.412  0.2196 -0.0002  0.2367
  618TMC3    O1 9164   2.934   0.057  14.565  0.0220  0.0601  0.0155
  618TMC3    O2 9165   2.840   4.308  14.395  0.0275 -0.5713 -0.6393
  619MPD2     C 9166   3.597   0.636  13.697 -0.0737 -0.1822  0.0291
  619MPD2    C1 9167   3.565   0.731  13.597 -0.4119 -0.0731  0.2252
  619MPD2    C2 9168   3.435   0.731  13.547 -0.1114  0.8366  0.0828
  619MPD2    C3 9169   3.337   0.656  13.610 -0.0376 -0.0530  0.1515
  619MPD2    C4 9170   3.370   0.580  13.721  0.2622  0.4877  0.2919
  619MPD2    C5 9171   3.499   0.567  13.761  0.3901  0.0345  0.0802
  619MPD2     H 9172   3.406   0.795  13.464 -1.2328  0.9544  0.5644
  619MPD2    H1 9173   3.298   0.528  13.782  0.9958 -0.7270  0.1170
  619MPD2    H2 9174   3.699   0.629  13.734 -0.0181  2.5769  0.4043
  619MPD2    H3 9175   3.531   0.504  13.843  0.7984 -0.1183 -0.1936
  619MPD2     N 9176   3.201   0.650  13.563 -0.2245 -0.1077  0.1648
  619MPD2    H5 9177   3.148   0.575  13.607  0.7784 -0.1791  1.2419
  619MPD2    N1 9178   3.654   0.818  13.531 -0.1836 -0.3819 -0.1312
  619MPD2    H7 9179   3.613   0.890  13.472 -0.4489  0.2280  0.7793
  620TMC3    C1 9180   3.862   0.933  13.489  0.9647  0.7836  0.1642
  620TMC3    C2 9181   3.816   0.971  13.367 -0.6115 -0.3735  0.1972
  620TMC3    C3 9182   3.878   1.083  13.311 -0.1334 -0.2601  0.4986
  620TMC3    C4 9183   3.975   0.984  13.542  0.0088 -0.2514  0.2381
  620TMC3    C5 9184   4.040   1.083  13.475 -0.5235  0.4610  1.1863
  620TMC3    C6 9185   3.990   1.139  13.363 -0.6256 -0.4528 -0.7195
  620TMC3     C 9186   3.793   0.823  13.558  0.6078 -0.0869  0.0340
  620TMC3     O 9187   3.866   0.764  13.635 -0.1274  0.0909 -0.1710
  620TMC3     H 9188   3.729   0.925  13.321 -1.8998  0.8765  1.3472
  620TMC3    H1 9189   4.027   0.933  13.623 -0.0340 -2.6186 -1.2296
  620TMC3    H2 9190   4.036   1.207  13.293  1.2077 -2.3698 -1.3889
  620TMC3    C7 9191   4.126   1.176  13.549 -0.2039  0.3791  0.3946
  620TMC3    C8 9192   3.881   1.095  13.167 -0.4590 -0.2917 -0.4969
  620TMC3    O1 9193   4.173   1.138  13.660  0.0179 -1.1139  0.1444
  620TMC3    O2 9194   3.993   1.070  13.122  0.1256 -0.1842 -0.5924
  621MPD2     C 9195   4.355   0.910  10.711 -0.0342 -0.0396  0.0816
  621MPD2    C1 9196   4.255   0.905  10.611  0.5522 -0.4279  0.4621
  621MPD2    C2 9197   4.243   1.017  10.539  0.0021  0.7727  0.3387
  621MPD2    C3 9198   4.312   1.134  10.559  0.4697  0.2684 -0.2229
  621MPD2    C4 9199   4.412   1.133  10.654 -0.3712 -0.9029 -0.2639
  621MPD2    C5 9200   4.431   1.023  10.729  0.2912  0.2443  0.0621
  621MPD2     H 9201   4.173   1.014  10.457  1.5068  1.2613 -0.9601
  621MPD2    H1 9202   4.473   1.219  10.678 -1.2131 -0.6990  1.1414
  621MPD2    H2 9203   4.378   0.819  10.765 -0.6810 -0.1463  0.1795
  621MPD2    H3 9204   4.511   1.023  10.802  0.4105  2.4556 -0.0847
  621MPD2     N 9205   4.290   1.248  10.479 -0.1531 -0.1068 -0.4683
  621MPD2    H5 9206   4.207   1.252  10.421 -2.0957  0.7371  2.3642
  621MPD2    N1 9207   4.156   0.806  10.597  0.0999 -0.0485 -0.1231
  621MPD2    H7 9208   4.088   0.816  10.522 -1.0624  1.0132  1.0690
  622TMC3    C1 9209   4.043   0.597  10.626 -0.4933  0.0680  0.7203
  622TMC3    C2 9210   3.944   0.669  10.558 -0.7839 -0.3709 -0.2129
  622TMC3    C3 9211   3.861   0.596  10.477  0.1306 -0.6360  0.3908
  622TMC3    C4 9212   4.054   0.456  10.606 -0.0397  0.0665 -0.6027
  622TMC3    C5 9213   3.964   0.385  10.524  0.6486 -0.9057 -0.4596
  622TMC3    C6 9214   3.864   0.456  10.453 -0.4119 -0.3371 -0.0869
  622TMC3     C 9215   4.158   0.676  10.655  0.1763  0.6234  0.2345
  622TMC3     O 9216   4.253   0.628  10.724  0.0649  0.0358  0.0535
  622TMC3     H 9217   3.907   0.768  10.583 -0.9264 -0.7956  1.2771
  622TMC3    H1 9218   4.143   0.410  10.648  1.7626  1.7340 -2.5702
  622TMC3    H2 9219   3.798   0.409  10.381  1.0693 -2.8697  0.2070
  622TMC3    C7 9220   4.025   0.270  10.451 -0.5041  0.0921  0.6552
  622TMC3    C8 9221   3.829   0.677  10.365 -0.8874 -0.2807  0.1815
  622TMC3    O1 9222   4.143   0.238  10.476 -0.2049  0.2632 -0.0280
  622TMC3    O2 9223   3.909   0.767  10.349 -0.0261  1.1125  0.2146
  623MPD2     C 9224   2.790   1.024  16.077  0.0767  0.6609  1.4074
  623MPD2    C1 9225   2.720   1.094  16.173 -0.1389 -0.3938  0.6541
  623MPD2    C2 9226   2.792   1.187  16.255 -0.2904 -0.2343  0.6589
  623MPD2    C3 9227   2.927   1.200  16.238  0.5182 -0.2944  0.2342
  623MPD2    C4 9228   2.993   1.121  16.143 -0.5149 -0.4167  0.6141
  623MPD2    C5 9229   2.927   1.029  16.065  0.4662 -0.0429 -0.3494
  623MPD2     H 9230   2.757   1.251  16.336  0.6894 -2.0324  2.5068
  623MPD2    H1 9231   3.099   1.136  16.131 -0.7193  2.7186  2.9088
  623MPD2    H2 9232   2.741   0.972  15.996  1.4311 -0.1892  1.1226
  623MPD2    H3 9233   2.983   0.969  15.994  0.6794 -0.6418  0.3221
  623MPD2     N 9234   2.993   1.286  16.328 -0.1355  0.0920 -0.7861
  623MPD2    H5 9235   2.940   1.303  16.413 -2.0948  1.2903 -2.2564
  623MPD2    N1 9236   2.576   1.097  16.178 -0.7414 -0.8192  0.2933
  623MPD2    H7 9237   2.533   1.070  16.089  1.2451  0.3628 -1.0179
  624TMC3    C1 9238   3.333   1.411  16.593  0.6544  0.2602  0.3468
  624TMC3    C2 9239   3.237   1.422  16.687  0.0750  0.2349 -0.4358
  624TMC3    C3 9240   3.108   1.426  16.645  0.1348 -0.1936  0.2455
  624TMC3    C4 9241   3.305   1.390  16.457 -0.1184  0.7023 -0.3839
  624TMC3    C5 9242   3.173   1.397  16.426  0.0554 -0.3656 -0.4334
  624TMC3    C6 9243   3.068   1.421  16.513  0.1982  0.4213  0.3216
  624TMC3     C 9244   3.465   1.388  16.637 -0.2139  0.3013 -0.2065
  624TMC3     O 9245   3.483   1.352  16.755  0.2260 -0.0118 -0.1170
  624TMC3     H 9246   3.276   1.418  16.788 -1.8286 -1.1534  0.2457
  624TMC3    H1 9247   3.369   1.382  16.370  0.7336 -2.1552  0.4941
  624TMC3    H2 9248   2.974   1.459  16.476  1.0597  0.4706 -1.8186
  624TMC3    C7 9249   3.124   1.324  16.311  0.5550 -0.5049  0.1921
  624TMC3    C8 9250   3.002   1.377  16.727  0.0552 -0.1699  0.2868
  624TMC3    O1 9251   3.196   1.321  16.213 -0.2485 -0.1872 -0.0829
  624TMC3    O2 9252   2.905   1.333  16.667  0.8334 -0.0524  0.3726
  625MPD2     C 9253   3.829   2.570   0.981  0.0139 -0.2943 -0.2376
  625MPD2    C1 9254   3.829   2.668   0.883  0.0888  0.1190 -0.3313
  625MPD2    C2 9255   3.945   2.681   0.805 -0.1109  0.5516  0.3056
  625MPD2    C3 9256   4.062   2.615   0.837 -0.3784  0.3611  0.2390
  625MPD2    C4 9257   4.056   2.509   0.928  0.6754 -0.2274 -0.7580
  625MPD2    C5 9258   3.938   2.494   1.001  0.2596  0.1562 -0.1833
  625MPD2     H 9259   3.950   2.749   0.720 -0.8017  1.6736  1.1719
  625MPD2    H1 9260   4.128   2.432   0.953 -2.0071 -2.4474  0.1107
  625MPD2    H2 9261   3.746   2.544   1.046  1.5730 -0.7972  1.5690
  625MPD2    H3 9262   3.932   2.416   1.076 -0.5161 -0.8949 -1.3460
  625MPD2     N 9263   4.182   2.653   0.778 -0.0751 -0.1155 -0.0810
  625MPD2    H5 9264   4.172   2.720   0.702  1.4544 -1.5251 -1.5339
  625MPD2    N1 9265   3.701   2.720   0.851  0.0944 -0.3710 -0.5165
  625MPD2    H7 9266   3.626   2.704   0.918  1.4245 -0.1328  1.0288
  626TMC3    C1 9267   3.535   2.849   0.747 -0.9373  0.0511 -0.1031
  626TMC3    C2 9268   3.495   2.929   0.645 -0.0013 -0.2009 -0.8456
  626TMC3    C3 9269   3.361   2.924   0.617 -0.5958 -0.0215  0.7477
  626TMC3    C4 9270   3.456   2.783   0.825 -0.0664  0.6332 -0.0954
  626TMC3    C5 9271   3.319   2.787   0.798  0.4663 -0.1382  0.4691
  626TMC3    C6 9272   3.274   2.849   0.688  0.7881 -0.1445 -0.0870
  626TMC3     C 9273   3.672   2.808   0.750  0.1774  0.0776 -0.3774
  626TMC3     O 9274   3.741   2.852   0.660 -0.2905  0.1579 -0.3059
  626TMC3     H 9275   3.568   2.967   0.574  0.9750  1.0347  0.8086
  626TMC3    H1 9276   3.487   2.753   0.925  1.3574 -0.0925 -0.7584
  626TMC3    H2 9277   3.173   2.831   0.652  0.5551  2.7485 -0.8617
  626TMC3    C7 9278   3.248   2.681   0.866  0.0704 -0.7011  0.3529
  626TMC3    C8 9279   3.311   3.018   0.518  0.4071 -0.1420  0.3947
  626TMC3    O1 9280   3.302   2.581   0.905 -0.4419  0.2637 -0.1258
  626TMC3    O2 9281   3.195   3.007   0.475  0.4535 -0.4927  0.0544
  627MPD2     C 9282   2.594   3.196  14.333  0.6159  0.0730  1.1735
  627MPD2    C1 9283   2.490   3.203  14.425  0.0933  0.3483 -0.0306
  627MPD2    C2 9284   2.381   3.126  14.397 -0.8443  0.0118 -0.2088
  627MPD2    C3 9285   2.371   3.040  14.293 -0.2800 -0.5090  0.9028
  627MPD2    C4 9286   2.481   3.026  14.208  0.2430 -0.2644 -0.1724
  627MPD2    C5 9287   2.593   3.101  14.233 -0.2055 -0.4471 -0.9284
  627MPD2     H 9288   2.301   3.131  14.470  0.0043 -0.2080  0.7430
  627MPD2    H1 9289   2.478   2.977  14.111 -1.9252 -0.3875 -0.0463
  627MPD2    H2 9290   2.679   3.264  14.340  0.8257 -0.2666  2.0148
  627MPD2    H3 9291   2.673   3.095  14.160  3.5327 -0.8747  3.1938
  627MPD2     N 9292   2.249   2.966  14.289  0.7380  0.0719  0.1209
  627MPD2    H5 9293   2.180   2.989  14.359  0.7489 -0.9526  0.4661
  627MPD2    N1 9294   2.486   3.285  14.531 -0.4682 -0.7524 -1.0594
  627MPD2    H7 9295   2.395   3.284  14.576 -0.2698  1.3314 -0.5831
  628TMC3    C1 9296   2.559   3.378  14.731  0.0174  0.2481 -0.2161
  628TMC3    C2 9297   2.645   3.355  14.837 -0.9981  0.3789  0.1299
  628TMC3    C3 9298   2.590   3.360  14.962  0.3231  0.2827  0.0220
  628TMC3    C4 9299   2.430   3.421  14.750  0.4432  0.0474  0.3974
  628TMC3    C5 9300   2.390   3.445  14.879  0.6806 -0.2214  0.3848
  628TMC3    C6 9301   2.461   3.395  14.982 -0.5628  0.1867  0.4735
  628TMC3     C 9302   2.598   3.331  14.601 -0.3241  0.1805  0.2260
  628TMC3     O 9303   2.713   3.297  14.591  0.0496 -0.3851  0.1558
  628TMC3     H 9304   2.748   3.326  14.821 -0.9720  0.2358  0.5629
  628TMC3    H1 9305   2.376   3.469  14.669  0.1461 -1.0667 -0.0657
  628TMC3    H2 9306   2.426   3.411  15.083 -0.0628  0.7472  0.5561
  628TMC3    C7 9307   2.245   3.466  14.897  0.9162  0.2471  0.1256
  628TMC3    C8 9308   2.675   3.384  15.073  0.1756  0.3562  0.6300
  628TMC3    O1 9309   2.177   3.403  14.975 -0.5401  0.6507  0.1339
  628TMC3    O2 9310   2.626   3.426  15.178  0.4133  0.7875  0.3655
  629MPD2     C 9311   0.074   2.090  16.331  0.0838 -0.2718 -0.0212
  629MPD2    C1 9312   0.100   1.965  16.278  0.0201  0.0721  0.8312
  629MPD2    C2 9313   4.705   1.885  16.253 -0.0238  0.7833 -0.3448
  629MPD2    C3 9314   4.579   1.930  16.274 -0.0137 -0.2735 -0.0354
  629MPD2    C4 9315   4.563   2.053  16.315  0.1539  0.3372 -0.4213
  629MPD2    C5 9316   4.672   2.130  16.346  0.7908 -0.4575 -0.3628
  629MPD2     H 9317   4.706   1.785  16.210  0.1770 -0.3591  2.3231
  629MPD2    H1 9318   4.469   2.105  16.324 -0.2300 -0.3217 -0.5969
  629MPD2    H2 9319   0.153   2.156  16.363 -0.8737  0.7083  0.3305
  629MPD2    H3 9320   4.649   2.228  16.385  0.7043 -0.8614  0.6171
  629MPD2     N 9321   4.476   1.835  16.236 -0.0600 -0.2207  0.2459
  629MPD2    H5 9322   4.504   1.747  16.193  1.6083 -0.0360  0.9357
  629MPD2    N1 9323   0.238   1.920  16.263 -0.1919  0.2269 -0.2301
  629MPD2    H7 9324   0.313   1.982  16.290 -1.4332  1.9279 -0.6847
  630TMC3    C1 9325   0.424   1.766  16.189 -0.4783  0.9286 -0.4204
  630TMC3    C2 9326   0.521   1.864  16.189  0.6792  0.0527  0.2003
  630TMC3    C3 9327   0.649   1.826  16.205 -0.7549  0.0507 -0.0603
  630TMC3    C4 9328   0.454   1.634  16.184 -0.1525 -0.8490 -0.0097
  630TMC3    C5 9329   0.583   1.603  16.200  0.6271  0.8310 -0.5163
  630TMC3    C6 9330   0.679   1.693  16.203  0.4604  0.6276 -0.6381
  630TMC3     C 9331   0.277   1.794  16.208  0.5411  0.4389 -0.4775
  630TMC3     O 9332   0.201   1.699  16.194  0.1205 -0.0468  0.3059
  630TMC3     H 9333   0.486   1.966  16.186 -1.9081 -0.8045  0.9479
  630TMC3    H1 9334   0.383   1.559  16.216 -0.8314  0.5477  1.8031
  630TMC3    H2 9335   0.781   1.661  16.216  0.5350  0.4737 -1.6256
  630TMC3    C7 9336   0.619   1.475  16.246 -0.6840 -0.0074  0.3731
  630TMC3    C8 9337   0.743   1.922  16.259 -0.0291  0.5515  0.0043
  630TMC3    O1 9338   0.705   1.462  16.328  0.6189  0.0938  0.0332
  630TMC3    O2 9339   0.851   1.886  16.309 -0.1177  0.1943  0.2503
  631MPD2     C 9340   3.015   1.163  15.431  0.1410 -0.8630 -0.5498
  631MPD2    C1 9341   3.062   1.242  15.331 -0.3968 -0.1558 -0.3148
  631MPD2    C2 9342   3.186   1.220  15.288 -0.4778 -0.8403 -0.3787
  631MPD2    C3 9343   3.270   1.139  15.355 -0.6313  0.2310 -0.5752
  631MPD2    C4 9344   3.226   1.061  15.457 -0.5335 -0.4595 -0.6649
  631MPD2    C5 9345   3.095   1.073  15.496 -0.3998 -0.4708  0.7885
  631MPD2     H 9346   3.226   1.281  15.208 -1.0552 -0.4826 -0.3895
  631MPD2    H1 9347   3.282   0.982  15.505 -0.3664  0.3330  0.4603
  631MPD2    H2 9348   2.916   1.183  15.470  0.2223  1.9774 -1.7415
  631MPD2    H3 9349   3.058   1.004  15.571 -0.0091  0.1931  1.5768
  631MPD2     N 9350   3.399   1.131  15.306 -0.6958 -0.1835 -0.5515
  631MPD2    H5 9351   3.413   1.176  15.216 -0.8141  0.5603 -0.1982
  631MPD2    N1 9352   2.975   1.346  15.294 -0.0612  0.8617 -0.9109
  631MPD2    H7 9353   2.896   1.375  15.351  0.4371 -0.0797  0.2630
  632TMC3    C1 9354   2.901   1.529  15.178 -0.3463  0.5371 -0.4637
  632TMC3    C2 9355   2.916   1.624  15.279 -0.1986 -0.1472 -0.7047
  632TMC3    C3 9356   2.939   1.754  15.234  0.7040  0.0702  0.0510
  632TMC3    C4 9357   2.886   1.572  15.051 -0.3769 -1.0049  0.5378
  632TMC3    C5 9358   2.909   1.701  15.013 -0.1321 -0.2940  0.7657
  632TMC3    C6 9359   2.930   1.799  15.104 -0.7404  0.9647  0.1302
  632TMC3     C 9360   2.986   1.418  15.176 -0.6930  0.6740 -0.8359
  632TMC3     O 9361   3.068   1.406  15.084 -0.4647  0.2670 -1.0002
  632TMC3     H 9362   2.948   1.593  15.378  0.9846  0.9501 -0.7370
  632TMC3    H1 9363   2.874   1.494  14.976 -0.0882 -0.7472  0.2267
  632TMC3    H2 9364   2.966   1.898  15.078  0.3453  0.4085 -0.4705
  632TMC3    C7 9365   2.995   1.723  14.899  0.4939  0.2494  0.0367
  632TMC3    C8 9366   2.961   1.845  15.341  0.3350  0.4509  0.3430
  632TMC3    O1 9367   3.004   1.837  14.855  0.4393 -0.0460 -0.3285
  632TMC3    O2 9368   2.996   1.800  15.451  0.3500  0.0081  0.1388
  633MPD2     C 9369   3.246   3.938  17.399 -0.3725 -0.0457 -0.7805
  633MPD2    C1 9370   3.229   3.940  17.261 -0.3122  0.1881 -0.2474
  633MPD2    C2 9371   3.238   3.818  17.200  0.0883  0.3216  0.0236
  633MPD2    C3 9372   3.270   3.704  17.263  0.2118 -0.6014 -0.5040
  633MPD2    C4 9373   3.282   3.708  17.404  0.2099 -0.6083  0.0304
  633MPD2    C5 9374   3.272   3.825  17.469  0.2846  0.3257  0.1676
  633MPD2     H 9375   3.233   3.821  17.092  1.0433  0.8291 -0.0069
  633MPD2    H1 9376   3.314   3.619  17.456  3.5034  0.5779  0.0510
  633MPD2    H2 9377   3.236   4.030  17.457 -1.1422  0.4778 -1.7389
  633MPD2    H3 9378   3.281   3.826  17.577  1.7355 -0.6776  0.0581
  633MPD2     N 9379   3.280   3.585  17.186 -0.3831  0.3848  0.0016
  633MPD2    H5 9380   3.240   3.586  17.093  0.6385 -2.1221 -0.4843
  633MPD2    N1 9381   3.211   4.063  17.187  0.4506 -0.3329  0.2927
  633MPD2    H7 9382   3.187   4.053  17.089 -1.0009  0.7389  0.5290
  634TMC3    C1 9383   3.239   4.280  17.123 -0.2864 -0.6801 -0.1930
  634TMC3    C2 9384   3.337   4.229  17.041  0.0848  0.2325  0.1399
  634TMC3    C3 9385   3.417   4.313  16.967  0.3841  0.3417 -0.7899
  634TMC3    C4 9386   3.227   4.415  17.147  0.5090  0.5175  0.1448
  634TMC3    C5 9387   3.301   4.500  17.067 -0.3245  0.2327 -0.0700
  634TMC3    C6 9388   3.397   4.452  16.978 -0.3351  0.7113 -0.2193
  634TMC3     C 9389   3.198   4.190  17.222 -0.2554  0.5071  0.9395
  634TMC3     O 9390   3.181   4.231  17.337  0.1439 -0.3533  0.3367
  634TMC3     H 9391   3.350   4.125  17.013  0.0734  0.3679 -0.3704
  634TMC3    H1 9392   3.139   4.458  17.193  0.4098  1.4373 -0.9205
  634TMC3    H2 9393   3.453   4.521  16.915  0.6506 -2.0468 -2.3945
  634TMC3    C7 9394   3.244   4.629  17.026 -0.5539 -0.3461  0.3102
  634TMC3    C8 9395   3.461   4.260  16.836 -0.1774 -0.2766 -0.4783
  634TMC3    O1 9396   3.289   4.678  16.925 -0.1026 -0.0291 -0.2540
  634TMC3    O2 9397   3.463   4.137  16.816  0.0183 -0.6521 -0.0235
  635TMC3    C1 9398   3.230   0.935   0.902  0.0289  0.6114 -1.0311
  635TMC3    C2 9399   3.287   0.894   0.783  0.2742 -0.8297  1.1352
  635TMC3    C3 9400   3.262   0.773   0.740  0.2889 -0.7684 -0.2397
  635TMC3    C4 9401   3.165   0.848   0.985 -0.5440 -0.1454 -0.2692
  635TMC3    C5 9402   3.151   0.720   0.937 -0.3165  0.0280 -0.1911
  635TMC3    C6 9403   3.199   0.684   0.815  0.1239 -0.3083 -0.4415
  635TMC3     C 9404   3.244   1.077   0.926  0.1546  0.2440  0.6440
  635TMC3     O 9405   3.274   1.147   0.831  0.4428 -0.1814  0.1396
  635TMC3     H 9406   3.355   0.961   0.731 -0.3127 -1.1667 -0.0460
  635TMC3    H1 9407   3.118   0.879   1.077  2.3079 -1.2330  1.5690
  635TMC3    H2 9408   3.171   0.595   0.760 -0.9348  0.6585 -1.4927
  635TMC3    C7 9409   3.029   0.651   0.982 -0.2953 -0.0439  0.6157
  635TMC3    C8 9410   3.270   0.739   0.603  0.3147 -0.5796 -0.3134
  635TMC3    O1 9411   2.977   0.691   1.088 -0.2348 -0.3070 -0.4706
  635TMC3    O2 9412   3.177   0.680   0.550  0.4946 -0.8419 -0.5620
  636MPD2     C 9413   4.388   0.166  15.784  0.2598  0.1666  0.2853
  636MPD2    C1 9414   4.363   0.235  15.899  0.3344  0.2409  0.0815
  636MPD2    C2 9415   4.416   0.184  16.019 -0.0411  0.2414  0.3416
  636MPD2    C3 9416   4.488   0.066  16.031 -0.6429  1.0659 -0.3307
  636MPD2    C4 9417   4.515   0.000  15.911 -0.0219 -0.0456  0.2846
  636MPD2    C5 9418   4.455   0.044  15.794 -0.3641 -0.4983  0.7630
  636MPD2     H 9419   4.395   0.237  16.111  3.3431  0.0157  1.2486
  636MPD2    H1 9420   4.575   4.634  15.904  1.5233  1.0982 -1.0151
  636MPD2    H2 9421   4.364   0.203  15.685 -1.9861  0.7239  1.0418
  636MPD2    H3 9422   4.471   4.706  15.706 -2.6612  0.1353 -0.0937
  636MPD2     N 9423   4.529   0.012  16.157 -0.0962 -0.0549 -0.6122
  636MPD2    H5 9424   4.499   0.068  16.237  2.3145 -0.9197  0.8914
  636MPD2    N1 9425   4.288   0.359  15.899  0.4604  0.9100  0.1182
  636MPD2    H7 9426   4.292   0.412  15.985 -1.1631  0.7248  0.3022
  637TMC3    C1 9427   4.647   4.605  16.315  0.3709 -0.4207 -0.3155
  637TMC3    C2 9428   4.649   4.711  16.411  0.3278 -0.1847 -0.3291
  637TMC3    C3 9429   0.010   4.702  16.517  0.2980 -0.3641  0.4635
  637TMC3    C4 9430   4.715   4.484  16.341  0.3857 -0.5322  0.0662
  637TMC3    C5 9431   0.065   4.477  16.457 -0.7232 -0.2924 -0.1168
  637TMC3    C6 9432   0.074   4.581  16.547 -0.6538 -0.2135  0.3469
  637TMC3     C 9433   4.603   4.620  16.177 -0.1257  0.1572 -0.4559
  637TMC3     O 9434   4.634   4.530  16.098 -0.1254 -0.2523 -0.0298
  637TMC3     H 9435   4.606   0.085  16.395  1.0614  0.4299  1.5121
  637TMC3    H1 9436   4.699   4.396  16.279  0.8942 -1.3600  1.1152
  637TMC3    H2 9437   0.138   4.576  16.635 -1.2882 -1.7976  0.7186
  637TMC3    C7 9438   0.203   4.456  16.418  0.1680 -0.2987 -0.1064
  637TMC3    C8 9439   0.076   0.104  16.539  0.2871 -0.0820 -0.4403
  637TMC3    O1 9440   0.284   4.504  16.496 -0.4020  0.0423 -0.6545
  637TMC3    O2 9441   0.105   0.175  16.443  0.2224  0.0755  0.5110
  638MPD2     C 9442   4.163   3.787  14.718 -0.4557 -0.1100 -0.2911
  638MPD2    C1 9443   4.173   3.676  14.641 -0.5234 -0.1002 -0.5893
  638MPD2    C2 9444   4.137   3.550  14.688 -0.1936 -0.5376  0.3385
  638MPD2    C3 9445   4.078   3.534  14.813  0.0322 -0.2020  0.3872
  638MPD2    C4 9446   4.064   3.648  14.892  0.1961  0.4731 -0.1856
  638MPD2    C5 9447   4.118   3.773  14.846 -0.0346  0.5607 -0.5212
  638MPD2     H 9448   4.157   3.461  14.629 -0.1414 -0.3590  0.0849
  638MPD2    H1 9449   4.025   3.655  14.993  0.9837 -0.0615  0.1484
  638MPD2    H2 9450   4.191   3.888  14.691  1.4156 -0.4555  0.3620
  638MPD2    H3 9451   4.119   3.862  14.908 -0.7007 -1.5939  2.6447
  638MPD2     N 9452   4.055   3.406  14.862 -0.9375  0.1050 -0.0976
  638MPD2    H5 9453   4.060   3.331  14.794 -0.9755 -0.0164  0.0345
  638MPD2    N1 9454   4.249   3.692  14.524  0.9695  0.2564  0.1985
  638MPD2    H7 9455   4.319   3.764  14.515  1.2975 -0.1378 -0.4189
  639TMC3    C1 9456   4.067   3.232  15.021 -0.3614  0.0074 -0.2638
  639TMC3    C2 9457   4.019   3.136  14.931 -0.8191  0.0008 -0.3939
  639TMC3    C3 9458   4.062   3.009  14.947  0.4563  0.3422  0.0205
  639TMC3    C4 9459   4.123   3.189  15.144  0.0603  0.5828 -0.2905
  639TMC3    C5 9460   4.155   3.055  15.152  0.2971 -0.3838  0.2023
  639TMC3    C6 9461   4.128   2.960  15.053  0.4379 -0.2402 -1.1277
  639TMC3     C 9462   4.063   3.374  14.994 -0.2260 -0.5507  0.0720
  639TMC3     O 9463   4.069   3.442  15.096 -0.1126  0.7324 -0.0871
  639TMC3     H 9464   3.968   3.160  14.839 -0.9624  0.0934 -0.2898
  639TMC3    H1 9465   4.164   3.266  15.209  2.6740  0.3775 -1.6920
  639TMC3    H2 9466   4.160   2.856  15.050 -2.5968 -1.1548 -2.1794
  639TMC3    C7 9467   4.258   3.019  15.242  0.1502  0.8509 -0.5198
  639TMC3    C8 9468   3.993   2.904  14.886  0.6438 -0.0877 -0.4168
  639TMC3    O1 9469   4.240   3.073  15.355 -0.3484 -0.4420 -0.4136
  639TMC3    O2 9470   4.047   2.794  14.871 -0.4368 -0.6184 -0.4089
  640MPD2     C 9471   0.149   2.699   9.935 -0.1919 -0.7810  0.2484
  640MPD2    C1 9472   0.030   2.649   9.882 -0.2580 -0.1996 -0.3539
  640MPD2    C2 9473   4.641   2.731   9.889 -0.5321  0.6254 -0.0957
  640MPD2    C3 9474   4.642   2.846   9.962  0.8022  0.3768  0.0893
  640MPD2    C4 9475   0.035   2.894  10.024  0.0753 -0.1646  0.3164
  640MPD2    C5 9476   0.148   2.816  10.013  0.4102  0.4370 -0.0587
  640MPD2     H 9477   4.551   2.699   9.839 -2.2081  1.8718  2.1286
  640MPD2    H1 9478   0.039   2.988  10.077 -4.4280  0.2040 -0.0112
  640MPD2    H2 9479   0.236   2.635   9.933  2.2456  2.5709  0.6330
  640MPD2    H3 9480   0.233   2.839  10.078 -0.3178  1.2560  0.6052
  640MPD2     N 9481   4.526   2.939   9.971  0.1691 -0.4254 -0.1969
  640MPD2    H5 9482   4.540   3.029  10.016  1.0718 -1.5246  1.7309
  640MPD2    N1 9483   0.031   2.517   9.817 -0.6316 -0.2733 -0.1798
  640MPD2    H7 9484   0.112   2.457   9.828 -0.4348  0.3205  1.6430
  641TMC3    C1 9485   4.691   2.338   9.679 -0.1145 -0.1306 -0.1955
  641TMC3    C2 9486   0.057   2.262   9.756 -0.2989  0.7042  0.1570
  641TMC3    C3 9487   0.086   2.138   9.700  0.4948  0.1313 -0.6145
  641TMC3    C4 9488   4.636   2.304   9.556 -0.0508 -0.1630  1.0685
  641TMC3    C5 9489   4.671   2.176   9.511 -0.2715 -0.5487 -0.4593
  641TMC3    C6 9490   0.035   2.102   9.577  0.4474  0.0171 -0.2688
  641TMC3     C 9491   4.659   2.470   9.731  0.7799 -0.5387  0.1717
  641TMC3     O 9492   4.563   2.523   9.676 -0.1906 -0.1716  0.2383
  641TMC3     H 9493   0.064   2.280   9.863 -2.6659 -0.8888  0.5793
  641TMC3    H1 9494   4.580   2.376   9.498 -0.8842 -0.7382  1.1631
  641TMC3    H2 9495   0.081   2.015   9.533 -0.9332 -0.4947 -0.7069
  641TMC3    C7 9496   4.637   2.139   9.378  0.2018 -0.2692  0.1975
  641TMC3    C8 9497   0.181   2.048   9.763  0.4170 -0.7785 -0.2924
  641TMC3    O1 9498   4.716   2.059   9.327 -0.0382  0.1595  0.0610
  641TMC3    O2 9499   0.183   1.932   9.725 -1.1050  0.3935  0.0923
  642TMC3    C1 9500   0.957   3.552  12.860  0.4417 -0.1362  0.0303
  642TMC3    C2 9501   1.059   3.530  12.943 -0.0873 -0.2356  0.0868
  642TMC3    C3 9502   1.104   3.404  12.956  0.3528  0.0146 -0.5166
  642TMC3    C4 9503   0.897   3.452  12.794  0.3659  0.9623  0.6967
  642TMC3    C5 9504   0.945   3.322  12.801 -0.2702 -0.2901 -0.2003
  642TMC3    C6 9505   1.053   3.298  12.883  0.2092 -0.1991  0.0317
  642TMC3     C 9506   0.934   3.686  12.815  0.4126 -0.7349  0.7053
  642TMC3     O 9507   1.035   3.760  12.821  0.0913  0.0205  0.1297
  642TMC3     H 9508   1.113   3.612  12.989  1.6598 -0.4643 -1.5529
  642TMC3    H1 9509   0.820   3.478  12.722  0.5028  0.8800  0.5221
  642TMC3    H2 9510   1.107   3.204  12.883 -0.0319 -0.3215  3.3307
  642TMC3    C7 9511   0.889   3.219  12.724  0.3374 -0.1807 -0.0891
  642TMC3    C8 9512   1.227   3.394  13.026 -0.5652 -0.1773 -0.3622
  642TMC3    O1 9513   0.809   3.261  12.639  0.2216 -0.3631  0.4517
  642TMC3    O2 9514   1.246   3.470  13.123  0.4719 -0.6605 -0.0336
  643TMC3    C1 9515   4.706   2.637   0.129 -0.0031 -0.9919  0.5415
  643TMC3    C2 9516   4.597   2.717   0.111  0.1428 -0.0172 -0.5591
  643TMC3    C3 9517   4.483   2.662   0.059 -0.2394  0.4082  0.3427
  643TMC3    C4 9518   4.714   2.508   0.099  0.5821 -0.5004 -0.1184
  643TMC3    C5 9519   4.609   2.467   0.018  0.0413 -0.7020 -0.0498
  643TMC3    C6 9520   4.497   2.533   0.005  0.2002  0.2668 -0.0729
  643TMC3     C 9521   0.089   2.686   0.215  0.4643 -0.6095 -0.5193
  643TMC3     O 9522   0.096   2.803   0.245 -0.3950 -0.4110  0.0471
  643TMC3     H 9523   4.601   2.818   0.151  1.9959  0.2751 -1.4656
  643TMC3    H1 9524   0.074   2.439   0.101  0.1665 -0.9665  1.2975
  643TMC3    H2 9525   4.408   2.484  17.665  0.6542 -0.0379 -0.7578
  643TMC3    C7 9526   4.668   2.425  17.590 -0.4553  0.8992  0.2251
  643TMC3    C8 9527   4.426   2.743  17.648  0.0168 -0.2367 -0.4940
  643TMC3    O1 9528   0.066   2.444  17.579 -0.5887 -0.6346 -0.2786
  643TMC3    O2 9529   4.313   2.710  17.611 -0.2700 -0.3992  0.6032
  644MPD2     C 9530   4.129   2.710   9.185 -1.2771 -0.8660  0.4642
  644MPD2    C1 9531   4.238   2.633   9.217 -0.7965  0.1660  0.6970
  644MPD2    C2 9532   4.214   2.497   9.243  0.6555 -0.8601 -0.9269
  644MPD2    C3 9533   4.086   2.444   9.250  0.9226  0.6986 -0.2523
  644MPD2    C4 9534   3.985   2.517   9.197 -0.5608  1.1829 -0.1420
  644MPD2    C5 9535   4.000   2.651   9.175  0.1458  0.6013  0.6962
  644MPD2     H 9536   4.286   2.430   9.288 -0.4995 -1.6920 -0.3335
  644MPD2    H1 9537   3.888   2.471   9.185 -0.2044  0.4667 -0.2678
  644MPD2    H2 9538   4.144   2.816   9.167 -2.5991 -0.5556  1.1327
  644MPD2    H3 9539   3.920   2.714   9.138 -0.0838  0.9591  1.8078
  644MPD2     N 9540   4.074   2.311   9.297 -0.3345  0.4461 -0.3383
  644MPD2    H5 9541   4.155   2.278   9.350  1.1779  2.6819 -1.2401
  644MPD2    N1 9542   4.366   2.697   9.243 -0.0083 -0.3631  0.2044
  644MPD2    H7 9543   4.376   2.795   9.218 -3.2474  0.2387  1.2678
  645TMC3    C1 9544   3.987   2.093   9.325  0.1009 -0.2012  0.0364
  645TMC3    C2 9545   3.926   1.998   9.244 -0.5245  0.1177 -0.0849
  645TMC3    C3 9546   3.983   1.876   9.231 -0.2122 -0.9690 -0.4273
  645TMC3    C4 9547   4.100   2.058   9.393 -0.4301 -0.1928 -0.3514
  645TMC3    C5 9548   4.146   1.930   9.390 -0.1204 -1.0196  0.1075
  645TMC3    C6 9549   4.092   1.836   9.308  0.6607  0.9592  0.1416
  645TMC3     C 9550   3.961   2.232   9.282  0.5366 -0.7171 -1.1934
  645TMC3     O 9551   3.861   2.262   9.219 -0.1127  0.2970 -0.1890
  645TMC3     H 9552   3.843   2.024   9.181  0.1609  1.6920 -0.3463
  645TMC3    H1 9553   4.151   2.129   9.458 -1.2176 -0.5010  0.5947
  645TMC3    H2 9554   4.117   1.732   9.324 -0.1434  1.1176  2.4344
  645TMC3    C7 9555   4.286   1.910   9.434 -0.2741 -0.8118  0.1637
  645TMC3    C8 9556   3.912   1.777   9.143  0.0655  0.2251  0.5342
  645TMC3    O1 9557   4.328   1.966   9.533  0.3246  0.5765 -0.9037
  645TMC3    O2 9558   3.790   1.790   9.136 -0.2923 -0.0062  0.0419
  646MPD2     C 9559   4.596   2.392  14.441 -0.2541  0.3669  0.3971
  646MPD2    C1 9560   4.504   2.309  14.505  0.7361 -0.3321 -0.4911
  646MPD2    C2 9561   4.363   2.330  14.477  0.8446 -0.5862  1.0170
  646MPD2    C3 9562   4.326   2.424  14.385 -0.4587 -0.2616 -0.3639
  646MPD2    C4 9563   4.424   2.512  14.338  0.4205  0.1782 -0.6304
  646MPD2    C5 9564   4.559   2.500  14.370 -0.3004  0.1604 -0.4539
  646MPD2     H 9565   4.284   2.274  14.526  0.4978  0.1651  1.3185
  646MPD2    H1 9566   4.389   2.603  14.289  2.6270  0.2672 -1.9898
  646MPD2    H2 9567   4.700   2.375  14.466 -0.0798  2.8594  1.3475
  646MPD2    H3 9568   4.633   2.560  14.318  0.1863 -0.5184 -0.5439
  646MPD2     N 9569   4.185   2.432  14.355 -0.0302 -0.0955  0.2710
  646MPD2    H5 9570   4.125   2.367  14.405 -1.9729  1.7647  0.3764
  646MPD2    N1 9571   4.546   2.215  14.601 -0.1721  0.8181  0.3421
  646MPD2    H7 9572   4.646   2.215  14.620 -0.2527 -2.6509  0.6964
  647TMC3    C1 9573   4.559   2.044  14.763  0.3760 -0.0377  0.3276
  647TMC3    C2 9574   4.488   1.971  14.852 -0.6048 -0.2946 -0.2706
  647TMC3    C3 9575   4.562   1.902  14.950  0.0027 -0.1593  0.5719
  647TMC3    C4 9576   4.701   2.061  14.768 -0.7672 -0.0941 -0.3829
  647TMC3    C5 9577   0.039   1.988  14.868  0.4212 -0.7822 -0.0869
  647TMC3    C6 9578   4.695   1.915  14.953 -0.4745  0.0553  0.3305
  647TMC3     C 9579   4.472   2.122  14.670  0.2480 -0.3043  0.1468
  647TMC3     O 9580   4.351   2.091  14.659 -0.2683 -0.2874 -0.5808
  647TMC3     H 9581   4.383   1.944  14.842 -0.2628 -1.7325 -0.0260
  647TMC3    H1 9582   0.037   2.109  14.692  0.4743  1.6719  1.7220
  647TMC3    H2 9583   0.020   1.862  15.034 -3.2888  0.0778  2.0643
  647TMC3    C7 9584   0.189   1.983  14.875  0.4500 -0.0509 -0.2952
  647TMC3    C8 9585   4.513   1.795  15.029 -0.5615  0.6875 -0.7277
  647TMC3    O1 9586   0.243   1.894  14.938 -0.1898 -0.3774 -0.2553
  647TMC3    O2 9587   4.563   1.792  15.144 -0.1476 -0.5248  0.8097
  648TMC3    C1 9588   3.834   4.619  16.335  0.1976 -0.1222 -0.0749
  648TMC3    C2 9589   3.904   4.508  16.300  0.6338  0.4765 -0.0758
  648TMC3    C3 9590   3.885   4.458  16.173 -0.7206 -0.3221  0.3659
  648TMC3    C4 9591   3.746   4.681  16.252  0.6878 -0.3103 -0.0602
  648TMC3    C5 9592   3.731   4.629  16.124 -0.0166 -1.0933  0.0413
  648TMC3    C6 9593   3.797   4.516  16.081 -0.1387 -0.3463  0.1145
  648TMC3     C 9594   3.821   4.666  16.477  0.4118  0.2922 -0.4765
  648TMC3     O 9595   3.772   0.055  16.498 -0.3133  0.0608  0.5765
  648TMC3     H 9596   3.981   4.473  16.368 -0.5653 -0.2925  0.9134
  648TMC3    H1 9597   3.675   0.028  16.293  0.5271 -0.0823 -0.7327
  648TMC3    H2 9598   3.795   4.474  15.981  1.5689 -1.6264  0.6071
  648TMC3    C7 9599   3.600   4.628  16.058  0.5779 -0.0406 -0.4513
  648TMC3    C8 9600   3.978   4.359  16.120 -0.1169  0.4126 -0.1318
  648TMC3    O1 9601   3.573   4.519  16.005 -0.4522 -0.1347  0.3139
  648TMC3    O2 9602   4.015   4.362  16.002  0.4507 -0.2458 -0.3655
  649TMC3    C1 9603   2.530   1.137  12.718 -0.5333  0.6915  0.0706
  649TMC3    C2 9604   2.647   1.184  12.768  0.1072  0.3088  0.0984
  649TMC3    C3 9605   2.660   1.200  12.906 -0.5341  0.2121 -0.1533
  649TMC3    C4 9606   2.427   1.100  12.801  0.2985 -0.1215  0.3575
  649TMC3    C5 9607   2.446   1.102  12.934 -0.1094 -0.6360 -0.6652
  649TMC3    C6 9608   2.558   1.160  12.984 -0.2612  0.0610  0.2313
  649TMC3     C 9609   2.499   1.132  12.581 -0.2365 -0.0267 -0.0699
  649TMC3     O 9610   2.382   1.119  12.550  0.5802 -0.8103 -0.5166
  649TMC3     H 9611   2.725   1.221  12.703  1.9866 -0.8473  1.7055
  649TMC3    H1 9612   2.335   1.063  12.757 -0.1781  0.4596  0.8690
  649TMC3    H2 9613   2.574   1.160  13.091  0.2299 -0.7525  0.1584
  649TMC3    C7 9614   2.372   1.008  13.018  0.7403  0.7105 -0.3232
  649TMC3    C8 9615   2.717   1.333  12.934  0.0734  0.3373  1.5996
  649TMC3    O1 9616   2.368   1.033  13.138 -0.4334 -0.1642 -0.1153
  649TMC3    O2 9617   2.717   1.404  12.837 -0.1869 -0.1314  0.0704
  650TMC3    C1 9618   0.390   2.861  12.533 -0.0336 -0.6363  0.3921
  650TMC3    C2 9619   0.379   2.985  12.576  0.2475  0.2108  0.2940
  650TMC3    C3 9620   0.351   3.075  12.480  0.3540 -0.2686  0.2151
  650TMC3    C4 9621   0.376   2.823  12.400 -0.2681 -0.1752  0.8326
  650TMC3    C5 9622   0.346   2.918  12.307 -0.1226  0.0796 -0.3921
  650TMC3    C6 9623   0.337   3.050  12.347 -0.0123 -0.4462 -0.1373
  650TMC3     C 9624   0.424   2.767  12.643  0.1483 -0.4653  0.1085
  650TMC3     O 9625   0.414   2.805  12.759  0.2435 -0.0625  0.6351
  650TMC3     H 9626   0.409   3.027  12.671  0.7336  1.7678 -0.5583
  650TMC3    H1 9627   0.386   2.722  12.363  0.2172  0.4052 -0.6406
  650TMC3    H2 9628   0.341   3.128  12.272 -0.6577  0.4583  0.7697
  650TMC3    C7 9629   0.280   2.882  12.180  0.0749 -0.2246  0.0283
  650TMC3    C8 9630   0.306   3.209  12.517  0.1891 -0.5818  0.5948
  650TMC3    O1 9631   0.297   2.768  12.134  0.1167  0.3077 -0.4298
  650TMC3    O2 9632   0.290   3.301  12.439 -0.4396  0.4860 -0.1308
  651MPD2     C 9633   3.983   4.402  10.469 -0.6935  0.3747 -0.1215
  651MPD2    C1 9634   4.019   4.525  10.523  0.4142 -0.5103  0.1928
  651MPD2    C2 9635   4.143   4.567  10.489  0.1892  0.1422 -0.5509
  651MPD2    C3 9636   4.228   4.488  10.414 -0.5606  0.0390 -0.1929
  651MPD2    C4 9637   4.195   4.366  10.374  0.7313 -0.4668 -0.2918
  651MPD2    C5 9638   4.070   4.325  10.402  0.4461  0.1691 -0.0447
  651MPD2     H 9639   4.174   4.663  10.528  0.2856  0.5391 -1.6044
  651MPD2    H1 9640   4.262   4.303  10.317 -0.8419 -0.4500 -2.1377
  651MPD2    H2 9641   3.889   4.350  10.486 -0.6354  0.3488  0.1273
  651MPD2    H3 9642   4.035   4.225  10.379  1.1841 -0.4413  1.4996
  651MPD2     N 9643   4.362   4.546  10.395  0.7156 -0.3087 -0.4483
  651MPD2    H5 9644   4.377   4.637  10.437  1.3027 -0.4035 -0.4538
  651MPD2    N1 9645   3.933   4.600  10.602 -0.5146  0.7986  0.3717
  651MPD2    H7 9646   3.974   4.676  10.655 -0.4301  1.8366 -1.1588
  652TMC3    C1 9647   0.071   4.664  10.297 -0.6988  0.2503 -0.0263
  652TMC3    C2 9648   4.705   4.565  10.320  0.8180  0.7636 -0.2986
  652TMC3    C3 9649   4.576   4.601  10.304 -0.7040  1.0459 -0.0515
  652TMC3    C4 9650   0.042   0.065  10.260 -0.4583  0.0019  0.2289
  652TMC3    C5 9651   4.634   0.098  10.236 -0.8224  0.0715  0.3613
  652TMC3    C6 9652   4.535   0.005  10.258  0.0409 -0.1153  0.3882
  652TMC3     C 9653   0.178   4.664  10.392 -0.2560 -0.1538 -0.2303
  652TMC3     O 9654   0.148   4.626  10.505 -0.1184 -0.0827  0.3656
  652TMC3     H 9655   0.002   4.466  10.360  0.2614  0.2272 -1.3574
  652TMC3    H1 9656   0.125   0.135  10.258 -0.5714  0.1055 -0.7218
  652TMC3    H2 9657   4.428   0.020  10.262 -0.0424 -0.3172 -0.9424
  652TMC3    C7 9658   4.603   0.239  10.260  0.0609  0.0335  0.1650
  652TMC3    C8 9659   4.470   4.498  10.325 -0.3320  0.4337  0.4504
  652TMC3    O1 9660   4.701   0.301  10.305 -0.0276  0.0475 -0.2617
  652TMC3    O2 9661   4.489   4.390  10.268  0.1877 -0.2450 -0.1088
  653MPD2     C 9662   2.837   0.020   0.367 -0.3355 -0.1156  0.0706
  653MPD2    C1 9663   2.797   0.106   0.268 -0.2367  0.2350  0.5800
  653MPD2    C2 9664   2.735   0.053   0.154 -0.0942  0.2700 -0.5110
  653MPD2    C3 9665   2.728   4.637   0.142  0.6306  0.1917 -0.2656
  653MPD2    C4 9666   2.756   4.554   0.248 -0.1735 -0.0422  0.4749
  653MPD2    C5 9667   2.814   4.614   0.355  0.1182 -0.1671 -0.9514
  653MPD2     H 9668   2.696   0.112   0.072  2.4120  3.4755  0.6365
  653MPD2    H1 9669   2.730   4.449   0.255 -0.7500  0.1450  1.1649
  653MPD2    H2 9670   2.883   0.057   0.457  1.4998 -2.7575  0.2186
  653MPD2    H3 9671   2.841   4.560   0.446  4.3018  2.7399 -0.4381
  653MPD2     N 9672   2.684   4.598   0.013 -0.1966 -0.0562 -0.5978
  653MPD2    H5 9673   2.666   4.664  17.635 -0.2571  0.5106 -0.0752
  653MPD2    N1 9674   2.815   0.248   0.275  0.0524 -0.7167  0.2813
  653MPD2    H7 9675   2.793   0.298   0.189  1.1541 -1.0112 -0.1859
  654TMC3    C1 9676   2.602   4.440  17.548 -0.0681  0.4148  0.2330
  654TMC3    C2 9677   2.514   4.528  17.501 -0.6383 -0.2041 -0.2969
  654TMC3    C3 9678   2.465   4.511  17.372  0.6145 -0.1401  0.1998
  654TMC3    C4 9679   2.638   4.333  17.471 -0.2189  0.2486 -0.0325
  654TMC3    C5 9680   2.588   4.312  17.343 -0.6522 -0.0389 -0.0897
  654TMC3    C6 9681   2.501   4.401  17.297 -0.3745  0.4766  0.0190
  654TMC3     C 9682   2.666   4.461  17.679  0.0009  0.0705  0.5063
  654TMC3     O 9683   2.689   4.361   0.051 -0.1617  0.6271 -0.0306
  654TMC3     H 9684   2.478   4.610  17.562  0.2276  1.1261 -1.5732
  654TMC3    H1 9685   2.717   4.273  17.515 -0.2274 -0.0749 -0.4604
  654TMC3    H2 9686   2.461   4.392  17.197  0.0465  0.2372 -0.1235
  654TMC3    C7 9687   2.627   4.203  17.252  0.5084  0.4974 -0.2077
  654TMC3    C8 9688   2.377   4.610  17.305  0.4800  0.5067 -0.1820
  654TMC3    O1 9689   2.603   4.226  17.136 -0.2312  0.0573 -0.5980
  654TMC3    O2 9690   2.336   4.585  17.194  0.5461  0.5875 -0.2677
  655MPD2     C 9691   4.173   4.642  15.912 -0.0457  0.3998  0.0752
  655MPD2    C1 9692   4.108   0.009  15.828 -0.0001 -0.1945 -0.2101
  655MPD2    C2 9693   4.117   4.714  15.689 -0.1241  0.3424 -0.3822
  655MPD2    C3 9694   4.185   4.597  15.638 -0.0479  0.5380 -0.3896
  655MPD2    C4 9695   4.233   4.509  15.725  0.5272 -0.4704  0.6103
  655MPD2    C5 9696   4.236   4.534  15.859  0.5305  0.1269 -0.2143
  655MPD2     H 9697   4.074   0.064  15.622  1.9637  2.0944  0.2003
  655MPD2    H1 9698   4.287   4.424  15.684 -0.3852  0.8393 -3.3001
  655MPD2    H2 9699   4.177   4.660  16.019 -1.3381 -0.4120  0.2595
  655MPD2    H3 9700   4.282   4.465  15.930 -0.5869 -1.5842 -1.1397
  655MPD2     N 9701   4.201   4.578  15.499 -0.1692 -0.2641 -0.1377
  655MPD2    H5 9702   4.207   4.481  15.470 -1.7201 -0.1259 -0.9168
  655MPD2    N1 9703   4.044   0.120  15.877  0.0598  0.3696  0.3059
  655MPD2    H7 9704   4.006   0.179  15.804  2.3334  1.7825  0.2692
  656TMC3    C1 9705   3.943   0.282  16.018 -0.0087  0.3869 -0.2222
  656TMC3    C2 9706   3.909   0.317  16.150 -0.5406  0.8240 -0.3251
  656TMC3    C3 9707   3.797   0.399  16.163  0.7052 -0.1507  0.2373
  656TMC3    C4 9708   3.872   0.324  15.913  0.1831 -0.0458 -0.3567
  656TMC3    C5 9709   3.761   0.404  15.928  0.5270  0.1566 -0.4801
  656TMC3    C6 9710   3.730   0.456  16.051 -0.2093  0.0419 -0.1173
  656TMC3     C 9711   4.018   0.155  16.003  0.3254  0.6761 -0.6537
  656TMC3     O 9712   4.046   0.096  16.105  0.1427  0.5458 -0.3732
  656TMC3     H 9713   3.934   0.256  16.236  1.6447 -1.4472 -2.5910
  656TMC3    H1 9714   3.895   0.300  15.810 -2.2358  0.9654 -1.1339
  656TMC3    H2 9715   3.639   0.515  16.055  0.1529  0.5757  0.3588
  656TMC3    C7 9716   3.675   0.416  15.814  0.1516  0.3649  0.0830
  656TMC3    C8 9717   3.706   0.339  16.256 -0.2470 -0.5064 -0.0772
  656TMC3    O1 9718   3.722   0.399  15.701 -0.1985 -0.3360 -0.0831
  656TMC3    O2 9719   3.672   0.228  16.232 -0.2482 -0.5790  0.5851
  657TMC3    C1 9720   3.238   3.837  15.344  0.1317 -0.1491 -0.5948
  657TMC3    C2 9721   3.279   3.799  15.474 -0.4970 -0.2416  0.0386
  657TMC3    C3 9722   3.204   3.847  15.571 -0.2664  0.2704  0.3255
  657TMC3    C4 9723   3.129   3.918  15.316 -0.2639  0.1607  0.7342
  657TMC3    C5 9724   3.064   3.961  15.426 -0.3938  0.5345 -0.4956
  657TMC3    C6 9725   3.090   3.917  15.557 -0.0197  0.2788  0.2275
  657TMC3     C 9726   3.318   3.810  15.232  0.6700 -0.8867  0.3612
  657TMC3     O 9727   3.259   3.793  15.125 -0.0237  0.1105 -0.2791
  657TMC3     H 9728   3.354   3.721  15.487 -0.6191 -0.1999  0.9849
  657TMC3    H1 9729   3.099   3.941  15.214 -0.5787 -1.8627  0.3649
  657TMC3    H2 9730   3.051   3.968  15.644 -2.1676  1.1064 -1.2121
  657TMC3    C7 9731   2.951   4.051  15.404 -0.3829  0.1213  0.5032
  657TMC3    C8 9732   3.251   3.794  15.695 -0.1545  0.1914  0.2139
  657TMC3    O1 9733   2.961   4.126  15.305  0.3384 -0.1177  0.0281
  657TMC3    O2 9734   3.169   3.764  15.780 -0.2160 -0.1159  0.5270
  658MPD2     C 9735   4.305   0.405  14.954 -0.3597 -0.2261 -1.1894
  658MPD2    C1 9736   4.228   0.295  14.913  0.3724 -0.1506 -0.3461
  658MPD2    C2 9737   4.134   0.310  14.810 -0.2066  0.3218 -0.5343
  658MPD2    C3 9738   4.113   0.433  14.757 -0.1443  0.3344 -0.4708
  658MPD2    C4 9739   4.180   0.541  14.805 -0.0601  0.3800 -0.9837
  658MPD2    C5 9740   4.278   0.526  14.901 -0.1270  0.5323  0.9037
  658MPD2     H 9741   4.086   0.225  14.762 -0.1024  0.2630 -0.5347
  658MPD2    H1 9742   4.153   0.645  14.786 -1.8880  0.3640  1.4765
  658MPD2    H2 9743   4.370   0.397  15.040  0.1583  0.1352 -1.5472
  658MPD2    H3 9744   4.337   0.610  14.934 -1.6183  2.2431 -0.7798
  658MPD2     N 9745   4.020   0.439  14.650 -0.3984 -0.3711 -0.2041
  658MPD2    H5 9746   3.972   0.353  14.625  0.1964 -0.5998 -0.5638
  658MPD2    N1 9747   4.243   0.168  14.973  0.2937  0.6794 -0.2230
  658MPD2    H7 9748   4.310   0.152  15.048 -0.2703  0.7922  0.3111
  659TMC3    C1 9749   4.221   4.673  15.033  0.5325 -0.1428 -0.4571
  659TMC3    C2 9750   4.235   4.716  15.164 -0.3699  1.2928  0.2987
  659TMC3    C3 9751   4.196   4.631  15.269  0.1015 -0.2803  0.2649
  659TMC3    C4 9752   4.154   4.554  15.008  0.3780 -0.6513 -0.6329
  659TMC3    C5 9753   4.116   4.477  15.107 -0.3902 -0.1233 -1.2700
  659TMC3    C6 9754   4.137   4.510  15.240 -0.4883  0.1230  0.2594
  659TMC3     C 9755   4.181   0.051  14.937 -0.2544 -0.3016  0.5035
  659TMC3     O 9756   4.117   0.020  14.838  0.3163  0.2870  0.0099
  659TMC3     H 9757   4.277   0.088  15.194  2.9833  0.0738 -0.5210
  659TMC3    H1 9758   4.139   4.516  14.908 -0.0885  1.7402 -1.4850
  659TMC3    H2 9759   4.097   4.447  15.319 -0.3117  3.0234  2.6469
  659TMC3    C7 9760   3.995   4.404  15.087  0.1533 -0.1579  0.3255
  659TMC3    C8 9761   4.195   4.675  15.403  0.8051 -0.5603  0.2268
  659TMC3    O1 9762   3.939   4.369  15.191 -0.2330 -0.2096 -0.0033
  659TMC3    O2 9763   4.211   0.071  15.424  0.0347  0.1618  0.0521
  660MPD2     C 9764   2.367   3.373  12.628 -0.4691  0.7092 -0.1080
  660MPD2    C1 9765   2.233   3.390  12.651  0.1932  0.2278 -0.2156
  660MPD2    C2 9766   2.168   3.293  12.727  0.1982 -0.5394  0.2373
  660MPD2    C3 9767   2.239   3.187  12.780 -0.1996  0.2096  0.2033
  660MPD2    C4 9768   2.372   3.181  12.769 -0.0926 -0.0339  0.7153
  660MPD2    C5 9769   2.437   3.273  12.692 -0.0056  0.3732  0.1294
  660MPD2     H 9770   2.069   3.322  12.758 -0.7826 -1.4715 -1.9860
  660MPD2    H1 9771   2.427   3.093  12.799  0.6258  0.0120 -0.4969
  660MPD2    H2 9772   2.419   3.437  12.559  0.8499 -1.5081 -1.1500
  660MPD2    H3 9773   2.543   3.261  12.673 -0.2321  0.8802 -1.4658
  660MPD2     N 9774   2.173   3.086  12.853 -0.7272 -0.7451  0.7532
  660MPD2    H5 9775   2.232   3.013  12.891 -0.9627 -0.9048  0.8121
  660MPD2    N1 9776   2.165   3.505  12.597 -0.1804  0.0240  0.0342
  660MPD2    H7 9777   2.227   3.554  12.534 -0.1069 -0.1100  0.0014
  661TMC3    C1 9778   2.000   3.680  12.568  0.2069 -0.8976 -0.3279
  661TMC3    C2 9779   2.033   3.704  12.443  0.4599 -0.5409 -0.0682
  661TMC3    C3 9780   1.965   3.805  12.381 -0.1039  0.2263  0.4843
  661TMC3    C4 9781   1.902   3.751  12.636  0.4045  0.4220 -0.5068
  661TMC3    C5 9782   1.830   3.843  12.567 -0.1696 -0.2104 -0.0350
  661TMC3    C6 9783   1.855   3.869  12.434 -0.2419 -0.0686 -0.1130
  661TMC3     C 9784   2.037   3.550  12.625 -0.1912  0.1071  0.0476
  661TMC3     O 9785   1.960   3.499  12.709 -0.1382 -0.4617 -0.1484
  661TMC3     H 9786   2.089   3.628  12.390 -0.9509 -0.9099 -1.0434
  661TMC3    H1 9787   1.883   3.715  12.737  1.1441 -0.7226 -0.7782
  661TMC3    H2 9788   1.807   3.952  12.383 -1.4371 -1.6902 -1.6128
  661TMC3    C7 9789   1.696   3.871  12.615 -0.1339 -0.7986 -0.4701
  661TMC3    C8 9790   2.006   3.834  12.245 -0.7070 -0.0962  0.0994
  661TMC3    O1 9791   1.666   3.872  12.732  0.0356  0.2622 -0.2201
  661TMC3    O2 9792   2.101   3.771  12.212 -0.1262 -0.5758  0.3374
  662MPD2     C 9793   2.196   2.998  17.650  0.0691  0.4389  0.2226
  662MPD2    C1 9794   2.252   2.919   0.053  0.1317  0.0040  0.2904
  662MPD2    C2 9795   2.255   2.970   0.184 -0.3908 -0.3411  0.2208
  662MPD2    C3 9796   2.202   3.094   0.221  0.3034 -0.5670  0.3037
  662MPD2    C4 9797   2.138   3.158   0.121 -0.4746  0.9101  0.6460
  662MPD2    C5 9798   2.135   3.114  17.689 -0.2788 -0.5579 -0.3838
  662MPD2     H 9799   2.301   2.909   0.260  1.8187  0.4907 -0.4275
  662MPD2    H1 9800   2.080   3.247   0.142  0.0193  0.7914  2.4640
  662MPD2    H2 9801   2.188   2.969  17.546 -1.6735  3.1128 -0.3761
  662MPD2    H3 9802   2.093   3.176  17.611 -0.2744 -1.6692 -1.2675
  662MPD2     N 9803   2.177   3.126   0.358 -0.4263  0.2846  0.0436
  662MPD2    H5 9804   2.095   3.177   0.389 -0.1047  0.1856  1.0387
  662MPD2    N1 9805   2.328   2.801   0.028 -0.7858 -0.0872  0.3945
  662MPD2    H7 9806   2.367   2.749   0.106 -0.1630  0.3377  0.3709
  663TMC3    C1 9807   2.396   2.607  17.610  0.5564  0.4563  0.2316
  663TMC3    C2 9808   2.470   2.566   0.023 -0.1655  0.1743 -0.2743
  663TMC3    C3 9809   2.533   2.440   0.016 -0.4949 -0.0444 -0.3909
  663TMC3    C4 9810   2.375   2.528  17.500  0.5816  0.0466 -0.0397
  663TMC3    C5 9811   2.402   2.399  17.518 -0.4011  0.3482 -0.0996
  663TMC3    C6 9812   2.465   2.347  17.627  0.0547  0.3556  0.4952
  663TMC3     C 9813   2.334   2.741  17.600 -0.3854 -0.6661  0.3122
  663TMC3     O 9814   2.290   2.763  17.489 -0.2586 -0.2747  0.1243
  663TMC3     H 9815   2.505   2.635   0.098 -0.6024  1.5711 -1.3510
  663TMC3    H1 9816   2.321   2.561  17.411  0.4211  2.9404  1.1437
  663TMC3    H2 9817   2.509   2.249  17.621 -1.6986 -0.4302  0.4589
  663TMC3    C7 9818   2.330   2.304  17.433  0.2513  0.3697 -0.0763
  663TMC3    C8 9819   2.564   2.374   0.135  0.4701 -0.0910 -0.6872
  663TMC3    O1 9820   2.301   2.338  17.322  0.0261  0.2848  0.2309
  663TMC3    O2 9821   2.677   2.337   0.157  0.2797 -0.5437  0.2503
  664MPD2     C 9822   0.377   0.835  17.197 -0.0502  1.0652 -0.3566
  664MPD2    C1 9823   0.475   0.930  17.225 -0.2186  0.1250 -0.2383
  664MPD2    C2 9824   0.491   0.968  17.358 -0.0938  0.6019 -0.1096
  664MPD2    C3 9825   0.416   0.897  17.457 -0.1754  0.5830  0.2944
  664MPD2    C4 9826   0.315   0.809  17.429 -0.5573  0.1159  0.2547
  664MPD2    C5 9827   0.302   0.779  17.294 -0.3864 -0.2219  0.2032
  664MPD2     H 9828   0.565   1.042  17.387  0.3345  0.5194 -0.9815
  664MPD2    H1 9829   0.254   0.757  17.502 -1.3042  2.4736  1.2862
  664MPD2    H2 9830   0.359   0.794  17.098  0.3713  0.6265 -0.2527
  664MPD2    H3 9831   0.227   0.709  17.259  0.3074 -1.0234  0.3097
  664MPD2     N 9832   0.446   0.936  17.591 -0.2603 -0.4553  0.4201
  664MPD2    H5 9833   0.512   1.012  17.595  2.2552 -2.4979 -2.4805
  664MPD2    N1 9834   0.557   0.989  17.122 -0.0237 -0.3409 -0.0223
  664MPD2    H7 9835   0.623   1.064  17.143 -0.4501  0.3595 -1.2227
  665TMC3    C1 9836   0.461   0.929   0.131  0.1823  0.0558 -0.0659
  665TMC3    C2 9837   0.463   0.848   0.240  0.4833  0.5607 -0.0663
  665TMC3    C3 9838   0.486   0.907   0.360  0.0515  0.3565 -0.0325
  665TMC3    C4 9839   0.471   1.066   0.144  0.7273 -0.0679 -0.2066
  665TMC3    C5 9840   0.483   1.119   0.274  0.1996  0.5678 -0.0386
  665TMC3    C6 9841   0.483   1.036   0.379 -0.4583  0.6066 -0.7012
  665TMC3     C 9842   0.404   0.877   0.008  0.6215  0.3994 -0.0730
  665TMC3     O 9843   0.355   0.768   0.035  0.1169 -0.1157  0.3902
  665TMC3     H 9844   0.482   0.743   0.223 -0.0229  0.5296 -0.4034
  665TMC3    H1 9845   0.474   1.134   0.059  1.3242 -0.7165 -0.7028
  665TMC3    H2 9846   0.475   1.079   0.478  1.6756 -2.3670  0.7769
  665TMC3    C7 9847   0.443   1.258   0.297  0.0596  0.4869 -0.6220
  665TMC3    C8 9848   0.472   0.818   0.470 -0.0432  0.6906 -0.1551
  665TMC3    O1 9849   0.398   1.324   0.204 -0.5799  0.2273  0.2382
  665TMC3    O2 9850   0.428   0.709   0.445  0.1263  0.6256 -0.1976
  666TMC3    C1 9851   4.292   1.478  10.436 -0.5515 -0.1126  0.0768
  666TMC3    C2 9852   4.169   1.451  10.387  0.1757  0.4786 -0.5942
  666TMC3    C3 9853   4.131   1.507  10.272  0.5097  0.1776  0.7836
  666TMC3    C4 9854   4.369   1.578  10.381  0.0469 -0.4354  0.5904
  666TMC3    C5 9855   4.328   1.635  10.254  0.0034 -0.6326 -0.7585
  666TMC3    C6 9856   4.204   1.607  10.207 -0.1280 -0.4723  0.0453
  666TMC3     C 9857   4.361   1.365  10.492 -0.4811 -0.5120  0.7206
  666TMC3     O 9858   4.476   1.383  10.529 -0.0175 -0.3025 -0.0136
  666TMC3     H 9859   4.113   1.369  10.430  0.2699  0.2288 -0.9404
  666TMC3    H1 9860   4.471   1.593  10.414  0.4265 -1.6936 -0.0101
  666TMC3    H2 9861   4.161   1.663  10.125 -1.8290  0.2896  1.4679
  666TMC3    C7 9862   4.390   1.762  10.215 -0.0749 -0.0615  0.2468
  666TMC3    C8 9863   4.069   1.406  10.183 -0.1413  0.4039  0.8470
  666TMC3    O1 9864   4.319   1.832  10.150 -0.0206 -0.0213  0.0128
  666TMC3    O2 9865   4.103   1.291  10.210  0.1817  0.2828 -0.1268
  667MPD2     C 9866   1.869   1.449  14.539  1.0499 -0.1698  0.9782
  667MPD2    C1 9867   1.755   1.513  14.581  0.4392 -0.2957 -0.4680
  667MPD2    C2 9868   1.635   1.470  14.530 -0.3387 -0.2932  0.3001
  667MPD2    C3 9869   1.617   1.341  14.478  0.3522 -0.0264  0.1068
  667MPD2    C4 9870   1.733   1.286  14.435 -0.2264 -0.4639 -0.6872
  667MPD2    C5 9871   1.855   1.336  14.467  0.1225 -0.8026  0.3544
  667MPD2     H 9872   1.547   1.522  14.565 -0.4583 -0.0271 -0.3993
  667MPD2    H1 9873   1.731   1.187  14.391 -1.9570 -0.9525  0.5326
  667MPD2    H2 9874   1.964   1.469  14.587  2.2450  2.3460 -2.4881
  667MPD2    H3 9875   1.942   1.276  14.443  1.0733  1.6687 -2.4365
  667MPD2     N 9876   1.494   1.284  14.444  0.2344 -0.0239 -0.5457
  667MPD2    H5 9877   1.493   1.196  14.394 -0.5952 -0.9561  1.1158
  667MPD2    N1 9878   1.759   1.627  14.666  0.1767 -0.3954  0.2326
  667MPD2    H7 9879   1.683   1.660  14.724 -0.2949  2.3493 -1.9163
  668TMC3    C1 9880   1.852   1.807  14.791  0.6655  0.4137  0.1717
  668TMC3    C2 9881   1.913   1.926  14.785 -0.1825  0.4005  0.2250
  668TMC3    C3 9882   1.904   2.017  14.893  0.4137 -0.6275  0.3239
  668TMC3    C4 9883   1.789   1.765  14.908  0.2834 -0.1588  0.7255
  668TMC3    C5 9884   1.802   1.846  15.014  0.4597  0.1623 -0.2218
  668TMC3    C6 9885   1.854   1.974  15.015 -0.0114 -0.4156  0.1044
  668TMC3     C 9886   1.868   1.707  14.685 -0.8080  0.1194  0.1752
  668TMC3     O 9887   1.982   1.697  14.639  0.4133 -0.5874 -0.0946
  668TMC3     H 9888   1.957   1.948  14.688 -3.1692 -1.4169 -1.5330
  668TMC3    H1 9889   1.760   1.661  14.916  1.2291 -0.4910 -0.1517
  668TMC3    H2 9890   1.834   2.041  15.097  3.5526 -1.0537  1.5022
  668TMC3    C7 9891   1.738   1.807  15.134 -0.2662 -0.1083 -0.3809
  668TMC3    C8 9892   1.941   2.159  14.887  0.2305  0.0056 -0.7339
  668TMC3    O1 9893   1.791   1.851  15.239  0.3649 -0.6919  0.6415
  668TMC3    O2 9894   1.905   2.230  14.983 -0.8281  0.6549 -0.3426
  669TMC3    C1 9895   4.368   1.647  14.275  0.6123  0.0274 -0.0344
  669TMC3    C2 9896   4.268   1.715  14.215 -0.2435  0.1926 -0.1643
  669TMC3    C3 9897   4.289   1.789  14.103 -0.2874  0.4050  0.3211
  669TMC3    C4 9898   4.497   1.658  14.230  0.2533  0.7080  0.2715
  669TMC3    C5 9899   4.517   1.746  14.118 -0.4614 -0.0558 -0.8450
  669TMC3    C6 9900   4.417   1.803  14.048 -0.0756  0.3495  0.8095
  669TMC3     C 9901   4.329   1.569  14.387 -0.2550  0.2973 -0.2923
  669TMC3     O 9902   4.219   1.575  14.432  0.5751  0.5449  0.0525
  669TMC3     H 9903   4.168   1.691  14.249  0.0823 -2.0759 -0.7759
  669TMC3    H1 9904   4.580   1.638  14.297 -1.7933  0.4876  2.7082
  669TMC3    H2 9905   4.440   1.853  13.955  0.4063  0.3093  0.9070
  669TMC3    C7 9906   4.647   1.817  14.117 -0.1246  0.4992 -0.3014
  669TMC3    C8 9907   4.167   1.826  14.031  0.2931  0.2506 -0.6782
  669TMC3    O1 9908   4.706   1.833  14.223  0.4648  0.3070  0.0404
  669TMC3    O2 9909   4.061   1.791  14.084 -0.0451  0.0430  0.0376
  670MPD2     C 9910   2.537   4.003  13.713  1.3390  0.2516 -0.3558
  670MPD2    C1 9911   2.572   4.102  13.802 -0.1387  0.1456  0.7118
  670MPD2    C2 9912   2.508   4.101  13.929 -0.1116  0.6115  0.0682
  670MPD2    C3 9913   2.410   4.008  13.956 -0.0374  0.0872 -0.3337
  670MPD2    C4 9914   2.362   3.918  13.860  0.4590 -0.7605  0.0432
  670MPD2    C5 9915   2.431   3.914  13.742  0.5605  0.5121  0.1864
  670MPD2     H 9916   2.544   4.161  14.012  0.0211 -0.5802  0.8719
  670MPD2    H1 9917   2.279   3.848  13.868  0.2088 -0.2443  2.1157
  670MPD2    H2 9918   2.573   3.993  13.611  0.2753 -0.9047 -0.6268
  670MPD2    H3 9919   2.405   3.837  13.671 -0.2906 -1.2878  2.4513
  670MPD2     N 9920   2.355   4.018  14.090  0.0970 -0.2713 -0.3629
  670MPD2    H5 9921   2.395   4.080  14.160 -0.3404  1.0311 -1.2600
  670MPD2    N1 9922   2.672   4.200  13.767  0.5577 -0.0242 -0.3609
  670MPD2    H7 9923   2.691   4.262  13.845  2.6160 -1.9563  0.6598
  671TMC3    C1 9924   2.270   3.918  14.278 -0.0785 -0.4931 -0.3434
  671TMC3    C2 9925   2.396   3.875  14.312 -0.2317 -0.6838  0.1459
  671TMC3    C3 9926   2.407   3.757  14.384  1.0348 -0.0761 -0.0845
  671TMC3    C4 9927   2.164   3.856  14.333  1.1735  0.3633  0.2196
  671TMC3    C5 9928   2.179   3.739  14.402  1.1382  0.3316 -0.5108
  671TMC3    C6 9929   2.305   3.694  14.434 -0.0788  0.8283 -0.0088
  671TMC3     C 9930   2.255   3.938  14.140 -0.3463 -0.2381 -0.5292
  671TMC3     O 9931   2.181   3.858  14.085  0.1135 -0.0437  0.2095
  671TMC3     H 9932   2.477   3.890  14.242 -0.8300  0.7795 -0.2328
  671TMC3    H1 9933   2.067   3.881  14.292  1.7169  1.6365 -0.2713
  671TMC3    H2 9934   2.319   3.603  14.492  0.6400  1.4507  0.7983
  671TMC3    C7 9935   2.097   3.638  14.340 -0.1048 -0.1074  0.5216
  671TMC3    C8 9936   2.524   3.685  14.359 -0.3011  0.3786  1.1600
  671TMC3    O1 9937   1.997   3.681  14.283  0.3985 -0.3247  0.2355
  671TMC3    O2 9938   2.545   3.645  14.246  0.3153  0.2718  0.1736
  672MPD2     C 9939   2.153   3.973   1.289 -0.0664 -0.1116  0.3322
  672MPD2    C1 9940   2.216   4.077   1.225 -0.4426  0.0001  0.6497
  672MPD2    C2 9941   2.259   4.183   1.297 -0.7469 -0.3627  0.7147
  672MPD2    C3 9942   2.259   4.179   1.436  0.1354 -0.5192  0.2113
  672MPD2    C4 9943   2.214   4.062   1.499  0.1653 -0.7446 -0.0102
  672MPD2    C5 9944   2.145   3.969   1.427  0.0429  0.0911 -0.1893
  672MPD2     H 9945   2.312   4.265   1.249 -1.0648 -0.5847 -0.0230
  672MPD2    H1 9946   2.205   4.065   1.607 -3.5603  0.0623 -0.3187
  672MPD2    H2 9947   2.096   3.902   1.230 -1.3810  0.7325  0.5727
  672MPD2    H3 9948   2.094   3.886   1.476 -0.4480  1.9026  2.3536
  672MPD2     N 9949   2.327   4.275   1.516 -0.2726 -0.2930  0.2019
  672MPD2    H5 9950   2.360   4.251   1.609  1.3881 -1.7512 -0.7426
  672MPD2    N1 9951   2.238   4.069   1.089  0.3176 -0.2536 -0.1585
  672MPD2    H7 9952   2.230   3.976   1.050 -0.1932  0.2383 -1.2262
  673TMC3    C1 9953   2.370   4.104   0.894 -0.0692 -0.0348  0.1334
  673TMC3    C2 9954   2.427   3.980   0.922  0.1313 -0.1927 -0.3625
  673TMC3    C3 9955   2.501   3.929   0.823 -0.4488  0.2996  0.2125
  673TMC3    C4 9956   2.397   4.179   0.782 -0.7158 -0.4627  0.0670
  673TMC3    C5 9957   2.470   4.113   0.685  0.9778 -0.2957  0.0931
  673TMC3    C6 9958   2.521   3.989   0.699  0.1384 -0.5151 -0.0414
  673TMC3     C 9959   2.296   4.163   1.008  0.0663 -0.3733 -0.5839
  673TMC3     O 9960   2.328   4.280   1.025  0.2069 -0.1005  0.0955
  673TMC3     H 9961   2.417   3.942   1.023 -1.6965  0.4222 -0.2957
  673TMC3    H1 9962   2.351   4.276   0.767 -2.3965 -1.1069  1.0004
  673TMC3    H2 9963   2.589   3.946   0.626 -0.3674 -3.3396  1.1480
  673TMC3    C7 9964   2.496   4.191   0.559 -0.2965 -0.0602 -0.6448
  673TMC3    C8 9965   2.556   3.800   0.836 -0.0306  0.1985  0.0658
  673TMC3    O1 9966   2.523   4.134   0.451 -0.0671 -0.5807 -0.2564
  673TMC3    O2 9967   2.619   3.749   0.743 -0.4642  0.1149 -0.6483
  674MPD2     C 9968   2.286   3.745   0.554  0.1001  0.5787 -0.4578
  674MPD2    C1 9969   2.336   3.625   0.588 -0.5656  0.1193 -0.3566
  674MPD2    C2 9970   2.300   3.567   0.706 -0.3328 -0.2624 -0.0374
  674MPD2    C3 9971   2.241   3.648   0.803  0.1041 -0.2421  0.3225
  674MPD2    C4 9972   2.183   3.768   0.772 -1.2242 -0.3181  0.6580
  674MPD2    C5 9973   2.198   3.818   0.649  0.8561  0.2204  0.1766
  674MPD2     H 9974   2.327   3.466   0.735  0.5558  0.5808  2.0828
  674MPD2    H1 9975   2.127   3.823   0.847 -2.2102 -1.5227  0.8055
  674MPD2    H2 9976   2.314   3.790   0.459 -2.6377  0.8905 -1.0977
  674MPD2    H3 9977   2.164   3.916   0.616 -0.4250 -0.2868 -0.0092
  674MPD2     N 9978   2.217   3.590   0.931  0.1256  0.7380  0.6942
  674MPD2    H5 9979   2.246   3.493   0.938 -2.3424 -0.0908 -0.4732
  674MPD2    N1 9980   2.425   3.572   0.493 -0.7624 -0.2019 -0.3247
  674MPD2    H7 9981   2.439   3.620   0.404  1.9822 -1.6589 -0.6806
  675TMC3    C1 9982   2.543   3.395   0.391 -0.4783  0.2524 -0.8955
  675TMC3    C2 9983   2.554   3.262   0.368  0.3582  1.0087 -0.8204
  675TMC3    C3 9984   2.628   3.212   0.266 -0.2867  0.1457 -0.3042
  675TMC3    C4 9985   2.615   3.482   0.314  0.1686  0.5586  0.7900
  675TMC3    C5 9986   2.675   3.430   0.206  0.5434  0.3997  1.3179
  675TMC3    C6 9987   2.691   3.295   0.177 -0.3791 -0.1134  0.7137
  675TMC3     C 9988   2.470   3.446   0.504  0.5421  0.1080 -0.4028
  675TMC3     O 9989   2.462   3.361   0.589  0.3337  0.2571 -0.2140
  675TMC3     H 9990   2.500   3.193   0.432  2.1605 -0.3766 -0.7796
  675TMC3    H1 9991   2.620   3.588   0.338 -4.0350  0.8405  0.4125
  675TMC3    H2 9992   2.739   3.265   0.084  2.9803  0.1214  2.3742
  675TMC3    C7 9993   2.749   3.523   0.121 -0.4876  0.0768 -0.4097
  675TMC3    C8 9994   2.681   3.069   0.267 -0.1113  0.2694  0.3556
  675TMC3    O1 9995   2.831   3.461   0.060  0.4854 -0.3520 -0.4402
  675TMC3    O2 9996   2.790   3.060   0.211  0.2745  0.2784  0.1914
  676MPD2     C 9997   0.780   2.900  10.913 -1.2481 -0.2458 -0.0982
  676MPD2    C1 9998   0.680   2.812  10.943  0.5547  0.1207  0.3084
  676MPD2    C2 9999   0.658   2.699  10.868 -0.4851 -0.1135  0.9151
  676MPD2    C310000   0.720   2.679  10.742 -0.7895  0.1293 -0.0825
  676MPD2    C410001   0.820   2.767  10.716  0.0490 -0.1821 -0.1999
  676MPD2    C510002   0.851   2.872  10.797 -0.6397  0.4321  0.4123
  676MPD2     H10003   0.581   2.631  10.902 -0.6334 -0.1738  0.4644
  676MPD2    H110004   0.877   2.753  10.625  0.2783  4.5285 -0.7733
  676MPD2    H210005   0.799   2.991  10.969  0.4575 -0.2585 -0.6432
  676MPD2    H310006   0.928   2.943  10.769 -0.9801  1.0356  1.0252
  676MPD2     N10007   0.682   2.571  10.653 -0.1277  0.4658 -0.2831
  676MPD2    H510008   0.720   2.587  10.560 -0.5257  2.7037 -0.0696
  676MPD2    N110009   0.588   2.833  11.044 -0.0043 -0.0045  0.4237
  676MPD2    H710010   0.521   2.757  11.052 -0.6788  0.5537  0.0206
  677TMC3    C110011   0.463   2.903  11.227  0.7099 -0.0916  0.3068
  677TMC3    C210012   0.456   2.786  11.294  0.1234 -0.0632 -0.2652
  677TMC3    C310013   0.339   2.760  11.360 -0.4124 -0.3008  0.4631
  677TMC3    C410014   0.385   3.012  11.258 -0.4617  0.1567  0.0048
  677TMC3    C510015   0.275   2.987  11.333 -0.3206 -0.6620  0.2166
  677TMC3    C610016   0.245   2.860  11.380  0.3238  0.5989  0.3601
  677TMC3     C10017   0.584   2.929  11.144  0.6094 -0.6087 -0.9711
  677TMC3     O10018   0.642   3.035  11.157 -0.2694  0.1262 -0.0535
  677TMC3     H10019   0.528   2.707  11.279  3.3710  3.1574 -1.4857
  677TMC3    H110020   0.403   3.106  11.209 -2.5490  0.3031 -0.5001
  677TMC3    H210021   0.153   2.845  11.437 -0.1058  0.8000 -0.2763
  677TMC3    C710022   0.199   3.097  11.392  0.3549  0.6271  0.1371
  677TMC3    C810023   0.348   2.650  11.449  0.7661 -0.8051  0.6776
  677TMC3    O110024   0.083   3.073  11.413 -0.4781  0.5539 -0.6959
  677TMC3    O210025   0.439   2.566  11.431  0.2680 -0.7069  0.1467
  678MPD2     C10026   1.114   1.639   1.697  0.1722 -0.1259 -0.3648
  678MPD2    C110027   1.173   1.659   1.575 -0.1274 -0.6202  0.1973
  678MPD2    C210028   1.108   1.746   1.483  0.3031 -0.1461  0.3239
  678MPD2    C310029   0.971   1.777   1.501 -0.0529 -0.3156 -0.3939
  678MPD2    C410030   0.910   1.741   1.620  0.1168  0.5110  0.7361
  678MPD2    C510031   0.978   1.674   1.713 -0.5647  0.1451 -0.0403
  678MPD2     H10032   1.153   1.778   1.390  1.6000 -2.8049  0.0381
  678MPD2    H110033   0.804   1.751   1.642  0.5175  1.1849  2.3789
  678MPD2    H210034   1.163   1.576   1.771  1.7015 -0.2134 -1.4507
  678MPD2    H310035   0.937   1.649   1.810  0.6570 -2.1822 -0.1344
  678MPD2     N10036   0.916   1.860   1.403  0.2256 -0.0276  0.1137
  678MPD2    H510037   0.970   1.878   1.319 -1.0836  1.1777 -0.4537
  678MPD2    N110038   1.306   1.622   1.546  0.6724  0.8398  0.1462
  678MPD2    H710039   1.332   1.647   1.451 -0.1854 -2.2161 -0.9086
  679TMC3    C110040   1.720   1.396   1.543 -0.0594 -0.4084 -0.2365
  679TMC3    C210041   1.594   1.421   1.601  0.6448  0.2831  0.2096
  679TMC3    C310042   1.514   1.516   1.547 -0.6340  0.3589 -0.3251
  679TMC3    C410043   1.759   1.460   1.430 -0.8870  0.3550 -0.2016
  679TMC3    C510044   1.673   1.554   1.382 -0.5161 -0.2715 -0.0165
  679TMC3    C610045   1.548   1.584   1.439 -0.4523 -0.0542  0.3148
  679TMC3     C10046   1.832   1.343   1.616  0.0379  0.6795  0.7827
  679TMC3     O10047   1.943   1.392   1.583 -0.8798 -0.0344 -0.5047
  679TMC3     H10048   1.568   1.386   1.700  2.4352 -1.4066  0.0723
  679TMC3    H110049   1.844   1.425   1.373  1.6218  1.5335  2.8168
  679TMC3    H210050   1.490   1.667   1.401  0.5091 -0.6022 -2.4165
  679TMC3    C710051   1.724   1.659   1.295 -0.4911 -0.2984 -0.4370
  679TMC3    C810052   1.394   1.552   1.623  0.0911 -0.7898 -0.2900
  679TMC3    O110053   1.643   1.731   1.245  0.5200  0.1236 -0.3296
  679TMC3    O210054   1.374   1.509   1.735  0.4055  0.1695  0.0172
  680MPD2     C10055   1.944   1.351  13.429  0.3439  0.1246  0.7649
  680MPD2    C110056   1.984   1.252  13.512 -0.1052 -0.3721  0.7007
  680MPD2    C210057   2.102   1.275  13.582 -0.8542 -0.5159 -0.6171
  680MPD2    C310058   2.178   1.395  13.574  0.4903  0.1007  0.1615
  680MPD2    C410059   2.128   1.492  13.484 -0.1196  0.0037 -0.3186
  680MPD2    C510060   2.017   1.468  13.411 -0.3193  0.4933  0.2726
  680MPD2     H10061   2.137   1.194  13.644 -1.3732  0.1029  0.4746
  680MPD2    H110062   2.177   1.588  13.478 -2.0404  0.9817 -0.3579
  680MPD2    H210063   1.853   1.351  13.371  0.8000 -1.2132  0.0395
  680MPD2    H310064   1.980   1.544  13.343  1.6083 -0.9587 -2.4031
  680MPD2     N10065   2.281   1.430  13.657  0.0742 -0.5576  0.2813
  680MPD2    H510066   2.319   1.522  13.638  1.6079 -0.7828  2.2221
  680MPD2    N110067   1.901   1.136  13.532 -0.5759 -0.0878  0.3016
  680MPD2    H710068   1.825   1.115  13.468 -0.3511 -0.7184  0.2432
  681TMC3    C110069   1.875   0.906  13.614 -0.5679 -0.2182 -0.7927
  681TMC3    C210070   1.856   0.831  13.725 -0.2255 -0.1287 -0.0939
  681TMC3    C310071   1.850   0.692  13.711 -0.0305  0.3445  0.4050
  681TMC3    C410072   1.893   0.847  13.493  0.1851  0.0149 -0.2785
  681TMC3    C510073   1.878   0.712  13.486 -0.6752 -0.2122 -0.6953
  681TMC3    C610074   1.851   0.626  13.593 -0.2477  0.1594 -0.7388
  681TMC3     C10075   1.919   1.046  13.636 -0.4934  0.4984  0.1554
  681TMC3     O10076   1.980   1.066  13.739 -0.1613  0.0169  0.6302
  681TMC3     H10077   1.837   0.870  13.825  4.0318  0.2893  0.5382
  681TMC3    H110078   1.907   0.907  13.404 -0.0040 -2.6542 -2.1111
  681TMC3    H210079   1.869   0.519  13.590  0.8478  0.3172  0.1993
  681TMC3    C710080   1.943   0.644  13.372  0.1689  0.5556 -0.4467
  681TMC3    C810081   1.815   0.603  13.824 -0.1784 -0.1612  0.6478
  681TMC3    O110082   1.903   0.537  13.340  1.1295  0.3189  0.0246
  681TMC3    O210083   1.762   0.500  13.791 -0.5143  0.0167 -0.0415
  682MPD2     C10084   4.260   2.827  10.541  0.2390 -0.0733  0.0988
  682MPD2    C110085   4.223   2.699  10.502 -0.9925 -0.0379 -0.4194
  682MPD2    C210086   4.153   2.615  10.590  0.4232 -0.6129 -0.0236
  682MPD2    C310087   4.128   2.659  10.716  0.0550 -0.0545 -0.2692
  682MPD2    C410088   4.187   2.777  10.752 -0.0119 -0.0539 -0.2500
  682MPD2    C510089   4.246   2.865  10.669  0.3066  1.0586 -0.1316
  682MPD2     H10090   4.120   2.521  10.548  0.3116 -0.6840  0.2222
  682MPD2    H110091   4.160   2.812  10.851  1.0936  1.0432 -0.3383
  682MPD2    H210092   4.301   2.897  10.470 -0.4724  0.3909  0.1470
  682MPD2    H310093   4.281   2.964  10.698 -0.6545  1.6602 -1.0666
  682MPD2     N10094   4.051   2.579  10.810  0.3778 -0.1705 -0.1196
  682MPD2    H510095   4.055   2.600  10.909  0.0381  0.4315 -0.2318
  682MPD2    N110096   4.265   2.640  10.381 -0.2004  0.2456 -0.7318
  682MPD2    H710097   4.251   2.539  10.376  1.3475 -0.1110  1.9311
  683TMC3    C110098   3.976   2.323  11.104 -0.7780  0.3690 -0.2170
  683TMC3    C210099   3.981   2.187  11.084 -0.4749  0.4504 -0.6422
  683TMC3    C310100   3.983   2.143  10.953  0.1514  0.4193 -0.7794
  683TMC3    C410101   3.956   2.416  11.004  0.1501  0.3938 -0.2877
  683TMC3    C510102   3.957   2.368  10.875  0.2602 -0.0290 -0.8955
  683TMC3    C610103   3.969   2.230  10.847  0.2657  0.0659  0.1402
  683TMC3     C10104   3.968   2.368  11.241  0.1733 -0.4966 -0.8388
  683TMC3     O10105   3.964   2.489  11.245  0.4872  0.3007  0.2019
  683TMC3     H10106   3.980   2.122  11.171  0.6568  0.1766 -0.8316
  683TMC3    H110107   3.962   2.523  11.025 -3.9924  0.1520  2.2083
  683TMC3    H210108   3.993   2.204  10.745  0.5999  1.4399 -0.1278
  683TMC3    C710109   3.993   2.461  10.766 -0.0220 -0.2647  0.1788
  683TMC3    C810110   3.965   1.996  10.938  0.3535  0.7565  0.5132
  683TMC3    O110111   3.962   2.417  10.655  0.1243  0.2956  0.5398
  683TMC3    O210112   3.928   1.954  10.830 -0.1126 -0.8146 -0.0163
  684MPD2     C10113   2.453   1.804  16.488  0.1648  0.2103 -0.7164
  684MPD2    C110114   2.465   1.757  16.356 -0.2622 -1.1279 -0.2659
  684MPD2    C210115   2.546   1.833  16.275  0.5672  0.5544  0.1770
  684MPD2    C310116   2.622   1.938  16.317  0.2596 -0.0091 -0.0070
  684MPD2    C410117   2.604   1.971  16.448 -0.3642  0.4080 -0.0902
  684MPD2    C510118   2.519   1.908  16.530 -0.0907  0.1212 -0.8163
  684MPD2     H10119   2.563   1.792  16.176 -0.0008  2.1653 -0.5741
  684MPD2    H110120   2.673   2.043  16.490  1.0001  0.0885 -1.7882
  684MPD2    H210121   2.389   1.759  16.563 -1.9537 -0.4743 -2.9279
  684MPD2    H310122   2.502   1.946  16.630  1.7806 -0.4787 -0.2677
  684MPD2     N10123   2.718   2.008  16.236  0.1214  0.0077 -0.3141
  684MPD2    H510124   2.760   2.086  16.286  0.9857 -1.1128  0.7099
  684MPD2    N110125   2.409   1.637  16.304  0.4365  0.0915  0.7830
  684MPD2    H710126   2.417   1.617  16.205  0.7581 -0.1701  0.8627
  685TMC3    C110127   2.300   1.427  16.312  0.3394  0.2758 -0.2905
  685TMC3    C210128   2.274   1.443  16.174  0.0405 -0.1039  0.4508
  685TMC3    C310129   2.301   1.335  16.089  0.5606  0.2371  0.3402
  685TMC3    C410130   2.344   1.302  16.349  0.2788  0.1597 -0.8140
  685TMC3    C510131   2.373   1.197  16.258 -0.5244 -0.8974  0.1324
  685TMC3    C610132   2.349   1.214  16.124  0.2892 -0.0446  0.3168
  685TMC3     C10133   2.360   1.537  16.385  0.0900  0.1246  0.1957
  685TMC3     O10134   2.377   1.515  16.508 -0.1584  0.2305 -0.4795
  685TMC3     H10135   2.246   1.541  16.137  2.4655 -0.0623 -1.2620
  685TMC3    H110136   2.360   1.278  16.453 -0.4260  0.9111 -0.5303
  685TMC3    H210137   2.334   1.132  16.054  0.7941 -0.8634  1.1800
  685TMC3    C710138   2.504   1.141  16.289  0.1632 -0.5347 -0.0560
  685TMC3    C810139   2.204   1.325  15.979 -0.3299 -0.8849 -0.6251
  685TMC3    O110140   2.551   1.160  16.403 -1.0008 -0.1856 -0.6127
  685TMC3    O210141   2.230   1.273  15.871  0.0439 -0.0643 -0.3788
  686MPD2     C10142   3.324   1.604  15.299  0.3173  0.0197  0.4649
  686MPD2    C110143   3.412   1.512  15.353  0.1376 -0.2585 -0.1373
  686MPD2    C210144   3.527   1.468  15.283  0.0527  0.2565 -0.4024
  686MPD2    C310145   3.537   1.489  15.149  0.4752 -0.2534 -0.2376
  686MPD2    C410146   3.437   1.571  15.094  1.0233 -0.0307 -0.0148
  686MPD2    C510147   3.336   1.627  15.165  0.7821 -0.3237 -0.1273
  686MPD2     H10148   3.602   1.400  15.324 -0.6856 -0.2114  0.1610
  686MPD2    H110149   3.424   1.584  14.987  2.6357  0.4971 -0.1453
  686MPD2    H210150   3.234   1.648  15.341 -0.2214 -0.6563  0.0067
  686MPD2    H310151   3.264   1.690  15.115 -1.3336 -2.8056 -0.1819
  686MPD2     N10152   3.631   1.442  15.058  0.2823  0.1444 -0.1860
  686MPD2    H510153   3.625   1.485  14.966 -1.0768  0.0168 -0.1511
  686MPD2    N110154   3.384   1.472  15.487 -0.8324 -0.2702 -0.2198
  686MPD2    H710155   3.291   1.498  15.520 -0.0893  3.7341 -1.2504
  687TMC3    C110156   3.758   1.259  15.181  0.4234  0.3154 -0.6440
  687TMC3    C210157   3.643   1.193  15.203  0.1059  0.9434 -0.8671
  687TMC3    C310158   3.643   1.109  15.315 -0.0278  0.3808  0.4017
  687TMC3    C410159   3.866   1.253  15.264 -0.0973 -0.2607  0.3986
  687TMC3    C510160   3.871   1.166  15.367  0.2126 -0.8483  0.1074
  687TMC3    C610161   3.757   1.098  15.398  0.3802  0.4538  0.7174
  687TMC3     C10162   3.753   1.378  15.088 -0.2344  0.4416 -0.8324
  687TMC3     O10163   3.859   1.380  15.016  0.4677 -0.2096  0.2688
  687TMC3     H10164   3.574   1.184  15.121 -3.7140  0.0870  2.4192
  687TMC3    H110165   3.958   1.300  15.231  0.4508 -0.5369  1.5444
  687TMC3    H210166   3.747   1.039  15.489 -1.5983 -0.2866  0.0016
  687TMC3    C710167   3.952   1.212  15.475 -0.1321  0.4412  0.5549
  687TMC3    C810168   3.508   1.073  15.374 -0.1630 -0.4565 -0.8283
  687TMC3    O110169   3.988   1.329  15.470  0.4644 -0.3058  0.8650
  687TMC3    O210170   3.521   1.015  15.479 -0.2515  0.4680 -0.5526
  688MPD2     C10171   2.954   0.715  17.513 -0.0427 -0.3733  0.2939
  688MPD2    C110172   3.047   0.632  17.577  0.1222 -0.1042  0.7572
  688MPD2    C210173   3.138   0.558  17.507  0.1734 -0.0058 -0.0802
  688MPD2    C310174   3.148   0.578  17.374  0.1891  0.5112  0.2104
  688MPD2    C410175   3.059   0.668  17.311  0.0387 -0.1849  0.3544
  688MPD2    C510176   2.965   0.735  17.381 -0.3008 -0.4826  0.1194
  688MPD2     H10177   3.206   0.484  17.548  1.3369  2.2828  2.0736
  688MPD2    H110178   3.078   0.706  17.212  1.6833  1.0664  1.1577
  688MPD2    H210179   2.877   0.771  17.565  0.4288  0.4390  0.1262
  688MPD2    H310180   2.896   0.807  17.339  2.4371  2.9793  1.5885
  688MPD2     N10181   3.262   0.535  17.292 -0.1775 -0.5999 -0.3097
  688MPD2    H510182   3.266   0.578  17.200  1.3419  1.8362  0.8905
  688MPD2    N110183   3.030   0.602   0.013 -0.3741  0.5405 -0.0420
  688MPD2    H710184   3.074   0.517   0.047  0.1084  0.0512 -1.8750
  689TMC3    C110185   2.949   0.627   0.236 -0.1321  0.1815  0.1318
  689TMC3    C210186   2.933   0.720   0.339  0.4242  0.2470 -0.4415
  689TMC3    C310187   2.893   0.674   0.462  0.0554 -0.3535  0.1082
  689TMC3    C410188   2.920   0.498   0.247 -0.4105  0.2303 -0.0073
  689TMC3    C510189   2.882   0.452   0.374  0.0934  1.1020  0.2544
  689TMC3    C610190   2.874   0.538   0.481 -0.3583  0.5014  0.4927
  689TMC3     C10191   2.967   0.688   0.100 -0.3587 -0.2776  0.7670
  689TMC3     O10192   2.958   0.810   0.097 -0.6323  0.1360  0.2417
  689TMC3     H10193   2.942   0.825   0.317 -0.1780 -0.0365 -2.0537
  689TMC3    H110194   2.905   0.433   0.162  0.9405 -1.4165  1.0045
  689TMC3    H210195   2.857   0.501   0.582  0.3504 -1.1793  0.0121
  689TMC3    C710196   2.856   0.316   0.389  0.3376 -0.2387  0.4692
  689TMC3    C810197   2.855   0.755   0.570  0.1836 -0.0399 -0.6822
  689TMC3    O110198   2.856   0.269   0.507  0.3509 -0.8076 -0.3187
  689TMC3    O210199   2.759   0.715   0.636 -0.0649  0.3066  0.6118
  690MPD2     C10200   0.927   2.311  15.584  0.1528 -0.2810 -0.2135
  690MPD2    C110201   0.845   2.320  15.481  0.4201 -0.8996 -0.5918
  690MPD2    C210202   0.889   2.397  15.372  0.9838  0.1695 -0.3041
  690MPD2    C310203   1.015   2.452  15.375  0.9629  0.1931  0.4114
  690MPD2    C410204   1.103   2.427  15.477 -0.0289 -0.3450  0.2409
  690MPD2    C510205   1.057   2.353  15.583  0.4437  0.1152  0.3239
  690MPD2     H10206   0.824   2.410  15.287  1.4259  1.7281 -0.3988
  690MPD2    H110207   1.205   2.463  15.484  0.1847 -0.6937 -1.1005
  690MPD2    H210208   0.894   2.254  15.670 -1.4448 -0.7538 -1.1519
  690MPD2    H310209   1.117   2.349  15.673 -0.8915 -0.1544  1.2133
  690MPD2     N10210   1.053   2.530  15.264 -1.0643  0.0423  0.1534
  690MPD2    H510211   0.973   2.555  15.208 -0.9362  2.4346  1.0444
  690MPD2    N110212   0.713   2.270  15.488 -0.3200  0.3058  1.2035
  690MPD2    H710213   0.668   2.251  15.398 -0.2159 -1.0068  1.4199
  691TMC3    C110214   0.517   2.190  15.586 -0.1005 -0.4173 -0.1010
  691TMC3    C210215   0.412   2.220  15.665  0.0642  0.0608  0.4165
  691TMC3    C310216   0.306   2.133  15.677  0.2852  0.2103 -0.3979
  691TMC3    C410217   0.524   2.068  15.520 -0.0202  0.1294 -0.1546
  691TMC3    C510218   0.418   1.984  15.539  0.1449 -0.1038  0.3941
  691TMC3    C610219   0.307   2.017  15.610  0.1234  0.0319  0.3408
  691TMC3     C10220   0.645   2.266  15.604 -0.0051  0.6474  0.3308
  691TMC3     O10221   0.673   2.311  15.716 -0.7364  0.1494 -0.8959
  691TMC3     H10222   0.418   2.303  15.736 -2.3626  0.8461 -0.3171
  691TMC3    H110223   0.612   2.034  15.467  0.5141  2.2626 -0.6379
  691TMC3    H210224   0.220   1.953  15.625  1.2086 -1.5462 -0.1278
  691TMC3    C710225   0.453   1.846  15.508 -0.9792 -0.2096  0.3929
  691TMC3    C810226   0.203   2.154  15.781 -0.1870  0.3042 -0.3920
  691TMC3    O110227   0.568   1.821  15.470 -0.0758  0.2278 -0.4801
  691TMC3    O210228   0.145   2.053  15.817  0.3228 -0.1586 -0.0934
  692TMC3    C110229   2.114   2.986  15.882 -0.2995 -0.4267  0.5641
  692TMC3    C210230   2.118   2.941  16.008  0.7822  0.1006  0.6973
  692TMC3    C310231   2.231   2.874  16.055  0.0586  0.6396 -0.1364
  692TMC3    C410232   2.206   2.945  15.791 -0.1311  0.4694 -0.1442
  692TMC3    C510233   2.305   2.863  15.831 -0.2684 -0.2399  0.4598
  692TMC3    C610234   2.319   2.827  15.963  0.4295 -0.4339 -0.1363
  692TMC3     C10235   1.990   3.041  15.843  0.2278 -0.2608 -0.0672
  692TMC3     O10236   1.910   3.072  15.927  0.9592 -0.3903 -0.0573
  692TMC3     H10237   2.047   2.984  16.077  0.4100 -3.3436  2.4406
  692TMC3    H110238   2.220   3.001  15.700 -1.1441 -0.8530 -1.1063
  692TMC3    H210239   2.418   2.802  15.999  0.0045 -0.2844  1.1301
  692TMC3    C710240   2.431   2.871  15.760 -0.0066  0.0769  0.9645
  692TMC3    C810241   2.295   2.953  16.164 -0.1576 -0.2247  0.5552
  692TMC3    O110242   2.459   2.977  15.704 -0.2724  0.0447  0.4962
  692TMC3    O210243   2.409   2.999  16.134  0.3576  0.1835 -0.1810
  693MPD2     C10244   1.129   1.907  10.923  0.0261  0.3663 -0.0297
  693MPD2    C110245   1.073   1.802  10.991  0.3814  0.0462  0.1435
  693MPD2    C210246   1.161   1.700  11.024  0.5351 -0.1133 -0.2793
  693MPD2    C310247   1.296   1.701  10.987  0.3265  0.5372 -0.0592
  693MPD2    C410248   1.349   1.814  10.937  0.1532 -0.4744  0.5152
  693MPD2    C510249   1.264   1.917  10.907  0.0215 -0.2739  0.1970
  693MPD2     H10250   1.123   1.608  11.066 -0.0244  1.2379  2.1729
  693MPD2    H110251   1.455   1.820  10.914 -0.0334  1.6494  0.1789
  693MPD2    H210252   1.068   1.991  10.892  0.3429  0.8265  0.5879
  693MPD2    H310253   1.301   2.005  10.855 -0.5796  0.5433  1.1686
  693MPD2     N10254   1.379   1.585  11.005  0.1850  0.2992 -0.6000
  693MPD2    H510255   1.474   1.602  10.975  0.5816  0.3727  0.7164
  693MPD2    N110256   0.936   1.786  11.021 -0.0716  0.0225  0.5467
  693MPD2    H710257   0.915   1.724  11.099  0.7140  0.2253  0.9184
  694TMC3    C110258   0.720   1.800  11.007 -0.0408 -0.1157 -0.4636
  694TMC3    C210259   0.673   1.697  10.924  0.4133  0.0321  0.0897
  694TMC3    C310260   0.597   1.600  10.980 -0.1560  0.1989 -0.3477
  694TMC3    C410261   0.703   1.794  11.143 -0.5503 -0.6668  0.1649
  694TMC3    C510262   0.642   1.678  11.193 -0.0064  0.2153  0.1634
  694TMC3    C610263   0.575   1.592  11.115  0.2913  0.3317  0.0273
  694TMC3     C10264   0.840   1.858  10.967 -0.0455  0.1538  0.0638
  694TMC3     O10265   0.840   1.935  10.872 -0.1818 -0.5112  0.1092
  694TMC3     H10266   0.708   1.694  10.821  1.1996 -0.0206  0.3596
  694TMC3    H110267   0.730   1.877  11.207 -0.1698  0.0704 -0.9385
  694TMC3    H210268   0.505   1.517  11.149  0.3610 -0.1136 -0.8065
  694TMC3    C710269   0.638   1.661  11.341 -0.0222 -0.2400 -0.1086
  694TMC3    C810270   0.522   1.512  10.890 -0.0805 -0.4375 -0.4583
  694TMC3    O110271   0.666   1.769  11.399 -0.6937  0.2954 -0.3101
  694TMC3    O210272   0.483   1.406  10.936  0.5046 -0.0682 -0.0586
  695MPD2     C10273   2.838   3.395  13.465  0.3120  0.0390  0.7512
  695MPD2    C110274   2.782   3.405  13.589 -0.4884 -0.2126  0.2973
  695MPD2    C210275   2.663   3.464  13.605 -0.4479  0.5472 -0.1151
  695MPD2    C310276   2.592   3.521  13.494 -0.9337 -0.1694  1.0676
  695MPD2    C410277   2.651   3.508  13.370 -0.4172  0.1009 -0.0269
  695MPD2    C510278   2.770   3.442  13.357  0.0391 -0.7582 -0.2445
  695MPD2     H10279   2.632   3.465  13.709  0.1663 -2.1138  0.0940
  695MPD2    H110280   2.600   3.548  13.283 -1.5561 -2.1242 -0.3880
  695MPD2    H210281   2.937   3.354  13.444  0.2872  0.5529 -0.3743
  695MPD2    H310282   2.819   3.439  13.261 -0.3059 -0.8966 -0.4180
  695MPD2     N10283   2.459   3.567  13.519  0.4652 -0.0918  0.1368
  695MPD2    H510284   2.430   3.570  13.617 -0.4945  2.5429 -0.2428
  695MPD2    N110285   2.841   3.363  13.714  0.7024 -0.4687  0.1998
  695MPD2    H710286   2.792   3.397  13.796 -0.0269 -0.0489 -0.4165
  696TMC3    C110287   2.252   3.674  13.487  0.4420  0.1125 -0.4485
  696TMC3    C210288   2.206   3.602  13.597  0.0695  0.4359  0.1051
  696TMC3    C310289   2.101   3.661  13.669  0.3291  0.3365  0.1263
  696TMC3    C410290   2.223   3.807  13.475 -0.1691 -0.1498 -0.1609
  696TMC3    C510291   2.120   3.854  13.543 -0.1274 -0.0373 -0.2710
  696TMC3    C610292   2.052   3.783  13.643  0.1898 -0.7347  0.1904
  696TMC3     C10293   2.379   3.633  13.427  0.2636  0.1198 -0.5890
  696TMC3     O10294   2.400   3.678  13.314 -0.6306  0.2752  0.5577
  696TMC3     H10295   2.244   3.501  13.612 -2.6181 -0.7535 -1.1440
  696TMC3    H110296   2.266   3.868  13.397 -0.1513 -0.3236 -0.2858
  696TMC3    H210297   1.960   3.824  13.683 -0.7865 -1.3498 -1.4276
  696TMC3    C710298   2.125   3.998  13.568  0.0388 -0.4279 -0.0394
  696TMC3    C810299   2.085   3.619  13.811 -0.0799 -0.2239 -0.2807
  696TMC3    O110300   2.173   4.070  13.488  0.1450 -0.1957 -0.4535
  696TMC3    O210301   2.034   3.705  13.884 -0.0051 -0.1821  0.0470
  697MPD2     C10302   1.715   0.045  15.792  0.1029 -0.8467  0.7948
  697MPD2    C110303   1.718   0.010  15.657 -0.0600  0.0725  0.0925
  697MPD2    C210304   1.717   0.120  15.566 -0.6980 -0.1684  0.2289
  697MPD2    C310305   1.720   0.250  15.608  0.3004 -0.5154  0.6036
  697MPD2    C410306   1.725   0.282  15.745 -0.2817  0.1869  0.4214
  697MPD2    C510307   1.714   0.174  15.835 -0.4250  1.0096  0.3515
  697MPD2     H10308   1.719   0.102  15.459 -0.8957 -0.0021  0.1980
  697MPD2    H110309   1.724   0.385  15.778  2.1949 -0.1803  1.6416
  697MPD2    H210310   1.719   4.695  15.871 -0.9170  0.2438  1.8782
  697MPD2    H310311   1.696   0.200  15.939 -2.8502 -0.6392  0.3325
  697MPD2     N10312   1.731   0.344  15.508  0.6295  0.2187  0.2038
  697MPD2    H510313   1.760   0.305  15.418 -0.3795 -0.3312  0.1209
  697MPD2    N110314   1.712   4.601  15.607  0.0216 -0.2186 -0.1425
  697MPD2    H710315   1.686   4.592  15.509 -0.5499 -0.4467  0.0289
  698TMC3    C110316   1.777   0.565  15.423  0.0117 -0.0140  0.2616
  698TMC3    C210317   1.847   0.666  15.484 -0.0964 -0.0186  0.6023
  698TMC3    C310318   1.874   0.781  15.419 -0.8498 -0.9091 -0.4242
  698TMC3    C410319   1.719   0.589  15.298 -0.1998 -0.5807  0.3963
  698TMC3    C510320   1.751   0.700  15.228 -0.5288 -0.4107 -0.1293
  698TMC3    C610321   1.835   0.792  15.289 -0.1695 -0.3473  0.2943
  698TMC3     C10322   1.705   0.476  15.519  0.8237 -0.2134  0.1754
  698TMC3     O10323   1.671   0.537  15.622 -0.7267  0.1244 -0.0952
  698TMC3     H10324   1.874   0.662  15.589 -1.3432 -0.3178  0.9146
  698TMC3    H110325   1.645   0.517  15.268 -0.6777  0.7467 -1.6045
  698TMC3    H210326   1.873   0.870  15.223  1.1729 -1.2919 -0.0587
  698TMC3    C710327   1.715   0.716  15.090  0.7699 -0.0564 -0.1700
  698TMC3    C810328   1.928   0.898  15.490 -0.5167 -0.5588  0.1761
  698TMC3    O110329   1.699   0.617  15.026  0.0868 -0.8564 -0.2559
  698TMC3    O210330   1.941   0.899  15.613 -0.0954 -0.1662 -0.0522
  699TMC3    C110331   2.004   2.946  12.935 -0.1815 -0.0528  0.8374
  699TMC3    C210332   2.100   2.881  13.012 -0.0538  0.4858 -0.5294
  699TMC3    C310333   2.053   2.767  13.080  0.6500  0.2579  0.5965
  699TMC3    C410334   1.877   2.899  12.911 -0.2216 -0.7416 -0.6211
  699TMC3    C510335   1.838   2.779  12.973  0.1250  0.0269 -0.4152
  699TMC3    C610336   1.922   2.720  13.067  0.1026  0.0065  0.2009
  699TMC3     C10337   2.039   3.076  12.865  0.0165 -0.1372 -0.0478
  699TMC3     O10338   1.946   3.142  12.821 -0.0090  0.6773 -0.7100
  699TMC3     H10339   2.189   2.924  13.056 -0.6199 -1.2770  2.3868
  699TMC3    H110340   1.803   2.947  12.847  0.2447 -1.4458 -1.7019
  699TMC3    H210341   1.889   2.643  13.137 -2.4362  0.0471 -0.9524
  699TMC3    C710342   1.700   2.773  12.999 -0.2000  0.2070 -0.0140
  699TMC3    C810343   2.115   2.730  13.203  0.2291 -0.2703 -0.2060
  699TMC3    O110344   1.659   2.722  13.105  0.0568 -0.6027  0.2201
  699TMC3    O210345   2.036   2.687  13.288 -0.0071 -0.2131  0.1045
  700TMC3    C110346   0.735   0.613  17.615 -0.1939  0.0630 -0.8742
  700TMC3    C210347   0.742   0.484  17.585 -0.1356  0.8332 -0.4676
  700TMC3    C310348   0.854   0.409  17.614  0.0700 -0.6655  1.1151
  700TMC3    C410349   0.824   0.664   0.007  0.5249 -0.2765 -0.6015
  700TMC3    C510350   0.941   0.593   0.024  0.3406  0.2504 -0.1964
  700TMC3    C610351   0.962   0.469  17.675  0.4122  0.0964 -0.0473
  700TMC3     C10352   0.728   0.703  17.502  0.9597 -0.1004  0.4212
  700TMC3     O10353   0.778   0.813  17.526  0.0024  0.2216  0.2565
  700TMC3     H10354   0.656   0.433  17.541 -0.6108 -0.0235  1.4267
  700TMC3    H110355   0.808   0.762   0.051 -2.0851 -0.2166 -1.6952
  700TMC3    H210356   1.058   0.427   0.002  0.8883  0.6685 -0.9430
  700TMC3    C710357   1.053   0.683   0.034  0.4132  0.2690  0.3669
  700TMC3    C810358   0.867   0.267  17.569 -0.3028 -0.2452 -0.3238
  700TMC3    O110359   1.163   0.639   0.059 -0.7707 -0.7722  1.1813
  700TMC3    O210360   0.760   0.210  17.551  0.0213  0.4731 -0.2061
  701TMC3    C110361   1.130   4.221  15.775 -0.4813  0.3381  0.5463
  701TMC3    C210362   1.162   4.132  15.676 -0.4941  0.5096  0.0316
  701TMC3    C310363   1.266   4.177  15.592  0.1546 -0.2123  0.1554
  701TMC3    C410364   1.200   4.339  15.795 -0.0841  0.2288  0.5602
  701TMC3    C510365   1.310   4.374  15.719 -0.0949  0.2377 -0.0883
  701TMC3    C610366   1.340   4.292  15.615 -0.5016 -0.3702 -0.3772
  701TMC3     C10367   1.042   4.182  15.887 -0.3028 -0.9865  0.4875
  701TMC3     O10368   1.050   4.254  15.988 -0.0837  0.3955  0.5277
  701TMC3     H10369   1.120   4.033  15.675 -1.4937  0.9409 -0.2301
  701TMC3    H110370   1.171   4.412  15.869  0.3000  1.5922 -0.6346
  701TMC3    H210371   1.411   4.327  15.541 -0.6632 -1.2937 -0.9618
  701TMC3    C710372   1.350   4.513  15.709 -0.6758 -0.1238  0.0839
  701TMC3    C810373   1.283   4.122  15.460  0.0713 -0.3136  0.0724
  701TMC3    O110374   1.366   4.557  15.598  1.2100 -0.1952  0.6240
  701TMC3    O210375   1.397   4.098  15.416 -0.0217  0.3347 -0.0154
  702MPD2     C10376   0.506   2.694  10.068 -0.5443 -0.4407  0.6833
  702MPD2    C110377   0.525   2.686  10.201 -0.1805  0.2094  0.3750
  702MPD2    C210378   0.561   2.802  10.266 -0.3322  0.0677 -0.3991
  702MPD2    C310379   0.583   2.925  10.200  0.3323  0.1660  0.3455
  702MPD2    C410380   0.577   2.923  10.058 -0.2480 -0.7762 -0.8561
  702MPD2    C510381   0.529   2.808   9.999 -0.7650 -0.3828  0.0315
  702MPD2     H10382   0.579   2.784  10.371 -0.4365  1.8699 -0.0748
  702MPD2    H110383   0.583   3.010   9.994  0.9867  0.7708  1.3387
  702MPD2    H210384   0.464   2.618  10.003  1.8323 -0.5561 -0.6852
  702MPD2    H310385   0.515   2.805   9.891 -0.1437 -1.0954 -0.0251
  702MPD2     N10386   0.625   3.029  10.280 -0.1884 -0.2178  0.1534
  702MPD2    H510387   0.688   3.091  10.229  0.5126 -2.7685 -2.0532
  702MPD2    N110388   0.496   2.575  10.276  0.8441 -0.2261  0.3896
  702MPD2    H710389   0.514   2.586  10.375  0.4867  0.8027  0.3424
  703TMC3    C110390   0.644   3.132  10.503  0.4304  0.1524  0.3214
  703TMC3    C210391   0.590   3.141  10.633  0.1305  0.0510  0.2529
  703TMC3    C310392   0.668   3.205  10.724  0.0346  0.2813  0.3486
  703TMC3    C410393   0.771   3.168  10.469 -0.4047 -0.5028 -0.6870
  703TMC3    C510394   0.842   3.219  10.573  0.5541  0.4497  0.2520
  703TMC3    C610395   0.801   3.228  10.706  0.9254 -0.3549 -0.0423
  703TMC3     C10396   0.572   3.049  10.401 -0.0913 -0.6444  0.1481
  703TMC3     O10397   0.464   3.015  10.448  0.5355 -0.2898  0.1873
  703TMC3     H10398   0.483   3.124  10.646  0.2416 -0.4024  0.5812
  703TMC3    H110399   0.813   3.149  10.371  0.9204  1.8376 -0.5555
  703TMC3    H210400   0.863   3.249  10.792  0.4840 -0.9786  0.4290
  703TMC3    C710401   0.956   3.306  10.536  0.0697  0.6242 -0.1894
  703TMC3    C810402   0.615   3.231  10.856 -0.1119 -0.1372 -0.0553
  703TMC3    O110403   1.009   3.362  10.633 -0.3325 -0.1396  0.3190
  703TMC3    O210404   0.677   3.308  10.928 -0.1477 -0.0911  0.3037
  704TMC3    C110405   3.021   0.298  12.470  0.0963 -0.1511  0.1974
  704TMC3    C210406   3.106   0.333  12.375  0.3792 -0.2918  0.3809
  704TMC3    C310407   3.238   0.297  12.395  0.3023 -0.7040  0.0178
  704TMC3    C410408   3.061   0.225  12.576 -0.2529 -0.0975  0.2599
  704TMC3    C510409   3.196   0.186  12.599  0.6127  0.5140  0.1115
  704TMC3    C610410   3.286   0.222  12.497  0.1155  0.0609 -0.3197
  704TMC3     C10411   2.893   0.266  12.427  0.1828 -0.6063  0.6319
  704TMC3     O10412   2.800   0.241  12.505 -0.4653  0.5328 -0.5489
  704TMC3     H10413   3.080   0.400  12.293 -0.8524 -0.5901  0.5273
  704TMC3    H110414   2.984   0.190  12.644  0.3836 -0.5247  0.7672
  704TMC3    H210415   3.385   0.178  12.500  0.2863  0.4969  0.4458
  704TMC3    C710416   3.209   0.046  12.642  0.5386  0.4613  0.3533
  704TMC3    C810417   3.306   0.293  12.271  0.0109  0.0164  0.2173
  704TMC3    O110418   3.301   4.702  12.602  0.6276  0.0535  0.0310
  704TMC3    O210419   3.234   0.300  12.170 -0.7216  0.4107 -0.2971
  705MPD2     C10420   2.345   2.569  16.326 -0.3874 -0.5210  0.0481
  705MPD2    C110421   2.401   2.677  16.390  0.2358  0.0737 -0.1821
  705MPD2    C210422   2.343   2.724  16.508  0.3180 -0.3959 -0.0078
  705MPD2    C310423   2.226   2.666  16.562 -0.0222  0.3648  0.7709
  705MPD2    C410424   2.171   2.561  16.492  0.1691 -0.6747 -0.4166
  705MPD2    C510425   2.223   2.514  16.370 -0.0278 -0.4490 -0.1049
  705MPD2     H10426   2.393   2.806  16.559 -1.5196  1.0091 -0.4924
  705MPD2    H110427   2.081   2.512  16.526 -0.0327  1.5850  2.3596
  705MPD2    H210428   2.376   2.528  16.231 -3.1970 -2.4117 -0.0458
  705MPD2    H310429   2.178   2.428  16.322  2.7593 -1.9350 -0.0884
  705MPD2     N10430   2.159   2.708  16.680  0.0010 -0.2496 -0.3473
  705MPD2    H510431   2.076   2.652  16.699  0.0859 -0.9869 -2.2150
  705MPD2    N110432   2.523   2.739  16.336 -0.5820 -0.5744 -0.2432
  705MPD2    H710433   2.561   2.824  16.377  1.3630 -1.9906  0.9410
  706TMC3    C110434   2.887   2.816  16.043  0.1454 -0.5320  0.1891
  706TMC3    C210435   2.892   2.949  16.065 -0.1636 -0.2553 -0.0192
  706TMC3    C310436   2.790   2.990  16.144  0.3823 -0.7823  0.2646
  706TMC3    C410437   2.794   2.736  16.104  0.4971 -0.0615 -0.0880
  706TMC3    C510438   2.708   2.783  16.194 -0.4931  0.2623  0.0570
  706TMC3    C610439   2.699   2.913  16.211  0.1009  0.0272  0.2238
  706TMC3     C10440   3.010   2.758  16.012  0.6656  0.4441  0.6742
  706TMC3     O10441   3.041   2.652  16.066  0.5151 -0.0479 -0.3918
  706TMC3     H10442   2.962   3.022  16.025 -0.9765  0.1370 -0.7115
  706TMC3    H110443   2.791   2.629  16.087  1.4656  0.4216 -3.3624
  706TMC3    H210444   2.614   2.954  16.264 -1.1125 -0.5243 -1.3150
  706TMC3    C710445   2.596   2.697  16.227 -0.4708 -0.3239 -0.5386
  706TMC3    C810446   2.801   3.122  16.199 -0.3639  0.2948 -0.4361
  706TMC3    O110447   2.590   2.586  16.174 -0.2458 -0.4549 -0.0221
  706TMC3    O210448   2.838   3.215  16.131  0.2810 -0.1751 -0.2371
  707TMC3    C110449   0.126   1.840   1.715 -0.5530  0.3222  0.3305
  707TMC3    C210450   0.211   1.750   1.772 -0.4595  0.0601  0.1853
  707TMC3    C310451   0.204   1.729   1.911 -0.6034 -0.9992  0.5200
  707TMC3    C410452   0.050   1.923   1.793 -0.0362 -0.0046 -0.0284
  707TMC3    C510453   0.052   1.913   1.929  0.8081 -0.1540 -0.3126
  707TMC3    C610454   0.127   1.817   1.991 -0.3361 -0.3763 -0.6458
  707TMC3     C10455   0.098   1.819   1.573 -0.1643  1.1250  0.0042
  707TMC3     O10456   0.156   1.720   1.526 -0.5239  0.5744  0.7602
  707TMC3     H10457   0.255   1.670   1.715 -0.3571  1.0032 -1.0629
  707TMC3    H110458   4.702   1.993   1.750 -0.7973 -1.0434 -0.4383
  707TMC3    H210459   0.126   1.810   2.099  0.9273  0.9072 -0.5491
  707TMC3    C710460   4.659   1.968   1.993 -0.8002 -0.2301 -0.0978
  707TMC3    C810461   0.265   1.622   1.980 -0.6980 -0.2915 -0.0188
  707TMC3    O110462   4.562   2.005   1.924 -0.2915 -0.0187  0.2122
  707TMC3    O210463   0.279   1.627   2.101  0.2108  0.0135 -0.6686
  708MPD2     C10464   1.267   2.214  13.652  0.1699  0.7655 -0.0251
  708MPD2    C110465   1.189   2.104  13.667  0.1276 -0.1279 -0.3912
  708MPD2    C210466   1.226   1.998  13.751  1.0734  0.3677  0.2110
  708MPD2    C310467   1.343   2.006  13.832  0.3222 -0.2053 -0.1603
  708MPD2    C410468   1.430   2.110  13.802 -0.2203  0.8806 -0.2857
  708MPD2    C510469   1.382   2.216  13.722  0.2465 -0.5132  0.0142
  708MPD2     H10470   1.155   1.917  13.760  1.2239  0.3732  1.5314
  708MPD2    H110471   1.530   2.115  13.843 -1.7756 -0.0411  3.5475
  708MPD2    H210472   1.233   2.303  13.600 -0.4076  0.2889 -0.4715
  708MPD2    H310473   1.454   2.294  13.700  1.2674 -0.9948  1.6190
  708MPD2     N10474   1.385   1.905  13.918  0.1062 -0.4523 -1.0439
  708MPD2    H510475   1.475   1.919  13.963 -1.1919  0.8710  1.1280
  708MPD2    N110476   1.062   2.111  13.606  0.7326 -0.1086 -0.1803
  708MPD2    H710477   1.048   2.185  13.538 -3.0729 -0.9348 -0.2747
  709TMC3    C110478   0.855   2.035  13.551  0.0269  0.0033  0.2845
  709TMC3    C210479   0.900   1.967  13.438 -0.2346 -0.6262  0.8534
  709TMC3    C310480   0.843   1.855  13.394 -0.1640 -0.0033 -0.5546
  709TMC3    C410481   0.743   1.994  13.616 -0.1239  0.1796 -0.9201
  709TMC3    C510482   0.698   1.870  13.581  0.1043  0.8450  0.3885
  709TMC3    C610483   0.737   1.809  13.464  0.1330 -0.7800  0.0125
  709TMC3     C10484   0.955   2.037  13.649 -0.2379 -0.5137  0.6399
  709TMC3     O10485   0.938   1.990  13.762  0.2760 -0.1982  0.0123
  709TMC3     H10486   0.979   2.002  13.373 -1.7639  0.1298 -0.6075
  709TMC3    H110487   0.705   2.045  13.703 -1.6763 -1.2949 -0.7467
  709TMC3    H210488   0.701   1.712  13.433 -0.6696 -0.4511 -0.0792
  709TMC3    C710489   0.649   1.780  13.689 -0.0513  0.3043  0.2422
  709TMC3    C810490   0.852   1.824  13.252  0.0239  0.0859 -0.3586
  709TMC3    O110491   0.570   1.692  13.667 -0.2415  0.0390  0.2680
  709TMC3    O210492   0.895   1.919  13.182  0.3084  0.3090 -0.6938
  710TMC3    C110493   1.777   2.353   0.775 -0.2702 -0.4418  0.0614
  710TMC3    C210494   1.884   2.369   0.692  0.4052  0.6247 -0.2458
  710TMC3    C310495   1.959   2.267   0.650  0.1441  0.0741 -0.0804
  710TMC3    C410496   1.760   2.232   0.829  0.1156  0.0132 -0.0401
  710TMC3    C510497   1.846   2.138   0.799 -0.1845  0.3230 -0.0922
  710TMC3    C610498   1.955   2.149   0.716  0.4704 -0.2780 -0.0053
  710TMC3     C10499   1.693   2.465   0.821  0.3275  0.4412 -0.4427
  710TMC3     O10500   1.620   2.430   0.909 -0.4205  0.4251  0.3884
  710TMC3     H10501   1.893   2.466   0.645  2.3950 -0.7847 -2.7873
  710TMC3    H110502   1.687   2.212   0.907 -1.4666 -0.7496 -1.7380
  710TMC3    H210503   2.015   2.061   0.693  0.5212 -0.4635  0.8369
  710TMC3    C710504   1.847   2.015   0.877  0.6021 -0.5271  0.2707
  710TMC3    C810505   2.066   2.293   0.553 -0.0953  0.2820 -0.3386
  710TMC3    O110506   1.737   1.969   0.911  0.5159  0.1311 -0.0978
  710TMC3    O210507   2.052   2.389   0.476 -0.0007 -0.2411 -0.5977
  711TMC3    C110508   1.668   3.527  15.174 -0.1280  0.1789 -0.0234
  711TMC3    C210509   1.661   3.596  15.296 -0.2540 -0.3026 -0.6902
  711TMC3    C310510   1.754   3.559  15.393 -0.5729  0.6434 -0.3330
  711TMC3    C410511   1.760   3.425  15.156 -0.3616 -0.0676  0.1622
  711TMC3    C510512   1.845   3.395  15.254  0.2690 -0.1288  0.0341
  711TMC3    C610513   1.847   3.456  15.374 -0.5541 -0.7898 -0.5221
  711TMC3     C10514   1.590   3.565  15.059 -0.2058 -0.0212  0.3999
  711TMC3     O10515   1.564   3.476  14.980 -0.4402  0.0625 -0.0669
  711TMC3     H10516   1.583   3.669  15.313  0.7270  0.7131 -0.5532
  711TMC3    H110517   1.772   3.382  15.058 -0.6235 -1.3048  0.6734
  711TMC3    H210518   1.914   3.429  15.455 -0.7185 -0.7370 -0.3680
  711TMC3    C710519   1.945   3.296  15.227 -0.1831 -0.1983 -0.0205
  711TMC3    C810520   1.719   3.603  15.525  0.1440  0.3650 -0.3826
  711TMC3    O110521   2.043   3.286  15.299  0.6681  0.6323  0.2007
  711TMC3    O210522   1.602   3.647  15.544 -0.3750  0.5817  0.0843
  712MPD2     C10523   2.686   4.692  13.647 -0.5629 -0.1195 -0.3476
  712MPD2    C110524   2.610   0.069  13.694 -0.7141 -0.0302 -0.4254
  712MPD2    C210525   2.643   0.199  13.658  0.0572  1.0494  0.3912
  712MPD2    C310526   2.754   0.228  13.581 -0.0146  0.4342 -0.0124
  712MPD2    C410527   2.830   0.125  13.532  0.3025  0.1004 -0.4635
  712MPD2    C510528   2.796   4.723  13.566  0.2247  0.1598  0.3418
  712MPD2     H10529   2.585   0.269  13.716 -0.8271  1.1999 -0.6917
  712MPD2    H110530   2.915   0.145  13.468  1.1923  0.7351  0.9170
  712MPD2    H210531   2.668   4.587  13.664  0.8560 -0.7236 -2.6498
  712MPD2    H310532   2.851   4.640  13.524  0.5188  0.9749 -0.8794
  712MPD2     N10533   2.797   0.358  13.560 -0.0095  0.0840 -0.0326
  712MPD2    H510534   2.888   0.360  13.515 -0.4227 -0.0887 -0.8792
  712MPD2    N110535   2.492   0.046  13.774 -0.5799  0.1891  0.7761
  712MPD2    H710536   2.427   0.122  13.793  1.0642  2.3137 -2.0427
  713TMC3    C110537   2.807   0.596  13.546 -0.2082  0.3569  0.1328
  713TMC3    C210538   2.937   0.599  13.515  0.5984 -0.2225  0.9497
  713TMC3    C310539   2.993   0.717  13.468  0.6194 -0.3330 -0.3115
  713TMC3    C410540   2.726   0.703  13.533  0.4688  0.4215 -0.0144
  713TMC3    C510541   2.780   0.820  13.484  0.0519 -1.2727  0.4323
  713TMC3    C610542   2.913   0.834  13.452 -0.0011 -0.3883  0.6668
  713TMC3     C10543   2.734   0.473  13.587 -0.5490  0.5224  0.2738
  713TMC3     O10544   2.630   0.492  13.637 -0.3341 -0.2907 -0.5104
  713TMC3     H10545   2.997   0.512  13.542  1.8165  0.7831  1.4725
  713TMC3    H110546   2.618   0.702  13.543  0.4887  0.4639  0.1923
  713TMC3    H210547   2.956   0.927  13.416 -1.3898 -0.3427 -0.8832
  713TMC3    C710548   2.695   0.932  13.459  0.5141  0.0788  0.1617
  713TMC3    C810549   3.139   0.744  13.488  0.5815 -0.0418 -0.0847
  713TMC3    O110550   2.578   0.921  13.472  0.1549 -0.3285 -0.3771
  713TMC3    O210551   3.186   0.854  13.462 -0.3441  0.3058 -0.5892
  714MPD2     C10552   0.522   3.275   1.089 -0.0277  0.5152  0.2457
  714MPD2    C110553   0.443   3.177   1.139 -0.9979 -0.4937 -0.8972
  714MPD2    C210554   0.310   3.179   1.119 -0.8037 -0.1034 -0.0733
  714MPD2    C310555   0.256   3.272   1.033 -0.0328 -0.3828 -0.3195
  714MPD2    C410556   0.342   3.364   0.969 -0.5371  0.9389  0.3653
  714MPD2    C510557   0.470   3.368   1.005  0.9741  0.8271 -0.1861
  714MPD2     H10558   0.233   3.113   1.156 -1.2394  1.1032  1.1828
  714MPD2    H110559   0.304   3.442   0.905  1.9284  0.4698 -1.6426
  714MPD2    H210560   0.629   3.277   1.105  0.3487  1.8520 -2.4388
  714MPD2    H310561   0.534   3.449   0.973  0.5508  1.6453  1.0305
  714MPD2     N10562   0.116   3.256   1.000 -0.2765  0.1468 -0.1634
  714MPD2    H510563   0.060   3.188   1.051  0.6782 -1.2040 -0.8957
  714MPD2    N110564   0.505   3.081   1.221  0.0955  0.4236  0.2219
  714MPD2    H710565   0.607   3.072   1.219 -0.1664 -2.3898 -0.6554
  715TMC3    C110566   0.541   2.917   1.377 -0.3359 -0.0465  0.2057
  715TMC3    C210567   0.617   2.843   1.292  0.1253 -0.2499  0.6524
  715TMC3    C310568   0.680   2.731   1.346 -0.2980  1.1455 -0.1086
  715TMC3    C410569   0.529   2.896   1.510 -1.0908  0.0680 -0.2616
  715TMC3    C510570   0.600   2.793   1.558 -0.4685  0.2165  0.4993
  715TMC3    C610571   0.677   2.710   1.485  0.4372 -0.2606  0.0640
  715TMC3     C10572   0.443   3.003   1.315 -0.3075 -1.0574 -0.3260
  715TMC3     O10573   0.324   2.994   1.348 -0.4574 -0.4015 -0.3185
  715TMC3     H10574   0.630   2.872   1.188  0.9295 -0.4756  0.6851
  715TMC3    H110575   0.454   2.953   1.565  0.0852  0.1143  1.3086
  715TMC3    H210576   0.719   2.619   1.527 -0.3008 -1.2484 -1.3209
  715TMC3    C710577   0.625   2.783   1.701 -0.1824  0.8576 -0.5837
  715TMC3    C810578   0.720   2.632   1.246 -0.4085 -0.1761  0.6469
  715TMC3    O110579   0.705   2.706   1.737  0.8069  0.0546 -0.5704
  715TMC3    O210580   0.689   2.646   1.130 -0.0351 -0.0948  0.0750
  716MPD2     C10581   0.455   2.096   9.985 -0.6492  0.4089  0.8076
  716MPD2    C110582   0.350   2.025   9.934  0.2939  0.1436 -0.3091
  716MPD2    C210583   0.340   1.890   9.965  0.0386 -0.0690  0.2861
  716MPD2    C310584   0.435   1.825  10.040 -0.1766 -0.0023  0.0910
  716MPD2    C410585   0.547   1.891  10.080  0.6241  0.0917  0.0398
  716MPD2    C510586   0.549   2.028  10.062 -0.3698 -0.3610  0.2119
  716MPD2     H10587   0.247   1.837   9.948  0.2931 -1.0459  2.0024
  716MPD2    H110588   0.637   1.849  10.124 -1.7949 -2.0568  2.9010
  716MPD2    H210589   0.470   2.203   9.970  0.9075  0.3193  1.7486
  716MPD2    H310590   0.643   2.076  10.089 -0.7752  0.8254 -0.5082
  716MPD2     N10591   0.422   1.683  10.049  0.6218  0.3321 -0.3684
  716MPD2    H510592   0.338   1.647  10.005  1.9411 -0.2586 -2.3968
  716MPD2    N110593   0.257   2.105   9.859 -0.3791 -0.1777  0.1287
  716MPD2    H710594   0.273   2.205   9.862  0.8003 -0.2532 -3.1866
  717TMC3    C110595   0.472   1.462  10.108 -0.7558  0.1692  0.2218
  717TMC3    C210596   0.399   1.413   9.998 -0.3613 -0.0364  0.5594
  717TMC3    C310597   0.388   1.279   9.977 -0.5799 -0.3420 -0.4773
  717TMC3    C410598   0.538   1.375  10.189  0.2703 -0.3264 -0.1555
  717TMC3    C510599   0.515   1.237  10.175 -0.2662 -0.3115  0.1773
  717TMC3    C610600   0.439   1.185  10.069  0.6201  0.0378  0.2480
  717TMC3     C10601   0.508   1.597  10.125 -0.4609 -0.4571 -0.1639
  717TMC3     O10602   0.604   1.627  10.199 -0.0643 -0.6336  0.0651
  717TMC3     H10603   0.359   1.482   9.925  1.5069  2.2667  1.6826
  717TMC3    H110604   0.607   1.408  10.265 -0.6476  2.8889 -0.7133
  717TMC3    H210605   0.428   1.079  10.050 -0.7442  0.2053  0.0939
  717TMC3    C710606   0.588   1.134  10.240  0.0727 -0.0969  0.4305
  717TMC3    C810607   0.306   1.245   9.861  1.0193 -0.7025  0.6928
  717TMC3    O110608   0.622   1.039  10.171 -0.2186  0.4946 -0.0094
  717TMC3    O210609   0.220   1.330   9.833  0.0679 -0.4155  0.0749
  718MPD2     C10610   4.231   0.372  13.408 -0.6140  0.1860 -0.1208
  718MPD2    C110611   4.212   0.382  13.268 -0.6266 -0.0409  0.4190
  718MPD2    C210612   4.104   0.333  13.200  0.0637  0.7709 -0.1494
  718MPD2    C310613   4.008   0.273  13.278  1.1932  0.4828 -0.7924
  718MPD2    C410614   4.017   0.264  13.416  0.1194 -0.5973 -0.2029
  718MPD2    C510615   4.130   0.309  13.481 -0.2106  0.0445 -0.1293
  718MPD2     H10616   4.093   0.345  13.093  1.2867  3.1625 -0.0192
  718MPD2    H110617   3.939   0.208  13.467 -0.6526  1.0052  0.3710
  718MPD2    H210618   4.318   0.406  13.464 -0.4351  0.4610 -0.5645
  718MPD2    H310619   4.145   0.284  13.586 -0.5902 -0.0677 -0.0999
  718MPD2     N10620   3.902   0.222  13.202 -0.0006  0.0809  0.2137
  718MPD2    H510621   3.913   0.221  13.101  0.3758  0.5154  0.2502
  718MPD2    N110622   4.304   0.453  13.192  0.0930  0.0193 -0.4890
  718MPD2    H710623   4.274   0.460  13.095  0.5388  2.0277 -0.4816
  719TMC3    C110624   4.490   0.555  13.098 -0.3791  0.9525  0.0184
  719TMC3    C210625   4.432   0.499  12.989  0.3401  0.5212  0.1513
  719TMC3    C310626   4.419   0.581  12.882 -0.8207  0.1203 -0.2222
  719TMC3    C410627   4.548   0.680  13.095 -0.6202  0.1310 -0.3583
  719TMC3    C510628   4.550   0.756  12.981  0.1515  0.3522 -0.2085
  719TMC3    C610629   4.477   0.709  12.872  0.3734 -0.2506  0.4536
  719TMC3     C10630   4.431   0.509  13.223 -0.1037 -0.5724  0.8159
  719TMC3     O10631   4.474   0.548  13.332 -0.0542  0.2437  0.3731
  719TMC3     H10632   4.397   0.397  12.991 -1.0642  0.9836 -1.5179
  719TMC3    H110633   4.579   0.725  13.189 -0.7304 -0.3430 -0.0974
  719TMC3    H210634   4.471   0.755  12.775 -0.4534  0.0947  0.6727
  719TMC3    C710635   4.667   0.838  12.945  0.1125 -0.7236 -0.2102
  719TMC3    C810636   4.275   0.563  12.861  0.4982  0.1946 -0.2005
  719TMC3    O110637   4.641   0.933  12.875  0.0350 -0.2016  0.0510
  719TMC3    O210638   4.217   0.508  12.953  0.0768  1.0980 -0.2134
  720MPD2     C10639   2.931   2.324  13.878 -0.3268 -0.2842 -0.7835
  720MPD2    C110640   3.056   2.317  13.809 -0.2050 -0.7619 -0.4686
  720MPD2    C210641   3.161   2.244  13.864 -0.0061  0.2341  0.3409
  720MPD2    C310642   3.158   2.192  13.994 -0.1601  0.1400  0.4512
  720MPD2    C410643   3.031   2.204  14.058 -0.0799 -0.3878  0.5806
  720MPD2    C510644   2.924   2.271  14.004  0.5602  0.6095 -0.7589
  720MPD2     H10645   3.256   2.233  13.813  0.1035 -1.1644  0.8471
  720MPD2    H110646   3.012   2.166  14.158 -1.2402  0.8890  0.8585
  720MPD2    H210647   2.842   2.381  13.851  0.0783  0.8089  0.1471
  720MPD2    H310648   2.829   2.258  14.054  1.2178 -3.2120 -0.5342
  720MPD2     N10649   3.272   2.126  14.036  0.3273  0.6917  0.0496
  720MPD2    H510650   3.352   2.116  13.975  1.4432  1.4185  1.3960
  720MPD2    N110651   3.072   2.372  13.678  0.3622 -0.3147 -0.1932
  720MPD2    H710652   3.144   2.340  13.614  2.6680  1.6173  1.4433
  721TMC3    C110653   3.406   2.002  14.187 -0.2885 -0.3340  0.5206
  721TMC3    C210654   3.395   1.916  14.291 -0.6256 -0.3338  0.1837
  721TMC3    C310655   3.498   1.891  14.375  0.1286 -0.0953 -0.6056
  721TMC3    C410656   3.519   2.062  14.167 -0.0843 -0.5390 -0.3710
  721TMC3    C510657   3.632   2.035  14.244  0.4130  0.9933 -0.0640
  721TMC3    C610658   3.616   1.952  14.359 -0.2685  0.3061  0.5069
  721TMC3     C10659   3.279   2.072  14.165  1.0589  0.0458  0.2711
  721TMC3     O10660   3.203   2.070  14.258  0.3736 -0.0847  0.0505
  721TMC3     H10661   3.312   1.846  14.291  0.0707 -1.1616  2.3345
  721TMC3    H110662   3.526   2.130  14.082  2.8921 -0.8935 -0.4373
  721TMC3    H210663   3.695   1.923  14.428 -0.9170  0.5057  1.3240
  721TMC3    C710664   3.764   2.085  14.208  0.1346 -1.0000  0.9775
  721TMC3    C810665   3.491   1.785  14.476 -0.4248  0.1258 -0.8730
  721TMC3    O110666   3.771   2.182  14.137  0.0217  0.9543 -0.9975
  721TMC3    O210667   3.595   1.727  14.508  0.0321 -0.8513  0.3120
  722MPD2     C10668   1.802   0.893  13.061 -0.2004 -0.3919  0.2877
  722MPD2    C110669   1.810   1.008  12.976  0.4865 -0.1195  0.5431
  722MPD2    C210670   1.711   1.024  12.883 -1.0652 -0.3653 -0.0280
  722MPD2    C310671   1.603   0.939  12.879 -0.0785 -0.1795 -0.3442
  722MPD2    C410672   1.597   0.828  12.966  0.1828  1.0379 -0.1115
  722MPD2    C510673   1.697   0.807  13.058 -0.4524  0.0056 -0.3327
  722MPD2     H10674   1.727   1.109  12.817  0.2649 -0.6834 -0.1231
  722MPD2    H110675   1.509   0.764  12.972  2.8131 -2.6779 -1.4315
  722MPD2    H210676   1.883   0.871  13.129 -0.4054 -3.4222 -0.4321
  722MPD2    H310677   1.693   0.719  13.121  0.0292 -0.3922 -0.8580
  722MPD2     N10678   1.487   0.959  12.800 -0.3984 -0.2597 -0.4887
  722MPD2    H510679   1.407   0.902  12.824  1.1722 -1.9527  0.8167
  722MPD2    N110680   1.898   1.118  12.978  0.0553 -0.2356 -0.1456
  722MPD2    H710681   1.891   1.193  12.911 -2.5476  0.7707  1.2478
  723TMC3    C110682   1.329   1.089  12.686 -0.7830 -0.4214  0.2644
  723TMC3    C210683   1.238   0.982  12.666 -0.1903  0.0989 -0.4166
  723TMC3    C310684   1.115   1.013  12.614 -0.3058  0.2172  0.5307
  723TMC3    C410685   1.279   1.216  12.665 -0.5365 -0.5854 -0.8527
  723TMC3    C510686   1.160   1.238  12.610 -0.2756  0.0736 -0.1495
  723TMC3    C610687   1.070   1.140  12.590  0.3725 -0.5571  0.0870
  723TMC3     C10688   1.468   1.075  12.722  0.0828 -0.2662 -0.7477
  723TMC3     O10689   1.548   1.158  12.688  0.3717  0.1774 -0.5097
  723TMC3     H10690   1.282   0.883  12.673  0.9692  0.6490  0.0458
  723TMC3    H110691   1.351   1.297  12.653  1.3878 -2.1461  0.1584
  723TMC3    H210692   0.984   1.170  12.532  1.6104  0.6900 -1.0950
  723TMC3    C710693   1.124   1.378  12.581  0.0456  0.4249  1.1735
  723TMC3    C810694   1.011   0.911  12.604 -0.3169 -0.1459 -0.4568
  723TMC3    O110695   1.039   1.393  12.491  0.2362  0.5535 -0.4898
  723TMC3    O210696   0.896   0.953  12.586  0.1934 -0.5576  0.5912
  724TMC3    C110697   1.786   1.000   9.473 -0.5661  0.2729 -0.4367
  724TMC3    C210698   1.668   0.927   9.456  0.4252 -0.4519  0.6051
  724TMC3    C310699   1.682   0.793   9.444 -0.2646  0.3077 -0.2308
  724TMC3    C410700   1.904   0.933   9.499  0.3687  0.1791  0.7719
  724TMC3    C510701   1.904   0.800   9.493 -0.2474 -0.2178 -0.1121
  724TMC3    C610702   1.790   0.729   9.468 -0.4018 -0.3075  0.4153
  724TMC3     C10703   1.793   1.142   9.477 -0.2218 -0.0203 -0.4544
  724TMC3     O10704   1.894   1.196   9.524 -0.5067 -0.5495  0.3932
  724TMC3     H10705   1.580   0.973   9.412 -0.0105 -0.4804  1.4513
  724TMC3    H110706   1.995   0.991   9.504  1.9068 -2.2128  0.7293
  724TMC3    H210707   1.797   0.621   9.470  0.6864 -0.2661 -1.5509
  724TMC3    C710708   2.015   0.736   9.551 -0.2815 -0.3956 -0.3953
  724TMC3    C810709   1.556   0.730   9.424  0.9983  0.2981  0.2819
  724TMC3    O110710   2.038   0.615   9.534  0.3013  0.4370  0.6769
  724TMC3    O210711   1.464   0.799   9.463  0.2706  0.5767  0.3161
  725TMC3    C110712   3.391   2.591  12.965  0.3520 -0.0232 -0.0081
  725TMC3    C210713   3.289   2.563  12.880 -0.1435  0.5130  0.2881
  725TMC3    C310714   3.271   2.430  12.839  0.2806  0.0246  1.1845
  725TMC3    C410715   3.497   2.502  12.975 -0.7723 -0.7799  0.9122
  725TMC3    C510716   3.481   2.375  12.916  0.0672 -0.3609 -0.0858
  725TMC3    C610717   3.363   2.332  12.853  0.7454  0.5430  1.1146
  725TMC3     C10718   3.418   2.725  13.022  0.9323 -0.4403 -0.1330
  725TMC3     O10719   3.341   2.815  12.987 -0.8321 -0.0049 -0.4347
  725TMC3     H10720   3.214   2.638  12.857  0.6858  0.6521 -1.9415
  725TMC3    H110721   3.595   2.528  13.013 -0.2257 -0.9352 -0.3991
  725TMC3    H210722   3.350   2.236  12.804  1.6645  1.7703 -1.4996
  725TMC3    C710723   3.597   2.290  12.902  0.3111  0.3491  0.4720
  725TMC3    C810724   3.186   2.406  12.720 -0.1152  0.0206  0.5321
  725TMC3    O110725   3.708   2.343  12.914  0.2172  0.1444 -0.1106
  725TMC3    O210726   3.145   2.292  12.697 -0.1875  0.0751 -0.0609
  726MPD2     C10727   1.655   4.350  10.915 -0.0690  0.3385 -0.0758
  726MPD2    C110728   1.559   4.449  10.911  0.0501  0.3217 -0.3531
  726MPD2    C210729   1.436   4.415  10.956 -0.4508 -0.0022  0.1513
  726MPD2    C310730   1.409   4.287  10.997  0.1090 -0.2599 -0.3891
  726MPD2    C410731   1.505   4.193  11.011  0.0995 -0.2824  0.1777
  726MPD2    C510732   1.629   4.223  10.965 -0.6889  0.2415  0.4995
  726MPD2     H10733   1.349   4.480  10.946  0.0208  0.8398  1.5335
  726MPD2    H110734   1.484   4.092  11.045  0.9691 -0.6469 -0.3663
  726MPD2    H210735   1.756   4.371  10.882  0.2352 -2.5501 -1.0217
  726MPD2    H310736   1.717   4.162  10.981 -0.3560  0.3152 -1.0913
  726MPD2     N10737   1.281   4.241  11.031 -0.6031 -0.1827  0.0972
  726MPD2    H510738   1.270   4.159  11.090 -1.6722 -0.7732 -0.9265
  726MPD2    N110739   1.567   4.587  10.881  0.0996  0.9589  0.0954
  726MPD2    H710740   1.478   4.634  10.893 -0.3960 -0.1390  0.6585
  727TMC3    C110741   1.656   0.053  10.775  0.5555  0.0484  0.4203
  727TMC3    C210742   1.775   0.118  10.757  0.3828  0.4653  0.1936
  727TMC3    C310743   1.776   0.204  10.648 -0.7519  0.3576  0.6162
  727TMC3    C410744   1.546   0.063  10.694  0.1215  0.1955 -1.0933
  727TMC3    C510745   1.560   0.137  10.577 -0.3375  0.1337 -0.0896
  727TMC3    C610746   1.670   0.215  10.558 -0.0352 -0.4450 -0.1024
  727TMC3     C10747   1.680   4.653  10.844 -0.2009 -0.0705 -0.1507
  727TMC3     O10748   1.797   4.612  10.844 -0.7110 -0.0640 -0.5133
  727TMC3     H10749   1.851   0.127  10.834  2.8457 -1.0344 -2.0537
  727TMC3    H110750   1.461   4.722  10.714  0.4506 -0.8881 -3.1272
  727TMC3    H210751   1.686   0.277  10.471 -3.9838 -1.3520 -1.5077
  727TMC3    C710752   1.454   0.167  10.484  0.0570  0.5957  0.4454
  727TMC3    C810753   1.896   0.283  10.620 -0.2796  0.0946  0.5062
  727TMC3    O110754   1.457   0.277  10.433  0.6487 -0.1482 -0.0733
  727TMC3    O210755   2.000   0.247  10.679  0.4271  0.2938 -0.8708
  728TMC3    C110756   1.161   2.676  15.126  0.4396  0.2303  0.5653
  728TMC3    C210757   1.274   2.731  15.078  0.1053  0.4178 -0.7904
  728TMC3    C310758   1.274   2.805  14.965  0.7033  0.3263  0.7080
  728TMC3    C410759   1.044   2.687  15.054  0.2389  0.8569  0.0356
  728TMC3    C510760   1.050   2.765  14.941  0.1472  0.2580  0.0679
  728TMC3    C610761   1.162   2.834  14.899  0.2976 -0.9094  0.4446
  728TMC3     C10762   1.169   2.605  15.254 -0.2203 -0.3784 -0.3231
  728TMC3     O10763   1.270   2.613  15.323 -0.1559  0.9057  0.0421
  728TMC3     H10764   1.370   2.712  15.124 -1.1251 -1.1580  1.1475
  728TMC3    H110765   0.950   2.645  15.085  0.7323  0.7182  1.3423
  728TMC3    H210766   1.174   2.884  14.803 -0.5754  0.0077  0.8097
  728TMC3    C710767   0.921   2.824  14.899  0.3154 -0.0788 -0.4363
  728TMC3    C810768   1.393   2.860  14.920  0.5290 -0.3426  0.7833
  728TMC3    O110769   0.825   2.749  14.912 -0.4492  0.0664  0.3863
  728TMC3    O210770   1.480   2.774  14.905 -0.3305 -0.6999  0.8720
  729MPD2     C10771   3.090   3.612  16.407 -0.1638 -0.8192  0.3690
  729MPD2    C110772   3.217   3.581  16.451  0.2872 -0.6910  0.0799
  729MPD2    C210773   3.241   3.502  16.560  0.3530 -0.3989  0.4123
  729MPD2    C310774   3.126   3.439  16.623  0.4934 -0.2848 -0.6480
  729MPD2    C410775   3.003   3.455  16.564  0.5454  0.6701 -0.0796
  729MPD2    C510776   2.979   3.542  16.459  0.4198 -0.5275  0.4731
  729MPD2     H10777   3.344   3.498  16.594  0.0967  2.0364  1.4841
  729MPD2    H110778   2.922   3.405  16.617  0.8333  0.9858  0.6516
  729MPD2    H210779   3.081   3.690  16.332  0.6602  1.0672  2.2135
  729MPD2    H310780   2.881   3.573  16.425  0.6976  1.2366  1.2557
  729MPD2     N10781   3.145   3.365  16.740 -0.1440  0.0804  0.0152
  729MPD2    H510782   3.064   3.317  16.778  1.4738 -2.2172  0.5633
  729MPD2    N110783   3.316   3.640  16.369 -0.3592 -0.0169 -0.7170
  729MPD2    H710784   3.285   3.701  16.294 -1.4346 -1.7433 -1.6572
  730TMC3    C110785   3.244   3.277  16.926  1.3856 -0.4057 -0.4982
  730TMC3    C210786   3.338   3.178  16.938 -0.2832 -0.0483  0.3321
  730TMC3    C310787   3.424   3.171  17.047  0.4770 -0.6257 -0.9071
  730TMC3    C410788   3.226   3.363  17.033  0.2011  0.2003  0.8358
  730TMC3    C510789   3.296   3.350  17.150  0.4047 -0.1354 -0.4741
  730TMC3    C610790   3.395   3.250  17.158  0.8001 -0.4326 -0.1904
  730TMC3     C10791   3.264   3.345  16.806 -0.6862  0.2340 -0.4517
  730TMC3     O10792   3.379   3.348  16.765  0.1274 -0.5415  0.3244
  730TMC3     H10793   3.353   3.127  16.844  2.5259  0.9409  0.2539
  730TMC3    H110794   3.148   3.437  17.023  0.2753  0.2664  0.7401
  730TMC3    H210795   3.464   3.258  17.241 -1.6824  1.4805  1.7098
  730TMC3    C710796   3.314   3.465  17.244  0.4931  0.5412  0.2043
  730TMC3    C810797   3.555   3.172  17.012  0.2668  0.9070 -0.0857
  730TMC3    O110798   3.371   3.437  17.350  0.9882 -0.3645 -0.3068
  730TMC3    O210799   3.588   3.082  16.932  1.0526 -0.1545  0.7274
  731MPD2     C10800   3.668   1.399  11.952  0.2754  0.0585  0.4193
  731MPD2    C110801   3.630   1.492  12.045 -0.3915  0.1673 -0.6710
  731MPD2    C210802   3.673   1.476  12.175  0.1658  0.0093 -0.3086
  731MPD2    C310803   3.761   1.379  12.218  0.0227  0.4284  0.6862
  731MPD2    C410804   3.809   1.296  12.121 -0.5275 -0.2464  0.4596
  731MPD2    C510805   3.758   1.298  11.994  0.2265  0.4361 -0.4636
  731MPD2     H10806   3.652   1.546  12.255 -0.1195 -3.2598  2.4701
  731MPD2    H110807   3.882   1.219  12.142 -0.7561  0.0560  2.2953
  731MPD2    H210808   3.634   1.394  11.850  0.2810  2.3726  0.2927
  731MPD2    H310809   3.781   1.228  11.914 -1.3635 -1.9383  1.1293
  731MPD2     N10810   3.807   1.363  12.352 -0.5940 -0.3225 -0.1652
  731MPD2    H510811   3.761   1.417  12.425  1.2165  1.9937 -0.7065
  731MPD2    N110812   3.547   1.598  12.006  0.9738  0.0474  0.2718
  731MPD2    H710813   3.521   1.608  11.909  0.8603 -1.8426  0.1086
  732TMC3    C110814   3.435   1.809  12.006  0.5326 -0.7412  0.3184
  732TMC3    C210815   3.373   1.775  11.892 -0.5702 -0.7348  0.2403
  732TMC3    C310816   3.356   1.870  11.792  0.2242  0.1629 -0.2483
  732TMC3    C410817   3.498   1.927  12.013 -0.0264  0.0617  0.3367
  732TMC3    C510818   3.502   2.014  11.907 -0.0441 -0.5504  0.4447
  732TMC3    C610819   3.429   1.989  11.796  0.1474  0.0542 -0.9637
  732TMC3     C10820   3.500   1.705  12.082  0.0736 -0.3750  0.0867
  732TMC3     O10821   3.503   1.730  12.203 -0.2260  0.3440  0.2581
  732TMC3     H10822   3.326   1.679  11.875  2.1915 -2.1006  0.3668
  732TMC3    H110823   3.557   1.949  12.101 -0.1776 -0.0437  0.4638
  732TMC3    H210824   3.417   2.070  11.724  0.0581  1.1265  0.2624
  732TMC3    C710825   3.574   2.138  11.919 -0.8665 -0.0898 -0.1784
  732TMC3    C810826   3.213   1.883  11.748  0.0421  0.5715 -0.2574
  732TMC3    O110827   3.526   2.228  11.855  0.0386 -0.5107 -0.0001
  732TMC3    O210828   3.128   1.808  11.794  0.2099 -0.5313 -0.2177
  733TMC3    C110829   3.472   0.202  13.049 -0.1319  0.1684  0.5953
  733TMC3    C210830   3.557   0.171  13.150 -0.0633  0.3286 -1.2496
  733TMC3    C310831   3.686   0.219  13.142  1.0282 -0.1560 -1.2008
  733TMC3    C410832   3.500   0.283  12.939 -1.2438  0.5064 -0.3277
  733TMC3    C510833   3.626   0.341  12.941  0.3734  0.2142  0.0474
  733TMC3    C610834   3.718   0.313  13.045  0.7438  0.0104  0.0628
  733TMC3     C10835   3.326   0.185  13.071  0.0603  0.3998 -0.1539
  733TMC3     O10836   3.262   0.261  12.996 -0.3013  0.3697 -0.0079
  733TMC3     H10837   3.525   0.116  13.237  2.1431  0.6773 -0.2225
  733TMC3    H110838   3.430   0.302  12.858  1.2985  1.0827 -2.3767
  733TMC3    H210839   3.816   0.356  13.030  0.3327  0.0485 -2.6653
  733TMC3    C710840   3.673   0.399  12.818  0.0191  0.1330  0.3887
  733TMC3    C810841   3.780   0.183  13.241  0.1048 -0.1580 -0.9513
  733TMC3    O110842   3.608   0.374  12.716  0.0865 -0.0873  0.1559
  733TMC3    O210843   3.737   0.155  13.349  0.0674  0.3240 -0.0544
  734MPD2     C10844   1.073   2.658  12.412  0.2992 -0.5183  0.1606
  734MPD2    C110845   1.104   2.581  12.301  0.5318  0.2918 -0.3355
  734MPD2    C210846   1.187   2.634  12.209  0.5385  0.7678 -0.5176
  734MPD2    C310847   1.251   2.761  12.226 -0.3878 -0.0194 -0.2693
  734MPD2    C410848   1.205   2.841  12.337 -0.4623  0.1236 -0.3342
  734MPD2    C510849   1.130   2.778  12.436  0.2576  0.4244 -0.7504
  734MPD2     H10850   1.215   2.578  12.121  0.0111 -0.7198  0.2624
  734MPD2    H110851   1.239   2.942  12.353 -1.0094  0.6838 -2.6485
  734MPD2    H210852   1.004   2.627  12.490 -0.6473 -1.9181 -1.2333
  734MPD2    H310853   1.102   2.837  12.522  1.6210 -0.3560  0.2119
  734MPD2     N10854   1.348   2.792  12.127 -0.2885  0.0223 -0.2739
  734MPD2    H510855   1.381   2.712  12.074  0.2683 -0.0347  0.1620
  734MPD2    N110856   1.042   2.453  12.285  0.1629  0.0187 -0.1200
  734MPD2    H710857   0.976   2.432  12.359 -2.0980 -0.4247 -2.2632
  735TMC3    C110858   0.934   2.288  12.165 -0.3380 -0.1143  0.3079
  735TMC3    C210859   0.901   2.272  12.035 -0.3906 -0.0159 -0.0483
  735TMC3    C310860   0.921   2.148  11.979  0.0089  0.5614 -0.1104
  735TMC3    C410861   0.990   2.194  12.244  0.7176  0.3871  0.4356
  735TMC3    C510862   1.025   2.074  12.178 -0.1560 -0.1256  0.0983
  735TMC3    C610863   0.978   2.051  12.049  0.6972  0.8258 -0.1109
  735TMC3     C10864   1.019   2.398  12.160  0.3719 -1.1354  0.3687
  735TMC3     O10865   1.044   2.443  12.050  0.4351 -0.6801  0.6294
  735TMC3     H10866   0.844   2.344  11.977 -0.2368  0.1751  0.0379
  735TMC3    H110867   1.007   2.218  12.349 -1.1278  0.5639  0.6875
  735TMC3    H210868   1.008   1.957  12.004  0.1186 -0.2621  1.7628
  735TMC3    C710869   1.162   2.045  12.195 -0.5597  0.7087  0.4274
  735TMC3    C810870   0.965   2.144  11.842  0.1376 -0.2067 -0.1794
  735TMC3    O110871   1.224   2.014  12.090 -0.1519 -0.3040  0.3173
  735TMC3    O210872   0.977   2.032  11.791 -0.7380 -0.2704 -0.1067
  736MPD2     C10873   1.381   2.145  12.476  0.1000 -0.0284  0.2777
  736MPD2    C110874   1.351   2.106  12.345 -0.7439  0.4235  0.8887
  736MPD2    C210875   1.456   2.083  12.254 -0.0294 -0.1845 -0.1957
  736MPD2    C310876   1.585   2.112  12.299  0.0712  0.3366 -0.0963
  736MPD2    C410877   1.612   2.151  12.428  0.6656  0.2818  0.5505
  736MPD2    C510878   1.513   2.159  12.512  0.5956 -0.9710  0.0350
  736MPD2     H10879   1.445   2.058  12.149  1.7123 -2.2979  0.1176
  736MPD2    H110880   1.713   2.172  12.461  1.6731 -0.3087 -2.1530
  736MPD2    H210881   1.310   2.162  12.556 -2.4712 -0.4789 -1.8910
  736MPD2    H310882   1.536   2.172  12.617 -1.0245  0.1552  0.2402
  736MPD2     N10883   1.704   2.102  12.221 -0.4525 -0.5020  0.1421
  736MPD2    H510884   1.788   2.135  12.267 -1.0524 -1.0776  1.6870
  736MPD2    N110885   1.211   2.094  12.316  0.1261  0.6303 -0.2922
  736MPD2    H710886   1.137   2.105  12.385  0.7245 -1.4765  0.6681
  737TMC3    C110887   1.838   2.102  12.026  0.2548  0.0293 -0.2031
  737TMC3    C210888   1.882   2.233  12.052 -0.3274 -0.2087 -0.4846
  737TMC3    C310889   1.976   2.277  11.963  0.0980  0.1564  0.3583
  737TMC3    C410890   1.878   2.026  11.922  1.1333 -0.3611  0.7225
  737TMC3    C510891   1.985   2.080  11.851  0.6953  0.2618  0.0768
  737TMC3    C610892   2.033   2.207  11.859 -0.6902 -0.7812  0.7638
  737TMC3     C10893   1.711   2.069  12.086 -0.8173  0.1145  0.4347
  737TMC3     O10894   1.624   2.016  12.014  0.7184 -0.3239  0.2035
  737TMC3     H10895   1.829   2.301  12.117  0.6846 -0.1309  0.2612
  737TMC3    H110896   1.868   1.918  11.922 -3.3068  0.0683  1.1234
  737TMC3    H210897   2.123   2.238  11.807 -0.7735 -0.5593  0.7508
  737TMC3    C710898   2.059   1.992  11.760  0.1319 -0.1701 -1.0384
  737TMC3    C810899   2.002   2.416  11.969  0.0655  0.6788  0.9523
  737TMC3    O110900   2.049   1.870  11.781  0.2774 -0.2988  0.1074
  737TMC3    O210901   1.977   2.468  12.074  0.1007  0.3233  0.0380
  738MPD2     C10902   2.035   1.180  15.523  0.0865  0.0399  0.5590
  738MPD2    C110903   2.051   1.107  15.411 -0.8203  0.1896  0.1610
  738MPD2    C210904   2.121   1.142  15.305 -0.1857 -0.5474  0.3839
  738MPD2    C310905   2.193   1.266  15.313 -0.1430 -0.5343  0.1536
  738MPD2    C410906   2.196   1.337  15.435  0.1574 -0.2203 -0.7623
  738MPD2    C510907   2.110   1.293  15.534 -0.2386  0.1522  1.2089
  738MPD2     H10908   2.127   1.077  15.219 -2.4516  0.0889 -0.2426
  738MPD2    H110909   2.259   1.425  15.445 -0.8026  0.1889  1.6886
  738MPD2    H210910   1.969   1.144  15.601 -0.5699 -1.1256 -0.5443
  738MPD2    H310911   2.093   1.356  15.621  1.8507  3.5542 -0.8486
  738MPD2     N10912   2.270   1.329  15.213 -0.1694 -0.4422  0.8901
  738MPD2    H510913   2.328   1.404  15.249  0.8869 -1.0950  0.5526
  738MPD2    N110914   1.983   0.983  15.396  0.2829 -0.3659  0.7896
  738MPD2    H710915   1.986   0.940  15.304  1.3074 -1.8163  1.4889
  739TMC3    C110916   2.362   1.379  15.009 -0.6966  0.0904  0.3036
  739TMC3    C210917   2.412   1.334  14.890 -0.3282  0.4560  0.0755
  739TMC3    C310918   2.509   1.403  14.830 -0.1529 -0.6756  0.3351
  739TMC3    C410919   2.415   1.488  15.069 -0.4661  0.4054  0.5847
  739TMC3    C510920   2.517   1.554  15.008 -0.0947  0.1671 -0.4958
  739TMC3    C610921   2.566   1.516  14.885 -0.7209 -0.2474 -0.3175
  739TMC3     C10922   2.274   1.292  15.079 -0.0924 -0.4614  0.3454
  739TMC3     O10923   2.215   1.202  15.018  0.0585  0.6947 -0.1919
  739TMC3     H10924   2.382   1.238  14.849 -1.5955 -0.0816  2.2639
  739TMC3    H110925   2.367   1.539  15.152 -0.2129  1.4798  0.0695
  739TMC3    H210926   2.648   1.572  14.842  2.4927 -3.6030  1.4726
  739TMC3    C710927   2.544   1.683  15.050 -0.1017 -0.0952  0.0576
  739TMC3    C810928   2.549   1.375  14.695 -0.4515 -0.5549  0.0876
  739TMC3    O110929   2.576   1.771  14.969 -0.2821  0.4207  0.1781
  739TMC3    O210930   2.455   1.359  14.622  0.0233  0.7580  0.7027
  740TMC3    C110931   3.134   2.536  14.353 -0.1085  0.1876  0.9401
  740TMC3    C210932   3.185   2.447  14.447 -0.0069 -0.6443  0.0388
  740TMC3    C310933   3.302   2.379  14.413  0.5816  0.7368  0.1046
  740TMC3    C410934   3.198   2.562  14.234 -0.5508 -0.2930 -0.0068
  740TMC3    C510935   3.311   2.485  14.205 -0.6767  0.3881 -0.2309
  740TMC3    C610936   3.359   2.385  14.286  0.2029  0.3331  0.1881
  740TMC3     C10937   3.024   2.625  14.391  0.0223 -0.8888 -0.5680
  740TMC3     O10938   3.020   2.733  14.335 -0.0425 -0.3514 -0.2881
  740TMC3     H10939   3.142   2.433  14.546 -1.1045  2.1747 -0.0497
  740TMC3    H110940   3.166   2.639  14.166 -2.5627 -1.6810 -0.6426
  740TMC3    H210941   3.438   2.315  14.261 -1.4997 -0.7904 -2.0909
  740TMC3    C710942   3.379   2.483  14.078  0.3717  0.0210 -0.1230
  740TMC3    C810943   3.345   2.274  14.505 -0.3274  0.3613 -0.4471
  740TMC3    O110944   3.481   2.414  14.072 -0.0507  0.4852  0.1529
  740TMC3    O210945   3.250   2.231  14.571 -0.3840  0.0782 -0.2853
  741TMC3    C110946   2.791   2.149  13.555  0.6029 -0.6130  0.0865
  741TMC3    C210947   2.701   2.112  13.645 -0.5529 -0.4312  0.0571
  741TMC3    C310948   2.736   2.042  13.760  0.6769 -0.2762 -0.6434
  741TMC3    C410949   2.915   2.106  13.573 -0.1081  0.9703 -0.1780
  741TMC3    C510950   2.946   2.021  13.675 -0.2285  0.0333  0.4944
  741TMC3    C610951   2.855   1.987  13.775  0.5581 -0.9179 -0.2790
  741TMC3     C10952   2.763   2.204  13.422  0.3913 -0.6128 -0.7923
  741TMC3     O10953   2.855   2.224  13.344  0.5913 -0.7942 -0.1479
  741TMC3     H10954   2.597   2.145  13.646  0.1361  1.8155 -3.7391
  741TMC3    H110955   2.994   2.141  13.507  1.3792 -2.2978 -0.1068
  741TMC3    H210956   2.882   1.921  13.857 -2.6493  1.4347  2.6805
  741TMC3    C710957   3.080   1.966  13.684  1.1777 -0.0214  0.3442
  741TMC3    C810958   2.621   1.992  13.830  0.1857  1.0635  0.1304
  741TMC3    O110959   3.153   2.017  13.601 -0.1045  0.4815 -0.0226
  741TMC3    O210960   2.510   2.009  13.790 -0.1718 -0.1140  0.8144
  742TMC3    C110961   2.631   0.483  15.330 -0.5852 -0.5365 -0.1985
  742TMC3    C210962   2.586   0.480  15.195  0.3735 -0.5047  0.1631
  742TMC3    C310963   2.593   0.355  15.135  0.3097  0.7683 -0.3544
  742TMC3    C410964   2.686   0.373  15.396 -0.0291  0.4119 -0.0676
  742TMC3    C510965   2.692   0.256  15.322  0.4862  0.3614 -0.5085
  742TMC3    C610966   2.649   0.241  15.193  0.4064  0.1788 -0.9985
  742TMC3     C10967   2.635   0.621  15.380 -0.3279  0.2993  0.5774
  742TMC3     O10968   2.586   0.715  15.316 -0.1970  0.0347  0.6407
  742TMC3     H10969   2.519   0.555  15.156  0.4252 -2.1467 -3.1439
  742TMC3    H110970   2.742   0.388  15.488 -0.2456 -0.2639  0.1716
  742TMC3    H210971   2.641   0.149  15.136 -0.7760  0.6280 -1.5627
  742TMC3    C710972   2.771   0.144  15.363  0.7236  0.5603  0.4697
  742TMC3    C810973   2.501   0.326  15.020  0.1052  0.7241  0.5691
  742TMC3    O110974   2.809   0.054  15.290  0.2895  0.2187 -0.1864
  742TMC3    O210975   2.472   0.206  14.998 -0.0348  0.0945 -0.0644
  743MPD2     C10976   1.104   0.859   1.717  0.6462 -0.1641 -0.2246
  743MPD2    C110977   1.039   0.854   1.596 -0.2078  0.0951 -0.6106
  743MPD2    C210978   1.117   0.886   1.490  0.2046 -0.0597  0.1707
  743MPD2    C310979   1.253   0.903   1.495 -0.8953  0.0258 -0.6916
  743MPD2    C410980   1.320   0.884   1.612  0.7799 -0.5519  0.0876
  743MPD2    C510981   1.243   0.864   1.718 -0.1302  0.0553 -0.1962
  743MPD2     H10982   1.071   0.912   1.396 -1.5004  1.3019  1.3863
  743MPD2    H110983   1.429   0.885   1.614  0.7726  0.1609  0.1812
  743MPD2    H210984   1.051   0.841   1.810  1.9674 -0.1309  0.5343
  743MPD2    H310985   1.295   0.870   1.813  1.1284 -1.7735 -0.7655
  743MPD2     N10986   1.319   0.948   1.373  0.2281  0.8558 -0.1117
  743MPD2    H510987   1.268   0.942   1.285 -0.0704  0.5578  0.0830
  743MPD2    N110988   0.896   0.848   1.592 -0.6789  0.1979  0.5382
  743MPD2    H710989   0.842   0.858   1.678 -0.9364 -0.3439  0.4356
  744TMC3    C110990   0.694   0.873   1.456 -0.6134  1.2386  0.2338
  744TMC3    C210991   0.646   0.967   1.546  0.2475  0.1408  0.6126
  744TMC3    C310992   0.528   1.024   1.517 -0.4238 -0.0484  0.3574
  744TMC3    C410993   0.642   0.853   1.331 -0.2637  0.7368  0.0188
  744TMC3    C510994   0.525   0.917   1.311 -0.3063 -0.2451  0.0539
  744TMC3    C610995   0.460   0.996   1.404 -0.1481  0.5877 -0.0207
  744TMC3     C10996   0.835   0.833   1.467  0.1673  0.2324 -0.0912
  744TMC3     O10997   0.887   0.783   1.366  0.5669  0.2698 -0.0958
  744TMC3     H10998   0.706   1.009   1.625 -1.9284  2.3103  1.1213
  744TMC3    H110999   0.669   0.778   1.258  1.8755  0.7323  0.8393
  744TMC3    H211000   0.372   1.048   1.366 -0.6471  2.1310  3.2411
  744TMC3    C711001   0.446   0.868   1.200 -0.3773 -0.2357 -0.9120
  744TMC3    C811002   0.462   1.106   1.620  0.4429 -0.4118 -0.6141
  744TMC3    O111003   0.330   0.840   1.224  0.0496  0.2535 -0.3986
  744TMC3    O211004   0.373   1.174   1.569  0.2821  0.1042  0.2675
  745TMC3    C111005   2.311   4.648  13.871 -0.1113 -0.3785  0.0645
  745TMC3    C211006   2.304   4.595  13.998 -0.7572  0.1533  0.7376
  745TMC3    C311007   2.213   4.652  14.085  0.2165  0.1453 -0.6302
  745TMC3    C411008   2.232   0.021  13.820  0.2057 -0.4624  0.4412
  745TMC3    C511009   2.150   0.078  13.915 -0.2142  0.5792  0.2624
  745TMC3    C611010   2.148   0.040  14.047  1.1347  0.4753  0.2943
  745TMC3     C11011   2.445   4.649  13.818  0.3907 -0.9581  0.0895
  745TMC3     O11012   2.499   4.540  13.828  0.4074 -1.0307 -0.1330
  745TMC3     H11013   2.374   4.523  14.037 -0.9652 -1.8451 -2.6115
  745TMC3    H111014   2.248   0.051  13.717 -1.8680 -0.1057  0.2062
  745TMC3    H211015   2.089   0.098  14.117 -0.5944 -0.3335 -0.4763
  745TMC3    C711016   2.104   0.215  13.887  0.0724 -0.1892 -0.6076
  745TMC3    C811017   2.231   4.662  14.224 -0.3842 -0.2044 -0.5436
  745TMC3    O111018   2.090   0.296  13.974 -0.8422  0.0505 -0.2768
  745TMC3    O211019   2.139   4.615  14.288  0.0024  0.6068 -0.3289
  746TMC3    C111020   0.516   2.406  10.588 -0.5600 -0.6158  0.1243
  746TMC3    C211021   0.543   2.419  10.456 -0.1586  0.0206  0.4573
  746TMC3    C311022   0.454   2.372  10.367  0.4859 -0.5957 -0.4835
  746TMC3    C411023   0.406   2.338  10.629  0.7868  0.6626  0.3149
  746TMC3    C511024   0.318   2.294  10.535 -0.4165  0.8140  0.0720
  746TMC3    C611025   0.340   2.306  10.398 -0.3103  0.2325 -0.6394
  746TMC3     C11026   0.588   2.474  10.682  1.2276 -0.4700 -0.0878
  746TMC3     O11027   0.567   2.437  10.798  0.4197  0.6224  0.1913
  746TMC3     H11028   0.639   2.455  10.420  0.1563 -0.1550  1.1098
  746TMC3    H111029   0.379   2.350  10.733 -1.3960  2.1324 -0.4113
  746TMC3    H211030   0.264   2.279  10.325  2.1719 -3.1275 -1.9637
  746TMC3    C711031   0.193   2.233  10.580 -0.3019 -0.2982 -0.1910
  746TMC3    C811032   0.441   2.459  10.247  0.1966  0.1020  0.2619
  746TMC3    O111033   0.107   2.199  10.500 -0.4638  0.0060 -0.1565
  746TMC3    O211034   0.365   2.422  10.156  0.3249  0.3692  0.0381
  747TMC3    C111035   2.532   2.489  11.138 -0.8044 -0.3689  0.2639
  747TMC3    C211036   2.492   2.360  11.169  0.2668  0.5656  0.1728
  747TMC3    C311037   2.585   2.273  11.187 -0.9134 -0.1637  0.4001
  747TMC3    C411038   2.658   2.530  11.131 -0.6236  0.5968  0.6301
  747TMC3    C511039   2.753   2.438  11.147  0.0954 -0.3522 -0.3466
  747TMC3    C611040   2.728   2.305  11.167 -0.8575  0.3815  0.0788
  747TMC3     C11041   2.437   2.570  11.072 -0.3660 -0.4841 -0.3460
  747TMC3     O11042   2.473   2.682  11.044 -0.1471 -0.3971 -0.4514
  747TMC3     H11043   2.389   2.326  11.175  0.6264 -0.5059  0.0857
  747TMC3    H111044   2.687   2.629  11.095  1.9209  0.1499  1.4483
  747TMC3    H211045   2.809   2.240  11.197 -0.5978  0.8834  0.4696
  747TMC3    C711046   2.883   2.484  11.200  0.5281 -0.0282 -0.0832
  747TMC3    C811047   2.562   2.149  11.252 -0.1367  0.5180 -0.5444
  747TMC3    O111048   2.896   2.595  11.246  0.0602 -0.4517  0.3986
  747TMC3    O211049   2.649   2.061  11.251 -0.2980 -0.0317 -0.0933
  748MPD2     C11050   4.548   2.841   1.870 -0.4080 -1.0535 -0.6527
  748MPD2    C111051   4.602   2.720   1.854  0.6244 -0.9283 -0.3433
  748MPD2    C211052   4.615   2.671   1.728 -0.3671  0.6659  0.3908
  748MPD2    C311053   4.579   2.745   1.613 -0.4504  0.1578  0.5374
  748MPD2    C411054   4.519   2.867   1.632  0.2278  0.3401  0.3228
  748MPD2    C511055   4.498   2.911   1.765 -0.0240 -0.7294  0.4486
  748MPD2     H11056   4.667   2.576   1.716  0.7811  1.2820  0.4436
  748MPD2    H111057   4.492   2.926   1.545  0.7643 -0.6093 -0.4778
  748MPD2    H211058   4.527   2.876   1.970 -0.2476  1.4759 -1.5115
  748MPD2    H311059   4.448   3.006   1.779 -1.9605 -1.7748  0.6566
  748MPD2     N11060   4.592   2.680   1.488  0.2192  0.2565 -0.2014
  748MPD2    H511061   4.625   2.584   1.487  2.4598  1.0100  0.4754
  748MPD2    N111062   4.634   2.642   1.968 -0.0051  0.1436  0.0000
  748MPD2    H711063   4.603   2.679   2.057 -1.9000  0.2405 -0.6840
  749TMC3    C111064   4.586   2.637   1.266  0.1011  0.2541 -0.4698
  749TMC3    C211065   4.615   2.509   1.305  0.3689 -0.2547 -0.3289
  749TMC3    C311066   0.007   2.443   1.255  0.1538  0.7742  0.1265
  749TMC3    C411067   4.651   2.696   1.162 -0.4511 -0.8667  0.4688
  749TMC3    C511068   0.035   2.630   1.102  0.2420  0.3029 -0.1340
  749TMC3    C611069   0.079   2.510   1.154  0.0943 -0.0644 -0.5431
  749TMC3     C11070   4.552   2.734   1.369 -0.3834 -0.1783 -0.3017
  749TMC3     O11071   4.486   2.832   1.340  0.3524  0.2212  0.5126
  749TMC3     H11072   4.546   2.470   1.378  1.3215 -1.6401 -0.1807
  749TMC3    H111073   4.619   2.795   1.131 -3.7340 -2.4686 -1.2902
  749TMC3    H211074   0.175   2.473   1.121  0.3939  1.3563 -1.2766
  749TMC3    C711075   0.122   2.706   1.020  0.6704  0.4876  0.0335
  749TMC3    C811076   0.065   2.373   1.364  0.1337 -0.0499  0.1827
  749TMC3    O111077   0.237   2.676   1.024  0.1928 -0.2077 -0.3912
  749TMC3    O211078   0.012   2.394   1.471  0.3732  0.8186  0.4398
  750MPD2     C11079   0.491   4.062  11.638 -0.0776  0.6493  0.5186
  750MPD2    C111080   0.356   4.039  11.625  1.1245  0.3978  0.1030
  750MPD2    C211081   0.303   3.940  11.538  0.3407 -0.0071  0.4799
  750MPD2    C311082   0.388   3.874  11.452 -0.0520 -0.0798  0.1821
  750MPD2    C411083   0.522   3.902  11.457 -0.4539 -0.2528  0.0330
  750MPD2    C511084   0.571   3.989  11.551  0.0808 -0.3679 -0.6471
  750MPD2     H11085   0.195   3.931  11.531  0.1585  2.6705  0.0182
  750MPD2    H111086   0.597   3.857  11.393 -0.6914  2.3845 -2.1060
  750MPD2    H211087   0.541   4.137  11.699 -0.1687  1.3830 -0.3078
  750MPD2    H311088   0.678   4.007  11.552 -0.1071  0.6378  0.6114
  750MPD2     N11089   0.341   3.802  11.338  0.3835  0.0141  0.4751
  750MPD2    H511090   0.414   3.775  11.274  1.8724 -1.3540  2.7247
  750MPD2    N111091   0.275   4.130  11.692 -0.0814 -0.3446  0.1484
  750MPD2    H711092   0.322   4.213  11.725  0.9871 -0.8856 -0.0219
  751TMC3    C111093   0.179   3.718  11.180 -0.0933 -0.3850  0.6700
  751TMC3    C211094   0.044   3.698  11.147 -0.2268  0.0768 -0.4097
  751TMC3    C311095   0.013   3.671  11.019 -0.2073 -0.9771  0.6961
  751TMC3    C411096   0.275   3.696  11.088  0.1807  0.5161 -0.8992
  751TMC3    C511097   0.244   3.667  10.959 -0.1167  0.3801 -0.4967
  751TMC3    C611098   0.115   3.649  10.926  0.3474 -0.0665  0.4642
  751TMC3     C11099   0.206   3.780  11.307  0.5322  0.0114  0.1908
  751TMC3     O11100   0.104   3.829  11.358  0.0321  0.0338  1.0951
  751TMC3     H11101   4.688   3.704  11.220 -0.0145  0.5191 -0.2163
  751TMC3    H111102   0.382   3.704  11.104 -0.0524  1.4768  0.1202
  751TMC3    H211103   0.089   3.631  10.823 -0.4804 -2.4957  1.1094
  751TMC3    C711104   0.352   3.641  10.869 -0.3857 -0.2772  0.2742
  751TMC3    C811105   4.613   3.624  10.973 -0.1517  0.7561  0.2229
  751TMC3    O111106   0.450   3.718  10.876 -0.1512 -0.0969  0.0169
  751TMC3    O211107   4.602   3.572  10.861 -0.6874 -0.0373  0.3048
  752TMC3    C111108   4.454   3.657  16.873  0.6339 -0.5775 -0.0945
  752TMC3    C211109   4.349   3.657  16.958  0.3306 -0.7148  0.6063
  752TMC3    C311110   4.383   3.673  17.085  0.2811 -1.0599 -1.0938
  752TMC3    C411111   4.584   3.674  16.904  0.0633  0.6606 -0.5439
  752TMC3    C511112   4.613   3.699  17.033  0.2687  0.5724  0.7199
  752TMC3    C611113   4.512   3.701  17.125 -0.6282  0.0245  0.0485
  752TMC3     C11114   4.436   3.625  16.732  0.4574  0.0307 -0.6606
  752TMC3     O11115   4.542   3.595  16.675  0.4732  0.7603  0.3125
  752TMC3     H11116   4.254   3.610  16.940  0.1495 -0.1383  0.0702
  752TMC3    H111117   4.660   3.668  16.828  0.7085 -0.1954  0.1730
  752TMC3    H211118   4.537   3.713  17.229 -0.4509  1.4972 -0.1564
  752TMC3    C711119   0.029   3.706  17.065 -0.0307 -0.4517 -0.0138
  752TMC3    C811120   4.276   3.686  17.179 -0.3888 -0.3018  0.3745
  752TMC3    O111121   0.055   3.672  17.179 -0.2730 -0.0874  0.8571
  752TMC3    O211122   4.171   3.646  17.145  0.2607 -0.0531 -0.3271
  753TMC3    C111123   1.323   4.538  13.838 -0.3686  0.4581 -0.4182
  753TMC3    C211124   1.387   4.575  13.954 -0.3923  0.2000  0.1717
  753TMC3    C311125   1.377   4.490  14.060 -0.3018  0.2811 -0.3375
  753TMC3    C411126   1.258   4.416  13.825  0.3223 -0.1613 -0.8750
  753TMC3    C511127   1.259   4.338  13.937  0.0762  0.4701 -0.0364
  753TMC3    C611128   1.317   4.371  14.054 -0.2754 -0.0416  0.3165
  753TMC3     C11129   1.306   4.639  13.734  0.0322 -0.0371  0.0877
  753TMC3     O11130   1.319   0.031  13.770  0.4973  0.3224  0.1180
  753TMC3     H11131   1.441   4.669  13.953  0.2303 -0.0932  3.2110
  753TMC3    H111132   1.197   4.391  13.739  1.8028 -1.5985 -1.5053
  753TMC3    H211133   1.298   4.316  14.146  0.2000 -1.0886 -0.2048
  753TMC3    C711134   1.156   4.237  13.955  0.1052  0.0910  1.4040
  753TMC3    C811135   1.424   4.541  14.185  0.2120 -0.9326 -0.0274
  753TMC3    O111136   1.110   4.203  14.062 -0.2905  0.0034 -0.3183
  753TMC3    O211137   1.418   4.457  14.274 -0.1855  0.5293  0.1634
  754MPD2     C11138   4.399   3.110  12.793  0.3808 -0.0563  0.2265
  754MPD2    C111139   4.365   3.220  12.872 -0.3087 -0.6348  0.2732
  754MPD2    C211140   4.255   3.299  12.841 -0.4930 -0.6225  0.6209
  754MPD2    C311141   4.176   3.260  12.733  0.3122 -0.4601  0.6022
  754MPD2    C411142   4.207   3.152  12.659 -0.2297 -0.2222 -0.4434
  754MPD2    C511143   4.322   3.080  12.688 -0.0849 -0.4046 -0.0388
  754MPD2     H11144   4.228   3.389  12.894  1.2205  0.7952 -0.9201
  754MPD2    H111145   4.146   3.110  12.580 -0.1178 -0.2878 -0.4962
  754MPD2    H211146   4.484   3.044  12.812  1.1216  1.0734  0.8442
  754MPD2    H311147   4.347   2.991  12.631 -0.2514  1.1420 -2.5291
  754MPD2     N11148   4.051   3.325  12.710 -0.1124 -0.3616 -0.1570
  754MPD2    H511149   3.986   3.272  12.652 -1.9817 -0.1523  1.7282
  754MPD2    N111150   4.421   3.222  12.996 -0.7262 -0.2597  0.5658
  754MPD2    H711151   4.480   3.143  13.021  1.9943  2.2461  2.0405
  755MPD2     C11152   3.611   4.139  13.159  0.1511 -0.5644  0.2234
  755MPD2    C111153   3.619   4.027  13.242 -0.5668 -0.1188  0.9967
  755MPD2    C211154   3.663   3.911  13.179  0.4424 -0.0856 -0.4425
  755MPD2    C311155   3.669   3.904  13.042 -0.0933 -0.1013  0.5160
  755MPD2    C411156   3.664   4.013  12.966 -0.4450 -0.1351  0.3965
  755MPD2    C511157   3.642   4.134  13.023 -0.6352 -0.0009 -0.1206
  755MPD2     H11158   3.679   3.823  13.240  0.9742  2.0930  2.5470
  755MPD2    H111159   3.677   4.010  12.858 -0.1358 -1.4299  0.4689
  755MPD2    H211160   3.567   4.229  13.199  2.8290  1.5496 -1.6049
  755MPD2    H311161   3.640   4.222  12.960 -1.1550  1.7203  2.3112
  755MPD2     N11162   3.690   3.780  12.980 -0.0060 -0.0295  0.2218
  755MPD2    H511163   3.713   3.778  12.881  1.7110 -1.2241  0.6314
  755MPD2    N111164   3.600   4.025  13.380  0.1917 -0.2870 -0.1026
  755MPD2    H711165   3.613   3.935  13.425 -1.3308  0.9409  2.8073
  756MPD2     C11166   0.494   4.077   9.778 -0.5485  0.3538 -0.6064
  756MPD2    C111167   0.413   3.999   9.865  0.3098  0.9701 -0.3450
  756MPD2    C211168   0.322   3.906   9.819 -0.4950  0.6768  0.2867
  756MPD2    C311169   0.307   3.889   9.682 -0.2815 -0.0403  0.4735
  756MPD2    C411170   0.397   3.964   9.593 -0.4899 -0.3893 -0.4925
  756MPD2    C511171   0.490   4.054   9.643  0.5616 -0.5311  0.2165
  756MPD2     H11172   0.263   3.849   9.891  0.9171 -1.7222 -0.4392
  756MPD2    H111173   0.384   3.948   9.487  0.0605  0.1815 -0.6484
  756MPD2    H211174   0.563   4.157   9.801  0.9398 -2.0333  3.2398
  756MPD2    H311175   0.553   4.107   9.573 -0.8399 -0.3883 -0.9534
  756MPD2     N11176   0.201   3.810   9.634  0.5980  0.4662  0.3280
  756MPD2    H511177   0.153   3.755   9.704 -1.5643  0.0005 -1.5330
  756MPD2    N111178   0.395   4.043   9.993 -0.3551 -0.1155 -0.3493
  756MPD2    H711179   0.310   4.009  10.036 -0.9525  0.4793 -1.0553
  757MPD2     C11180   4.509   2.894   9.600 -0.2112  0.6449 -0.3494
  757MPD2    C111181   4.407   2.971   9.558 -0.2429  0.0574  0.0226
  757MPD2    C211182   4.422   3.105   9.530  0.6996 -0.2793  0.3469
  757MPD2    C311183   4.542   3.166   9.552 -0.6530  0.2304  0.8142
  757MPD2    C411184   4.641   3.085   9.600  0.0577  0.7125 -0.2388
  757MPD2    C511185   4.630   2.950   9.624  0.5881  0.0421  0.5006
  757MPD2     H11186   4.336   3.160   9.495  0.9277 -0.1459 -0.0054
  757MPD2    H111187   0.019   3.118   9.617 -0.1799  1.1900  0.2191
  757MPD2    H211188   4.504   2.786   9.603 -1.2136  0.6229 -3.3817
  757MPD2    H311189   4.719   2.890   9.641 -0.4255 -1.5695  0.0367
  757MPD2     N11190   4.560   3.302   9.525 -0.7942  0.4103 -0.1585
  757MPD2    H511191   4.491   3.350   9.467 -1.8923  1.7644  2.2899
  757MPD2    N111192   4.283   2.908   9.544  0.3522  0.8329 -0.4619
  757MPD2    H711193   4.289   2.808   9.561 -3.4971  0.5212 -0.9501
  758MPD2     C11194   0.065   3.109  15.740  0.4000 -0.5776 -0.3860
  758MPD2    C111195   0.118   3.088  15.861 -0.6057  0.2718 -0.5505
  758MPD2    C211196   0.181   3.192  15.931  0.2218  0.3396 -0.1882
  758MPD2    C311197   0.178   3.318  15.879  0.4411 -0.0484  0.0400
  758MPD2    C411198   0.111   3.337  15.759 -0.3736  0.3544 -0.8998
  758MPD2    C511199   0.052   3.238  15.693 -0.2263  0.7896 -0.8840
  758MPD2     H11200   0.245   3.174  16.016  1.5784  0.0095 -1.2849
  758MPD2    H111201   0.109   3.439  15.723  0.3935  0.5879 -0.2844
  758MPD2    H211202   0.013   3.027  15.692  0.7865 -1.0338 -0.0282
  758MPD2    H311203   0.003   3.255  15.598  0.9177  0.3232 -1.5655
  758MPD2     N11204   0.229   3.432  15.945  0.3055  0.8298  0.9986
  758MPD2    H511205   0.249   3.518  15.895 -0.1290  0.6837  0.5729
  758MPD2    N111206   0.123   2.953  15.908  0.0914  0.3193 -0.4723
  758MPD2    H711207   0.089   2.892  15.835  1.2857 -3.4198  2.1305
  759MPD2     C11208   2.865   1.382  10.013 -0.2688 -0.3995  0.3078
  759MPD2    C111209   2.957   1.285   9.974  0.2786 -0.5588 -0.0876
  759MPD2    C211210   3.061   1.325   9.891 -0.0730  0.0523  0.5542
  759MPD2    C311211   3.070   1.456   9.844 -0.7471  0.1492 -0.1938
  759MPD2    C411212   2.974   1.548   9.887  0.2081 -0.1632 -0.0437
  759MPD2    C511213   2.873   1.508   9.964  0.4850  0.2149 -0.5037
  759MPD2     H11214   3.136   1.255   9.858 -2.3800 -2.6206  1.0244
  759MPD2    H111215   2.973   1.650   9.850  0.2390  0.3697  1.4212
  759MPD2    H211216   2.778   1.357  10.072 -0.6440  0.4926  0.1400
  759MPD2    H311217   2.792   1.577   9.986  0.8531  0.6449 -0.5046
  759MPD2     N11218   3.179   1.499   9.763 -0.1454 -0.1087  0.0889
  759MPD2    H511219   3.227   1.420   9.721 -0.3912  0.4512 -1.2548
  759MPD2    N111220   2.953   1.154  10.025 -0.0841 -0.5372 -0.1643
  759MPD2    H711221   3.028   1.091   9.997  0.7438 -0.2169  1.3389
  760MPD2     C11222   3.177   3.505  11.780 -0.3267 -0.0619 -0.0424
  760MPD2    C111223   3.313   3.505  11.772  0.3780  0.0824 -0.1959
  760MPD2    C211224   3.390   3.414  11.848 -0.3378  0.0843  0.1994
  760MPD2    C311225   3.319   3.320  11.918 -0.0460 -0.0348  0.0527
  760MPD2    C411226   3.183   3.321  11.921  0.4340  0.0442 -0.0971
  760MPD2    C511227   3.110   3.408  11.839  0.5867 -0.0903  0.1702
  760MPD2     H11228   3.498   3.416  11.845 -0.3974  4.4971  0.8516
  760MPD2    H111229   3.128   3.244  11.973  1.9514  0.7347  2.5678
  760MPD2    H211230   3.112   3.565  11.717 -0.7318 -0.4156  0.0333
  760MPD2    H311231   3.003   3.421  11.830  0.7068  0.5410 -0.3077
  760MPD2     N11232   3.373   3.216  11.996  0.2701  0.0486 -0.3670
  760MPD2    H511233   3.304   3.147  12.023  0.4321  1.0919  2.7487
  760MPD2    N111234   3.385   3.601  11.703  0.7900  0.1935  0.1347
  760MPD2    H711235   3.479   3.614  11.738  0.2528  2.2881  0.8162
  761MPD2     C11236   4.225   3.357  11.146  0.1502 -0.6235 -0.1608
  761MPD2    C111237   4.318   3.332  11.048  0.2510 -0.3828  0.6560
  761MPD2    C211238   4.398   3.436  11.008  0.4206  0.0960  0.0872
  761MPD2    C311239   4.400   3.555  11.079  0.7460 -0.0941  0.7487
  761MPD2    C411240   4.305   3.576  11.175  0.0552  0.5998  0.1043
  761MPD2    C511241   4.215   3.478  11.203  0.1127  0.0228  0.2361
  761MPD2     H11242   4.464   3.414  10.925  0.4162 -0.2520  0.1725
  761MPD2    H111243   4.304   3.672  11.224 -0.4680  0.2511  0.7840
  761MPD2    H211244   4.165   3.275  11.184  0.3775 -1.6593 -2.0017
  761MPD2    H311245   4.130   3.509  11.264 -0.5110 -0.1343 -0.5561
  761MPD2     N11246   4.510   3.640  11.064 -0.0618  0.0556  0.0435
  761MPD2    H511247   4.517   3.716  11.131 -0.1535  0.3888 -0.3239
  761MPD2    N111248   4.344   3.207  10.997  0.2851  0.6511 -0.2753
  761MPD2    H711249   4.402   3.210  10.913 -0.6658 -0.5298 -0.9831
  762MPD2     C11250   0.149   3.273  11.079 -0.1650  0.1112 -0.2243
  762MPD2    C111251   0.157   3.150  11.018  0.2874  0.4046 -0.0220
  762MPD2    C211252   0.274   3.114  10.951 -0.3943 -0.3644  0.4531
  762MPD2    C311253   0.384   3.199  10.956 -0.3121 -0.0786 -0.1847
  762MPD2    C411254   0.378   3.313  11.028  0.2125 -0.7225  0.3627
  762MPD2    C511255   0.264   3.349  11.100 -0.0294  0.6200  0.4838
  762MPD2     H11256   0.275   3.015  10.908 -0.2528  0.1196 -0.6747
  762MPD2    H111257   0.466   3.374  11.043  0.6001 -0.8880 -1.3046
  762MPD2    H211258   0.056   3.307  11.122 -0.5198 -0.6195 -0.4257
  762MPD2    H311259   0.271   3.437  11.163  0.7999  0.6416  0.3650
  762MPD2     N11260   0.495   3.159  10.881  0.6727  0.3657  0.6944
  762MPD2    H511261   0.477   3.075  10.827 -0.5383 -0.6417  2.6574
  762MPD2    N111262   0.040   3.075  11.010 -0.7922  0.2592 -0.5463
  762MPD2    H711263   4.682   3.118  11.054 -0.7675  0.0056 -0.2529
  763MPD2     C11264   1.254   3.109  16.096 -0.3855  0.3980 -0.3014
  763MPD2    C111265   1.390   3.110  16.079 -0.1616 -0.6104 -0.3700
  763MPD2    C211266   1.473   3.165  16.173 -0.1845  0.7923 -0.4936
  763MPD2    C311267   1.416   3.225  16.282  0.3103  0.0313 -0.3957
  763MPD2    C411268   1.279   3.226  16.309 -0.4838 -0.1580  0.5895
  763MPD2    C511269   1.201   3.167  16.213 -0.4496 -0.0234 -0.2179
  763MPD2     H11270   1.580   3.175  16.160 -0.1359 -1.3403 -1.6046
  763MPD2    H111271   1.225   3.266  16.395 -0.9777 -0.4332  0.4039
  763MPD2    H211272   1.190   3.054  16.029  0.7905  0.3132 -1.3510
  763MPD2    H311273   1.096   3.160  16.238  0.4247 -2.7337  2.7295
  763MPD2     N11274   1.504   3.284  16.377 -0.0549  0.7431  0.3511
  763MPD2    H511275   1.602   3.265  16.362 -0.4259 -0.3572 -0.7412
  763MPD2    N111276   1.445   3.046  15.968 -0.3676 -0.0765  0.0568
  763MPD2    H711277   1.544   3.027  15.960 -0.7199 -1.5341 -0.6458
  764MPD2     C11278   4.492   4.521  17.511  0.1060 -0.5116  0.2601
  764MPD2    C111279   4.359   4.482  17.499  0.5919 -0.5973  0.3580
  764MPD2    C211280   4.293   4.435  17.612  0.9958  0.4522  0.3359
  764MPD2    C311281   4.364   4.417   0.034  0.3052 -0.0489 -0.2604
  764MPD2    C411282   4.500   4.453   0.040  0.4526 -0.2395 -0.1366
  764MPD2    C511283   4.567   4.506  17.623  0.8463  0.1006  0.0028
  764MPD2     H11284   4.185   4.426  17.613  0.8947  1.7882  0.9493
  764MPD2    H111285   4.555   4.426   0.129 -0.0863 -1.6596 -0.2339
  764MPD2    H211286   4.550   4.571  17.434  1.2359  0.4462  1.7200
  764MPD2    H311287   4.667   4.549  17.618 -0.4809  2.7649 -3.4077
  764MPD2     N11288   4.283   4.366   0.132  0.0179  0.2749 -0.5203
  764MPD2    H511289   4.190   4.344   0.100  0.0433 -1.3566  0.5404
  764MPD2    N111290   4.279   4.498  17.383 -0.7310 -0.4396  0.2238
  764MPD2    H711291   4.180   4.477  17.387 -0.7100 -0.7745 -1.2387
  765MPD2     C11292   4.588   2.445  16.046 -0.7175 -0.1106  0.4952
  765MPD2    C111293   4.649   2.523  15.944  0.3883 -0.3729 -0.1649
  765MPD2    C211294   0.031   2.471  15.870 -0.3157 -0.0925 -0.2193
  765MPD2    C311295   0.075   2.343  15.886 -0.8463 -1.0454  0.0777
  765MPD2    C411296   0.012   2.265  15.990 -0.0382  0.4616  0.3510
  765MPD2    C511297   4.628   2.316  16.065 -0.0624  0.3766 -0.0061
  765MPD2     H11298   0.078   2.532  15.794  1.5370 -0.6471  0.4573
  765MPD2    H111299   0.050   2.164  16.006 -0.0456  0.5590  0.9853
  765MPD2    H211300   4.510   2.487  16.109 -1.0202 -1.2090  0.8521
  765MPD2    H311301   4.576   2.253  16.136  1.5301  0.0239  0.8504
  765MPD2     N11302   0.176   2.290  15.802  0.1312  0.0815 -0.1337
  765MPD2    H511303   0.227   2.354  15.742 -1.6839  0.3782 -1.3557
  765MPD2    N111304   4.584   2.646  15.928  0.1206 -0.3618  0.0701
  765MPD2    H711305   4.495   2.665  15.973  0.2529  2.8752 -1.0003
  766MPD2     C11306   3.928   2.783  15.369  0.3655  0.0223 -0.0764
  766MPD2    C111307   4.053   2.731  15.404 -0.3143  0.8124  0.4245
  766MPD2    C211308   4.114   2.662  15.303 -0.0030 -0.4939 -0.1580
  766MPD2    C311309   4.056   2.652  15.178 -0.2319  0.1683  0.0666
  766MPD2    C411310   3.929   2.690  15.154 -0.4576 -0.0822  0.3074
  766MPD2    C511311   3.864   2.753  15.254  0.5600 -0.4434 -0.3511
  766MPD2     H11312   4.213   2.623  15.321 -0.6264 -1.4253  1.2794
  766MPD2    H111313   3.868   2.668  15.067 -2.0844 -2.0437  1.9506
  766MPD2    H211314   3.865   2.843  15.435  1.1322 -0.0372  0.7118
  766MPD2    H311315   3.763   2.781  15.227  0.3048 -3.1236 -2.1259
  766MPD2     N11316   4.122   2.596  15.062  0.0324  0.6473 -0.0367
  766MPD2    H511317   4.067   2.598  14.977  2.4883 -0.9722 -1.6585
  766MPD2    N111318   4.102   2.766  15.533  0.0969  0.0212 -0.5052
  766MPD2    H711319   4.049   2.835  15.585 -0.7545  1.4287 -3.2485
  767MPD2     C11320   3.633   2.850  14.843 -0.0999 -0.2503  0.0683
  767MPD2    C111321   3.764   2.838  14.814 -0.0909 -0.7757 -0.8950
  767MPD2    C211322   3.805   2.751  14.720  0.2079  0.0975  0.1723
  767MPD2    C311323   3.717   2.666  14.658  0.0240 -0.2342 -0.2336
  767MPD2    C411324   3.585   2.682  14.686  0.6078 -0.0623  0.2684
  767MPD2    C511325   3.543   2.774  14.775  0.5110  0.6642 -0.1627
  767MPD2     H11326   3.906   2.764  14.684 -0.0684  0.6058 -0.4138
  767MPD2    H111327   3.509   2.620  14.639 -0.2502  2.9481 -2.3173
  767MPD2    H211328   3.593   2.914  14.921  1.8137  2.2205 -0.9744
  767MPD2    H311329   3.437   2.772  14.798  0.9907 -1.5522  1.8417
  767MPD2     N11330   3.773   2.597  14.552  0.0393 -0.4246 -0.3649
  767MPD2    H511331   3.873   2.601  14.539 -0.2890 -0.5086 -2.9931
  767MPD2    N111332   3.854   2.930  14.878 -0.3691 -0.5756 -0.0072
  767MPD2    H711333   3.812   3.022  14.892 -1.8429 -0.8869 -2.3553
  768MPD2     C11334   4.117   1.258  10.856  0.2136  0.0886 -0.5163
  768MPD2    C111335   4.232   1.342  10.864  0.6082 -0.6199 -0.1867
  768MPD2    C211336   4.338   1.299  10.948 -0.0780  0.4030 -0.0207
  768MPD2    C311337   4.336   1.175  11.013  0.6466  0.2967 -0.3406
  768MPD2    C411338   4.237   1.089  10.979  0.6621 -0.0879  0.0746
  768MPD2    C511339   4.130   1.128  10.908 -0.4727  0.0251 -0.7663
  768MPD2     H11340   4.421   1.367  10.966  0.9945 -0.7082 -0.8637
  768MPD2    H111341   4.238   0.987  11.017  1.2782 -0.4763 -0.9766
  768MPD2    H211342   4.035   1.286  10.791 -0.4779  0.3339  0.4679
  768MPD2    H311343   4.058   1.056  10.873 -0.0807  0.2149 -1.9652
  768MPD2     N11344   4.443   1.120  11.095  0.7920  0.2151  0.6869
  768MPD2    H511345   4.430   1.026  11.130 -3.1248  0.1578 -0.8834
  768MPD2    N111346   4.237   1.470  10.816  0.2064  0.5489  0.3115
  768MPD2    H711347   4.315   1.530  10.843  1.9804 -0.7791 -1.8118
  769MPD2     C11348   1.066   3.900  15.045 -0.6405 -0.2101  0.7053
  769MPD2    C111349   0.970   3.939  15.126 -0.8661  0.4232  0.4475
  769MPD2    C211350   1.005   3.996  15.249 -0.4064 -0.0748 -0.5120
  769MPD2    C311351   1.137   4.016  15.280  0.2299  0.3719 -0.1662
  769MPD2    C411352   1.230   3.993  15.181  0.2451  0.2047 -0.1147
  769MPD2    C511353   1.193   3.928  15.074  0.4487 -0.3650  0.2277
  769MPD2     H11354   0.929   4.020  15.322 -1.3101  0.8920 -1.7949
  769MPD2    H111355   1.338   3.995  15.193  0.1752  1.2614  0.3966
  769MPD2    H211356   1.044   3.840  14.957  2.1510 -3.1437  2.0435
  769MPD2    H311357   1.264   3.898  14.999  3.8015  1.0868  2.8241
  769MPD2     N11358   1.162   4.074  15.412 -0.3357  0.2693 -0.6498
  769MPD2    H511359   1.078   4.104  15.460  0.6438  1.4478  0.3087
  769MPD2    N111360   0.827   3.928  15.086 -0.3031 -0.2418  0.0126
  769MPD2    H711361   0.815   3.886  14.995  0.2662  1.1277 -0.6986
  770MPD2     C11362   0.664   3.162  15.244 -0.4333 -0.0961  0.9396
  770MPD2    C111363   0.559   3.163  15.149  1.2145  0.0475 -0.2083
  770MPD2    C211364   0.503   3.278  15.101  0.2701  0.2351  0.3774
  770MPD2    C311365   0.538   3.395  15.162 -0.0354 -0.8082 -0.0541
  770MPD2    C411366   0.632   3.395  15.265  0.3345 -0.4605  0.4737
  770MPD2    C511367   0.696   3.283  15.300  0.0337 -0.0341 -0.2308
  770MPD2     H11368   0.414   3.264  15.040  1.8118 -1.5973 -1.4322
  770MPD2    H111369   0.656   3.483  15.324 -1.1069  0.9552 -1.0664
  770MPD2    H211370   0.714   3.075  15.283 -1.0390  0.3331  2.6900
  770MPD2    H311371   0.761   3.301  15.385  1.0270 -0.3073 -0.9253
  770MPD2     N11372   0.475   3.514  15.116  0.4689 -0.0166 -1.1618
  770MPD2    H511373   0.426   3.517  15.027 -2.6696  1.9009  0.6221
  770MPD2    N111374   0.524   3.033  15.107  0.0633 -0.7444 -0.0526
  770MPD2    H711375   0.572   2.960  15.158 -1.2608  0.1152  2.3938
  771MPD2     C11376   1.848   1.967  13.621 -0.6385  0.8908  0.2270
  771MPD2    C111377   1.787   2.091  13.642  0.7379 -0.3361 -0.3848
  771MPD2    C211378   1.686   2.124  13.553 -0.9137 -0.8970  0.1143
  771MPD2    C311379   1.638   2.036  13.458 -0.0787  0.1320 -0.0107
  771MPD2    C411380   1.689   1.910  13.441 -0.3859 -0.1022  0.6769
  771MPD2    C511381   1.799   1.884  13.522 -0.6477  0.5645  0.0381
  771MPD2     H11382   1.636   2.219  13.571  2.1613  0.9406 -0.8433
  771MPD2    H111383   1.656   1.832  13.373 -1.4060 -0.3330  1.4404
  771MPD2    H211384   1.930   1.934  13.684 -1.5467 -1.2466  0.2890
  771MPD2    H311385   1.851   1.789  13.511 -0.3513  0.8427 -0.9639
  771MPD2     N11386   1.534   2.086  13.375 -0.7101  0.2569 -0.5289
  771MPD2    H511387   1.507   2.183  13.387  2.0795  0.8068  1.2076
  771MPD2    N111388   1.831   2.193  13.729 -0.1144  0.0768 -0.0442
  771MPD2    H711389   1.790   2.286  13.731 -0.0623  0.1068 -0.4974
  772MPD2     C11390   1.665   2.843  14.012 -0.0387 -0.0091  0.4386
  772MPD2    C111391   1.634   2.719  13.954 -0.0604  0.0417 -0.0695
  772MPD2    C211392   1.504   2.685  13.925 -0.1146 -0.0407  1.1053
  772MPD2    C311393   1.397   2.762  13.962 -0.0555  0.0351  0.5431
  772MPD2    C411394   1.431   2.885  14.021 -0.3205  0.8928  0.1945
  772MPD2    C511395   1.561   2.926  14.045 -0.1689 -0.3359 -0.1527
  772MPD2     H11396   1.485   2.595  13.868 -0.3510  0.4346  0.4386
  772MPD2    H111397   1.347   2.953  14.035 -0.6072  0.2469  1.6826
  772MPD2    H211398   1.764   2.879  14.039  0.8183 -1.4502 -0.8073
  772MPD2    H311399   1.577   3.017  14.101 -1.4108  0.5324 -1.2184
  772MPD2     N11400   1.257   2.727  13.949  0.1959  0.4516 -0.1287
  772MPD2    H511401   1.187   2.783  13.995 -1.5741 -2.6297  0.9351
  772MPD2    N111402   1.734   2.633  13.907 -0.2050  0.1519  0.8452
  772MPD2    H711403   1.704   2.550  13.856  1.2455  0.6862 -0.8988
  773MPD2     C11404   0.585   3.391  17.628  0.0158  0.6750  0.0954
  773MPD2    C111405   0.510   3.297  17.570 -0.1664  0.1044 -0.2092
  773MPD2    C211406   0.515   3.172  17.624  0.3852  0.1088 -0.3098
  773MPD2    C311407   0.601   3.137   0.027 -0.2038  0.6980 -0.4197
  773MPD2    C411408   0.671   3.239   0.098  0.0247 -0.3929 -0.2729
  773MPD2    C511409   0.661   3.366   0.041 -0.1937 -1.0253 -0.1293
  773MPD2     H11410   0.453   3.097  17.577  2.3330 -1.1764 -0.8397
  773MPD2    H111411   0.743   3.217   0.176 -0.4701  1.6142  0.7547
  773MPD2    H211412   0.580   3.490  17.583  0.1401 -0.6365 -2.8150
  773MPD2    H311413   0.719   3.450   0.079 -2.1301  0.6322 -0.8381
  773MPD2     N11414   0.599   3.000   0.062 -0.0375  0.4703  0.1109
  773MPD2    H511415   0.539   2.949  17.695  2.1782 -0.9711 -0.8331
  773MPD2    N111416   0.416   3.322  17.460  0.4951 -0.2859  0.3659
  773MPD2    H711417   0.349   3.247  17.445  0.0182  0.5039 -1.3858
  774MPD2     C11418   4.155   2.736  13.803  0.3127 -0.6073 -0.9155
  774MPD2    C111419   4.295   2.738  13.821 -0.3189  0.2924  0.2990
  774MPD2    C211420   4.372   2.816  13.734 -0.1949  0.9193 -0.3941
  774MPD2    C311421   4.307   2.895  13.642 -0.4317 -0.1774  0.2072
  774MPD2    C411422   4.170   2.893  13.630 -0.5730 -0.4167  0.2345
  774MPD2    C511423   4.095   2.808  13.708 -0.2600 -0.2799 -0.2091
  774MPD2     H11424   4.480   2.822  13.739 -0.0958 -0.8984 -0.3570
  774MPD2    H111425   4.117   2.962  13.565 -1.5004  0.5105  1.9636
  774MPD2    H211426   4.092   2.671  13.863 -3.2850  0.8072 -3.1848
  774MPD2    H311427   3.987   2.810  13.711 -0.2486  0.3278 -0.2148
  774MPD2     N11428   4.391   2.979  13.565 -0.3549 -0.5882  0.3602
  774MPD2    H511429   4.486   2.987  13.598 -0.8317 -2.1442  2.1373
  774MPD2    N111430   4.342   2.652  13.922  0.8492 -0.7004 -0.0160
  774MPD2    H711431   4.268   2.594  13.960 -0.7757  1.0703 -0.4726
  775MPD2     C11432   1.159   3.726  15.797 -0.7719 -0.4594 -0.3245
  775MPD2    C111433   1.212   3.808  15.893  0.4752 -0.2741  1.0689
  775MPD2    C211434   1.327   3.884  15.867  0.1360 -0.0743 -0.0682
  775MPD2    C311435   1.388   3.879  15.739  0.3880 -0.4346  0.3840
  775MPD2    C411436   1.343   3.782  15.655 -0.1693  0.2440  0.2437
  775MPD2    C511437   1.230   3.706  15.684  0.3171 -0.0113  0.1749
  775MPD2     H11438   1.371   3.952  15.939 -1.5870  1.5498 -0.5554
  775MPD2    H111439   1.400   3.768  15.564  0.8442 -0.6164  1.0031
  775MPD2    H211440   1.077   3.660  15.824 -2.3940  1.2876 -0.9197
  775MPD2    H311441   1.185   3.639  15.611 -0.0458 -1.4705  1.7186
  775MPD2     N11442   1.499   3.955  15.701  0.4945 -0.2260  0.1873
  775MPD2    H511443   1.546   3.936  15.613 -1.2456 -1.3942 -0.4958
  775MPD2    N111444   1.138   3.810  16.015  0.0173  0.3596 -0.0945
  775MPD2    H711445   1.050   3.760  16.020 -0.4188  0.7579 -4.0575
  776MPD2     C11446   4.592   0.084  11.339 -0.3617  0.1151 -0.5063
  776MPD2    C111447   4.699   0.037  11.419  0.3707 -0.1491  0.3870
  776MPD2    C211448   0.096   0.105  11.415  0.0209 -0.7337 -0.4003
  776MPD2    C311449   0.105   0.225  11.345 -0.4191 -0.5998 -0.5506
  776MPD2    C411450   4.721   0.271  11.274  1.1330  0.3396 -0.2804
  776MPD2    C511451   4.604   0.201  11.270 -0.5303 -0.1613 -0.3681
  776MPD2     H11452   0.184   0.072  11.469 -0.2087  0.2913  0.6068
  776MPD2    H111453   0.009   0.367  11.225 -0.0488  0.0958 -1.0467
  776MPD2    H211454   4.501   0.032  11.364  0.3688 -0.8326  0.2118
  776MPD2    H311455   4.518   0.249  11.223 -2.0417 -1.3725  1.1337
  776MPD2     N11456   0.223   0.303  11.335  0.0706 -0.2717  0.3301
  776MPD2    H511457   0.219   0.392  11.287  0.4587 -0.6368 -0.3918
  776MPD2    N111458   4.690   4.636  11.489 -0.0072  0.2304 -0.0820
  776MPD2    H711459   4.606   4.583  11.467  0.8013 -0.8447 -0.6277
  777MPD2     C11460   0.322   1.629   0.618  0.5638 -0.0806  0.9809
  777MPD2    C111461   0.423   1.560   0.674 -0.2458  0.1890  0.5869
  777MPD2    C211462   0.472   1.451   0.606 -0.0702 -0.0337 -0.3378
  777MPD2    C311463   0.427   1.418   0.479 -0.0849 -0.6511 -0.1849
  777MPD2    C411464   0.339   1.510   0.419  0.3662 -0.6345 -0.3745
  777MPD2    C511465   0.287   1.609   0.490 -0.3081  0.1802  0.2767
  777MPD2     H11466   0.541   1.382   0.653 -0.1345  1.0947  1.4051
  777MPD2    H111467   0.309   1.497   0.316 -1.5309  0.5991  0.0223
  777MPD2    H211468   0.296   1.720   0.671 -0.1876  0.6908 -0.7059
  777MPD2    H311469   0.220   1.676   0.438 -0.5429  0.3479  0.7906
  777MPD2     N11470   0.474   1.300   0.425 -0.2172 -0.5581  0.1066
  777MPD2    H511471   0.524   1.239   0.488 -1.2819  1.4625  2.9016
  777MPD2    N111472   0.460   1.597   0.807  0.1319  0.1087  0.5889
  777MPD2    H711473   0.396   1.659   0.855 -1.5548  0.9278 -2.7432
  778MPD2     C11474   2.043   2.438  14.848 -0.3436 -0.2598  0.6448
  778MPD2    C111475   2.076   2.332  14.766  0.0622  0.4691 -0.2914
  778MPD2    C211476   2.160   2.348  14.659  0.0408  0.3997 -0.3284
  778MPD2    C311477   2.205   2.468  14.616  0.0682 -0.0452 -0.1168
  778MPD2    C411478   2.172   2.572  14.692 -0.4859 -0.4808  0.0685
  778MPD2    C511479   2.084   2.560  14.801 -0.6581 -0.2158 -0.4449
  778MPD2     H11480   2.193   2.262  14.600 -0.4970 -0.2044  0.2563
  778MPD2    H111481   2.218   2.668  14.673  0.6916 -0.6979  1.7430
  778MPD2    H211482   1.993   2.434  14.944 -0.7871  1.0732  0.4714
  778MPD2    H311483   2.071   2.651  14.858  1.4379 -0.0749 -0.1651
  778MPD2     N11484   2.309   2.470  14.515  0.3232 -0.3027 -0.7110
  778MPD2    H511485   2.328   2.380  14.473  0.3023 -1.0093  0.7629
  778MPD2    N111486   2.034   2.199  14.789  0.1747  0.0185  0.1910
  778MPD2    H711487   2.072   2.123  14.733 -1.6326  0.3839 -1.5334
  779MPD2     C11488   1.572   1.055  13.765  0.5745  0.0074  1.0355
  779MPD2    C111489   1.649   1.062  13.877 -0.6453  0.3182 -0.3555
  779MPD2    C211490   1.723   1.175  13.897  0.0725 -0.0842  0.0430
  779MPD2    C311491   1.734   1.272  13.796 -0.2211  0.4867  0.3751
  779MPD2    C411492   1.653   1.260  13.686  0.1424  0.5252 -0.4220
  779MPD2    C511493   1.568   1.152  13.668  0.4693  0.1354 -0.6918
  779MPD2     H11494   1.793   1.188  13.979  2.5438 -1.0907 -1.9222
  779MPD2    H111495   1.665   1.334  13.607 -1.0457  0.1962 -0.9062
  779MPD2    H211496   1.511   0.969  13.739 -1.3816  1.3939  1.0900
  779MPD2    H311497   1.519   1.149  13.571  1.4266  0.1857 -1.1779
  779MPD2     N11498   1.824   1.378  13.819 -0.2820  1.1046  0.2635
  779MPD2    H511499   1.894   1.378  13.893 -1.2055 -3.7700  1.0895
  779MPD2    N111500   1.632   0.964  13.981 -0.3465  0.2440 -0.0008
  779MPD2    H711501   1.685   0.996  14.062  1.3701  2.4677 -1.9811
  780MPD2     C11502   1.798   0.418   1.020  0.1052  0.1730 -0.0401
  780MPD2    C111503   1.666   0.405   1.047  0.0910 -0.2621 -0.4349
  780MPD2    C211504   1.576   0.455   0.954  0.8775  0.0309  0.0892
  780MPD2    C311505   1.621   0.503   0.827 -0.6786  0.3670 -0.3027
  780MPD2    C411506   1.752   0.510   0.805  0.0893  1.0233  0.7321
  780MPD2    C511507   1.836   0.474   0.903 -0.4614  0.3663 -0.4203
  780MPD2     H11508   1.470   0.443   0.973  1.3917 -0.3878  2.6914
  780MPD2    H111509   1.789   0.547   0.710  0.7056  1.0014  0.9626
  780MPD2    H211510   1.867   0.368   1.088  1.0608 -0.9131 -1.8163
  780MPD2    H311511   1.943   0.476   0.885 -0.3766 -1.9030 -0.0909
  780MPD2     N11512   1.513   0.554   0.749 -0.4272 -0.6658  0.3792
  780MPD2    H511513   1.419   0.536   0.785 -0.5119  0.5223  0.7422
  780MPD2    N111514   1.621   0.327   1.159  0.1852 -0.2577  0.2099
  780MPD2    H711515   1.688   0.272   1.211 -0.0454 -3.0347 -2.4595
  781MPD2     C11516   2.831   3.086  11.946  0.0937  0.4834  0.3246
  781MPD2    C111517   2.933   3.010  11.995 -0.4320  0.3992 -0.2538
  781MPD2    C211518   3.046   2.984  11.919  0.1223  0.1953 -0.2670
  781MPD2    C311519   3.056   3.043  11.792  0.1689 -0.0828 -0.2122
  781MPD2    C411520   2.948   3.113  11.746 -0.7076 -0.3061  0.9758
  781MPD2    C511521   2.840   3.140  11.823 -0.5024 -0.1533 -0.0076
  781MPD2     H11522   3.132   2.937  11.964 -0.6801  0.3257  1.3914
  781MPD2    H111523   2.952   3.146  11.642  0.0086  0.4740  1.2526
  781MPD2    H211524   2.738   3.106  11.999 -0.4757  0.1356 -0.5398
  781MPD2    H311525   2.767   3.201  11.770 -0.8759 -1.7257 -1.2948
  781MPD2     N11526   3.173   3.051  11.718  0.0848  0.0043 -0.5326
  781MPD2    H511527   3.160   3.112  11.638 -1.3363  0.4609  0.0360
  781MPD2    N111528   2.927   2.943  12.117 -0.0877  0.0583  0.0424
  781MPD2    H711529   3.008   2.892  12.151 -0.5531 -0.3588  0.5236
  782MPD2     C11530   0.599   3.943  10.414  0.0480  0.7710 -0.9482
  782MPD2    C111531   0.716   4.010  10.405 -0.2611 -0.2238  0.2214
  782MPD2    C211532   0.779   4.055  10.519 -0.0767  0.3287 -0.9351
  782MPD2    C311533   0.725   4.045  10.648  0.8128  0.3390  0.7004
  782MPD2    C411534   0.601   3.980  10.656  0.4743  0.7734 -0.1044
  782MPD2    C511535   0.544   3.931  10.541  0.0097  0.4087 -0.7200
  782MPD2     H11536   0.882   4.087  10.514  0.5509 -1.7244 -1.3591
  782MPD2    H111537   0.559   3.946  10.750  2.7754  1.2175  1.0828
  782MPD2    H211538   0.551   3.892  10.332 -0.9866  0.1208  0.0617
  782MPD2    H311539   0.447   3.882  10.550  0.1753  0.2372  0.0909
  782MPD2     N11540   0.800   4.087  10.758 -0.2031 -0.5046  0.1328
  782MPD2    H511541   0.882   4.139  10.728  0.6169 -1.9252 -0.1258
  782MPD2    N111542   0.777   4.009  10.273  0.1262  0.1125 -0.4355
  782MPD2    H711543   0.722   3.971  10.197  1.2997 -0.4832 -0.9821
  783MPD2     C11544   0.341   3.429  10.571 -1.1155 -0.0836 -0.0019
  783MPD2    C111545   0.388   3.530  10.651  0.6469 -0.2656  0.0050
  783MPD2    C211546   0.501   3.597  10.615 -0.0211 -0.2289  0.2881
  783MPD2    C311547   0.566   3.557  10.499 -0.2105 -0.6957 -0.2823
  783MPD2    C411548   0.515   3.456  10.421  0.5224  0.2539  0.0199
  783MPD2    C511549   0.402   3.394  10.460  0.0051  0.1688 -0.1678
  783MPD2     H11550   0.531   3.686  10.667  0.8203  0.8542 -2.0528
  783MPD2    H111551   0.573   3.422  10.336  0.1034  1.7754 -0.8623
  783MPD2    H211552   0.259   3.366  10.603 -0.7461  0.7325  2.5262
  783MPD2    H311553   0.376   3.298  10.415  2.7267 -0.2183 -0.8822
  783MPD2     N11554   0.690   3.618  10.474 -0.5688 -0.2154 -0.0243
  783MPD2    H511555   0.730   3.678  10.546 -1.6102  0.3551  0.0870
  783MPD2    N111556   0.321   3.544  10.773  0.1506  0.2044 -0.5813
  783MPD2    H711557   0.237   3.488  10.789 -0.6025  1.0991 -1.3925
  784MPD2     C11558   2.573   3.386   1.143 -0.0357 -0.5673 -0.0907
  784MPD2    C111559   2.582   3.498   1.223 -0.2164 -0.2725  0.3991
  784MPD2    C211560   2.581   3.623   1.161 -0.0832  0.5495  0.2392
  784MPD2    C311561   2.582   3.635   1.021 -0.1008 -0.1410 -0.3445
  784MPD2    C411562   2.587   3.524   0.942  0.0390 -0.2177  0.5890
  784MPD2    C511563   2.572   3.401   1.006  0.8017  0.1564  0.4177
  784MPD2     H11564   2.578   3.719   1.212 -1.1080 -0.5288  2.2069
  784MPD2    H111565   2.579   3.528   0.834  1.2197 -0.5688  0.4849
  784MPD2    H211566   2.573   3.285   1.184 -0.9592  0.2671  1.9988
  784MPD2    H311567   2.563   3.315   0.941 -0.6492  0.5864  0.0593
  784MPD2     N11568   2.563   3.765   0.969 -0.0138  0.1483  0.1331
  784MPD2    H511569   2.543   3.839   1.036 -0.1308  0.9378 -0.7823
  784MPD2    N111570   2.580   3.495   1.364 -0.2556  0.4217 -0.1647
  784MPD2    H711571   2.605   3.583   1.409  1.5152 -0.2832  0.2403
  785MPD2     C11572   2.252   2.271  10.291  0.2072 -0.4709  0.2162
  785MPD2    C111573   2.277   2.392  10.359  0.2537 -0.3010  0.0287
  785MPD2    C211574   2.170   2.479  10.368  0.1218 -0.1434 -0.3365
  785MPD2    C311575   2.052   2.466  10.297 -0.1609  0.2054  0.2445
  785MPD2    C411576   2.032   2.350  10.222 -0.3503 -0.9554  0.2722
  785MPD2    C511577   2.132   2.251  10.228 -0.0613 -0.3049  0.3880
  785MPD2     H11578   2.184   2.569  10.427 -1.0287  0.1771 -0.5554
  785MPD2    H111579   1.942   2.329  10.165 -0.3318 -1.8488  0.5767
  785MPD2    H211580   2.327   2.193  10.289  0.4417 -0.1850 -1.8744
  785MPD2    H311581   2.115   2.159  10.174 -1.9546  0.8708 -1.0035
  785MPD2     N11582   1.964   2.578  10.296  0.4539 -0.9699  0.2505
  785MPD2    H511583   1.981   2.651  10.364  1.8158  1.5384 -2.8064
  785MPD2    N111584   2.405   2.419  10.423  0.0025  0.1090  0.1539
  785MPD2    H711585   2.475   2.351  10.397 -0.8585 -0.6576 -0.1896
  786MPD2     C11586   2.262   0.478  14.601  0.1370 -0.4273  0.0744
  786MPD2    C111587   2.238   0.374  14.693  0.4450  0.1682  0.1903
  786MPD2    C211588   2.317   0.355  14.802  0.0733 -0.9017 -0.5673
  786MPD2    C311589   2.417   0.447  14.829 -0.2595 -0.0271 -0.0801
  786MPD2    C411590   2.429   0.563  14.753  0.7081 -0.2098 -0.6595
  786MPD2    C511591   2.360   0.571  14.635  0.0050  0.9787 -0.2917
  786MPD2     H11592   2.305   0.259  14.850 -0.9210 -1.5716 -2.1421
  786MPD2    H111593   2.507   0.637  14.765  0.6639 -0.7203  2.7697
  786MPD2    H211594   2.202   0.494  14.512 -0.3527  1.4517  0.7418
  786MPD2    H311595   2.391   0.645  14.562 -1.4507  0.8374 -1.0381
  786MPD2     N11596   2.505   0.440  14.939  0.1422  0.1179  0.6427
  786MPD2    H511597   2.575   0.513  14.950 -0.4686  0.9165 -0.8755
  786MPD2    N111598   2.135   0.277  14.676  0.0994  0.7899 -0.0118
  786MPD2    H711599   2.127   0.205  14.747  0.4480  0.4627 -0.2985
  787MPD2     C11600   1.843   4.640  15.148  0.2860  0.4808 -0.4363
  787MPD2    C111601   1.884   4.576  15.042 -0.8524 -0.4280 -0.2973
  787MPD2    C211602   1.969   4.466  15.056 -0.0011  0.3507  0.3339
  787MPD2    C311603   2.013   4.424  15.181  0.6431  0.0723 -0.0776
  787MPD2    C411604   1.967   4.499  15.293  0.3933  0.1206  0.2450
  787MPD2    C511605   1.884   4.603  15.272 -0.9643  0.2824  0.1924
  787MPD2     H11606   1.996   4.406  14.970 -0.8592  2.1346 -1.1723
  787MPD2    H111607   1.995   4.474  15.395  2.1000 -0.7212 -0.4360
  787MPD2    H211608   1.775   4.723  15.133 -0.4141 -0.0845 -0.4296
  787MPD2    H311609   1.835   4.650  15.357 -0.5441 -0.3362  0.7850
  787MPD2     N11610   2.102   4.311  15.189  0.7029  0.6131  0.3079
  787MPD2    H511611   2.138   4.273  15.102  0.9894  3.5443 -0.8497
  787MPD2    N111612   1.856   4.636  14.911  0.1776 -0.3298  0.6361
  787MPD2    H711613   1.800   4.721  14.907  0.8836  0.1649  1.2244
  788MPD2     C11614   4.593   3.093   0.181 -0.0337  0.2887 -0.0480
  788MPD2    C111615   4.483   3.042   0.248 -0.4113 -0.9419 -0.6006
  788MPD2    C211616   4.365   3.042   0.186  0.5124 -0.1662  0.4265
  788MPD2    C311617   4.340   3.107   0.065  0.0892 -0.5528  0.1833
  788MPD2    C411618   4.445   3.173  17.696 -0.0064 -0.0839  0.1131
  788MPD2    C511619   4.568   3.169   0.062  0.2121  0.0886  0.2456
  788MPD2     H11620   4.283   3.006   0.248  0.5437  1.8572  1.6407
  788MPD2    H111621   4.425   3.219  17.600  0.3773  2.0583  1.0635
  788MPD2    H211622   4.696   3.087   0.215  0.1681  1.2075 -0.5124
  788MPD2    H311623   4.649   3.219   0.011 -0.4713  0.2265 -0.7079
  788MPD2     N11624   4.220   3.104  17.681  0.6706  0.2070  1.2594
  788MPD2    H511625   4.219   3.161  17.597  0.2684 -1.7252 -0.0544
  788MPD2    N111626   4.507   2.973   0.373 -0.6789 -0.0697  0.5288
  788MPD2    H711627   4.602   2.988   0.405 -0.3097  0.5190 -0.8319
  789MPD2     C11628   3.691   2.055  16.326  0.1021 -0.0307  0.5463
  789MPD2    C111629   3.686   2.026  16.462 -0.4669  0.1345  0.2706
  789MPD2    C211630   3.646   2.125  16.555 -0.0912  0.1822 -0.2122
  789MPD2    C311631   3.617   2.254  16.509 -0.7854 -0.5717  0.1590
  789MPD2    C411632   3.627   2.277  16.370 -0.1197  1.0348  0.1411
  789MPD2    C511633   3.662   2.176  16.286 -0.8747 -0.5322 -0.4558
  789MPD2     H11634   3.659   2.101  16.660  0.4620  0.1035 -0.2951
  789MPD2    H111635   3.598   2.374  16.333  2.1884  1.7089  0.1324
  789MPD2    H211636   3.715   1.978  16.253  0.1503  2.4057 -2.0276
  789MPD2    H311637   3.667   2.203  16.182  1.8990  0.8016  0.0242
  789MPD2     N11638   3.596   2.366  16.592  0.7828 -0.5230  0.2329
  789MPD2    H511639   3.599   2.459  16.552  0.4876 -0.6515 -0.0829
  789MPD2    N111640   3.735   1.907  16.524 -0.4471  0.1219  0.7166
  789MPD2    H711641   3.723   1.892  16.623 -0.8724 -1.0943  0.4751
  790MPD2     C11642   4.703   0.269  13.890  0.1129 -0.0451 -0.1614
  790MPD2    C111643   0.055   0.153  13.889  0.3054 -0.3361  0.0952
  790MPD2    C211644   0.099   0.102  13.764 -0.2740 -0.0524 -0.4160
  790MPD2    C311645   0.049   0.157  13.644  0.1097  0.4775 -0.5986
  790MPD2    C411646   4.702   0.272  13.651 -0.1299 -0.1365 -0.5494
  790MPD2    C511647   4.672   0.336  13.772  0.1548 -0.2650 -0.3693
  790MPD2     H11648   0.161   0.013  13.760 -1.4150 -0.8628  0.2535
  790MPD2    H111649   4.666   0.322  13.562 -4.3316 -0.8277  0.7502
  790MPD2    H211650   4.670   0.304  13.987  0.8987  3.1446 -1.0546
  790MPD2    H311651   4.616   0.429  13.779 -1.2350 -1.1535  0.3827
  790MPD2     N11652   0.087   0.092  13.519  0.1052  0.4915  0.3298
  790MPD2    H511653   0.138   0.004  13.525 -2.8000 -1.1329  1.5713
  790MPD2    N111654   0.101   0.117  14.015  0.2818 -0.2003 -0.1491
  790MPD2    H711655   0.077   0.179  14.092  0.6688 -2.1785  1.5752
  791MPD2     C11656   4.527   0.115  12.758  0.2226 -0.0571  0.3449
  791MPD2    C111657   4.568   0.004  12.831  1.3147  0.3901 -0.5355
  791MPD2    C211658   4.494   4.615  12.817  0.3759  0.2555  0.4654
  791MPD2    C311659   4.389   4.603  12.727  0.3552  0.3493 -0.0085
  791MPD2    C411660   4.345   4.712  12.661  0.1521  1.1777 -0.0884
  791MPD2    C511661   4.410   0.114  12.680 -0.1676 -0.7176 -1.0329
  791MPD2     H11662   4.532   4.526  12.867  0.9805  0.1355 -0.2004
  791MPD2    H111663   4.263   4.711  12.590  0.4203 -0.0979 -0.3774
  791MPD2    H211664   4.577   0.210  12.769  0.8936 -0.4913  1.0766
  791MPD2    H311665   4.387   0.202  12.621 -1.4168 -0.8983 -0.8160
  791MPD2     N11666   4.328   4.478  12.723  0.1399  0.0129  0.6418
  791MPD2    H511667   4.364   4.402  12.780  3.9850  2.0837  0.9791
  791MPD2    N111668   4.686   0.014  12.911 -0.6549  0.1729 -0.4175
  791MPD2    H711669   0.021   0.096  12.917  0.9776 -0.9956 -0.4509
  792MPD2     C11670   0.335   4.400  11.348 -0.8826  0.3244 -0.0835
  792MPD2    C111671   0.272   4.504  11.278  1.0079  0.5073 -0.0802
  792MPD2    C211672   0.143   4.493  11.243  0.2602 -0.2338  0.2400
  792MPD2    C311673   0.075   4.374  11.271  0.0223  0.2544 -0.4626
  792MPD2    C411674   0.142   4.271  11.341 -0.0300 -0.5222 -0.0300
  792MPD2    C511675   0.271   4.286  11.383 -0.2849  0.5444  0.0176
  792MPD2     H11676   0.092   4.580  11.203  0.3517 -1.3802 -2.3869
  792MPD2    H111677   0.092   4.176  11.362  0.9478 -1.2513 -0.9989
  792MPD2    H211678   0.441   4.403  11.372 -1.2672  1.7597  1.4262
  792MPD2    H311679   0.326   4.206  11.430 -1.9885 -0.0506  1.0207
  792MPD2     N11680   4.667   4.359  11.240 -0.1618 -0.7145  0.3625
  792MPD2    H511681   4.626   4.268  11.260 -1.3336 -0.4682 -0.9032
  792MPD2    N111682   0.350   4.612  11.235  0.0309 -0.1258  0.6656
  792MPD2    H711683   0.443   4.620  11.275  1.7597  0.2796 -3.4890
  793MPD2     C11684   4.496   4.113  10.396 -0.9979  0.3826 -0.2446
  793MPD2    C111685   4.594   4.159  10.476  1.1198  0.5774 -0.0557
  793MPD2    C211686   4.573   4.179  10.612 -0.3318  0.1405  0.2866
  793MPD2    C311687   4.443   4.171  10.662 -0.1846 -0.1375  0.5487
  793MPD2    C411688   4.343   4.128  10.577 -0.3147  0.0949 -0.3931
  793MPD2    C511689   4.370   4.099  10.448 -0.0138 -0.5933  0.0605
  793MPD2     H11690   4.649   4.215  10.680  1.2422 -0.1801 -1.3023
  793MPD2    H111691   4.241   4.148  10.606  0.4618  1.9045  1.1003
  793MPD2    H211692   4.507   4.091  10.291  0.4640  0.2782 -0.0719
  793MPD2    H311693   4.295   4.062  10.379 -1.8187 -1.0811  2.2723
  793MPD2     N11694   4.430   4.212  10.795  0.2962  0.3916  0.1332
  793MPD2    H511695   4.512   4.240  10.848  0.3745 -1.0130  0.7764
  793MPD2    N111696   4.721   4.200  10.434 -0.0531  0.0229 -0.6936
  793MPD2    H711697   0.066   4.228  10.503  0.0980  1.5796 -1.4876
  794MPD2     C11698   0.373   3.472  16.628 -0.3916 -0.9016  0.1701
  794MPD2    C111699   0.260   3.506  16.705 -0.1924 -0.0906  0.4948
  794MPD2    C211700   0.175   3.601  16.649  0.4209  0.6201  0.0501
  794MPD2    C311701   0.192   3.664  16.528  0.4806  0.0721  0.0527
  794MPD2    C411702   0.300   3.622  16.455  0.0864 -0.3060  0.4950
  794MPD2    C511703   0.387   3.531  16.506 -0.6555  0.0472  0.1133
  794MPD2     H11704   0.088   3.621  16.710 -0.2704  1.0407 -1.0756
  794MPD2    H111705   0.336   3.656  16.359 -1.7255 -3.6573 -1.4119
  794MPD2    H211706   0.454   3.415  16.672 -0.4003 -3.3539 -3.0218
  794MPD2    H311707   0.472   3.508  16.442 -1.6711  0.6964 -1.4593
  794MPD2     N11708   0.112   3.758  16.469  0.1253 -0.4913 -0.2543
  794MPD2    H511709   0.136   3.790  16.376  2.6971 -0.8148  0.2951
  794MPD2    N111710   0.246   3.463  16.840 -0.0712 -0.1151 -0.6764
  794MPD2    H711711   0.168   3.501  16.893  0.1581  0.4605 -0.7453
  795MPD2     C11712   2.616   1.436  13.356  0.1974  0.3262  0.0334
  795MPD2    C111713   2.543   1.326  13.329 -0.2277 -0.1411  0.4499
  795MPD2    C211714   2.583   1.202  13.368 -0.5072 -0.5258  0.1804
  795MPD2    C311715   2.711   1.178  13.417 -0.5322  0.2313 -0.8766
  795MPD2    C411716   2.788   1.296  13.437 -0.4826 -0.9599  0.4631
  795MPD2    C511717   2.740   1.422  13.406 -0.5426 -0.3938 -0.1384
  795MPD2     H11718   2.519   1.118  13.342  0.5422 -1.3672  0.3237
  795MPD2    H111719   2.885   1.289  13.483  0.4474 -0.7602 -1.4628
  795MPD2    H211720   2.579   1.533  13.326  0.5735  0.5450  0.2895
  795MPD2    H311721   2.799   1.512  13.420  0.8455 -1.0952 -1.3639
  795MPD2     N11722   2.766   1.050  13.449  0.3920  0.6420  0.0453
  795MPD2    H511723   2.859   1.052  13.490  0.3050  2.3787  0.1398
  795MPD2    N111724   2.409   1.332  13.270  0.2935 -0.3746 -0.0412
  795MPD2    H711725   2.357   1.246  13.253 -1.9279  0.8252  0.7899
  796MPD2     C11726   2.892   2.655  15.678  0.2725 -0.0250 -0.4968
  796MPD2    C111727   2.813   2.573  15.753  0.4286  0.0370 -0.0796
  796MPD2    C211728   2.683   2.613  15.790  0.4485  0.5401 -0.0095
  796MPD2    C311729   2.634   2.731  15.737  0.3618  1.1800  0.0186
  796MPD2    C411730   2.714   2.803  15.654  0.1496  0.1267 -0.4452
  796MPD2    C511731   2.841   2.770  15.629 -0.7965  0.3444 -0.5963
  796MPD2     H11732   2.619   2.551  15.852 -1.0029  2.1266  0.0633
  796MPD2    H111733   2.687   2.904  15.625  1.1537  0.6166  0.3296
  796MPD2    H211734   2.995   2.627  15.658  0.5814  1.4732 -0.9875
  796MPD2    H311735   2.901   2.828  15.560  0.2857 -0.8460 -0.6614
  796MPD2     N11736   2.505   2.763  15.777  0.3795 -0.3560 -0.9572
  796MPD2    H511737   2.451   2.686  15.814  0.2401 -0.3531 -1.1567
  796MPD2    N111738   2.872   2.461  15.815  0.8385 -0.0987 -0.4335
  796MPD2    H711739   2.972   2.474  15.824  0.5603  1.9549 -0.4086
  797MPD2     C11740   2.704   2.075  17.506  0.4942  0.2899 -0.5628
  797MPD2    C111741   2.781   2.176  17.472 -0.3772 -0.7476 -0.2257
  797MPD2    C211742   2.764   2.243  17.351  0.2232 -0.5581  0.0240
  797MPD2    C311743   2.663   2.210  17.264  0.0186 -0.4957  0.0093
  797MPD2    C411744   2.586   2.102  17.295  0.2054  0.4264 -0.3286
  797MPD2    C511745   2.605   2.044  17.421  0.1779 -0.6047 -0.2934
  797MPD2     H11746   2.824   2.333  17.340 -0.3430 -0.0484  1.0874
  797MPD2    H111747   2.494   2.083  17.241  0.9421 -0.1112 -1.3651
  797MPD2    H211748   2.709   2.019  17.599 -2.0495  0.5977 -0.2561
  797MPD2    H311749   2.528   1.976  17.454  0.3829  0.0820  1.5551
  797MPD2     N11750   2.618   2.284  17.150 -0.5005 -0.2951 -0.4673
  797MPD2    H511751   2.527   2.263  17.109 -0.1430  1.8956 -2.4002
  797MPD2    N111752   2.865   2.247  17.566 -0.6203 -1.0235 -0.4896
  797MPD2    H711753   2.906   2.336  17.540  0.0745 -1.1685  0.1308
  798MPD2     C11754   2.595   2.911  17.419  0.0756 -0.4410  1.0621
  798MPD2    C111755   2.634   2.792  17.362 -0.6247  0.4284 -0.4303
  798MPD2    C211756   2.725   2.718  17.428 -0.0873 -0.3799 -0.3817
  798MPD2    C311757   2.786   2.759  17.547  0.2186  0.2870  0.3502
  798MPD2    C411758   2.742   2.879  17.608  0.2481  0.2554  0.1510
  798MPD2    C511759   2.648   2.947  17.537 -0.4282  0.1999 -1.0862
  798MPD2     H11760   2.778   2.635  17.383  1.7565 -0.3538  1.7479
  798MPD2    H111761   2.791   2.933  17.688 -0.6422 -0.2749  1.0501
  798MPD2    H211762   2.521   2.973  17.369 -0.2080 -2.1719 -0.6767
  798MPD2    H311763   2.623   3.048  17.568  1.2532  0.0344  0.8083
  798MPD2     N11764   2.885   2.673  17.601 -0.0780  0.0160 -0.2071
  798MPD2    H511765   2.900   2.585  17.553  1.4590 -0.4284  1.1081
  798MPD2    N111766   2.578   2.734  17.240  0.5673  0.4150  0.5092
  798MPD2    H711767   2.613   2.644  17.207 -1.7224 -0.3417  0.1208
  799MPD2     C11768   1.966   3.524  14.822  0.4065 -0.4822 -0.3543
  799MPD2    C111769   2.072   3.608  14.798 -0.1927  0.5630 -0.7177
  799MPD2    C211770   2.046   3.732  14.747 -0.4510 -0.8456  0.2472
  799MPD2    C311771   1.920   3.773  14.700  0.4090 -0.3368 -0.3799
  799MPD2    C411772   1.821   3.677  14.710 -0.6183 -0.3463 -0.2227
  799MPD2    C511773   1.837   3.561  14.780  0.1247  0.5683  0.6296
  799MPD2     H11774   2.134   3.792  14.725 -0.3413 -0.9670  0.3561
  799MPD2    H111775   1.725   3.685  14.660  0.7077  3.2027 -2.2056
  799MPD2    H211776   1.980   3.420  14.848  1.2048 -0.2289  0.2452
  799MPD2    H311777   1.759   3.486  14.784  0.4270  0.1828 -0.6352
  799MPD2     N11778   1.891   3.901  14.637 -0.0204  0.4718 -0.0843
  799MPD2    H511779   1.801   3.913  14.593  0.1272 -1.8883 -1.0647
  799MPD2    N111780   2.205   3.569  14.821 -0.0299  0.2175 -0.2617
  799MPD2    H711781   2.274   3.634  14.784 -1.1929  1.4359 -0.3067
  800MPD2     C11782   2.457   0.115  14.650 -0.2327 -0.2257  0.4468
  800MPD2    C111783   2.523   0.170  14.541 -0.6871 -0.0974  0.4876
  800MPD2    C211784   2.475   0.137  14.419  0.2251 -0.1021  0.5663
  800MPD2    C311785   2.368   0.052  14.393 -0.8531 -0.4234  0.1375
  800MPD2    C411786   2.305   4.722  14.505 -0.4764  0.3058  0.2790
  800MPD2    C511787   2.356   0.023  14.632 -0.2695  0.1953 -0.0301
  800MPD2     H11788   2.516   0.186  14.331  1.4142 -0.1597  1.0859
  800MPD2    H111789   2.215   4.661  14.500 -1.0621  1.1236  0.8764
  800MPD2    H211790   2.498   0.125  14.749  1.1152 -3.3704  0.2256
  800MPD2    H311791   2.298   4.707  14.714  1.5201 -2.5675 -0.0960
  800MPD2     N11792   2.338   0.023  14.255 -0.1894  0.1735 -0.7530
  800MPD2    H511793   2.397   0.069  14.187  0.3395  2.1853  1.0623
  800MPD2    N111794   2.638   0.251  14.558 -0.0550 -0.3041  0.5266
  800MPD2    H711795   2.681   0.259  14.649 -3.8686 -0.3911  2.3158
  801MPD2     C11796   2.740   1.014  14.361  0.1711  0.9798  0.6383
  801MPD2    C111797   2.727   0.924  14.462  0.0886  0.3882 -0.0062
  801MPD2    C211798   2.617   0.934  14.553  0.4105  0.0386 -0.2421
  801MPD2    C311799   2.519   1.029  14.534  0.3683 -0.9919 -0.0928
  801MPD2    C411800   2.544   1.127  14.441  0.6734 -0.1879  0.3884
  801MPD2    C511801   2.652   1.121  14.355 -0.0345  0.2576  0.4098
  801MPD2     H11802   2.612   0.863  14.635 -1.7101  0.4280 -0.0269
  801MPD2    H111803   2.480   1.213  14.424  0.6424  0.1833  2.3805
  801MPD2    H211804   2.830   1.017  14.300 -0.2186 -2.4528 -0.1032
  801MPD2    H311805   2.671   1.204  14.288  0.5114 -1.2309 -1.2792
  801MPD2     N11806   2.395   1.015  14.594  0.1161 -0.0302  0.5622
  801MPD2    H511807   2.324   1.074  14.551 -0.1712 -0.3331  0.6166
  801MPD2    N111808   2.814   0.817  14.461  0.5110 -0.1530  0.1403
  801MPD2    H711809   2.871   0.806  14.378 -2.6736  0.6848 -2.1315
  802MPD2     C11810   2.215   1.326   0.752  0.5036  0.4879 -0.4838
  802MPD2    C111811   2.111   1.313   0.666 -0.0177 -0.8590  0.1746
  802MPD2    C211812   2.113   1.209   0.579 -0.2368 -0.5685  0.3926
  802MPD2    C311813   2.228   1.124   0.575 -0.1012  0.1380  0.6866
  802MPD2    C411814   2.326   1.139   0.669  0.5867 -0.8018 -0.6866
  802MPD2    C511815   2.322   1.244   0.753 -0.0643  0.6927 -0.9013
  802MPD2     H11816   2.033   1.202   0.506  0.7975 -0.2886 -0.7648
  802MPD2    H111817   2.413   1.074   0.664  1.5948  0.5283 -0.3633
  802MPD2    H211818   2.243   1.420   0.799 -0.2428  0.5607 -0.1866
  802MPD2    H311819   2.408   1.266   0.814 -3.3713  2.4378  3.0981
  802MPD2     N11820   2.232   1.014   0.487 -0.3455  0.6880 -0.0122
  802MPD2    H511821   2.148   1.008   0.429  0.9614 -0.0427 -1.8477
  802MPD2    N111822   2.000   1.402   0.663 -0.2324  0.0003 -0.2844
  802MPD2    H711823   1.925   1.383   0.597  0.0177 -0.5930 -0.3882
  803MPD2     C11824   3.011   4.442  11.657  0.3069 -0.5051 -0.3556
  803MPD2    C111825   3.116   4.492  11.736  0.2756 -0.5643  0.0509
  803MPD2    C211826   3.142   4.429  11.855  0.0729  0.3442 -0.5215
  803MPD2    C311827   3.072   4.322  11.899 -0.2986  0.5373  0.2735
  803MPD2    C411828   2.971   4.267  11.812  0.2702  0.3604 -0.0003
  803MPD2    C511829   2.935   4.334  11.694  0.0722  0.2133  0.6904
  803MPD2     H11830   3.225   4.466  11.914  0.5341 -1.7996  0.2039
  803MPD2    H111831   2.915   4.179  11.840  0.0468  0.7117  0.6693
  803MPD2    H211832   2.993   4.480  11.557  2.1012 -0.7336 -0.7616
  803MPD2    H311833   2.853   4.309  11.627  0.4878  1.6806 -0.3759
  803MPD2     N11834   3.110   4.267  12.022  0.4800  0.1930 -0.0117
  803MPD2    H511835   3.175   4.322  12.078 -0.6345  2.1117 -0.6108
  803MPD2    N111836   3.193   4.592  11.684 -0.5315  0.5723 -0.1213
  803MPD2    H711837   3.270   4.624  11.743  0.9211  0.3049 -1.8524
  804MPD2     C11838   3.007   0.875  16.907  0.0704  0.3055 -0.3087
  804MPD2    C111839   2.943   0.889  17.032 -0.2931 -0.1682  0.3118
  804MPD2    C211840   2.979   0.997  17.103  0.0745 -0.5619  0.3732
  804MPD2    C311841   3.071   1.088  17.067 -0.0674  0.1183  0.6274
  804MPD2    C411842   3.136   1.079  16.948  0.2086 -0.6345 -0.0928
  804MPD2    C511843   3.099   0.973  16.867 -1.1900  0.1751 -0.1747
  804MPD2     H11844   2.930   1.006  17.199  0.9961  0.0055  0.7848
  804MPD2    H111845   3.221   1.140  16.921 -1.4278  2.0929  0.9000
  804MPD2    H211846   2.983   0.805  16.828  0.7786  0.3646 -0.5716
  804MPD2    H311847   3.159   0.956  16.779  0.6378 -0.1694  1.1395
  804MPD2     N11848   3.095   1.185  17.164  0.8396  0.0004 -0.0991
  804MPD2    H511849   3.038   1.176  17.248 -0.9100 -1.1178 -1.4333
  804MPD2    N111850   2.841   0.806  17.081  0.5783  0.1623  0.1059
  804MPD2    H711851   2.806   0.825  17.175  1.6747  0.5367  0.4412
  805MPD2     C11852   1.710   3.697  15.820 -0.4124  1.1780  0.1944
  805MPD2    C111853   1.824   3.676  15.743 -0.1426 -0.8140 -0.7948
  805MPD2    C211854   1.947   3.710  15.795  0.0781 -0.4772  0.9464
  805MPD2    C311855   1.958   3.757  15.922 -0.0538 -0.3440 -0.1215
  805MPD2    C411856   1.846   3.777  16.002 -0.3285 -0.3204 -0.2629
  805MPD2    C511857   1.722   3.758  15.944 -0.3549  0.0137  0.0328
  805MPD2     H11858   2.041   3.699  15.743 -0.7123  0.3627 -0.6348
  805MPD2    H111859   1.851   3.818  16.102 -0.5066  0.2597 -0.4911
  805MPD2    H211860   1.610   3.676  15.784  0.2704  2.0537 -2.2539
  805MPD2    H311861   1.637   3.783  16.006  0.0925 -0.2675  0.7545
  805MPD2     N11862   2.085   3.778  15.969  0.4455  0.6774 -0.2076
  805MPD2    H511863   2.161   3.752  15.908  0.7164  2.0922 -0.4673
  805MPD2    N111864   1.828   3.617  15.610  0.6399  0.1913  0.1128
  805MPD2    H711865   1.918   3.595  15.568 -0.6747  1.0997 -3.1372
  806MPD2     C11866   2.682   2.572   0.398  0.0598  0.0306  0.9639
  806MPD2    C111867   2.570   2.633   0.457  0.3213  0.4269 -0.9572
  806MPD2    C211868   2.533   2.767   0.425 -0.8038  0.2726 -0.3000
  806MPD2    C311869   2.625   2.838   0.346  0.8948  0.5599  0.2070
  806MPD2    C411870   2.728   2.772   0.283 -0.3711  1.2030  0.8511
  806MPD2    C511871   2.755   2.638   0.310  0.0883 -0.4489 -0.1571
  806MPD2     H11872   2.452   2.821   0.474 -1.8765 -1.0124 -0.6704
  806MPD2    H111873   2.799   2.816   0.213  1.1937 -1.8532  0.5456
  806MPD2    H211874   2.713   2.472   0.427  2.3178  0.2865 -0.5427
  806MPD2    H311875   2.837   2.583   0.266  1.2383  0.9900  0.1816
  806MPD2     N11876   2.602   2.978   0.333 -1.0908  0.1807 -0.3143
  806MPD2    H511877   2.525   3.021   0.383 -0.8560 -2.7935  2.5789
  806MPD2    N111878   2.499   2.565   0.563 -0.2824  0.7600 -0.3193
  806MPD2    H711879   2.543   2.481   0.598  0.3276  1.8344  1.4835
  807MPD2     C11880   1.851   2.408   1.145 -0.5176  0.2391  0.0996
  807MPD2    C111881   1.985   2.372   1.166 -0.0660  0.1132  0.6904
  807MPD2    C211882   1.995   2.260   1.247  0.0656  0.1090 -0.7001
  807MPD2    C311883   1.885   2.185   1.300  0.3145 -0.3547  0.1491
  807MPD2    C411884   1.757   2.232   1.274  0.2631 -1.1127  0.6860
  807MPD2    C511885   1.744   2.343   1.200 -0.3468  0.0943 -0.0570
  807MPD2     H11886   2.092   2.212   1.255 -0.2745 -0.3216  0.8749
  807MPD2    H111887   1.682   2.164   1.314  1.0603 -1.2941  1.8518
  807MPD2    H211888   1.830   2.500   1.093 -2.2485 -1.1662 -1.6857
  807MPD2    H311889   1.646   2.368   1.161 -1.0661  0.1316  1.7286
  807MPD2     N11890   1.913   2.068   1.381  0.0080 -0.0983  0.0880
  807MPD2    H511891   2.010   2.039   1.392 -0.5353 -1.5010  1.1259
  807MPD2    N111892   2.099   2.422   1.095  0.8499  0.1040 -0.1749
  807MPD2    H711893   2.188   2.374   1.108  0.7905 -0.0622 -0.3932
  808MPD2     C11894   1.914   4.243   9.620 -0.7299 -0.3158 -0.1342
  808MPD2    C111895   1.914   4.383   9.607  0.1050 -0.2040  0.3869
  808MPD2    C211896   2.009   4.452   9.676 -0.3840  0.5901 -0.4209
  808MPD2    C311897   2.103   4.391   9.761  0.1720 -1.0464 -0.1006
  808MPD2    C411898   2.097   4.255   9.777  0.0313 -0.1145  0.1219
  808MPD2    C511899   2.004   4.185   9.701  0.6997  0.4103 -0.5132
  808MPD2     H11900   1.991   4.559   9.675  0.5534  0.7513  2.3093
  808MPD2    H111901   2.157   4.195   9.843 -0.2871 -0.3125  0.2321
  808MPD2    H211902   1.852   4.174   9.564 -1.2713  0.8629 -0.9971
  808MPD2    H311903   2.022   4.079   9.710  1.1015  0.2708 -2.9482
  808MPD2     N11904   2.209   4.459   9.831 -0.4614  0.3192  0.0918
  808MPD2    H511905   2.272   4.392   9.874  0.3401  1.4738  0.7067
  808MPD2    N111906   1.822   4.457   9.528 -0.1432  0.2404  0.4734
  808MPD2    H711907   1.826   4.558   9.540  0.1868  0.4448 -1.3663
  809MPD2     C11908   3.043   0.072   9.621  0.3769 -0.3272 -0.4381
  809MPD2    C111909   3.058   4.683   9.706  0.1439 -0.1729  0.0211
  809MPD2    C211910   2.942   4.627   9.760 -1.0551 -0.4757 -0.3419
  809MPD2    C311911   2.819   4.685   9.740  0.3281  0.8200  0.1900
  809MPD2    C411912   2.804   0.080   9.671  1.0383  0.4232 -0.0874
  809MPD2    C511913   2.915   0.123   9.606  0.0191 -0.4267  0.4552
  809MPD2     H11914   2.949   4.526   9.800 -0.6409 -0.4001 -0.2167
  809MPD2    H111915   2.711   0.135   9.661  0.5893 -0.5814 -1.4722
  809MPD2    H211916   3.127   0.116   9.569 -0.7693  1.4293 -0.8108
  809MPD2    H311917   2.915   0.218   9.554 -2.9740 -0.0825  1.0787
  809MPD2     N11918   2.706   4.643   9.797 -0.3277  0.3855 -0.2909
  809MPD2    H511919   2.620   4.692   9.774 -0.9776 -1.2373 -1.2864
  809MPD2    N111920   3.180   4.621   9.727 -0.2023 -0.1158 -0.1682
  809MPD2    H711921   3.181   4.534   9.780 -0.6427  0.0599  0.1293
  810MPD2     C11922   2.815   4.474  10.297 -0.2969 -0.3623 -0.3962
  810MPD2    C111923   2.699   4.520  10.356  0.1755 -0.0119  0.0834
  810MPD2    C211924   2.698   4.650  10.397  0.0492  0.2260  0.5445
  810MPD2    C311925   2.798   0.014  10.374  0.1110 -0.4055  0.0067
  810MPD2    C411926   2.921   4.690  10.322  0.5327 -0.0006  0.3059
  810MPD2    C511927   2.926   4.555  10.291 -0.2318 -0.6729 -0.0743
  810MPD2     H11928   2.607   4.681  10.448 -1.9473 -0.1535 -2.7966
  810MPD2    H111929   3.016   0.019  10.320  0.8271 -0.5755 -0.6913
  810MPD2    H211930   2.824   4.372  10.262  2.2296 -1.3435  3.0742
  810MPD2    H311931   3.015   4.509  10.250  0.1282  0.2948 -0.3747
  810MPD2     N11932   2.789   0.146  10.415  0.4771  0.2792 -0.2224
  810MPD2    H511933   2.858   0.211  10.377 -1.2592  2.0826 -0.3225
  810MPD2    N111934   2.576   4.449  10.354  0.3574 -0.1466  0.5420
  810MPD2    H711935   2.584   4.351  10.330 -2.3554 -0.5325  1.2675
  811MPD2     C11936   1.649   4.477  10.295 -0.4509  0.2086  0.4991
  811MPD2    C111937   1.767   4.546  10.281 -0.5940 -0.2073  0.2516
  811MPD2    C211938   1.762   4.677  10.243 -0.2029  0.1982 -0.1916
  811MPD2    C311939   1.641   0.013  10.201  0.5129 -0.1895 -0.7903
  811MPD2    C411940   1.527   4.667  10.214  0.0191  0.3283 -0.4448
  811MPD2    C511941   1.534   4.539  10.260 -0.4296  0.2571  0.7379
  811MPD2     H11942   1.857   0.003  10.229  1.2576 -2.1534  1.3909
  811MPD2    H111943   1.429   4.697  10.178  0.6844 -0.7079 -3.1239
  811MPD2    H211944   1.646   4.374  10.330 -0.0839 -0.4352 -1.3544
  811MPD2    H311945   1.444   4.480  10.276 -0.3621  0.4182  1.7468
  811MPD2     N11946   1.645   0.146  10.152  0.1647  0.2228 -0.8356
  811MPD2    H511947   1.725   0.204  10.176  1.2947 -1.1162 -1.3488
  811MPD2    N111948   1.889   4.484  10.313  0.1284 -0.0578  0.3296
  811MPD2    H711949   1.886   4.403  10.374 -0.2109  1.5315  2.4171
  812MPD2     C11950   1.038   4.447  12.421  0.2068  0.0821  0.1480
  812MPD2    C111951   0.932   4.504  12.490 -0.2236  0.1874 -0.5753
  812MPD2    C211952   0.890   4.443  12.612  0.8908 -0.0028 -0.2274
  812MPD2    C311953   0.958   4.338  12.666 -0.4997  0.2374  0.6290
  812MPD2    C411954   1.063   4.295  12.598 -0.6355 -0.1652  0.7945
  812MPD2    C511955   1.101   4.335  12.477 -0.3576 -0.7319 -1.0619
  812MPD2     H11956   0.820   4.494  12.676  0.2230 -1.8174  0.4635
  812MPD2    H111957   1.126   4.225  12.650 -1.8840 -2.2070 -0.4155
  812MPD2    H211958   1.066   4.490  12.325 -1.0842 -1.9159 -1.1200
  812MPD2    H311959   1.183   4.292  12.421 -0.0343 -0.9949 -0.3897
  812MPD2     N11960   0.920   4.279  12.795  0.1197  0.6784  0.1152
  812MPD2    H511961   0.842   4.323  12.841  0.3581 -0.2768  1.4375
  812MPD2    N111962   0.870   4.620  12.426  0.2928  0.8644 -0.0451
  812MPD2    H711963   0.907   4.647  12.335  0.5834 -2.1251 -0.8163
  813MPD2     C11964   0.689   1.333  12.539 -0.4071 -0.1040 -0.1133
  813MPD2    C111965   0.646   1.458  12.559  0.3315 -0.0420  0.2093
  813MPD2    C211966   0.572   1.488  12.674 -0.3180  0.3754  0.0662
  813MPD2    C311967   0.567   1.399  12.780 -0.1560 -0.0692 -0.1769
  813MPD2    C411968   0.600   1.272  12.748 -0.4819 -0.7047  0.7487
  813MPD2    C511969   0.660   1.237  12.629 -0.5159  0.4768 -0.5098
  813MPD2     H11970   0.531   1.587  12.687 -1.0652  0.4364 -2.6520
  813MPD2    H111971   0.576   1.191  12.816 -0.6511 -0.3562  1.1082
  813MPD2    H211972   0.738   1.302  12.448 -0.7929  1.1802 -0.7611
  813MPD2    H311973   0.666   1.130  12.614 -2.7440  0.7488 -3.3973
  813MPD2     N11974   0.521   1.452  12.900  0.0321  0.2590 -0.3222
  813MPD2    H511975   0.513   1.554  12.904  0.7137  0.3816 -1.9528
  813MPD2    N111976   0.671   1.562  12.471 -0.2661 -0.1378 -0.4658
  813MPD2    H711977   0.758   1.563  12.419  0.6270 -2.0558  0.9859
  814MPD2     C11978   0.771   2.730  12.596  0.2840  0.0125  0.1785
  814MPD2    C111979   0.783   2.841  12.520 -0.5810  0.7905 -0.9827
  814MPD2    C211980   0.823   2.964  12.579  0.4280  0.0598  0.1067
  814MPD2    C311981   0.865   2.967  12.708 -0.0388  0.2286  0.0173
  814MPD2    C411982   0.863   2.845  12.785  0.4236  0.6040 -0.1134
  814MPD2    C511983   0.812   2.729  12.728 -1.3199 -0.0776  0.7384
  814MPD2     H11984   0.824   3.052  12.515  2.8863 -0.9331 -1.2186
  814MPD2    H111985   0.888   2.849  12.890  0.4151  0.0316 -0.0897
  814MPD2    H211986   0.735   2.634  12.559 -0.6439 -0.8860  3.3771
  814MPD2    H311987   0.800   2.632  12.775 -0.8824 -0.4760  0.0372
  814MPD2     N11988   0.906   3.091  12.776  0.2364 -0.7109 -0.0098
  814MPD2    H511989   0.954   3.078  12.864 -1.3486 -1.3787  0.7577
  814MPD2    N111990   0.753   2.838  12.381 -0.2874 -0.4580  0.6562
  814MPD2    H711991   0.765   2.925  12.330 -1.7245 -0.1970  0.7477
  815MPD2     C11992   0.907   1.425  11.941 -0.3309 -0.4451 -0.6298
  815MPD2    C111993   0.905   1.289  11.943 -0.0421  0.3570  0.0982
  815MPD2    C211994   0.791   1.227  11.998  0.4239 -0.6114 -0.2616
  815MPD2    C311995   0.691   1.299  12.055 -0.8139 -0.1544 -0.0128
  815MPD2    C411996   0.699   1.440  12.059  0.3535 -0.0189 -0.3307
  815MPD2    C511997   0.809   1.498  12.002 -0.1191  0.5080 -0.4294
  815MPD2     H11998   0.776   1.119  11.998 -0.8063 -0.4373  0.1426
  815MPD2    H111999   0.626   1.505  12.105  0.0100  0.4567 -1.5686
  815MPD2    H212000   0.994   1.474  11.900  0.7243 -1.3386  0.5510
  815MPD2    H312001   0.821   1.606  12.005  2.2067  0.2461 -0.4721
  815MPD2     N12002   0.583   1.233  12.113 -0.2155  0.5069 -0.4260
  815MPD2    H512003   0.581   1.132  12.118  1.3726  0.5018  0.3753
  815MPD2    N112004   0.993   1.223  11.863 -0.1333 -0.4562  0.3997
  815MPD2    H712005   1.049   1.273  11.795 -2.5112 -0.9112 -1.9271
  816MPD2     C12006   0.936   4.724  17.484  0.4570  0.3717  0.0828
  816MPD2    C112007   1.023   0.102  17.475 -0.3138 -0.2238  0.3097
  816MPD2    C212008   1.140   0.079  17.415 -0.3088  0.3322  0.4958
  816MPD2    C312009   1.172   4.686  17.344  0.4176 -0.8659 -0.1154
  816MPD2    C412010   1.082   4.585  17.341 -0.1387 -0.5972 -0.2862
  816MPD2    C512011   0.972   4.603  17.416  0.3287  0.6695 -0.8934
  816MPD2     H12012   1.208   0.163  17.408 -2.8960  2.3956  0.4221
  816MPD2    H112013   1.097   4.497  17.280  1.3051  0.0032 -0.8023
  816MPD2    H212014   0.840   0.001  17.535  0.5481 -1.3089  0.2870
  816MPD2    H312015   0.905   4.518  17.408  0.1342  0.8766 -1.4577
  816MPD2     N12016   1.302   4.690  17.285  0.5372 -0.1042  0.1966
  816MPD2    H512017   1.357   0.050  17.295  1.0387 -0.3841 -0.2512
  816MPD2    N112018   0.994   0.229  17.536  0.2674  0.0590  0.5889
  816MPD2    H712019   1.063   0.303  17.526  0.4336 -0.4660 -2.1438
  817MPD2     C12020   0.556   2.383   9.617  0.6418 -0.8809 -0.2514
  817MPD2    C112021   0.458   2.317   9.548  0.8063  0.3693 -0.2982
  817MPD2    C212022   0.345   2.381   9.505 -0.0120  0.6822 -0.7938
  817MPD2    C312023   0.333   2.511   9.522 -0.0592 -0.1964 -0.0519
  817MPD2    C412024   0.433   2.576   9.582 -0.3423 -0.4577 -0.0921
  817MPD2    C512025   0.537   2.512   9.640 -0.0954  0.4071 -0.1937
  817MPD2     H12026   0.280   2.322   9.442  0.2905 -1.1081  0.5596
  817MPD2    H112027   0.435   2.685   9.582  0.4138 -0.4756 -0.5215
  817MPD2    H212028   0.639   2.335   9.667 -0.6031 -0.4008  2.3021
  817MPD2    H312029   0.614   2.566   9.692 -2.0050  4.0943 -1.2248
  817MPD2     N12030   0.222   2.583   9.467  0.3730 -0.6498  0.1251
  817MPD2    H512031   0.157   2.532   9.407  0.2082 -0.2658 -0.0274
  817MPD2    N112032   0.460   2.175   9.531  0.1435 -0.6604 -0.0465
  817MPD2    H712033   0.386   2.129   9.478 -0.4403 -0.8467  0.9493
  818MPD2     C12034   0.016   2.130  10.132 -0.2515 -0.1233  0.1412
  818MPD2    C112035   4.603   2.128  10.137  0.2746  0.4456  0.2334
  818MPD2    C212036   4.533   2.017  10.184 -0.1685  0.0882 -0.6313
  818MPD2    C312037   4.596   1.891  10.205  0.3394  0.4534 -0.0690
  818MPD2    C412038   0.007   1.895  10.184 -1.1584  0.2755 -0.5013
  818MPD2    C512039   0.078   2.008  10.160  0.0523  0.1643  0.2340
  818MPD2     H12040   4.425   2.020  10.188 -0.1510 -0.7769  0.7094
  818MPD2    H112041   0.068   1.808  10.206 -1.3290  0.4387  0.6667
  818MPD2    H212042   0.073   2.210  10.087 -0.7331 -0.1970 -0.5959
  818MPD2    H312043   0.185   2.001  10.173  0.6480  1.3344 -3.9754
  818MPD2     N12044   4.523   1.774  10.237  0.2903  0.3323  0.2530
  818MPD2    H512045   4.575   1.690  10.263 -0.6927 -0.5219 -0.5217
  818MPD2    N112046   4.528   2.243  10.092 -0.6547  0.0968  0.2417
  818MPD2    H712047   4.427   2.241  10.090 -0.6105 -0.0268 -1.8253
  819MPD2     C12048   2.830   3.443  15.502 -0.5972  0.1465 -0.0358
  819MPD2    C112049   2.876   3.316  15.471  0.4319 -0.0131  0.2284
  819MPD2    C212050   2.997   3.281  15.530  1.2122 -0.0282 -0.0719
  819MPD2    C312051   3.053   3.347  15.637  0.6957 -0.0494  0.5572
  819MPD2    C412052   2.994   3.457  15.685  0.3550  0.7649  0.5516
  819MPD2    C512053   2.890   3.510  15.606  0.0468 -0.1454 -0.5093
  819MPD2     H12054   3.044   3.187  15.505  1.3386  0.2176 -0.7795
  819MPD2    H112055   3.024   3.508  15.775 -1.1333 -0.4347  1.7123
  819MPD2    H212056   2.744   3.480  15.448 -0.7595 -0.7789 -0.4170
  819MPD2    H312057   2.849   3.607  15.632 -2.4616 -1.4216  0.3838
  819MPD2     N12058   3.162   3.289  15.697 -1.0484 -0.3427 -0.8025
  819MPD2    H512059   3.202   3.210  15.648  0.2893  0.1721 -0.5220
  819MPD2    N112060   2.806   3.231  15.383  0.2069  0.5168 -0.8937
  819MPD2    H712061   2.721   3.270  15.342 -1.1171 -1.0915  0.3413
  820MPD2     C12062   1.925   3.018  14.997 -0.1796  0.5731  0.1059
  820MPD2    C112063   1.980   3.114  15.077 -0.4188  0.2345  0.7390
  820MPD2    C212064   2.115   3.100  15.098 -0.2475 -0.2245  0.0543
  820MPD2    C312065   2.195   3.004  15.039  0.1638 -0.6576  0.9190
  820MPD2    C412066   2.133   2.917  14.946 -0.8188 -1.1752  0.1206
  820MPD2    C512067   1.999   2.926  14.925  0.2505 -0.4551 -0.3210
  820MPD2     H12068   2.170   3.167  15.163 -1.6875  1.2148 -0.2050
  820MPD2    H112069   2.200   2.851  14.891 -0.7167  0.8212 -2.1228
  820MPD2    H212070   1.819   3.031  14.979  0.0814  1.4048 -0.8757
  820MPD2    H312071   1.952   2.864  14.849  1.4906 -1.7438 -0.0382
  820MPD2     N12072   2.340   2.991  15.065  0.2153  0.1435 -0.0751
  820MPD2    H512073   2.385   2.922  15.005 -0.6740 -0.4412 -0.0888
  820MPD2    N112074   1.901   3.213  15.132  0.8012 -0.2911 -0.2074
  820MPD2    H712075   1.802   3.213  15.106  1.3650  1.2439 -2.3861
  821MPD2     C12076   2.141   0.495  13.777 -0.0539  0.7691  0.6021
  821MPD2    C112077   2.150   0.378  13.707  0.9092  0.5968 -0.6978
  821MPD2    C212078   2.209   0.380  13.582  0.2735 -0.5799 -0.1988
  821MPD2    C312079   2.265   0.494  13.522  0.9121  0.1100 -0.3756
  821MPD2    C412080   2.232   0.612  13.582  0.1663  0.8647  1.3147
  821MPD2    C512081   2.172   0.610  13.704  0.1654  0.0750  0.1731
  821MPD2     H12082   2.214   0.283  13.534 -0.3644 -0.3647 -0.6879
  821MPD2    H112083   2.249   0.702  13.524  3.1538 -1.9694 -2.1642
  821MPD2    H212084   2.093   0.499  13.874  0.6290 -1.0165  1.0060
  821MPD2    H312085   2.147   0.705  13.751 -2.1559  0.8510 -2.6672
  821MPD2     N12086   2.344   0.492  13.407 -0.3002  0.3978 -0.5853
  821MPD2    H512087   2.370   0.583  13.370  1.4711 -0.2482 -0.9457
  821MPD2    N112088   2.111   0.245  13.755 -0.9072 -0.4209 -0.6318
  821MPD2    H712089   2.116   0.173  13.684 -0.1214  0.6166 -1.6368
  822MPD2     C12090   3.299   4.655  16.048 -0.3849  0.0227 -0.2103
  822MPD2    C112091   3.380   0.036  16.083  0.7479  0.3888  0.0006
  822MPD2    C212092   3.327   0.153  16.135  0.3857 -0.3704 -0.1161
  822MPD2    C312093   3.192   0.166  16.166 -0.0810 -0.3981 -0.0448
  822MPD2    C412094   3.111   0.062  16.116  0.0799 -0.2489  0.7950
  822MPD2    C512095   3.165   4.671  16.066 -0.8906  0.1534 -0.3607
  822MPD2     H12096   3.396   0.234  16.154  0.6663  0.1131 -3.2148
  822MPD2    H112097   3.004   0.055  16.133  0.2552 -1.3677  1.4079
  822MPD2    H212098   3.330   4.566  15.994  1.7855 -0.0330  1.1399
  822MPD2    H312099   3.101   4.587  16.038 -0.5084 -0.3546  0.2975
  822MPD2     N12100   3.151   0.282  16.232 -0.2462  0.3709 -0.4195
  822MPD2    H512101   3.224   0.349  16.251 -1.8385  2.0199 -0.1192
  822MPD2    N112102   3.520   0.017  16.092  0.0528 -0.8193  0.3373
  822MPD2    H712103   3.570   0.097  16.131 -0.0835 -1.4176  1.7438
  823MPD2     C12104   3.028   0.359  17.106 -0.0356  0.4344 -0.1085
  823MPD2    C112105   3.058   0.298  16.987 -0.7298 -0.3066 -0.9288
  823MPD2    C212106   3.106   0.167  16.999 -0.5721 -0.5987 -0.1129
  823MPD2    C312107   3.132   0.100  17.119  0.2715  0.3231 -0.2893
  823MPD2    C412108   3.100   0.168  17.233 -0.0672  0.0131 -0.2695
  823MPD2    C512109   3.048   0.293  17.228 -0.0562  0.8657  0.2818
  823MPD2     H12110   3.123   0.107  16.910  0.6557 -1.4257  0.6753
  823MPD2    H112111   3.118   0.132  17.334  1.3710 -1.7997 -1.1772
  823MPD2    H212112   2.993   0.462  17.101 -0.0250  0.4924  1.0636
  823MPD2    H312113   3.015   0.341  17.319 -1.3451 -0.1751  0.3589
  823MPD2     N12114   3.180   4.690  17.132 -0.5373 -0.5445  0.0572
  823MPD2    H512115   3.195   4.645  17.222 -3.5625  1.4549  1.5565
  823MPD2    N112116   3.016   0.366  16.863 -0.4516 -0.7372  0.6693
  823MPD2    H712117   2.985   0.462  16.871  1.5940 -0.0822  0.6122
  824MPD2     C12118   4.093   4.070  16.309 -0.5289  0.5993  0.1030
  824MPD2    C112119   4.086   4.157  16.206 -0.0686  0.4583 -0.3638
  824MPD2    C212120   4.176   4.138  16.098 -0.4929 -0.2696  0.5281
  824MPD2    C312121   4.272   4.037  16.088 -0.5491  0.1631 -0.0559
  824MPD2    C412122   4.276   3.945  16.193  1.0483 -0.2256 -0.6202
  824MPD2    C512123   4.184   3.966  16.303 -0.5064 -0.3960  0.3241
  824MPD2     H12124   4.173   4.216  16.024  0.4667  1.7663  2.6127
  824MPD2    H112125   4.336   3.854  16.190 -0.5951 -1.3854  1.6491
  824MPD2    H212126   4.026   4.073  16.395 -1.1823 -2.4670 -0.2858
  824MPD2    H312127   4.190   3.897  16.386  1.1995  0.4380  0.8806
  824MPD2     N12128   4.363   4.026  15.978  0.2231 -0.5713  0.3856
  824MPD2    H512129   4.358   4.089  15.899  0.2757 -0.6234  0.3401
  824MPD2    N112130   3.998   4.266  16.220  0.3426 -0.0608  0.1355
  824MPD2    H712131   3.947   4.275  16.307 -0.2952 -1.9467 -0.0349
  825MPD2     C12132   4.518   4.312  15.256  0.2078  0.5234  0.1668
  825MPD2    C112133   4.543   4.337  15.388 -0.8390 -0.2862  0.2423
  825MPD2    C212134   4.564   4.471  15.429  0.3616  0.3652 -0.1952
  825MPD2    C312135   4.545   4.578  15.339 -0.4930  0.3523  0.2002
  825MPD2    C412136   4.501   4.552  15.210 -0.5736 -0.4515 -0.1421
  825MPD2    C512137   4.489   4.418  15.172 -0.6712  0.0492 -0.0997
  825MPD2     H12138   4.584   4.498  15.532  1.8860  3.3732 -1.2832
  825MPD2    H112139   4.485   4.627  15.133 -0.1572 -0.1788  0.0365
  825MPD2    H212140   4.516   4.211  15.217 -0.4389  1.1175 -1.3498
  825MPD2    H312141   4.476   4.392  15.068 -0.3551 -0.8702  0.0896
  825MPD2     N12142   4.558   4.712  15.384  0.8931  0.0564  0.0436
  825MPD2    H512143   4.551   0.062  15.314  3.9727  1.9099  1.7159
  825MPD2    N112144   4.537   4.220  15.469 -0.5882 -0.3116 -0.4975
  825MPD2    H712145   4.514   4.133  15.422  1.2788 -0.9269 -0.2908
  826MPD2     C12146   3.820   4.407  13.807  0.9398  0.4363 -0.1573
  826MPD2    C112147   3.771   4.414  13.676 -0.1995 -0.0947 -0.5883
  826MPD2    C212148   3.651   4.484  13.664  0.2110 -0.1446  0.0067
  826MPD2    C312149   3.584   4.538  13.765  0.2953  0.5450 -0.4482
  826MPD2    C412150   3.632   4.515  13.893  0.0633 -0.2603  0.3501
  826MPD2    C512151   3.755   4.460  13.916  0.1812  0.0331 -0.3475
  826MPD2     H12152   3.604   4.483  13.566 -1.4816 -2.1993  0.8579
  826MPD2    H112153   3.568   4.557  13.970  0.8650 -0.3943  1.0902
  826MPD2    H212154   3.914   4.359  13.830  1.1425  1.4199  1.0740
  826MPD2    H312155   3.803   4.447  14.012 -0.0190 -0.4629 -0.3131
  826MPD2     N12156   3.469   4.613  13.740 -0.3789 -0.2644 -0.1729
  826MPD2    H512157   3.405   4.623  13.818  1.2846  0.2377  1.1294
  826MPD2    N112158   3.839   4.346  13.566 -0.0861 -0.2599  0.2084
  826MPD2    H712159   3.928   4.301  13.583  0.2474 -0.0463 -0.9830
  827MPD2     C12160   4.438   0.991  10.222 -0.1443 -0.0528  0.0847
  827MPD2    C112161   4.525   0.891  10.261 -0.3947 -0.1670  0.9362
  827MPD2    C212162   4.540   0.782  10.187 -0.4593 -0.1397 -0.5469
  827MPD2    C312163   4.457   0.773  10.072  0.5758 -1.1062 -0.3605
  827MPD2    C412164   4.360   0.867  10.041 -0.3359 -1.0469 -0.2951
  827MPD2    C512165   4.354   0.973  10.117  0.2357 -0.3938  0.8931
  827MPD2     H12166   4.605   0.702  10.219 -0.5154 -0.5838 -1.5322
  827MPD2    H112167   4.297   0.861   9.953 -2.6945  2.7313  1.1453
  827MPD2    H212168   4.427   1.083  10.279 -0.7212 -0.2994  0.3674
  827MPD2    H312169   4.282   1.051  10.095 -0.3005 -0.9151  0.8052
  827MPD2     N12170   4.470   0.652   9.997 -0.7876  0.2522 -0.5710
  827MPD2    H512171   4.548   0.595  10.029 -1.1932 -0.1988 -0.3941
  827MPD2    N112172   4.596   0.910  10.383 -0.1955  0.5874 -0.1554
  827MPD2    H712173   4.585   1.004  10.420 -0.5461  0.9725 -1.2419
  828MPD2     C12174   3.023   0.578  12.702 -0.3657 -0.3293 -0.2706
  828MPD2    C112175   2.975   0.615  12.578  0.4310  0.1790 -0.3586
  828MPD2    C212176   3.070   0.649  12.475 -0.5338  0.8197 -0.1314
  828MPD2    C312177   3.204   0.632  12.498  0.2243 -0.6949 -0.5235
  828MPD2    C412178   3.241   0.598  12.625 -0.8633 -0.1613  0.3993
  828MPD2    C512179   3.157   0.558  12.722 -0.1587 -0.0220  0.1477
  828MPD2     H12180   3.026   0.671  12.379  0.1498 -1.6394 -0.9820
  828MPD2    H112181   3.346   0.590  12.652  0.0171  0.5037 -2.8922
  828MPD2    H212182   2.950   0.562  12.780 -2.0075  0.9821 -1.5362
  828MPD2    H312183   3.193   0.532  12.821 -0.7559 -0.7047  0.1828
  828MPD2     N12184   3.307   0.639  12.395  0.5296 -0.0896 -0.0750
  828MPD2    H512185   3.399   0.634  12.438 -1.0125  1.2266  3.3771
  828MPD2    N112186   2.837   0.616  12.538 -0.6998  0.4273  0.6082
  828MPD2    H712187   2.819   0.650  12.444  0.6769  0.2683  0.2870
  829MPD2     C12188   2.792   0.539  11.721 -0.0308 -0.2406 -0.1010
  829MPD2    C112189   2.657   0.544  11.737  0.5384 -0.3275 -0.3131
  829MPD2    C212190   2.606   0.533  11.863 -0.0740  0.2644 -0.1316
  829MPD2    C312191   2.693   0.536  11.971  0.6062 -0.1497 -0.6074
  829MPD2    C412192   2.829   0.539  11.954 -0.2458  0.3526  0.3629
  829MPD2    C512193   2.878   0.538  11.824 -0.9336  0.2617  0.0283
  829MPD2     H12194   2.500   0.544  11.882  0.1650  1.4849  0.5196
  829MPD2    H112195   2.901   0.525  12.034  2.0985 -1.2446 -2.0382
  829MPD2    H212196   2.833   0.542  11.621  1.6559 -1.9839  0.5425
  829MPD2    H312197   2.985   0.535  11.804 -1.1061 -0.4179 -0.8173
  829MPD2     N12198   2.650   0.537  12.109 -0.6525  0.8448 -0.1544
  829MPD2    H512199   2.721   0.552  12.181 -0.9994  0.1882  0.3257
  829MPD2    N112200   2.576   0.581  11.630 -0.4989  0.4710 -0.1096
  829MPD2    H712201   2.619   0.609  11.542 -2.4314 -2.0100 -1.8500
  830MPD2     C12202   3.944   3.276  16.067 -0.2557  0.8804 -0.2769
  830MPD2    C112203   3.878   3.269  15.948  0.2263  0.4405  1.0158
  830MPD2    C212204   3.946   3.308  15.830 -0.0132  0.2320 -0.1222
  830MPD2    C312205   4.070   3.375  15.840 -0.6736  0.4737  0.1989
  830MPD2    C412206   4.142   3.363  15.960 -0.2488  0.5778 -0.1243
  830MPD2    C512207   4.071   3.323  16.072  0.3000 -0.1883 -0.2465
  830MPD2     H12208   3.890   3.308  15.738  1.1886 -0.4038 -0.8608
  830MPD2    H112209   4.243   3.400  15.969  0.0874 -0.2764 -0.4443
  830MPD2    H212210   3.892   3.242  16.156  0.9417 -2.0187 -0.6983
  830MPD2    H312211   4.127   3.315  16.164 -2.5164  1.1525  1.5656
  830MPD2     N12212   4.128   3.449  15.736  0.2075  0.1605 -0.1463
  830MPD2    H512213   4.207   3.504  15.769 -0.7471  1.3013  0.2428
  830MPD2    N112214   3.749   3.217  15.951  0.3129 -0.2019 -0.0987
  830MPD2    H712215   3.713   3.197  16.044  0.7340  0.4772  0.2119
  831MPD2     C12216   3.518   0.502  16.530  0.0897  0.1607 -0.9570
  831MPD2    C112217   3.550   0.404  16.443  0.6110  0.3545  0.2423
  831MPD2    C212218   3.474   0.289  16.444 -0.3474  0.0780  0.3611
  831MPD2    C312219   3.374   0.269  16.538  1.0801 -0.6735 -0.4363
  831MPD2    C412220   3.341   0.372  16.622  1.1255  0.2565 -0.4488
  831MPD2    C512221   3.412   0.491  16.618  0.3433  0.1602 -0.0383
  831MPD2     H12222   3.500   0.209  16.376 -0.8309  0.9459 -0.8355
  831MPD2    H112223   3.274   0.359  16.706  0.8532  0.4294 -0.6406
  831MPD2    H212224   3.580   0.590  16.539 -0.1830  0.3540 -0.9729
  831MPD2    H312225   3.401   0.568  16.694  0.7026 -1.2032  1.4062
  831MPD2     N12226   3.295   0.144  16.537 -0.6771  0.2439  0.2731
  831MPD2    H512227   3.217   0.138  16.602 -0.5253  1.3817  0.5675
  831MPD2    N112228   3.658   0.424  16.350 -0.0712 -0.4407 -0.3183
  831MPD2    H712229   3.695   0.518  16.352  0.8801 -0.8253 -0.0186
  832MPD2     C12230   1.787   0.959  17.647  0.0309 -0.7662 -0.2442
  832MPD2    C112231   1.785   1.089  17.597  0.6716  0.4732 -0.2074
  832MPD2    C212232   1.680   1.121  17.507  0.2909 -0.1999 -0.4295
  832MPD2    C312233   1.592   1.023  17.466 -0.8977 -0.7911  0.1871
  832MPD2    C412234   1.610   0.894  17.513  0.1087 -0.1448 -0.7575
  832MPD2    C512235   1.705   0.859  17.605  0.1675 -0.0993 -0.1754
  832MPD2     H12236   1.671   1.219  17.462 -0.3301  0.1518  0.4579
  832MPD2    H112237   1.533   0.823  17.485 -0.1622  0.3111 -1.1590
  832MPD2    H212238   1.865   0.924   0.016 -1.3230 -0.7565  1.3561
  832MPD2    H312239   1.723   0.757  17.636 -1.9764  0.3265  2.5014
  832MPD2     N12240   1.487   1.053  17.375 -0.2047 -0.2169  0.7803
  832MPD2    H512241   1.432   0.971  17.351 -1.1462  1.2652 -2.0584
  832MPD2    N112242   1.885   1.178  17.639  0.0854 -0.4052 -0.3460
  832MPD2    H712243   1.970   1.140  17.680  1.2353  0.8266 -1.5819
  833MPD2     C12244   3.721   2.998  12.325  0.2597 -0.8291  0.1614
  833MPD2    C112245   3.808   3.094  12.286  0.0539  0.3828 -0.0990
  833MPD2    C212246   3.928   3.057  12.227 -0.1936  0.4343 -0.0238
  833MPD2    C312247   3.971   2.924  12.217 -0.1827  0.2155  1.2449
  833MPD2    C412248   3.885   2.831  12.273 -0.2671 -0.1795  0.4763
  833MPD2    C512249   3.768   2.868  12.340  0.3326  0.4135  0.6890
  833MPD2     H12250   3.982   3.141  12.187 -0.0424  0.4112  0.1329
  833MPD2    H112251   3.908   2.725  12.271 -2.9603 -0.7998  2.2351
  833MPD2    H212252   3.619   3.013  12.359 -0.6736 -1.5752 -2.2915
  833MPD2    H312253   3.695   2.799  12.382  0.1157  0.0036 -0.3577
  833MPD2     N12254   4.088   2.887  12.144  0.1991  0.2179  0.4922
  833MPD2    H512255   4.098   2.790  12.115 -0.1401  0.0651  0.8702
  833MPD2    N112256   3.749   3.219  12.292 -0.0076  0.7861  0.5066
  833MPD2    H712257   3.665   3.230  12.348  0.4253  0.3851  1.2459
  834MPD2     C12258   3.941   2.204  11.580 -0.3926 -0.7503  0.0193
  834MPD2    C112259   3.979   2.298  11.488  0.5089  0.1642  0.3571
  834MPD2    C212260   4.021   2.417  11.536 -0.7599  0.1351  0.5735
  834MPD2    C312261   4.024   2.443  11.672  0.2219  0.2174 -0.0203
  834MPD2    C412262   3.986   2.345  11.761 -0.2613 -0.1477  0.1947
  834MPD2    C512263   3.947   2.226  11.714  0.1690  0.5918  0.0606
  834MPD2     H12264   4.059   2.493  11.469  1.1770 -1.2035  0.1584
  834MPD2    H112265   3.993   2.361  11.868 -2.4767 -0.4408  0.3824
  834MPD2    H212266   3.905   2.106  11.550  1.5043 -0.9287 -1.6256
  834MPD2    H312267   3.936   2.145  11.785 -1.0846  1.0015  0.3518
  834MPD2     N12268   4.065   2.575  11.703 -0.4225 -0.0103  0.0448
  834MPD2    H512269   4.068   2.644  11.628 -0.3923 -1.2099 -1.0605
  834MPD2    N112270   3.972   2.273  11.347  0.5130  0.5378  0.5110
  834MPD2    H712271   3.958   2.176  11.322  2.2633 -0.1125  2.0001
  835MPD2     C12272   4.327   0.773  11.576 -0.4451 -0.1363 -0.0117
  835MPD2    C112273   4.206   0.819  11.615 -0.6639  0.4842 -1.2060
  835MPD2    C212274   4.194   0.841  11.749  0.3716 -0.2633  0.7105
  835MPD2    C312275   4.298   0.820  11.842  0.3240 -0.5324  0.8107
  835MPD2    C412276   4.419   0.762  11.795 -0.6422 -0.0519 -0.2215
  835MPD2    C512277   4.429   0.746  11.663  0.6134  0.4382 -0.4526
  835MPD2     H12278   4.096   0.878  11.776  0.4291 -0.4047  1.1017
  835MPD2    H112279   4.499   0.731  11.862 -1.0346 -0.0629  0.2439
  835MPD2    H212280   4.344   0.744  11.472  1.9672  1.6237 -0.1252
  835MPD2    H312281   4.523   0.700  11.635  0.1840 -0.4626 -0.4228
  835MPD2     N12282   4.291   0.860  11.977 -0.7710  0.4269  0.4103
  835MPD2    H512283   4.372   0.835  12.034  1.5359  3.3520 -1.5533
  835MPD2    N112284   4.104   0.854  11.526  0.0543 -0.3550 -0.3944
  835MPD2    H712285   4.019   0.889  11.570  1.0544  2.3730 -0.5961
  836MPD2     C12286   3.839   0.917  12.775 -0.5727  0.4511 -0.6513
  836MPD2    C112287   3.825   0.933  12.640 -0.0295 -0.2367 -0.0522
  836MPD2    C212288   3.697   0.950  12.594  0.3641  0.3080  0.4963
  836MPD2    C312289   3.589   0.948  12.681  0.3388  0.8679  0.3931
  836MPD2    C412290   3.608   0.908  12.808 -0.2019 -0.3122 -0.1825
  836MPD2    C512291   3.737   0.898  12.856  0.0303 -0.0101  0.1858
  836MPD2     H12292   3.678   0.971  12.489 -0.0035 -0.4434  0.4181
  836MPD2    H112293   3.525   0.885  12.874 -0.1755 -0.0669 -0.0626
  836MPD2    H212294   3.938   0.917  12.821 -0.3179 -1.4174 -1.2326
  836MPD2    H312295   3.761   0.880  12.960  0.8462  0.8744  0.1570
  836MPD2     N12296   3.456   0.971  12.640  0.0049 -0.2166 -0.0283
  836MPD2    H512297   3.385   0.963  12.712  1.7031  1.4942  1.8370
  836MPD2    N112298   3.942   0.937  12.563  0.2180 -0.1130 -0.5493
  836MPD2    H712299   4.032   0.930  12.609  0.3111 -0.4728 -0.7884
  837MPD2     C12300   1.987   0.859  10.118 -0.0784 -0.1687 -0.1579
  837MPD2    C112301   1.860   0.854  10.170 -0.7398  0.6254  0.8625
  837MPD2    C212302   1.813   0.975  10.214 -0.3874  0.2799 -0.0875
  837MPD2    C312303   1.876   1.096  10.207  0.5893  0.4694 -0.2823
  837MPD2    C412304   2.008   1.100  10.168  1.0547  0.1895  0.2834
  837MPD2    C512305   2.059   0.981  10.126 -0.3612  0.7261  0.4259
  837MPD2     H12306   1.709   0.972  10.245  0.0114  1.5285  1.3326
  837MPD2    H112307   2.074   1.184  10.182  1.2286  0.2794 -1.1576
  837MPD2    H212308   2.031   0.767  10.080  1.7040  0.7383 -0.3023
  837MPD2    H312309   2.164   0.982  10.099 -0.2708  0.8529  0.7901
  837MPD2     N12310   1.812   1.202  10.275  0.3978  0.5189  0.0590
  837MPD2    H512311   1.724   1.178  10.320  2.4348 -4.1046  1.5980
  837MPD2    N112312   1.777   0.741  10.174  0.1862  0.5320  0.5106
  837MPD2    H712313   1.685   0.739  10.216  1.0798  0.1973  2.4514
  838MPD2     C12314   0.079   3.828  12.277 -0.4944  0.4012  0.0078
  838MPD2    C112315   0.103   3.740  12.177  0.7968 -0.5617 -0.0515
  838MPD2    C212316   4.715   3.678  12.113  0.0702 -0.4678  0.3541
  838MPD2    C312317   4.587   3.682  12.166 -0.5303  0.5479 -0.4005
  838MPD2    C412318   4.565   3.761  12.279 -0.1141  0.0422 -0.1671
  838MPD2    C512319   4.673   3.838  12.321 -0.1422 -0.5807 -0.0485
  838MPD2     H12320   4.722   3.618  12.023 -2.8665 -0.2861 -0.0123
  838MPD2    H112321   4.468   3.772  12.325  1.5515  1.2912  3.0525
  838MPD2    H212322   0.156   3.890  12.321  0.9276 -0.7786 -0.8609
  838MPD2    H312323   4.654   3.919  12.391 -0.2150  0.8374 -1.7060
  838MPD2     N12324   4.486   3.596  12.108  0.0695  0.1012  0.0249
  838MPD2    H512325   4.514   3.549  12.023  0.5195 -3.1896  1.9911
  838MPD2    N112326   0.232   3.724  12.113 -0.1792 -0.6731  0.7814
  838MPD2    H712327   0.236   3.669  12.028  0.8805 -0.6802  0.8389
  839MPD2     C12328   0.085   3.364  11.445 -0.1599  0.0933  0.0964
  839MPD2    C112329   0.221   3.339  11.456 -0.2402  0.5455  0.1173
  839MPD2    C212330   0.302   3.431  11.513  0.1071 -0.7871 -0.3034
  839MPD2    C312331   0.253   3.547  11.574 -0.3585  1.0643  0.3626
  839MPD2    C412332   0.119   3.572  11.559 -0.1322 -0.7050 -0.2430
  839MPD2    C512333   0.039   3.484  11.488  0.6115  0.0440  0.3933
  839MPD2     H12334   0.407   3.408  11.526 -0.1377 -1.5555  0.2972
  839MPD2    H112335   0.082   3.665  11.601  1.1385  0.3148 -1.4021
  839MPD2    H212336   0.016   3.307  11.383  3.0262 -4.1236  0.4061
  839MPD2    H312337   4.658   3.503  11.469  0.4684 -0.7559  0.3803
  839MPD2     N12338   0.326   3.635  11.659  0.5530  0.6258 -0.4053
  839MPD2    H512339   0.271   3.699  11.715 -1.1457 -1.4962  0.3395
  839MPD2    N112340   0.270   3.213  11.407 -0.1270  0.5166  0.3968
  839MPD2    H712341   0.372   3.208  11.402 -0.3500 -1.9924 -1.2876
  840MPD2     C12342   0.228   1.406  10.485 -0.4955 -0.1608  0.8650
  840MPD2    C112343   0.236   1.340  10.606 -0.1668  0.2954  0.5945
  840MPD2    C212344   0.324   1.392  10.696 -0.4160  1.0508 -0.0008
  840MPD2    C312345   0.414   1.494  10.666 -0.0729 -0.6091 -0.0675
  840MPD2    C412346   0.402   1.555  10.541  0.3879  0.8453  0.1260
  840MPD2    C512347   0.309   1.509  10.450 -0.1527 -0.2773 -0.3289
  840MPD2     H12348   0.317   1.348  10.795  2.5548 -3.2337 -1.7303
  840MPD2    H112349   0.463   1.635  10.502 -0.4734  1.5763  0.2821
  840MPD2    H212350   0.159   1.371  10.410  0.4074  1.5868 -0.7695
  840MPD2    H312351   0.307   1.557  10.353 -1.0438 -0.4286 -0.3836
  840MPD2     N12352   0.512   1.548  10.755 -0.0561  0.4593 -0.0952
  840MPD2    H512353   0.560   1.631  10.724 -0.9693  0.8341 -0.4929
  840MPD2    N112354   0.148   1.231  10.626  0.0926  1.1592 -0.1969
  840MPD2    H712355   0.090   1.207  10.546 -1.7082 -1.8331  1.9856
  841MPD2     C12356   0.535   0.960  14.674 -0.7808  0.9782 -1.1789
  841MPD2    C112357   0.586   0.884  14.570  0.3504  0.0282 -0.5847
  841MPD2    C212358   0.680   0.941  14.493  0.1592  0.2508 -0.3314
  841MPD2    C312359   0.739   1.057  14.525 -0.2189 -0.6483  0.0237
  841MPD2    C412360   0.699   1.118  14.638 -0.2210  0.1399  0.1612
  841MPD2    C512361   0.587   1.082  14.704 -0.5720  0.0516 -0.5235
  841MPD2     H12362   0.721   0.888  14.408  0.3773 -0.0366 -0.0469
  841MPD2    H112363   0.749   1.208  14.672 -0.9030  1.4268 -2.2598
  841MPD2    H212364   0.480   0.910  14.753  0.7973 -1.0770 -1.3551
  841MPD2    H312365   0.550   1.136  14.790  0.3841  0.2400 -0.2390
  841MPD2     N12366   0.848   1.092  14.438  0.2058 -0.4851  0.9273
  841MPD2    H512367   0.860   1.036  14.354 -1.6254  0.9506 -0.2778
  841MPD2    N112368   0.559   0.743  14.545 -0.0207  0.0602 -1.1656
  841MPD2    H712369   0.612   0.704  14.468 -0.2860 -0.5860 -1.0196
  842MPD2     C12370   0.421   1.173  16.156  0.8173 -0.2365  0.6632
  842MPD2    C112371   0.512   1.247  16.229 -0.3078 -0.1511 -0.0111
  842MPD2    C212372   0.575   1.189  16.335 -0.2932  0.1169 -0.5794
  842MPD2    C312373   0.562   1.065  16.381  0.4625 -0.0268  0.1872
  842MPD2    C412374   0.463   0.999  16.313  0.0922  0.6538  0.3151
  842MPD2    C512375   0.397   1.049  16.206  0.1609  0.4798  0.3661
  842MPD2     H12376   0.626   1.255  16.405  0.9808 -0.9031 -0.5310
  842MPD2    H112377   0.430   0.901  16.347 -1.9178  0.6206 -1.7556
  842MPD2    H212378   0.361   1.216  16.077  0.2622  0.8058  1.6430
  842MPD2    H312379   0.323   0.984  16.160 -0.5624  1.5363  0.0319
  842MPD2     N12380   0.626   1.017  16.497  0.1487  0.6400  0.0463
  842MPD2    H512381   0.599   0.928  16.536  0.5505 -0.0442 -1.2409
  842MPD2    N112382   0.540   1.382  16.182  0.0043 -0.0416 -0.6345
  842MPD2    H712383   0.477   1.416  16.109 -0.3691 -0.3138 -0.4397
  843MPD2     C12384   3.019   2.082   1.167 -0.0034 -0.2873 -0.2932
  843MPD2    C112385   3.136   2.130   1.223  0.3377  0.4248 -0.1327
  843MPD2    C212386   3.233   2.187   1.147  0.5643  0.2787  0.3807
  843MPD2    C312387   3.206   2.207   1.012 -0.0072 -0.1417  0.1169
  843MPD2    C412388   3.080   2.177   0.961 -0.4357 -0.5951  0.2088
  843MPD2    C512389   2.990   2.109   1.039 -0.0199 -0.0259 -0.6217
  843MPD2     H12390   3.324   2.232   1.187 -0.3949  1.0567  1.6577
  843MPD2    H112391   3.060   2.211   0.860 -0.2349  0.4809  0.5283
  843MPD2    H212392   2.948   2.023   1.224  0.4994  0.2053  0.8638
  843MPD2    H312393   2.895   2.080   0.997 -2.2405 -0.5000  4.6392
  843MPD2     N12394   3.304   2.263   0.925 -0.3185  0.4557 -0.0719
  843MPD2    H512395   3.270   2.276   0.830  1.6341 -0.4180 -0.8809
  843MPD2    N112396   3.147   2.116   1.364 -0.1367 -0.0523 -0.2821
  843MPD2    H712397   3.063   2.076   1.404  0.7969 -2.7349 -0.9873
  844MPD2     C12398   1.083   0.512  16.919  0.0256  0.2303  0.0279
  844MPD2    C112399   1.149   0.551  16.807 -0.2340  0.1547  1.0723
  844MPD2    C212400   1.258   0.630  16.819  0.1981  0.2232 -0.1033
  844MPD2    C312401   1.298   0.672  16.939  0.7126 -0.2589  0.1816
  844MPD2    C412402   1.236   0.617  17.057  0.3807  0.3536 -0.6722
  844MPD2    C512403   1.117   0.546  17.042 -0.8483 -0.3363  0.0571
  844MPD2     H12404   1.317   0.658  16.732  0.2445 -0.0712 -0.1683
  844MPD2    H112405   1.259   0.646  17.159  1.5494  0.1141 -0.8672
  844MPD2    H212406   0.999   0.446  16.901  0.6605 -0.0864 -1.7713
  844MPD2    H312407   1.057   0.515  17.126 -0.2147  0.2974  0.7336
  844MPD2     N12408   1.416   0.761  16.942 -1.2145  0.0310  0.1482
  844MPD2    H512409   1.439   0.813  16.858 -2.9303 -0.9107 -0.9066
  844MPD2    N112410   1.093   0.500  16.690  0.0513  0.6832  0.2939
  844MPD2    H712411   1.024   0.426  16.700 -0.5009  0.8897 -1.8518
  845MPD2     C12412   1.638   1.752  16.902  0.0496  0.3662  0.8517
  845MPD2    C112413   1.729   1.698  16.988  1.0208 -0.5581  0.3227
  845MPD2    C212414   1.767   1.571  16.981  0.3082  0.1042  0.6472
  845MPD2    C312415   1.684   1.475  16.925 -0.1565  0.4340  1.4070
  845MPD2    C412416   1.591   1.524  16.836  0.6182 -0.5393  0.4612
  845MPD2    C512417   1.573   1.658  16.820  0.1603  0.0215  0.2279
  845MPD2     H12418   1.850   1.536  17.041  1.0102  1.0946  0.2579
  845MPD2    H112419   1.518   1.457  16.793 -1.3778  1.6221  0.5308
  845MPD2    H212420   1.632   1.859  16.889 -3.2919  0.2107  1.0151
  845MPD2    H312421   1.510   1.683  16.735 -0.9326 -1.2825  0.6539
  845MPD2     N12422   1.704   1.335  16.968 -0.0915  0.2745  0.5689
  845MPD2    H512423   1.772   1.322  17.042  0.9674  0.0653 -0.4341
  845MPD2    N112424   1.781   1.788  17.089  0.2635  0.7867 -0.4185
  845MPD2    H712425   1.761   1.887  17.081  1.3457  1.0233 -0.1519
  846MPD2     C12426   3.454   2.635  13.603 -0.1910  0.6344  0.3424
  846MPD2    C112427   3.349   2.706  13.651  0.6112  0.2473  0.2376
  846MPD2    C212428   3.305   2.680  13.779 -0.0889 -0.3145  0.7024
  846MPD2    C312429   3.359   2.578  13.853 -0.6661 -0.3414 -0.3805
  846MPD2    C412430   3.459   2.504  13.793 -0.0242 -0.3252 -0.1858
  846MPD2    C512431   3.512   2.538  13.674  0.1410 -0.5255 -0.3731
  846MPD2     H12432   3.233   2.747  13.825  1.9662  0.5352  2.7169
  846MPD2    H112433   3.490   2.414  13.843 -2.7741 -1.2080 -0.0247
  846MPD2    H212434   3.494   2.640  13.502 -2.1950  1.3212 -0.4337
  846MPD2    H312435   3.602   2.494  13.633  1.1175 -1.1150  2.3659
  846MPD2     N12436   3.315   2.564  13.988 -0.4275 -0.1128 -0.1832
  846MPD2    H512437   3.240   2.622  14.023 -1.9870 -1.3072 -1.4861
  846MPD2    N112438   3.286   2.819  13.586 -0.1654  0.5311 -0.2218
  846MPD2    H712439   3.222   2.876  13.640 -0.4738 -0.0125 -0.0156
  847MPD2     C12440   3.303   3.585  14.096 -0.1140 -0.1191 -0.1291
  847MPD2    C112441   3.353   3.654  14.207  0.1677 -0.6818 -0.5314
  847MPD2    C212442   3.460   3.612  14.270 -0.5155  0.1927  0.5111
  847MPD2    C312443   3.531   3.505  14.230 -0.4587 -0.0271 -1.1645
  847MPD2    C412444   3.484   3.437  14.117  0.3482  0.3416  0.0320
  847MPD2    C512445   3.369   3.469  14.054  0.2879 -0.1704 -0.1696
  847MPD2     H12446   3.488   3.682  14.349  0.4362  0.4446 -0.0570
  847MPD2    H112447   3.540   3.356  14.072 -0.3775 -0.5924  0.8445
  847MPD2    H212448   3.210   3.618  14.051  0.5443 -2.2422 -3.0823
  847MPD2    H312449   3.331   3.412  13.970 -0.4505 -1.0518  0.7603
  847MPD2     N12450   3.650   3.472  14.309  0.1779 -0.1435  0.3430
  847MPD2    H512451   3.683   3.532  14.384  1.2624 -0.4822  0.1231
  847MPD2    N112452   3.290   3.759  14.273  0.7796 -0.5143  0.0313
  847MPD2    H712453   3.341   3.796  14.353  0.6083  1.0388 -0.5910
  848MPD2     C12454   1.243   1.501  16.708  0.4474 -0.1774 -0.3953
  848MPD2    C112455   1.213   1.534  16.839  0.5014 -0.1045  0.5122
  848MPD2    C212456   1.194   1.662  16.874  0.3419 -0.0783 -0.1846
  848MPD2    C312457   1.209   1.754  16.774  0.0935  0.3048  0.0406
  848MPD2    C412458   1.246   1.726  16.643 -0.7654  0.2940  0.7908
  848MPD2    C512459   1.249   1.597  16.611  0.4552 -0.1995 -0.1581
  848MPD2     H12460   1.176   1.693  16.976  0.2509  0.5987 -0.4004
  848MPD2    H112461   1.261   1.804  16.569 -1.2698  0.6454  1.0552
  848MPD2    H212462   1.263   1.399  16.676 -0.5522 -0.0958 -1.2849
  848MPD2    H312463   1.283   1.576  16.511 -2.7346 -0.7133 -1.1213
  848MPD2     N12464   1.205   1.897  16.789  0.5198 -0.3391  0.3586
  848MPD2    H512465   1.203   1.963  16.713 -0.3065 -1.5474 -0.6727
  848MPD2    N112466   1.206   1.427  16.932 -0.7631  0.1166 -0.5031
  848MPD2    H712467   1.201   1.444  17.032 -1.2334 -1.5963 -0.2371
  849MPD2     C12468   0.637   1.646  13.968 -0.0379  0.0430 -0.1995
  849MPD2    C112469   0.739   1.724  13.916 -0.5254  0.2325  1.0522
  849MPD2    C212470   0.854   1.746  13.984  0.3891  0.0138  0.3598
  849MPD2    C312471   0.884   1.660  14.091  0.5560 -0.1393 -0.1184
  849MPD2    C412472   0.789   1.575  14.134  0.6400 -0.0107  0.2540
  849MPD2    C512473   0.668   1.568  14.074  0.9489 -0.7199  0.7581
  849MPD2     H12474   0.934   1.809  13.947 -0.3468  2.2332  2.5553
  849MPD2    H112475   0.802   1.500  14.211  0.7774 -1.0128 -0.7538
  849MPD2    H212476   0.540   1.637  13.920  0.1826 -0.6922 -0.5134
  849MPD2    H312477   0.597   1.489  14.097  1.0181 -1.7119 -2.4390
  849MPD2     N12478   1.018   1.661  14.133 -0.3955  0.4187 -0.6379
  849MPD2    H512479   1.079   1.714  14.071 -1.1229  1.3104 -0.6007
  849MPD2    N112480   0.730   1.795  13.797  0.0190 -0.2465 -0.9295
  849MPD2    H712481   0.797   1.869  13.777  1.0129 -1.4974 -2.3047
  850MPD2     C12482   3.545   4.374  14.866  0.2263  0.1623  0.5004
  850MPD2    C112483   3.573   4.361  14.999  0.2211  0.4121  0.0150
  850MPD2    C212484   3.703   4.359  15.027  0.1788 -0.0306  0.2272
  850MPD2    C312485   3.799   4.399  14.940 -0.4703 -0.1068  0.2037
  850MPD2    C412486   3.766   4.416  14.805  0.3964 -0.1679  0.3420
  850MPD2    C512487   3.637   4.399  14.766 -0.0516  0.1273  0.4587
  850MPD2     H12488   3.728   4.328  15.128  2.5465 -0.7907 -0.5883
  850MPD2    H112489   3.836   4.449  14.730  1.5584 -1.3208  0.9237
  850MPD2    H212490   3.443   4.369  14.831  0.7993  0.3858 -1.2084
  850MPD2    H312491   3.624   4.413  14.660  2.3013  3.7006  0.6408
  850MPD2     N12492   3.939   4.414  14.960  0.1723  0.7780  0.1269
  850MPD2    H512493   3.993   4.448  14.881 -0.3746  1.2240 -0.0499
  850MPD2    N112494   3.466   4.332  15.085  0.2004  0.3705 -0.2988
  850MPD2    H712495   3.372   4.316  15.048 -0.1386  2.4378 -0.3096
  851MPD2     C12496   3.726   4.128  15.819  0.4733 -0.5868 -0.2112
  851MPD2    C112497   3.690   4.075  15.699  0.5564 -0.7130 -0.1523
  851MPD2    C212498   3.778   4.004  15.634  0.8490 -0.0083 -0.1160
  851MPD2    C312499   3.903   3.978  15.681 -0.4999 -0.9608 -0.5613
  851MPD2    C412500   3.935   4.011  15.812  0.2197  0.0119  0.1401
  851MPD2    C512501   3.835   4.078  15.878 -0.4328 -0.0464 -0.3164
  851MPD2     H12502   3.762   3.981  15.529 -1.0809 -2.2701  0.6793
  851MPD2    H112503   4.027   4.002  15.868  0.1391  3.8386  0.8791
  851MPD2    H212504   3.673   4.207  15.870 -0.4184 -1.3338  0.0238
  851MPD2    H312505   3.865   4.117  15.975 -0.0318 -0.3336 -0.3236
  851MPD2     N12506   3.998   3.912  15.597  0.0402  0.0668  0.4758
  851MPD2    H512507   3.960   3.874  15.511  1.8698 -1.5139  0.3568
  851MPD2    N112508   3.567   4.113  15.641 -0.4457  0.2748  0.0021
  851MPD2    H712509   3.531   4.197  15.684  0.2759  0.1594  0.8400
  852MPD2     C12510   2.042   3.105   9.742 -0.3399 -0.1915 -0.2151
  852MPD2    C112511   2.116   3.075   9.851 -0.5001 -0.9619  0.6014
  852MPD2    C212512   2.252   3.085   9.853 -0.5784 -0.0342  0.1684
  852MPD2    C312513   2.324   3.134   9.742 -0.5158  0.2151  0.0719
  852MPD2    C412514   2.242   3.160   9.630 -0.0738 -0.7528 -0.3411
  852MPD2    C512515   2.105   3.149   9.629 -0.6518 -0.2283 -0.7099
  852MPD2     H12516   2.303   3.062   9.946  0.8417 -1.5457 -0.9871
  852MPD2    H112517   2.281   3.189   9.533 -0.3476  0.5396 -0.0635
  852MPD2    H212518   1.937   3.081   9.737  0.1764 -2.1735 -1.8578
  852MPD2    H312519   2.052   3.157   9.535 -1.9649 -2.5195 -0.1719
  852MPD2     N12520   2.467   3.125   9.743  0.5006 -0.2283  0.1144
  852MPD2    H512521   2.501   3.093   9.834  0.8198 -0.9179 -0.2512
  852MPD2    N112522   2.060   3.023   9.975  0.5469  0.2034  0.3965
  852MPD2    H712523   2.113   3.039  10.060  1.1117  1.4763 -0.1860
  853MPD2     C12524   0.264   1.748  12.288  0.2943 -0.0688 -0.4190
  853MPD2    C112525   0.254   1.881  12.256  0.0699 -0.1749 -0.2336
  853MPD2    C212526   0.250   1.920  12.123 -0.3913  0.3146  0.3985
  853MPD2    C312527   0.260   1.821  12.022  0.0346 -0.0098 -0.2697
  853MPD2    C412528   0.253   1.687  12.058 -0.2448 -0.0686  0.6508
  853MPD2    C512529   0.254   1.651  12.188  0.5723 -0.4327  0.6797
  853MPD2     H12530   0.249   2.026  12.105  3.5374  0.4715  1.1684
  853MPD2    H112531   0.257   1.600  11.994 -1.0128 -0.3854  1.0293
  853MPD2    H212532   0.274   1.719  12.391  0.8605  0.6317 -0.2791
  853MPD2    H312533   0.260   1.547  12.218  0.5779  0.1005  2.5001
  853MPD2     N12534   0.258   1.865  11.893 -0.4719  0.0481 -0.6726
  853MPD2    H512535   0.258   1.795  11.820 -0.2020 -0.5268 -0.1229
  853MPD2    N112536   0.250   1.974  12.362  0.3594 -0.2434 -0.8969
  853MPD2    H712537   0.265   1.939  12.456  0.6153 -0.2228 -0.9300
  854MPD2     C12538   1.702   2.324  13.162 -0.1007 -0.4435  0.7119
  854MPD2    C112539   1.744   2.307  13.028 -0.2147 -1.1353  0.6793
  854MPD2    C212540   1.855   2.230  12.995 -0.6177  0.2540 -0.5445
  854MPD2    C312541   1.917   2.160  13.097 -0.3216  0.1495  0.0109
  854MPD2    C412542   1.887   2.183  13.229  0.7211 -0.5214  0.0425
  854MPD2    C512543   1.775   2.265  13.252  0.3324  0.2974  0.2103
  854MPD2     H12544   1.888   2.223  12.892 -0.3022  4.2430 -0.7002
  854MPD2    H112545   1.935   2.121  13.304  2.9203  0.2405 -0.7512
  854MPD2    H212546   1.621   2.386  13.198 -0.1191 -0.0233 -0.0395
  854MPD2    H312547   1.738   2.265  13.354 -0.6318  1.9379 -0.1445
  854MPD2     N12548   2.026   2.079  13.072 -0.7225 -0.5974  0.1272
  854MPD2    H512549   2.080   2.053  13.154  1.9035  0.1951 -1.3425
  854MPD2    N112550   1.672   2.376  12.932  0.4125 -0.6112 -0.4615
  854MPD2    H712551   1.585   2.414  12.967  1.0266  1.9401 -1.6786
  855MPD2     C12552   2.844   1.772  13.499  0.1024  0.2700  0.7224
  855MPD2    C112553   2.710   1.762  13.514  0.8513  0.5337  0.0856
  855MPD2    C212554   2.626   1.812  13.419 -0.2146  0.3407  0.1704
  855MPD2    C312555   2.680   1.871  13.303 -0.1682  0.8477  0.0332
  855MPD2    C412556   2.816   1.887  13.292 -0.8725  0.8428  0.1199
  855MPD2    C512557   2.896   1.835  13.382  0.2242 -0.0803  0.8631
  855MPD2     H12558   2.519   1.804  13.432 -0.0006  0.6933  2.2050
  855MPD2    H112559   2.858   1.928  13.201 -0.4849 -2.2157 -1.0789
  855MPD2    H212560   2.915   1.720  13.562 -0.1163 -0.5275  0.3122
  855MPD2    H312561   3.004   1.835  13.366  0.2749 -2.4316  1.0828
  855MPD2     N12562   2.595   1.908  13.197 -0.4716 -0.4478 -0.6171
  855MPD2    H512563   2.641   1.933  13.110 -0.5746 -0.3584 -0.6452
  855MPD2    N112564   2.659   1.692  13.625 -0.2372  0.3205 -1.0112
  855MPD2    H712565   2.559   1.675  13.623 -0.0706 -0.6149 -1.2543
  856MPD2     C12566   4.033   2.944  14.037 -0.7846  0.6508  0.1987
  856MPD2    C112567   4.141   3.029  14.010 -0.9628  0.2588 -0.1437
  856MPD2    C212568   4.113   3.157  13.978  0.2448 -0.3943 -0.0842
  856MPD2    C312569   3.981   3.205  13.975  0.0531  0.1639 -0.1616
  856MPD2    C412570   3.877   3.116  13.993 -0.0214 -0.9953 -0.6084
  856MPD2    C512571   3.902   2.983  14.029  0.1048 -0.2234  0.7191
  856MPD2     H12572   4.200   3.222  13.978 -1.3421  1.7358 -2.5305
  856MPD2    H112573   3.771   3.141  13.988  0.2883 -0.1436 -2.6131
  856MPD2    H212574   4.047   2.842  14.071  1.1292  1.0032  0.4770
  856MPD2    H312575   3.819   2.916  14.047 -0.3109 -1.1087 -4.5526
  856MPD2     N12576   3.939   3.341  13.966  0.1887  0.7284 -0.8125
  856MPD2    H512577   3.840   3.358  13.961 -0.1266 -0.8565 -0.0585
  856MPD2    N112578   4.271   2.977  14.023  0.0550 -0.0260  0.1726
  856MPD2    H712579   4.277   2.880  14.053 -1.7675 -0.3935 -0.6917
  857MPD2     C12580   0.804   0.465  12.718  0.5694  0.7798 -0.4900
  857MPD2    C112581   0.944   0.437  12.697 -0.0686  0.6781  0.2977
  857MPD2    C212582   1.017   0.545  12.670  0.4935 -0.1878  0.7392
  857MPD2    C312583   0.971   0.672  12.652 -0.9683 -0.0134  0.0858
  857MPD2    C412584   0.835   0.697  12.683 -0.3385  0.6479  0.4634
  857MPD2    C512585   0.754   0.591  12.719 -0.4003  0.4083  0.3770
  857MPD2     H12586   1.125   0.528  12.665  0.4850  1.0887 -4.0240
  857MPD2    H112587   0.777   0.785  12.659 -0.7812  0.1360 -0.3199
  857MPD2    H212588   0.744   0.377  12.739  0.5428  0.3487 -2.3410
  857MPD2    H312589   0.651   0.618  12.737 -0.7918 -0.7998 -0.0491
  857MPD2     N12590   1.053   0.781  12.625  0.0700 -0.2015 -0.2491
  857MPD2    H512591   1.151   0.755  12.629  0.0287 -0.3187  0.0004
  857MPD2    N112592   0.996   0.307  12.707  0.2575 -0.3961 -0.2656
  857MPD2    H712593   0.931   0.236  12.739 -0.3767  0.2724 -0.0511
  858MPD2     C12594   1.505   3.767  17.014  0.1640  0.5795 -0.2584
  858MPD2    C112595   1.615   3.756  16.929  0.5246 -0.5254  0.2538
  858MPD2    C212596   1.719   3.846  16.943  0.6936 -0.2037 -0.0510
  858MPD2    C312597   1.713   3.944  17.047  0.7764 -0.4482  0.1330
  858MPD2    C412598   1.596   3.962  17.114 -0.3700  0.1460 -0.2211
  858MPD2    C512599   1.496   3.869  17.105  0.1646 -0.0208  0.6601
  858MPD2     H12600   1.813   3.838  16.888  1.5659 -0.8243  1.5301
  858MPD2    H112601   1.581   4.048  17.178  0.2140  0.4068 -0.4303
  858MPD2    H212602   1.427   3.693  17.018  1.0504 -0.4601 -1.9784
  858MPD2    H312603   1.414   3.875  17.175  0.5309  1.2067  0.9762
  858MPD2     N12604   1.818   4.032  17.073  0.0874  0.3586 -0.1622
  858MPD2    H512605   1.799   4.097  17.149 -0.5243  0.5104 -0.4504
  858MPD2    N112606   1.618   3.653  16.839 -0.5833  0.8152  0.2758
  858MPD2    H712607   1.533   3.601  16.823 -0.2486  0.5404 -0.5937
  859MPD2     C12608   0.499   1.453  15.157  0.2853  0.6131  0.4988
  859MPD2    C112609   0.616   1.407  15.092  0.0442 -0.0144  0.1324
  859MPD2    C212610   0.651   1.270  15.079  0.0851  0.2817  0.3648
  859MPD2    C312611   0.565   1.177  15.131  0.1948 -0.3672  0.6630
  859MPD2    C412612   0.453   1.223  15.197  0.7784 -1.3696 -0.1451
  859MPD2    C512613   0.416   1.354  15.205  0.4838  0.1611 -0.1256
  859MPD2     H12614   0.750   1.243  15.043 -0.3187 -0.5462 -0.1172
  859MPD2    H112615   0.387   1.151  15.244 -2.0661  2.2622  1.3743
  859MPD2    H212616   0.477   1.558  15.168  1.7319  1.2059 -2.0442
  859MPD2    H312617   0.325   1.371  15.262  1.2672  0.3276  1.0761
  859MPD2     N12618   0.588   1.038  15.126  0.1044 -0.1456  0.0234
  859MPD2    H512619   0.513   0.977  15.157 -1.2425  1.8722  0.7201
  859MPD2    N112620   0.700   1.516  15.045 -0.1594  0.1847 -0.3361
  859MPD2    H712621   0.641   1.598  15.036  1.8279  1.8979  2.0526
  860MPD2     C12622   3.083   2.141  11.532  0.2310 -0.2214 -0.3998
  860MPD2    C112623   3.083   2.046  11.627  0.7471 -0.3682  0.1458
  860MPD2    C212624   2.960   2.027  11.691  0.2185  0.4843 -0.4496
  860MPD2    C312625   2.844   2.093  11.657  0.3018 -0.2031  0.1245
  860MPD2    C412626   2.855   2.185  11.551  0.4757 -0.4299  0.3841
  860MPD2    C512627   2.973   2.203  11.493 -0.1259  1.1807 -0.0041
  860MPD2     H12628   2.954   1.949  11.766 -0.8037  2.2130  1.2522
  860MPD2    H112629   2.773   2.249  11.522 -1.0262 -1.2904  2.7245
  860MPD2    H212630   3.172   2.168  11.477  1.1090 -3.4851 -0.5997
  860MPD2    H312631   2.981   2.285  11.422 -0.5128  1.1328 -0.1063
  860MPD2     N12632   2.724   2.058  11.724 -0.3907 -0.7721  0.3883
  860MPD2    H512633   2.734   1.999  11.806 -0.2363  0.5834  1.3625
  860MPD2    N112634   3.199   1.987  11.661  0.0683 -0.2079 -0.3496
  860MPD2    H712635   3.282   2.022  11.614  0.9260 -1.7514  0.0081
  861MPD2     C12636   1.835   0.327  11.082  0.5251  0.5869 -0.2177
  861MPD2    C112637   1.713   0.286  11.126 -0.9005 -0.2348  0.4903
  861MPD2    C212638   1.596   0.322  11.060 -0.1216 -0.3790 -0.0937
  861MPD2    C312639   1.600   0.392  10.942  0.6643  0.1445  0.6564
  861MPD2    C412640   1.723   0.433  10.897 -0.6343 -0.2799 -0.2099
  861MPD2    C512641   1.836   0.407  10.968  0.2948  0.4057  0.2610
  861MPD2     H12642   1.502   0.289  11.104  1.4180 -3.2940  1.0665
  861MPD2    H112643   1.738   0.498  10.811 -1.5911 -2.0606 -1.7152
  861MPD2    H212644   1.929   0.309  11.132 -0.5900 -1.5920  1.1184
  861MPD2    H312645   1.926   0.458  10.933  0.6373  0.7874  1.6978
  861MPD2     N12646   1.486   0.433  10.865  0.3370  0.1936  0.0873
  861MPD2    H512647   1.496   0.498  10.788 -1.1386  1.9342  1.3805
  861MPD2    N112648   1.689   0.199  11.234  0.2756  0.2123 -0.6627
  861MPD2    H712649   1.595   0.163  11.244  0.4232  0.2859  0.9273
  862MPD2     C12650   0.898   0.521  10.427  0.4343  0.1505 -0.1273
  862MPD2    C112651   1.029   0.481  10.449 -0.7665 -0.0916 -0.1691
  862MPD2    C212652   1.052   0.373  10.524  0.2907 -0.1615 -0.4575
  862MPD2    C312653   0.956   0.309  10.595 -0.0919  0.3826 -0.7843
  862MPD2    C412654   0.825   0.349  10.578 -0.2896 -0.0575  0.2198
  862MPD2    C512655   0.798   0.448  10.488  0.3344 -0.5069  1.1217
  862MPD2     H12656   1.150   0.329  10.539 -0.3729 -1.3344  0.4874
  862MPD2    H112657   0.745   0.299  10.631 -0.7402  0.6648  0.2198
  862MPD2    H212658   0.874   0.620  10.388 -2.0278  0.8264  3.0997
  862MPD2    H312659   0.695   0.478  10.472  1.0625  0.0811 -2.3925
  862MPD2     N12660   0.976   0.202  10.688  0.4819  0.1061  0.8230
  862MPD2    H512661   0.892   0.174  10.739 -0.4899 -0.2389 -0.9754
  862MPD2    N112662   1.128   0.573  10.406 -0.4556 -0.2785 -0.1465
  862MPD2    H712663   1.108   0.630  10.325  0.9808 -1.9931 -1.7098
  863MPD2     C12664   0.483   2.886  16.299  0.5411  0.5521  0.2863
  863MPD2    C112665   0.424   2.953  16.404 -0.8680  0.0013 -0.6117
  863MPD2    C212666   0.420   2.885  16.522  0.2243 -0.2712  0.6961
  863MPD2    C312667   0.491   2.770  16.552  0.5070  0.1196 -0.7501
  863MPD2    C412668   0.557   2.710  16.446 -0.1731 -0.7158 -0.0142
  863MPD2    C512669   0.560   2.776  16.325 -0.8212 -0.5457 -0.0558
  863MPD2     H12670   0.368   2.936  16.601  2.0135  0.8270  1.1746
  863MPD2    H112671   0.613   2.621  16.473  0.9050 -0.3405 -0.9889
  863MPD2    H212672   0.478   2.928  16.200  0.6989  1.5942  0.7215
  863MPD2    H312673   0.623   2.746  16.243  0.6352  1.3604  0.3628
  863MPD2     N12674   0.485   2.707  16.675  0.0285  0.3005 -0.6323
  863MPD2    H512675   0.537   2.623  16.700  0.5495 -0.2106 -3.5228
  863MPD2    N112676   0.365   3.082  16.383  0.7097 -0.3168 -0.0050
  863MPD2    H712677   0.363   3.100  16.284  0.7601 -1.3330 -0.1918
  864MPD2     C12678   0.817   3.574  17.403  0.7823  0.2289  0.4150
  864MPD2    C112679   0.867   3.520  17.288  0.0097  0.0327  0.3642
  864MPD2    C212680   0.962   3.587  17.220 -0.5353 -0.5292 -0.4694
  864MPD2    C312681   0.996   3.714  17.256 -0.8996 -0.8943  0.4315
  864MPD2    C412682   0.961   3.762  17.380  0.5160  0.2992 -0.9726
  864MPD2    C512683   0.870   3.692  17.449  0.1865 -0.5750 -0.7671
  864MPD2     H12684   1.000   3.549  17.126  1.5387 -0.5358  0.3773
  864MPD2    H112685   0.993   3.860  17.412 -1.0746  0.6879 -0.5696
  864MPD2    H212686   0.734   3.529  17.457  1.7477 -0.6389  1.1824
  864MPD2    H312687   0.816   3.740  17.530 -0.6468 -1.3055 -0.8835
  864MPD2     N12688   1.081   3.802  17.183 -0.1046  0.6916  0.5994
  864MPD2    H512689   1.104   3.884  17.238  1.8330  0.4280  0.1715
  864MPD2    N112690   0.804   3.398  17.245  0.0235  0.8639  0.0553
  864MPD2    H712691   0.720   3.371  17.295  0.8513 -1.8429 -0.0001
  865MPD2     C12692   1.138   4.401  16.557  0.8399 -0.1292  0.1147
  865MPD2    C112693   1.089   4.285  16.613  0.1595 -0.4504  0.8478
  865MPD2    C212694   1.061   4.281  16.746 -0.2382  0.2915  0.3070
  865MPD2    C312695   1.108   4.380  16.821  0.4824 -0.4174 -0.5688
  865MPD2    C412696   1.152   4.496  16.775  0.7638  0.6185 -0.2057
  865MPD2    C512697   1.178   4.502  16.640  0.3710 -0.4264 -0.6625
  865MPD2     H12698   1.017   4.199  16.801  0.8491 -1.3453 -1.2537
  865MPD2    H112699   1.194   4.574  16.837 -0.7204  0.8592  0.5032
  865MPD2    H212700   1.159   4.401  16.450  0.2526  0.2523 -0.0030
  865MPD2    H312701   1.225   4.589  16.598 -0.6382 -0.2800 -1.4853
  865MPD2     N12702   1.117   4.373  16.965 -0.0912  0.2987 -0.0725
  865MPD2    H512703   1.132   4.462  17.012  2.1736  1.2272 -2.4993
  865MPD2    N112704   1.067   4.181  16.521 -0.8174 -0.3475 -0.3715
  865MPD2    H712705   1.095   4.187  16.423 -2.3361  1.0635 -0.7180
  866MPD2     C12706   2.219   0.429  11.368 -0.2066 -0.3251  0.4613
  866MPD2    C112707   2.205   0.505  11.256 -0.3509 -0.5311  0.4343
  866MPD2    C212708   2.086   0.563  11.224  0.2466 -0.2922 -0.9514
  866MPD2    C312709   1.981   0.532  11.310  0.0152 -0.1970  0.2979
  866MPD2    C412710   1.994   0.439  11.417  0.1642 -0.6103 -0.3365
  866MPD2    C512711   2.111   0.388  11.444 -0.0026 -0.8175  0.5035
  866MPD2     H12712   2.075   0.631  11.140  1.7022  0.3918 -0.5983
  866MPD2    H112713   1.909   0.418  11.481 -1.0831  0.6127 -1.5903
  866MPD2    H212714   2.313   0.376  11.380 -1.1189 -1.9343  0.5697
  866MPD2    H312715   2.118   0.320  11.528  0.5704 -0.3629  0.8246
  866MPD2     N12716   1.848   0.580  11.288  0.3940 -0.1934  0.3508
  866MPD2    H512717   1.785   0.554  11.363 -1.0749  2.1875 -0.0617
  866MPD2    N112718   2.318   0.519  11.174  0.4598  0.3017 -0.4630
  866MPD2    H712719   2.392   0.455  11.203 -1.1061 -1.9269 -1.3947
  867MPD2     C12720   4.292   4.477  16.282  0.1184 -0.4031  0.2891
  867MPD2    C112721   4.314   4.385  16.379 -0.2475  0.3295 -0.3871
  867MPD2    C212722   4.260   4.414  16.510  0.1196 -0.0786 -0.0333
  867MPD2    C312723   4.216   4.542  16.541 -0.0843  0.4875  0.0389
  867MPD2    C412724   4.199   4.631  16.436 -0.2650 -0.1007  0.0720
  867MPD2    C512725   4.227   4.595  16.309  0.4911 -0.0460 -0.7421
  867MPD2     H12726   4.269   4.341  16.590 -0.1104  0.0096  0.0733
  867MPD2    H112727   4.168   0.010  16.451 -1.9938 -0.7777  1.1506
  867MPD2    H212728   4.310   4.457  16.177  1.9712 -0.1760  0.5605
  867MPD2    H312729   4.207   4.667  16.230 -2.1227 -1.6802 -1.5746
  867MPD2     N12730   4.182   4.581  16.678 -0.3491 -1.2459 -0.2982
  867MPD2    H512731   4.143   4.673  16.697  0.7716 -0.4903 -1.6745
  867MPD2    N112732   4.385   4.264  16.345 -0.2271 -0.9517  0.1040
  867MPD2    H712733   4.398   4.243  16.247  1.2948  0.0761  0.0787
  868MPD2     C12734   1.413   2.835  12.780  0.0808  0.6299  0.1576
  868MPD2    C112735   1.483   2.834  12.897  0.0437 -0.4052 -0.9387
  868MPD2    C212736   1.425   2.880  13.019  0.6756 -0.4470  0.6136
  868MPD2    C312737   1.301   2.931  13.015 -0.0101 -0.0423 -0.0889
  868MPD2    C412738   1.231   2.919  12.899  0.2370  0.1456  0.2577
  868MPD2    C512739   1.283   2.876  12.783  0.2797 -0.7833  0.3246
  868MPD2     H12740   1.480   2.882  13.112  1.9400 -0.3889 -0.1336
  868MPD2    H112741   1.129   2.953  12.888  0.6677  0.1842 -3.3310
  868MPD2    H212742   1.452   2.780  12.695 -1.6207 -0.4099  0.0618
  868MPD2    H312743   1.225   2.887  12.692  0.2854 -3.0434  0.0445
  868MPD2     N12744   1.235   2.979  13.137  0.4535 -0.3056  0.6886
  868MPD2    H512745   1.299   2.976  13.215  0.9828  0.1852  0.2704
  868MPD2    N112746   1.625   2.793  12.889 -0.1924  0.1391  0.4600
  868MPD2    H712747   1.675   2.775  12.803  1.3392 -0.1094  1.4163
  869MPD2     C12748   3.034   0.636   2.236  0.0046  0.3781 -0.3204
  869MPD2    C112749   2.915   0.614   2.167 -0.3191 -0.4112 -0.1740
  869MPD2    C212750   2.846   0.731   2.123  0.1984  0.2909 -0.4812
  869MPD2    C312751   2.889   0.862   2.150  0.2255  0.2380 -0.3048
  869MPD2    C412752   3.008   0.877   2.206 -0.0427 -0.5989  0.0284
  869MPD2    C512753   3.081   0.768   2.250 -0.6861 -0.5615 -0.5138
  869MPD2     H12754   2.744   0.715   2.089 -0.0273  0.7557 -0.0366
  869MPD2    H112755   3.056   0.973   2.222 -0.9348  0.4628 -3.7245
  869MPD2    H212756   3.096   0.553   2.268  0.6301  1.4550  1.2497
  869MPD2    H312757   3.176   0.779   2.301 -0.8402  0.9777 -0.5604
  869MPD2     N12758   2.821   0.986   2.112 -0.6126 -0.5394 -0.1778
  869MPD2    H512759   2.867   1.074   2.135  1.1759 -1.0456 -1.8537
  869MPD2    N112760   2.871   0.481   2.172 -0.1595 -0.2557 -0.2015
  869MPD2    H712761   2.937   0.410   2.204 -2.1688 -2.3998 -0.8438
  870MPD2     C12762   1.537   0.350   1.713  0.6797 -0.5738 -0.0518
  870MPD2    C112763   1.651   0.298   1.663  0.3270 -0.1542 -0.2582
  870MPD2    C212764   1.716   0.377   1.567  0.1623  0.0428  0.5754
  870MPD2    C312765   1.659   0.493   1.514  0.1306 -0.2230  0.5050
  870MPD2    C412766   1.544   0.539   1.574 -0.1895 -0.6431  0.3310
  870MPD2    C512767   1.489   0.472   1.676  0.1615 -0.0745  0.1602
  870MPD2     H12768   1.817   0.347   1.541 -0.1713 -2.5376  2.2875
  870MPD2    H112769   1.504   0.635   1.544 -0.3510 -0.9708 -0.4930
  870MPD2    H212770   1.488   0.301   1.797 -0.8186 -0.7886 -1.0442
  870MPD2    H312771   1.401   0.511   1.725 -0.9475 -1.0207 -1.0756
  870MPD2     N12772   1.725   0.568   1.409 -0.3122  0.3872  0.5702
  870MPD2    H512773   1.815   0.534   1.376 -0.8109  0.0461 -0.4233
  870MPD2    N112774   1.688   0.168   1.711 -0.4229  0.4558 -0.2685
  870MPD2    H712775   1.624   0.126   1.778  0.3394  1.7263  1.2335
  871MPD2     C12776   3.523   4.451  16.525  0.2406 -0.4120 -0.1399
  871MPD2    C112777   3.503   4.343  16.601 -0.8052 -0.2529 -0.1917
  871MPD2    C212778   3.526   4.219  16.547 -0.2268 -0.3649  0.8754
  871MPD2    C312779   3.555   4.203  16.410 -0.3779 -0.3463  0.5362
  871MPD2    C412780   3.557   4.319  16.333 -0.2067 -0.2675  0.4538
  871MPD2    C512781   3.541   4.443  16.393 -0.1044 -0.3026  0.0245
  871MPD2     H12782   3.502   4.126  16.597 -2.4364  0.2644  1.0163
  871MPD2    H112783   3.575   4.316  16.226 -0.5533 -3.6083  0.4683
  871MPD2    H212784   3.512   4.548  16.572  0.8263 -0.0578 -0.7515
  871MPD2    H312785   3.563   4.533  16.337  2.0147 -1.1418 -0.5019
  871MPD2     N12786   3.572   4.070  16.362 -0.0505 -0.0657 -0.3729
  871MPD2    H512787   3.538   3.987  16.410 -2.2358  1.0005 -0.0305
  871MPD2    N112788   3.483   4.361  16.741  0.2725  0.3165  0.6199
  871MPD2    H712789   3.474   4.458  16.771  0.9046  0.4402  0.4152
  872MPD2     C12790   4.274   2.054  14.299 -0.0203 -0.3918  0.0132
  872MPD2    C112791   4.209   2.122  14.200 -0.2231  0.1264 -0.1290
  872MPD2    C212792   4.074   2.127  14.197 -0.4788  0.2565  0.1171
  872MPD2    C312793   4.002   2.049  14.295  0.1383  0.0958 -0.2042
  872MPD2    C412794   4.071   1.993  14.395 -0.4319  0.4825 -0.1806
  872MPD2    C512795   4.206   2.010  14.408  0.9172 -0.7067 -0.3267
  872MPD2     H12796   4.030   2.177  14.111  1.0754 -0.6933 -1.2263
  872MPD2    H112797   4.014   1.931  14.463 -1.0656  1.2010 -0.0478
  872MPD2    H212798   4.381   2.057  14.315  0.2257 -0.5549 -1.5521
  872MPD2    H312799   4.253   1.957  14.489  2.6280  1.4086  0.0671
  872MPD2     N12800   3.862   2.021  14.287  0.4578 -0.2151 -0.1747
  872MPD2    H512801   3.822   1.945  14.341  1.3255 -0.6798 -0.1985
  872MPD2    N112802   4.288   2.194  14.101  0.7980  0.6884  0.4109
  872MPD2    H712803   4.239   2.245  14.028  1.8882  0.0902 -0.7320
  873MPD2     C12804   0.477   2.018   0.671  0.0255  0.1070  0.0097
  873MPD2    C112805   0.573   1.942   0.741  0.0770 -0.9625  0.0348
  873MPD2    C212806   0.646   1.849   0.668 -0.6957  1.2939 -0.3627
  873MPD2    C312807   0.635   1.831   0.534  0.3761 -0.0236  0.0554
  873MPD2    C412808   0.526   1.887   0.471 -0.0842 -0.0079 -0.0918
  873MPD2    C512809   0.443   1.976   0.541  0.0992 -0.5929  0.4395
  873MPD2     H12810   0.713   1.781   0.719 -1.3556  0.2397 -0.9119
  873MPD2    H112811   0.527   1.891   0.362 -3.1926  1.5392 -0.0530
  873MPD2    H212812   0.415   2.089   0.724  0.8161 -0.8452  2.2033
  873MPD2    H312813   0.381   2.036   0.475  1.2222 -0.3736 -0.4181
  873MPD2     N12814   0.716   1.742   0.453 -0.1278 -0.2745 -0.0793
  873MPD2    H512815   0.679   1.720   0.360  0.3740  1.2581 -0.6334
  873MPD2    N112816   0.595   1.981   0.876 -0.5486  0.1877  0.1119
  873MPD2    H712817   0.532   2.044   0.925 -0.5845  0.6205 -0.4837
  874MPD2     C12818   0.695   2.293  16.255  0.1925 -0.2342  0.3219
  874MPD2    C112819   0.744   2.169  16.296 -0.2380  0.0367 -0.0737
  874MPD2    C212820   0.825   2.161  16.406  0.3808  0.1605  0.4730
  874MPD2    C312821   0.853   2.273  16.482  0.0524 -0.2262  0.7107
  874MPD2    C412822   0.791   2.391  16.456  0.6513  0.1884  0.3341
  874MPD2    C512823   0.725   2.400  16.333 -0.2293  0.1099 -0.0866
  874MPD2     H12824   0.852   2.062  16.444 -0.0808  0.4437  1.5371
  874MPD2    H112825   0.795   2.475  16.524 -1.5235 -0.7423  1.6170
  874MPD2    H212826   0.625   2.314  16.174  1.1345  0.9230 -0.1953
  874MPD2    H312827   0.679   2.491  16.298  1.0780  0.5573 -0.6162
  874MPD2     N12828   0.943   2.246  16.582  0.0255 -0.0007 -0.3810
  874MPD2    H512829   0.980   2.151  16.584 -1.9971 -0.8053 -0.4522
  874MPD2    N112830   0.698   2.051  16.233  0.3242  0.4697  0.2939
  874MPD2    H712831   0.625   2.062  16.163 -2.1390 -1.9091  2.4473
  875MPD2     C12832   1.662   1.031  14.672 -0.8074 -0.1204 -0.7343
  875MPD2    C112833   1.662   0.893  14.676  0.2880  0.8907 -0.0789
  875MPD2    C212834   1.680   0.828  14.805  0.5015 -0.4385 -0.1868
  875MPD2    C312835   1.686   0.900  14.925 -0.0566  0.2262 -0.3783
  875MPD2    C412836   1.673   1.035  14.912 -0.3301 -0.3793 -0.4928
  875MPD2    C512837   1.660   1.104  14.795  0.9384 -0.7848 -0.2615
  875MPD2     H12838   1.681   0.720  14.806 -2.7476 -0.4510  0.3769
  875MPD2    H112839   1.690   1.104  14.993  1.1828  0.7979 -1.8279
  875MPD2    H212840   1.683   1.090  14.584 -0.7708  0.9017 -0.0383
  875MPD2    H312841   1.696   1.206  14.790 -1.0261 -0.1484 -1.4718
  875MPD2     N12842   1.703   0.848  15.053  0.3992  0.0058 -0.7623
  875MPD2    H512843   1.704   0.910  15.134 -1.6315 -0.4819 -0.3670
  875MPD2    N112844   1.632   0.813  14.563 -0.2059 -0.0142 -0.4900
  875MPD2    H712845   1.636   0.712  14.571 -0.6988 -0.2675 -3.7023
  876MPD2     C12846   1.243   1.772  16.070  0.1032  0.5170  0.8115
  876MPD2    C112847   1.195   1.710  15.960 -0.0917 -0.7161 -0.6148
  876MPD2    C212848   1.119   1.596  15.964  0.0422 -0.0442  0.3658
  876MPD2    C312849   1.085   1.535  16.086 -0.1373 -0.0480  0.2155
  876MPD2    C412850   1.127   1.604  16.200 -0.2490  0.5515 -0.1027
  876MPD2    C512851   1.205   1.725  16.193 -0.2669  0.2211  0.3272
  876MPD2     H12852   1.087   1.550  15.871  0.2286  0.7129 -0.0715
  876MPD2    H112853   1.105   1.570  16.301  1.5750  4.6177  1.6653
  876MPD2    H212854   1.300   1.864  16.070 -1.0866  1.2550  1.6119
  876MPD2    H312855   1.237   1.783  16.280 -0.8554 -0.6980  1.1486
  876MPD2     N12856   1.012   1.416  16.082  0.2763 -0.2533 -0.2900
  876MPD2    H512857   0.989   1.390  15.987 -1.4102  0.0809  0.0278
  876MPD2    N112858   1.229   1.770  15.840  0.5792 -0.3563  0.7744
  876MPD2    H712859   1.300   1.842  15.847  2.8762 -2.0963 -4.4169
  877MPD2     C12860   0.881   2.149  15.148 -0.1520 -0.1162  0.4178
  877MPD2    C112861   1.016   2.167  15.178  0.6162 -0.3123 -0.6196
  877MPD2    C212862   1.094   2.248  15.100  0.1143 -0.1260  0.1201
  877MPD2    C312863   1.041   2.311  14.983 -0.2067 -0.0870 -1.2070
  877MPD2    C412864   0.907   2.292  14.954  0.4272  0.6017  0.7054
  877MPD2    C512865   0.834   2.208  15.028  0.6240 -0.1672 -0.1957
  877MPD2     H12866   1.199   2.248  15.128  0.4957  2.3154 -1.3162
  877MPD2    H112867   0.863   2.316  14.858 -1.1135 -0.8713  1.0556
  877MPD2    H212868   0.805   2.101  15.209 -2.0505  0.9645 -1.0727
  877MPD2    H312869   0.731   2.201  14.994  0.8106 -0.4856 -0.7016
  877MPD2     N12870   1.131   2.380  14.893 -0.6672  0.4258  0.5388
  877MPD2    H512871   1.093   2.415  14.806 -2.5026  0.0982  1.2143
  877MPD2    N112872   1.076   2.119  15.294  0.1402 -0.2119 -0.5896
  877MPD2    H712873   1.176   2.131  15.304  0.2420 -0.7251 -0.9502
  878MPD2     C12874   0.869   1.498  12.853  0.0016 -0.5487  0.0924
  878MPD2    C112875   0.873   1.637  12.855  0.1974  0.6759  0.2577
  878MPD2    C212876   0.875   1.702  12.979 -0.5523 -0.0137 -0.2400
  878MPD2    C312877   0.861   1.626  13.095 -0.2495 -0.1888  0.2848
  878MPD2    C412878   0.868   1.486  13.090  0.7027  0.4406 -0.0815
  878MPD2    C512879   0.860   1.430  12.970 -0.2312 -0.1565  0.4269
  878MPD2     H12880   0.895   1.809  12.990 -1.0787  0.0468  0.0806
  878MPD2    H112881   0.844   1.424  13.176  1.4696  1.3757  0.8143
  878MPD2    H212882   0.861   1.443  12.760  0.0003  0.1359 -0.3131
  878MPD2    H312883   0.858   1.323  12.956 -1.3881  0.1870 -2.0152
  878MPD2     N12884   0.842   1.684  13.224  0.1038 -0.3056 -0.2363
  878MPD2    H512885   0.819   1.622  13.300  0.4896 -0.4862 -0.2704
  878MPD2    N112886   0.866   1.708  12.728 -0.3775  0.1368  0.2194
  878MPD2    H712887   0.838   1.656  12.645  2.7423  2.4087 -2.2766
  879MPD2     C12888   1.182   2.528  17.403 -0.0548  0.2672 -0.2473
  879MPD2    C112889   1.175   2.393  17.393 -0.0004  0.3654  0.2586
  879MPD2    C212890   1.086   2.343  17.308  0.6062 -0.2238 -0.1900
  879MPD2    C312891   1.014   2.420  17.221  0.6500  0.3544  0.0088
  879MPD2    C412892   1.025   2.562  17.228 -0.7701 -0.2189  0.4251
  879MPD2    C512893   1.118   2.616  17.319 -0.0404 -0.7513  0.4085
  879MPD2     H12894   1.073   2.235  17.313 -0.7588 -0.0353  0.2452
  879MPD2    H112895   0.968   2.626  17.161  1.1424 -0.4307 -1.3929
  879MPD2    H212896   1.249   2.574  17.475 -3.3370  1.6427  1.9208
  879MPD2    H312897   1.124   2.724  17.329 -2.9483 -0.6132  0.6826
  879MPD2     N12898   0.936   2.369  17.118  0.4904  0.4019 -0.0865
  879MPD2    H512899   0.907   2.433  17.045 -0.3746  0.1044 -0.0011
  879MPD2    N112900   1.252   2.313  17.476  0.0222  0.5504 -0.5949
  879MPD2    H712901   1.315   2.361  17.539 -1.5802  1.9245 -0.0295
  880MPD2     C12902   2.414   4.614   0.278 -0.3109  0.9689  0.2583
  880MPD2    C112903   2.453   4.648   0.406  0.0320 -0.1432  0.3320
  880MPD2    C212904   2.479   4.556   0.497 -0.2809 -0.3060  0.0284
  880MPD2    C312905   2.458   4.422   0.468  0.5446 -0.6294  0.4646
  880MPD2    C412906   2.418   4.382   0.341  0.4274 -0.0247 -0.4783
  880MPD2    C512907   2.393   4.482   0.250  0.2116  0.4325 -0.2405
  880MPD2     H12908   2.507   4.590   0.596 -1.5473 -2.6332  1.2121
  880MPD2    H112909   2.400   4.280   0.310  1.5918 -1.2184  2.7237
  880MPD2    H212910   2.392   4.686   0.201  0.4068  0.8499 -0.0626
  880MPD2    H312911   2.363   4.457   0.149 -2.3241  2.0999  0.0983
  880MPD2     N12912   2.474   4.328   0.579 -0.0244 -0.0107  0.2522
  880MPD2    H512913   2.483   4.367   0.672  0.7183  2.6469 -0.9456
  880MPD2    N112914   2.460   0.062   0.431  0.4521 -0.0545 -0.6770
  880MPD2    H712915   2.434   0.121   0.353 -0.4395 -1.1038 -1.1667
  881MPD2     C12916   2.588   0.920  17.663  0.3186 -0.2057 -0.9111
  881MPD2    C112917   2.587   0.783  17.640 -0.0264  0.9781 -0.3706
  881MPD2    C212918   2.598   0.705   0.059 -0.2115  0.9473  0.1455
  881MPD2    C312919   2.572   0.753   0.182  0.2697  0.2140  0.1317
  881MPD2    C412920   2.589   0.886   0.202 -0.6319 -0.0001 -0.4888
  881MPD2    C512921   2.590   0.972   0.093 -0.1792 -0.5752  0.6255
  881MPD2     H12922   2.621   0.599   0.057 -0.0175  1.0016 -0.3495
  881MPD2    H112923   2.582   0.921   0.304  1.1899  1.5558 -0.8774
  881MPD2    H212924   2.609   0.989  17.582 -0.2253 -1.2351 -1.9395
  881MPD2    H312925   2.591   1.079   0.114  1.2833 -0.9416  2.4257
  881MPD2     N12926   2.571   0.669   0.296 -0.2719  0.3414 -0.3625
  881MPD2    H512927   2.565   0.715   0.386  1.0578  2.8723 -1.5741
  881MPD2    N112928   2.615   0.736  17.511 -0.2708  0.6444  0.4479
  881MPD2    H712929   2.619   0.803  17.435  0.5813  0.3565  0.2352
  882MPD2     C12930   1.308   2.461  14.170 -0.3551  0.2648  0.2282
  882MPD2    C112931   1.247   2.497  14.292  0.4880 -0.7972 -0.6799
  882MPD2    C212932   1.115   2.442  14.309 -0.0210  0.0776  0.9066
  882MPD2    C312933   1.056   2.356  14.225 -0.5255  0.0142  0.2664
  882MPD2    C412934   1.124   2.323  14.113 -0.3937  0.0606  0.8632
  882MPD2    C512935   1.249   2.361  14.096  0.5902 -0.6965 -0.5386
  882MPD2     H12936   1.061   2.473  14.398  0.0988 -1.1208  1.3964
  882MPD2    H112937   1.085   2.258  14.035 -1.6800  1.7299  0.1129
  882MPD2    H212938   1.402   2.501  14.133  0.6911 -0.2535  2.3333
  882MPD2    H312939   1.307   2.331  14.009  2.2744 -0.6330  0.5577
  882MPD2     N12940   0.919   2.310  14.232  0.6514 -0.8024 -0.2487
  882MPD2    H512941   0.887   2.256  14.153  0.2124 -0.6477 -0.1795
  882MPD2    N112942   1.317   2.572  14.387 -0.1406  0.0237  0.1856
  882MPD2    H712943   1.419   2.576  14.390 -0.1713  0.0776  1.1668
  883MPD2     C12944   3.283   2.516  16.348 -0.6771 -0.3616 -0.0444
  883MPD2    C112945   3.287   2.382  16.376 -0.2825  0.0283 -0.5546
  883MPD2    C212946   3.261   2.341  16.506 -0.0951 -0.3546  0.1559
  883MPD2    C312947   3.223   2.428  16.604 -0.4202 -0.0756 -0.6213
  883MPD2    C412948   3.233   2.564  16.576  0.3728  0.2023 -0.5461
  883MPD2    C512949   3.263   2.599  16.451  0.2049  0.8992 -0.2450
  883MPD2     H12950   3.249   2.234  16.520 -0.9684 -0.1187  1.1726
  883MPD2    H112951   3.208   2.647  16.641  3.4724  0.9328 -0.2860
  883MPD2    H212952   3.302   2.567  16.254 -0.8352 -0.9398 -0.3837
  883MPD2    H312953   3.270   2.706  16.430  1.7431  0.7540 -0.4997
  883MPD2     N12954   3.194   2.383  16.734 -0.3529  0.2591  0.2625
  883MPD2    H512955   3.211   2.284  16.748 -1.2916  0.3753  2.0837
  883MPD2    N112956   3.308   2.282  16.274  0.5673 -0.4563  0.2914
  883MPD2    H712957   3.321   2.186  16.304  3.2080 -0.3215 -0.4062
  884MPD2     C12958   4.697   2.797  15.373 -0.2566 -0.4237  0.2351
  884MPD2    C112959   4.682   2.775  15.241 -0.9854 -0.3398  0.6875
  884MPD2    C212960   4.569   2.817  15.182  0.9931  0.3470 -0.7476
  884MPD2    C312961   4.476   2.897  15.252 -0.6195 -0.1515  0.0600
  884MPD2    C412962   4.491   2.912  15.388  0.1805  0.7054  0.3776
  884MPD2    C512963   4.605   2.860  15.451  0.3701  0.0421  0.3876
  884MPD2     H12964   4.558   2.806  15.074  0.3994 -1.3003 -0.5243
  884MPD2    H112965   4.426   2.970  15.452  1.2398  0.8517  1.3248
  884MPD2    H212966   0.059   2.756  15.425 -0.8654 -1.5964  0.3229
  884MPD2    H312967   4.621   2.880  15.556  0.6601 -2.3441  0.8104
  884MPD2     N12968   4.363   2.957  15.181 -0.3705 -0.1859 -0.5454
  884MPD2    H512969   4.355   2.945  15.080 -0.0386  1.8773 -0.8130
  884MPD2    N112970   0.063   2.720  15.165 -0.3643 -0.0121  0.4059
  884MPD2    H712971   0.046   2.729  15.065  2.4796 -1.2279 -0.1735
  885MPD2     C12972   3.462   3.336   0.413  0.5710 -0.4536  0.4374
  885MPD2    C112973   3.369   3.235   0.414  0.2588 -0.5160  0.5041
  885MPD2    C212974   3.276   3.241   0.308  0.0187 -0.0396  0.0212
  885MPD2    C312975   3.262   3.344   0.220  0.6396 -0.6434  0.3626
  885MPD2    C412976   3.353   3.443   0.227 -0.6372  0.1194  0.4235
  885MPD2    C512977   3.448   3.440   0.323 -0.2653  0.5233 -0.0182
  885MPD2     H12978   3.222   3.150   0.282  3.7385 -2.6112  1.1983
  885MPD2    H112979   3.350   3.537   0.173  1.8349 -0.1615 -0.2296
  885MPD2    H212980   3.538   3.348   0.489  2.5616  2.6839 -2.0497
  885MPD2    H312981   3.506   3.530   0.338 -0.8454  1.1104 -1.2771
  885MPD2     N12982   3.169   3.334   0.109 -0.1958  0.1659  0.6298
  885MPD2    H512983   3.123   3.245   0.093 -0.3117  0.1647  0.9778
  885MPD2    N112984   3.397   3.122   0.492  0.1054 -0.2205 -0.4649
  885MPD2    H712985   3.484   3.129   0.544  0.0093  0.8829 -0.4470
  886MPD2     C12986   4.214   1.389  15.113  0.0401  0.4809  0.1817
  886MPD2    C112987   4.327   1.432  15.179 -0.3183 -0.3058 -0.2131
  886MPD2    C212988   4.393   1.555  15.137  0.5196  0.0967  0.0669
  886MPD2    C312989   4.353   1.612  15.022 -0.3553 -0.2882 -0.5744
  886MPD2    C412990   4.252   1.551  14.942  0.8336  0.3860 -0.2250
  886MPD2    C512991   4.185   1.440  14.991 -0.2313 -0.2394  0.7853
  886MPD2     H12992   4.485   1.579  15.188  0.9968 -0.7644 -0.3831
  886MPD2    H112993   4.220   1.598  14.850 -0.7386  0.7356  0.5040
  886MPD2    H212994   4.165   1.295  15.134  2.6695 -1.0741 -0.7156
  886MPD2    H312995   4.105   1.397  14.932  0.3184 -0.8226  0.4643
  886MPD2     N12996   4.416   1.726  14.966 -0.1112 -0.0083  0.7967
  886MPD2    H512997   4.386   1.761  14.875  0.5408  0.4253  0.7477
  886MPD2    N112998   4.381   1.366  15.295 -0.1216  0.7414 -0.7632
  886MPD2    H712999   4.458   1.416  15.340 -0.4827  0.4781  0.1509
  887MPD2     C13000   0.324   1.340  15.527 -0.5272 -0.5361  0.0043
  887MPD2    C113001   0.211   1.421  15.527  0.0865  0.2202  0.2042
  887MPD2    C213002   0.217   1.555  15.513 -0.0093  0.3745 -0.6054
  887MPD2    C313003   0.339   1.616  15.519 -0.2854  0.2655 -0.3887
  887MPD2    C413004   0.457   1.543  15.522 -0.1786 -0.6084  0.6907
  887MPD2    C513005   0.442   1.405  15.528  0.2724 -0.3886  0.0570
  887MPD2     H13006   0.127   1.615  15.507 -0.4177 -0.1817 -0.0467
  887MPD2    H113007   0.556   1.585  15.525  0.1879 -1.4695  0.5886
  887MPD2    H213008   0.321   1.231  15.529 -1.0982 -0.5118  0.7981
  887MPD2    H313009   0.536   1.352  15.539 -0.3230 -2.2066 -3.8622
  887MPD2     N13010   0.350   1.757  15.522  0.8925  0.2076 -0.0844
  887MPD2    H513011   0.260   1.800  15.543  1.0855  0.9752 -0.8305
  887MPD2    N113012   0.080   1.363  15.524 -0.3092  0.0647 -0.5035
  887MPD2    H713013   0.002   1.428  15.515  0.4534  1.1364  0.6069
  888MPD2     C13014   2.148   1.702  14.971 -0.1034  0.4499  0.2803
  888MPD2    C113015   2.122   1.757  15.094 -0.6226  0.5468  0.2625
  888MPD2    C213016   2.178   1.884  15.129 -0.4171 -0.1479  0.0650
  888MPD2    C313017   2.256   1.955  15.039 -0.8167  0.3049 -0.5619
  888MPD2    C413018   2.269   1.904  14.914 -0.0885 -0.6858  0.5079
  888MPD2    C513019   2.226   1.773  14.885 -0.3559 -0.2453  0.4448
  888MPD2     H13020   2.154   1.921  15.228 -1.6471 -1.2785  0.2007
  888MPD2    H113021   2.326   1.954  14.836 -2.4940  1.4973  0.1195
  888MPD2    H213022   2.137   1.597  14.948 -2.6624  0.7473  0.2149
  888MPD2    H313023   2.253   1.729  14.789 -1.4248 -0.1569  0.1002
  888MPD2     N13024   2.302   2.084  15.076 -0.2847  0.3848 -0.0674
  888MPD2    H513025   2.284   2.134  15.162 -2.4563  2.8735 -1.9637
  888MPD2    N113026   2.063   1.686  15.199 -0.0795  0.1145 -0.2838
  888MPD2    H713027   2.056   1.729  15.291  1.8618  1.0382 -0.5821
  889MPD2     C13028   1.156   1.666  12.526  0.5989  0.1081 -0.3124
  889MPD2    C113029   1.166   1.614  12.655 -0.1822  0.1069 -0.5420
  889MPD2    C213030   1.219   1.698  12.756 -0.0059 -0.4173  0.0654
  889MPD2    C313031   1.201   1.831  12.757 -0.4116 -0.0136 -0.0334
  889MPD2    C413032   1.172   1.884  12.637 -0.3024 -0.1716  0.0056
  889MPD2    C513033   1.155   1.803  12.523  0.1487  0.9281 -0.4738
  889MPD2     H13034   1.240   1.657  12.855 -2.3122 -0.4866  0.5272
  889MPD2    H113035   1.170   1.989  12.610 -0.3862  0.3528  2.0752
  889MPD2    H213036   1.142   1.612  12.433  2.3417 -2.3457  0.8505
  889MPD2    H313037   1.143   1.849  12.426 -4.0677  0.6038 -0.0782
  889MPD2     N13038   1.235   1.909  12.871  0.5203 -0.0819 -0.5194
  889MPD2    H513039   1.257   1.861  12.957 -1.2368 -0.4558 -0.2652
  889MPD2    N113040   1.170   1.475  12.668  0.6256 -0.4159  0.5159
  889MPD2    H713041   1.187   1.435  12.759  0.8715  1.8283  1.4476
  890MPD2     C13042   0.664   3.181  14.635 -0.2910 -0.4660  0.0821
  890MPD2    C113043   0.786   3.239  14.678  0.6215 -0.3425 -0.1072
  890MPD2    C213044   0.872   3.161  14.754 -0.1641  0.1247  0.0023
  890MPD2    C313045   0.834   3.030  14.791 -0.3149  0.0938  0.2654
  890MPD2    C413046   0.710   2.984  14.759  0.1837 -0.0246 -0.9902
  890MPD2    C513047   0.626   3.061  14.679 -0.2246  0.4311 -0.2313
  890MPD2     H13048   0.969   3.196  14.788 -1.7914  3.6524  0.9206
  890MPD2    H113049   0.673   2.890  14.798  1.3823 -0.7171 -1.5393
  890MPD2    H213050   0.592   3.224  14.566 -0.1322 -1.6399 -0.8189
  890MPD2    H313051   0.527   3.028  14.651  0.4819 -0.9165 -1.1119
  890MPD2     N13052   0.935   2.945  14.847  0.2921 -0.2140 -0.1397
  890MPD2    H513053   1.019   2.999  14.864 -0.9985  1.8005 -0.2164
  890MPD2    N113054   0.824   3.362  14.629 -0.2797 -0.3802  0.1729
  890MPD2    H713055   0.753   3.393  14.563  0.6216  0.9258 -0.1803
  891MPD2     C13056   3.762   1.443  16.427  0.2975 -0.5989  0.7769
  891MPD2    C113057   3.691   1.416  16.544 -0.4576 -0.1370  0.1958
  891MPD2    C213058   3.768   1.395  16.661 -0.0418 -0.3997 -0.0618
  891MPD2    C313059   3.905   1.402  16.655  0.0787 -0.3000 -0.3218
  891MPD2    C413060   3.971   1.428  16.539 -0.1152 -0.0992 -0.3442
  891MPD2    C513061   3.898   1.451  16.424  0.0778  0.1491  0.3612
  891MPD2     H13062   3.728   1.363  16.757  0.7110  1.3648  0.8571
  891MPD2    H113063   4.079   1.436  16.526 -0.5140  2.8855 -1.7487
  891MPD2    H213064   3.704   1.475  16.342  1.5048 -2.2562 -0.6589
  891MPD2    H313065   3.942   1.484  16.331 -3.6473 -0.8985 -1.7567
  891MPD2     N13066   3.981   1.376  16.770  0.1746 -0.3762 -0.0859
  891MPD2    H513067   3.926   1.367  16.855 -0.5116 -2.8685 -0.7957
  891MPD2    N113068   3.551   1.419  16.536  0.1409 -0.4547 -0.7288
  891MPD2    H713069   3.513   1.434  16.444 -0.8512  2.1493  0.1000
  892MPD2     C13070   0.146   2.787  14.695 -0.0270  0.1927  0.0617
  892MPD2    C113071   0.111   2.661  14.654  0.1688  0.0152  0.5151
  892MPD2    C213072   0.189   2.592  14.562 -0.3784  0.0644 -0.5146
  892MPD2    C313073   0.306   2.644  14.511 -0.2369 -0.0832  0.1382
  892MPD2    C413074   0.350   2.760  14.569 -0.8220 -0.2161 -0.5637
  892MPD2    C513075   0.270   2.835  14.651  0.6656 -0.0635  0.2628
  892MPD2     H13076   0.146   2.497  14.535  1.9758 -1.1050 -0.1625
  892MPD2    H113077   0.448   2.800  14.545 -1.0225 -0.3350 -1.5667
  892MPD2    H213078   0.085   2.840  14.767 -1.3133 -0.3031 -0.6743
  892MPD2    H313079   0.308   2.933  14.675  0.9208  0.0420 -0.5602
  892MPD2     N13080   0.391   2.584  14.424  0.0592  0.1194  0.6998
  892MPD2    H513081   0.463   2.639  14.379 -0.6171  0.4120 -0.0228
  892MPD2    N113082   4.701   2.620  14.683 -0.1559  0.4036 -0.1805
  892MPD2    H713083   4.662   2.546  14.625  0.2331  0.2759 -0.2785
  893MPD2     C13084   1.170   0.692   2.126  0.5141 -0.2797 -0.8061
  893MPD2    C113085   1.258   0.600   2.071  0.3088  0.7616  0.3312
  893MPD2    C213086   1.200   0.479   2.029 -0.0159 -0.0460 -0.6612
  893MPD2    C313087   1.063   0.451   2.040 -0.0396  0.2551  0.6329
  893MPD2    C413088   0.987   0.553   2.081  0.2371  0.1059 -0.1664
  893MPD2    C513089   1.036   0.678   2.108 -0.1449  0.2399  0.4865
  893MPD2     H13090   1.259   0.402   1.981  1.6036  1.1573 -0.6283
  893MPD2    H113091   0.879   0.546   2.089  0.4062  0.2165  2.1209
  893MPD2    H213092   1.210   0.786   2.164 -0.2516 -1.0148  1.7869
  893MPD2    H313093   0.970   0.760   2.132 -2.4064 -1.7019  0.9189
  893MPD2     N13094   1.006   0.330   1.985  0.0396 -0.2550  0.5533
  893MPD2    H513095   0.905   0.331   1.992  0.2862  1.2910  3.9433
  893MPD2    N113096   1.397   0.624   2.057  0.1723  0.1427 -0.2040
  893MPD2    H713097   1.437   0.717   2.064  0.1675  0.1257  0.0580
  894MPD2     C13098   4.117   2.678   1.219  1.0915  0.5472  0.2008
  894MPD2    C113099   4.053   2.802   1.191  0.8608 -0.2712 -0.4075
  894MPD2    C213100   4.119   2.896   1.126  0.4998  0.2303 -0.6410
  894MPD2    C313101   4.243   2.876   1.073 -0.4663  0.0727  0.0227
  894MPD2    C413102   4.303   2.753   1.085  0.5728 -0.1431  0.5123
  894MPD2    C513103   4.239   2.657   1.160 -0.5529 -0.0327  0.7807
  894MPD2     H13104   4.071   2.994   1.125 -0.5737 -0.2842 -0.0524
  894MPD2    H113105   4.393   2.721   1.035  1.6384  1.1015  1.6421
  894MPD2    H213106   4.076   2.599   1.281  0.9534 -0.2783 -0.9470
  894MPD2    H313107   4.281   2.557   1.168 -0.6021 -0.1597 -0.5010
  894MPD2     N13108   4.307   2.986   1.006  0.7250 -0.3584  0.0566
  894MPD2    H513109   4.251   3.071   1.000  0.8518 -0.2583  0.2919
  894MPD2    N113110   3.925   2.841   1.244  0.3666 -0.2585  0.3990
  894MPD2    H713111   3.900   2.938   1.226  0.8306 -0.6199 -2.2519
  895MPD2     C13112   4.314   1.646  13.648  0.6235  0.2063  0.3421
  895MPD2    C113113   4.237   1.653  13.535  0.4391  0.0640 -0.0438
  895MPD2    C213114   4.171   1.540  13.491  0.4327  0.4902 -0.8406
  895MPD2    C313115   4.176   1.415  13.563  0.1534  0.2450 -0.0494
  895MPD2    C413116   4.256   1.418  13.678 -0.2500 -0.0093  0.2103
  895MPD2    C513117   4.324   1.530  13.718 -0.2580 -0.1608 -0.3333
  895MPD2     H13118   4.122   1.546  13.394 -0.5270 -0.9812 -0.4458
  895MPD2    H113119   4.271   1.332  13.742  0.6043  1.3373  1.7992
  895MPD2    H213120   4.367   1.734  13.681  0.1069  0.8415 -0.5400
  895MPD2    H313121   4.394   1.533  13.801 -1.2632  0.2652  0.4956
  895MPD2     N13122   4.122   1.300  13.503 -0.4391 -0.8464 -0.1148
  895MPD2    H513123   4.062   1.316  13.423 -0.5147  0.2254  0.1647
  895MPD2    N113124   4.221   1.768  13.457 -0.0003 -0.4926  0.0936
  895MPD2    H713125   4.138   1.767  13.399  0.8071  0.9891 -1.0792
  896MPD2     C13126   1.517   3.087   2.369 -0.1207  0.0714 -0.4501
  896MPD2    C113127   1.493   3.190   2.282 -0.1369 -0.4287 -0.1316
  896MPD2    C213128   1.386   3.183   2.190 -0.9200 -0.2401 -0.0557
  896MPD2    C313129   1.295   3.081   2.199 -0.2986  0.3170 -0.2581
  896MPD2    C413130   1.323   2.978   2.282  0.1855  0.2643 -0.1188
  896MPD2    C513131   1.432   2.983   2.363  0.2388  0.2278 -0.4915
  896MPD2     H13132   1.367   3.275   2.137 -1.2962 -0.7416 -0.7810
  896MPD2    H113133   1.256   2.895   2.301 -0.2729  0.1401 -2.2290
  896MPD2    H213134   1.600   3.082   2.439 -0.7633  0.2465  0.3299
  896MPD2    H313135   1.448   2.902   2.433  1.4078  1.5790  0.8025
  896MPD2     N13136   1.182   3.079   2.121  0.2476  0.1073  0.0912
  896MPD2    H513137   1.178   3.144   2.042 -3.0484 -0.8034 -0.4859
  896MPD2    N113138   1.584   3.301   2.280 -0.0094  0.0296  0.1866
  896MPD2    H713139   1.670   3.294   2.334 -0.4927  0.8559  1.0484
  897MPD2     C13140   2.051   1.623  10.583  0.5380 -0.9083 -0.6153
  897MPD2    C113141   1.968   1.706  10.647 -0.1882 -0.1034 -0.8355
  897MPD2    C213142   1.898   1.662  10.757  0.0920 -0.5201  0.8000
  897MPD2    C313143   1.906   1.530  10.799  0.0002 -0.4372  0.4074
  897MPD2    C413144   2.007   1.451  10.742  0.5885  0.6881 -0.4901
  897MPD2    C513145   2.077   1.495  10.637 -0.3864  0.6814  0.1177
  897MPD2     H13146   1.820   1.728  10.793 -3.4838 -3.0677 -2.4014
  897MPD2    H113147   2.040   1.355  10.781 -2.7594 -1.2112 -2.2957
  897MPD2    H213148   2.103   1.656  10.494  1.1518 -0.1384  0.0322
  897MPD2    H313149   2.156   1.436  10.593 -0.7528  0.2756 -0.0031
  897MPD2     N13150   1.828   1.482  10.907 -0.3137 -0.3205 -0.6086
  897MPD2    H513151   1.769   1.554  10.946  1.2644  1.2198 -1.0550
  897MPD2    N113152   1.947   1.833  10.591  0.2320 -0.3386  0.0427
  897MPD2    H713153   1.991   1.844  10.501  0.7132  2.0879  0.5666
  898MPD2     C13154   4.057   1.921   0.095  0.3076  0.0303 -0.2009
  898MPD2    C113155   4.106   1.889  17.671 -0.3849  1.0080  0.5180
  898MPD2    C213156   4.049   1.950  17.563  0.9978  0.2250 -0.1636
  898MPD2    C313157   3.947   2.042  17.568  0.4466  0.1017 -0.3619
  898MPD2    C413158   3.894   2.069  17.691  0.1107  0.8402  0.0461
  898MPD2    C513159   3.953   2.011   0.103 -0.8200 -0.3262  0.2732
  898MPD2     H13160   4.094   1.938  17.464  0.4901 -0.4662 -0.3056
  898MPD2    H113161   3.823   2.150   0.010 -0.6056 -0.0770  1.5126
  898MPD2    H213162   4.101   1.879   0.185  1.2459  1.8954  0.2140
  898MPD2    H313163   3.922   2.043   0.202 -2.7966  0.2448 -0.5357
  898MPD2     N13164   3.905   2.108  17.449 -0.1433 -0.2957  0.2507
  898MPD2    H513165   3.952   2.071  17.367 -0.4366  0.2271 -0.1538
  898MPD2    N113166   4.220   1.797  17.653  0.8097  0.1098  0.3203
  898MPD2    H713167   4.247   1.778  17.557 -0.5666 -0.7064  0.0932
  899MPD2     C13168   4.625   2.476  17.083 -0.1249  0.0677 -0.4903
  899MPD2    C113169   0.013   2.459  17.159 -0.0715  0.1148  0.4064
  899MPD2    C213170   4.719   2.427  17.293 -0.4049 -0.0942  0.4784
  899MPD2    C313171   4.597   2.422  17.350 -0.0218  0.4774 -0.1554
  899MPD2    C413172   4.486   2.444  17.274 -0.7852 -0.6635  0.0182
  899MPD2    C513173   4.502   2.473  17.142 -0.2700  0.1799  0.0978
  899MPD2     H13174   0.088   2.416  17.348 -0.0320 -0.5631 -0.2331
  899MPD2    H113175   4.391   2.456  17.325 -1.1869 -2.0510 -0.3928
  899MPD2    H213176   4.626   2.516  16.981 -1.8797  0.9196 -0.1845
  899MPD2    H313177   4.419   2.513  17.085 -1.8309 -1.7162  1.0132
  899MPD2     N13178   4.575   2.426  17.493  0.0487  0.6128  0.7458
  899MPD2    H513179   4.480   2.449  17.522 -0.8317 -1.4229 -0.5164
  899MPD2    N113180   0.137   2.506  17.103  0.4568  0.1086  0.2925
  899MPD2    H713181   0.132   2.563  17.020 -0.0313 -2.1174 -1.2250
  900MPD2     C13182   0.007   4.580  12.575  0.2855 -0.1472  0.4648
  900MPD2    C113183   4.653   4.464  12.540  0.5885  0.1051  0.5442
  900MPD2    C213184   4.553   4.480  12.450 -0.3126  0.0219 -0.1499
  900MPD2    C313185   4.524   4.604  12.396 -0.4718 -0.1647  0.0109
  900MPD2    C413186   4.611   4.708  12.417 -0.1198  0.1948  0.2222
  900MPD2    C513187   4.719   4.695  12.500  0.0928  0.7225  0.7964
  900MPD2     H13188   4.493   4.395  12.419  0.7628 -0.4281 -0.9966
  900MPD2    H113189   4.586   0.077  12.366 -1.5267 -1.5629 -2.2832
  900MPD2    H213190   0.083   4.558  12.650  0.4109  1.0938  0.6896
  900MPD2    H313191   0.065   0.052  12.514  1.2464 -0.3432  1.1717
  900MPD2     N13192   4.412   4.609  12.313 -0.0786 -0.0839 -0.2390
  900MPD2    H513193   4.360   4.522  12.309 -2.6721  1.5652 -2.7941
  900MPD2    N113194   4.687   4.345  12.602 -0.5869  0.4731 -0.2092
  900MPD2    H713195   0.041   4.365  12.664  0.6333 -0.2151 -1.5143
  901MPD2     C13196   0.056   3.277  12.773 -1.0627  0.5055  0.6750
  901MPD2    C113197   0.142   3.313  12.673 -1.0288 -0.0375  0.1998
  901MPD2    C213198   0.142   3.446  12.628 -0.5474  0.3049  0.2886
  901MPD2    C313199   0.063   3.541  12.685 -0.0121 -0.2963  0.6161
  901MPD2    C413200   4.706   3.499  12.790 -0.5709  0.5018 -0.4749
  901MPD2    C513201   4.705   3.373  12.837  0.5241  0.2316  0.9584
  901MPD2     H13202   0.222   3.480  12.563  1.7313 -1.1598  2.2920
  901MPD2    H113203   4.642   3.572  12.837 -1.2280 -0.2446 -0.2047
  901MPD2    H213204   0.055   3.175  12.809 -1.6454  0.1856 -0.2284
  901MPD2    H313205   4.650   3.353  12.928  0.3796 -1.5320  0.4862
  901MPD2     N13206   0.071   3.674  12.648 -0.1242 -0.2476  0.1581
  901MPD2    H513207   0.132   3.697  12.570  0.0067 -1.2958 -0.0459
  901MPD2    N113208   0.236   3.206  12.633 -0.4096  0.0862 -0.6912
  901MPD2    H713209   0.241   3.128  12.699  1.5191  0.8408  0.0452
  902MPD2     C13210   3.619   1.932  12.826  0.1472  0.1786 -0.7577
  902MPD2    C113211   3.674   2.056  12.854 -0.5700  0.4558  0.2028
  902MPD2    C213212   3.809   2.081  12.827  0.1251  0.0208 -0.3737
  902MPD2    C313213   3.883   1.978  12.768  0.3060  0.4950  0.5271
  902MPD2    C413214   3.828   1.852  12.748  0.1475  0.7019  0.5244
  902MPD2    C513215   3.692   1.836  12.771  0.3994 -0.0010  0.6469
  902MPD2     H13216   3.847   2.182  12.833  2.7627 -1.0636  1.3324
  902MPD2    H113217   3.888   1.767  12.717  2.8903  2.6798  0.3980
  902MPD2    H213218   3.514   1.912  12.844 -0.2363  2.2449 -0.6897
  902MPD2    H313219   3.651   1.740  12.745 -0.1127  0.2090  0.6863
  902MPD2     N13220   4.019   1.995  12.734 -0.2271 -0.0305  0.0157
  902MPD2    H513221   4.059   1.907  12.704  1.5283  0.4649  0.9366
  902MPD2    N113222   3.579   2.155  12.891 -0.0177 -0.8367 -0.0711
  902MPD2    H713223   3.484   2.121  12.896 -0.0212 -0.7256  0.6381
  903MPD2     C13224   3.931   2.425  12.149  0.9625 -0.2605 -0.0503
  903MPD2    C113225   3.967   2.296  12.164 -0.4621  0.2933 -0.0952
  903MPD2    C213226   3.888   2.200  12.108 -0.2863  0.9489  0.0862
  903MPD2    C313227   3.778   2.230  12.033 -0.6998  0.2062  0.2781
  903MPD2    C413228   3.741   2.364  12.018 -0.5770  0.0412  0.8295
  903MPD2    C513229   3.821   2.458  12.071  0.0673 -0.4110 -0.2627
  903MPD2     H13230   3.920   2.098  12.124  3.5296  1.9335 -1.2799
  903MPD2    H113231   3.664   2.398  11.951  0.7007  2.9291  0.8105
  903MPD2    H213232   3.995   2.506  12.182  2.5100 -1.4511 -0.0908
  903MPD2    H313233   3.802   2.564  12.056  1.9674  0.2949  2.2471
  903MPD2     N13234   3.697   2.126  11.982 -0.2800  0.1583 -0.5328
  903MPD2    H513235   3.730   2.032  12.003 -0.6987 -0.4189 -2.4716
  903MPD2    N113236   4.070   2.247  12.240  0.0423 -0.0019 -0.2116
  903MPD2    H713237   4.098   2.152  12.219 -0.3403  0.1296 -1.2817
  904MPD2     C13238   3.772   1.057  14.053 -0.4822 -0.3414 -0.6652
  904MPD2    C113239   3.812   1.135  13.946  0.5343 -0.3412  0.2238
  904MPD2    C213240   3.934   1.109  13.888 -0.1978 -0.1565  0.2939
  904MPD2    C313241   4.026   1.018  13.949 -0.5174 -0.4744 -0.0926
  904MPD2    C413242   3.988   0.952  14.063  0.1905 -0.7327 -0.3528
  904MPD2    C513243   3.861   0.970  14.108  0.0053 -0.5345 -0.0669
  904MPD2     H13244   3.960   1.166  13.799  0.1513 -1.6866 -0.5759
  904MPD2    H113245   4.055   0.885  14.117 -0.6679 -0.4768  1.0395
  904MPD2    H213246   3.674   1.062  14.100 -0.1500  0.2222 -0.0350
  904MPD2    H313247   3.829   0.918  14.197  2.5186  0.0098  1.1538
  904MPD2     N13248   4.150   1.000  13.891  0.7868  0.6779 -0.4417
  904MPD2    H513249   4.178   1.047  13.805  3.5994  0.8943  0.6095
  904MPD2    N113250   3.738   1.248  13.890  0.5820 -0.0684  0.4599
  904MPD2    H713251   3.780   1.286  13.806  1.7049  1.0271  1.5194
  905MPD2     C13252   3.392   1.235  13.250 -0.3515 -0.6054  0.1987
  905MPD2    C113253   3.506   1.262  13.330 -0.4207  0.0109 -0.3061
  905MPD2    C213254   3.631   1.239  13.280 -0.8401  0.3001  0.6456
  905MPD2    C313255   3.644   1.165  13.163  0.0520 -0.6238 -0.6691
  905MPD2    C413256   3.541   1.155  13.077 -0.8374 -0.0191 -0.0835
  905MPD2    C513257   3.415   1.184  13.123  0.6191 -0.4322  0.1875
  905MPD2     H13258   3.723   1.268  13.329  0.0775  0.0580 -0.9296
  905MPD2    H113259   3.554   1.131  12.973  0.7185  2.2000 -0.3985
  905MPD2    H213260   3.292   1.266  13.279  0.2129  1.6255 -0.2189
  905MPD2    H313261   3.331   1.186  13.054 -0.6257 -1.8486  1.6518
  905MPD2     N13262   3.761   1.112  13.105  0.3155 -0.1992 -0.8897
  905MPD2    H513263   3.761   1.095  13.005 -0.8037 -1.4704 -0.6609
  905MPD2    N113264   3.492   1.334  13.454  0.2915  0.3140 -0.2396
  905MPD2    H713265   3.577   1.361  13.504 -0.1087  0.4587  0.3647
  906MPD2     C13266   0.574   1.599  11.622 -0.1772 -0.5594 -0.0974
  906MPD2    C113267   0.589   1.503  11.527 -0.0256  0.4015 -0.2339
  906MPD2    C213268   0.569   1.370  11.553  0.4195 -0.3595  0.0624
  906MPD2    C313269   0.551   1.326  11.683  0.5505 -0.4565  0.6660
  906MPD2    C413270   0.535   1.422  11.781  0.3421 -0.6009  0.0102
  906MPD2    C513271   0.558   1.552  11.754 -0.8623  0.7163 -0.3802
  906MPD2     H13272   0.565   1.305  11.467 -0.6357 -0.7109  0.3805
  906MPD2    H113273   0.501   1.396  11.881  2.2206  0.4458  0.9268
  906MPD2    H213274   0.583   1.707  11.619  0.5438 -0.6392 -0.6846
  906MPD2    H313275   0.534   1.617  11.837 -0.1958  1.6951 -0.9639
  906MPD2     N13276   0.537   1.190  11.715  0.3802  0.5959  0.4308
  906MPD2    H513277   0.499   1.171  11.807  1.1480 -3.0813 -0.0072
  906MPD2    N113278   0.605   1.536  11.391  0.7889 -0.5760  0.5376
  906MPD2    H713279   0.605   1.470  11.314 -0.4679  0.4151 -0.3026
  907MPD2     C13280   0.440   0.470  15.597  0.2206  0.1849 -0.4316
  907MPD2    C113281   0.367   0.385  15.686 -0.4011  0.3268  0.1107
  907MPD2    C213282   0.438   0.321  15.791  0.9866 -0.0381 -0.6416
  907MPD2    C313283   0.577   0.347  15.819 -0.7435  0.0411  0.6065
  907MPD2    C413284   0.642   0.447  15.751 -0.2499 -0.0954 -0.1189
  907MPD2    C513285   0.575   0.491  15.640 -0.5589 -0.1495  0.3603
  907MPD2     H13286   0.379   0.263  15.861  0.1739  1.5054 -0.0424
  907MPD2    H113287   0.748   0.468  15.758 -0.0418 -0.6200 -1.6534
  907MPD2    H213288   0.404   0.505  15.502 -0.5506  1.2275  0.2442
  907MPD2    H313289   0.626   0.556  15.569 -0.6924  0.8049  1.1372
  907MPD2     N13290   0.626   0.287  15.939  0.2394 -0.3498  0.1669
  907MPD2    H513291   0.572   0.209  15.974  0.6225 -1.0550 -0.8006
  907MPD2    N113292   0.228   0.350  15.662  0.5422  0.3441  0.0225
  907MPD2    H713293   0.195   0.271  15.717 -2.4186  2.8611  1.8690
  908MPD2     C13294   1.382   1.970   9.934 -0.1209 -0.0625  0.1335
  908MPD2    C113295   1.465   1.868   9.972  0.2064 -0.2000 -0.2720
  908MPD2    C213296   1.572   1.895  10.054  0.0574  0.2950  0.0249
  908MPD2    C313297   1.574   2.014  10.117  0.0203  0.0861  0.0468
  908MPD2    C413298   1.480   2.115  10.090 -0.7834 -0.3326  0.2262
  908MPD2    C513299   1.383   2.091   9.998  0.4272  0.1114 -0.0213
  908MPD2     H13300   1.649   1.822  10.076 -0.1681  0.2565  0.7124
  908MPD2    H113301   1.484   2.215  10.133  0.1524  0.1506 -0.9744
  908MPD2    H213302   1.309   1.959   9.855  0.3370  0.9599 -0.4265
  908MPD2    H313303   1.305   2.162   9.972 -0.3158  0.0438  1.9869
  908MPD2     N13304   1.684   2.046  10.205 -0.0408  0.0189  0.6262
  908MPD2    H513305   1.745   1.968  10.227 -1.8263 -1.0127  1.9241
  908MPD2    N113306   1.433   1.746   9.911 -0.2463 -0.6677 -0.1144
  908MPD2    H713307   1.342   1.746   9.866 -1.0482 -1.0756  1.5086
  909MPD2     C13308   2.816   3.658  11.641  0.4217  0.2220  0.4486
  909MPD2    C113309   2.798   3.795  11.626 -0.0006  0.9507 -0.7158
  909MPD2    C213310   2.734   3.864  11.720 -0.0474  0.4524 -0.1743
  909MPD2    C313311   2.679   3.805  11.833 -1.0524  0.1283  0.4125
  909MPD2    C413312   2.685   3.663  11.839  0.7090  0.1413  0.5452
  909MPD2    C513313   2.759   3.590  11.741  0.0050 -0.2820 -0.2880
  909MPD2     H13314   2.726   3.971  11.704  2.0777  0.6083 -0.0656
  909MPD2    H113315   2.630   3.604  11.912 -0.7375  0.0118 -0.6598
  909MPD2    H213316   2.864   3.604  11.560 -0.4959 -0.1364  0.1451
  909MPD2    H313317   2.770   3.482  11.746 -2.4917 -0.4554  1.1835
  909MPD2     N13318   2.600   3.890  11.923 -0.2456  0.5065  0.6335
  909MPD2    H513319   2.595   3.989  11.900  0.5137  0.7003  1.3066
  909MPD2    N113320   2.851   3.870  11.521  0.3746  0.4002 -0.0494
  909MPD2    H713321   2.812   3.964  11.515 -1.0820 -0.2690 -1.2005
  910MPD2     C13322   3.658   0.692  15.466  0.1741 -0.4050 -0.5955
  910MPD2    C113323   3.790   0.735  15.451  0.5441 -0.4526  1.0151
  910MPD2    C213324   3.835   0.779  15.326 -0.5197 -0.1057 -0.0092
  910MPD2    C313325   3.748   0.784  15.221 -0.0404  0.4534 -0.1798
  910MPD2    C413326   3.620   0.727  15.229 -0.4365 -0.0773 -0.0604
  910MPD2    C513327   3.585   0.676  15.352 -0.1375  0.4580  0.1365
  910MPD2     H13328   3.939   0.809  15.319 -0.4570 -0.6877 -1.4379
  910MPD2    H113329   3.550   0.731  15.145  0.3391  0.5705 -0.6836
  910MPD2    H213330   3.617   0.655  15.559 -0.5473 -0.0800 -0.7863
  910MPD2    H313331   3.481   0.651  15.371  0.0946  0.5432  1.5759
  910MPD2     N13332   3.784   0.855  15.099  0.0769  0.0549 -0.2376
  910MPD2    H513333   3.707   0.873  15.035  0.1454 -0.7685 -0.5600
  910MPD2    N113334   3.878   0.725  15.559  0.6034  0.0570  0.7063
  910MPD2    H713335   3.976   0.711  15.540  0.4766  2.0572 -1.3765
  911MPD2     C13336   1.849   0.778  16.772 -0.0361 -0.1867  0.7858
  911MPD2    C113337   1.904   0.901  16.779 -1.0468  0.1673  0.7112
  911MPD2    C213338   1.849   1.008  16.707 -0.1607 -0.3090  0.6456
  911MPD2    C313339   1.728   0.994  16.647  0.7613 -0.7682 -0.8413
  911MPD2    C413340   1.681   0.872  16.644 -0.1807 -0.5239 -0.3139
  911MPD2    C513341   1.737   0.756  16.700  0.0416  0.3299  0.6805
  911MPD2     H13342   1.892   1.107  16.715  2.5656 -1.3648 -0.9650
  911MPD2    H113343   1.584   0.858  16.596 -0.6779 -2.1512  1.1614
  911MPD2    H213344   1.897   0.694  16.820 -0.0829 -0.7599 -0.1627
  911MPD2    H313345   1.691   0.657  16.697  2.3106 -0.6794 -0.4939
  911MPD2     N13346   1.654   1.103  16.595 -0.2749  0.3858  0.0383
  911MPD2    H513347   1.562   1.077  16.562 -0.6448  0.1940  1.2411
  911MPD2    N113348   2.027   0.905  16.852  0.3260 -0.2762 -0.4264
  911MPD2    H713349   2.066   0.815  16.877  1.3644  0.6370  1.2889
  912MPD2     C13350   1.284   1.032  15.971  0.3943 -0.3889  0.1269
  912MPD2    C113351   1.301   1.017  16.108  0.4755  0.2793  0.4912
  912MPD2    C213352   1.261   0.900  16.164 -0.1875  0.5692  0.9006
  912MPD2    C313353   1.219   0.794  16.086  0.6715  0.4740  0.0747
  912MPD2    C413354   1.209   0.810  15.947  0.3437 -0.0504  0.0370
  912MPD2    C513355   1.241   0.931  15.891 -0.2052 -0.3153 -0.7346
  912MPD2     H13356   1.264   0.883  16.271  0.2724  2.0585  1.1145
  912MPD2    H113357   1.159   0.732  15.892 -2.5737  1.5637  0.3770
  912MPD2    H213358   1.311   1.129  15.931 -0.1029 -0.3850 -0.1952
  912MPD2    H313359   1.227   0.950  15.785 -0.3597  0.4571 -0.5771
  912MPD2     N13360   1.175   0.685  16.160 -0.1643 -0.0912 -0.0951
  912MPD2    H513361   1.174   0.693  16.261  2.9312 -1.2520  0.0575
  912MPD2    N113362   1.331   1.122  16.193 -0.3872  0.7280  0.5636
  912MPD2    H713363   1.338   1.209  16.143  0.3735  0.1632 -0.3048
  913MPD2     C13364   1.512   3.181  10.454  0.1760  0.2565  0.5159
  913MPD2    C113365   1.632   3.227  10.496  0.1150  0.0476  0.1083
  913MPD2    C213366   1.690   3.335  10.435  0.4903 -0.2533  0.3556
  913MPD2    C313367   1.628   3.388  10.324  0.1590  0.5529  0.6828
  913MPD2    C413368   1.503   3.346  10.290  0.1415  0.3623 -0.2651
  913MPD2    C513369   1.444   3.240  10.349 -0.2842 -0.0629 -0.2552
  913MPD2     H13370   1.783   3.378  10.471  0.9427  0.6347 -1.8691
  913MPD2    H113371   1.454   3.400  10.210 -0.4975  0.2140  0.0302
  913MPD2    H213372   1.465   3.099  10.508 -0.9917  0.4022 -0.2840
  913MPD2    H313373   1.349   3.204  10.313  0.4768  0.7563 -3.0742
  913MPD2     N13374   1.689   3.490  10.245 -0.1098 -0.1400  0.2542
  913MPD2    H513375   1.653   3.523  10.156  1.2360  0.3869 -0.0922
  913MPD2    N113376   1.685   3.145  10.598  0.0117  0.2544 -0.2935
  913MPD2    H713377   1.625   3.073  10.636  1.5538 -0.9263 -0.1172
  914MPD2     C13378   4.587   2.969  11.898  0.2034 -0.2845 -0.4636
  914MPD2    C113379   4.603   3.071  11.986  0.2954 -1.0180 -0.1751
  914MPD2    C213380   4.707   3.069  12.067  0.4156 -0.1923 -0.3503
  914MPD2    C313381   0.077   2.969  12.063 -0.9977  0.6326 -0.0878
  914MPD2    C413382   0.062   2.864  11.980  0.1488  0.5678 -0.3599
  914MPD2    C513383   4.676   2.870  11.902  0.2713 -0.0227 -0.2098
  914MPD2     H13384   4.722   3.158  12.127  0.7530 -1.2606  1.1188
  914MPD2    H113385   0.129   2.779  11.971  0.2683  0.6769 -0.5058
  914MPD2    H213386   4.497   2.961  11.838  1.0089 -0.5222 -1.6378
  914MPD2    H313387   4.670   2.788  11.831  0.1637  0.1081 -0.3514
  914MPD2     N13388   0.178   2.977  12.161 -0.3033  0.2529  0.1650
  914MPD2    H513389   0.176   3.060  12.220 -0.6351  0.1332  0.3248
  914MPD2    N113390   4.518   3.187  11.984  0.2366  0.5895 -0.0551
  914MPD2    H713391   4.534   3.258  12.056  0.0185 -0.4363  1.0056
  915MPD2     C13392   3.474   2.787  15.819  0.2996  0.0805  0.5231
  915MPD2    C113393   3.389   2.852  15.734  0.1958 -0.2527 -0.4512
  915MPD2    C213394   3.251   2.858  15.757 -0.5800  0.2062 -0.0450
  915MPD2    C313395   3.206   2.793  15.871  0.2553 -0.5442  0.4647
  915MPD2    C413396   3.297   2.726  15.951  0.4169 -0.9239  0.1590
  915MPD2    C513397   3.435   2.726  15.934 -0.1322  0.6024 -0.5949
  915MPD2     H13398   3.187   2.906  15.684  0.5032 -0.1282 -1.2272
  915MPD2    H113399   3.260   2.666  16.034 -0.5392 -1.9106 -0.9785
  915MPD2    H213400   3.578   2.773  15.791 -0.6042 -0.7696 -2.4495
  915MPD2    H313401   3.511   2.684  16.000 -0.5292  0.8881  0.0488
  915MPD2     N13402   3.069   2.813  15.900  0.2923  0.6460 -0.4525
  915MPD2    H513403   3.023   2.885  15.846 -5.6296 -1.6863  1.5636
  915MPD2    N113404   3.441   2.911  15.618  0.1846  0.5117  0.2662
  915MPD2    H713405   3.534   2.878  15.593  0.5144 -0.1609  2.3232
  916MPD2     C13406   0.763   1.046  15.580 -0.7255  0.4692  0.6170
  916MPD2    C113407   0.817   0.963  15.673  0.5980  1.2694  0.0809
  916MPD2    C213408   0.888   0.857  15.636  0.4284  0.3115  0.7920
  916MPD2    C313409   0.925   0.834  15.503 -0.2509 -0.5484 -0.1854
  916MPD2    C413410   0.890   0.929  15.412  0.8428 -0.3058  0.3519
  916MPD2    C513411   0.805   1.036  15.449 -0.1639 -1.0639 -0.2911
  916MPD2     H13412   0.919   0.792  15.717 -0.2599 -0.5733  0.3495
  916MPD2    H113413   0.908   0.926  15.305  2.2157  0.7038  0.5423
  916MPD2    H213414   0.703   1.131  15.609 -0.4305  0.9123 -0.0608
  916MPD2    H313415   0.763   1.097  15.369 -3.9335 -0.9795  1.7746
  916MPD2     N13416   1.004   0.719  15.470  0.1461  0.2969 -0.4243
  916MPD2    H513417   1.018   0.653  15.546  2.0244  2.7067  1.3126
  916MPD2    N113418   0.798   0.991  15.809  0.1709  0.5504  0.2515
  916MPD2    H713419   0.823   0.915  15.871 -1.8215 -1.7475 -1.7750
  917MPD2     C13420   1.627   3.789  11.913 -0.0942 -0.8600 -0.1162
  917MPD2    C113421   1.539   3.841  11.820 -0.4562  0.1364  0.6648
  917MPD2    C213422   1.581   3.869  11.694  0.7713 -0.2862 -0.1338
  917MPD2    C313423   1.711   3.864  11.649  0.1114 -0.3705  0.4265
  917MPD2    C413424   1.800   3.818  11.745 -0.2188  0.4557 -0.2584
  917MPD2    C513425   1.754   3.764  11.864  0.6419  0.3464  0.1886
  917MPD2     H13426   1.508   3.910  11.625  0.0813 -0.5439  0.4507
  917MPD2    H113427   1.908   3.815  11.737  0.0038  2.8012  1.6369
  917MPD2    H213428   1.597   3.749  12.009  0.7853 -3.1342 -0.7867
  917MPD2    H313429   1.826   3.728  11.935 -0.9465 -1.9635  0.6172
  917MPD2     N13430   1.765   3.898  11.520 -0.1930  0.7803  0.1388
  917MPD2    H513431   1.865   3.885  11.511 -0.1973  1.5056 -0.9598
  917MPD2    N113432   1.400   3.836  11.854  0.1590  0.1741 -0.0540
  917MPD2    H713433   1.368   3.830  11.950  1.6615 -1.5281  0.3528
  918MPD2     C13434   1.404   3.961  12.633  0.5815  0.4860 -0.1696
  918MPD2    C113435   1.471   3.917  12.517  0.4570  0.5639  0.3464
  918MPD2    C213436   1.405   3.883  12.404 -0.2723  0.3759  0.0584
  918MPD2    C313437   1.266   3.901  12.405 -0.7699  0.3484  0.2584
  918MPD2    C413438   1.199   3.946  12.518 -0.4635 -0.1356  0.2502
  918MPD2    C513439   1.271   3.974  12.633  0.3633  0.6804 -0.1392
  918MPD2     H13440   1.456   3.839  12.319  1.8025 -0.7887  1.9162
  918MPD2    H113441   1.092   3.960  12.520 -0.2248  2.0315 -2.3446
  918MPD2    H213442   1.463   3.977  12.723  0.0458 -0.0284  0.2728
  918MPD2    H313443   1.230   4.008  12.727  0.9019  2.3478 -0.4998
  918MPD2     N13444   1.176   3.866  12.294 -0.8718  0.2435 -0.3980
  918MPD2    H513445   1.078   3.890  12.309 -1.3711 -1.9478 -0.1016
  918MPD2    N113446   1.609   3.884  12.508  0.0168  0.3248  0.0337
  918MPD2    H713447   1.645   3.860  12.416  1.3932  1.2137  0.3339
  919MPD2     C13448   2.085   2.693  11.933  0.2979  0.4110 -0.1979
  919MPD2    C113449   2.033   2.616  11.831  0.9065 -0.4237 -0.6405
  919MPD2    C213450   1.975   2.671  11.718  0.0394 -0.3345  0.1121
  919MPD2    C313451   1.973   2.808  11.704 -0.2384  0.1359 -0.0345
  919MPD2    C413452   2.053   2.879  11.793 -0.4136  0.3461  0.3987
  919MPD2    C513453   2.105   2.824  11.905 -0.4191 -0.2844  0.4440
  919MPD2     H13454   1.924   2.605  11.648  1.0950  0.2543 -1.1950
  919MPD2    H113455   2.046   2.986  11.776  0.0065  0.6580  2.2366
  919MPD2    H213456   2.138   2.644  12.015 -1.7725 -0.2316  0.7652
  919MPD2    H313457   2.157   2.883  11.980 -1.6581 -0.4071  1.3961
  919MPD2     N13458   1.918   2.868  11.589  0.1547  0.0492  0.1753
  919MPD2    H513459   1.935   2.968  11.579  0.7207  0.0807  1.4808
  919MPD2    N113460   2.016   2.477  11.849 -0.0095 -0.8164 -0.1651
  919MPD2    H713461   2.011   2.425  11.763  0.7522 -1.2537  0.0540
  920MPD2     C13462   2.014   3.551  10.938  0.6179  0.3837  0.5540
  920MPD2    C113463   1.893   3.507  10.907 -0.1539 -0.3522  0.2668
  920MPD2    C213464   1.832   3.413  10.975  0.1927 -0.7039 -0.0614
  920MPD2    C313465   1.903   3.353  11.078  0.3157 -0.0656  0.4266
  920MPD2    C413466   2.032   3.394  11.113 -0.6497  0.3944 -0.9449
  920MPD2    C513467   2.086   3.496  11.039  0.8752  0.3386 -0.6511
  920MPD2     H13468   1.729   3.391  10.947 -0.2281  0.8849  0.2693
  920MPD2    H113469   2.093   3.348  11.190 -0.5078  2.0712 -0.0565
  920MPD2    H213470   2.068   3.620  10.874 -0.0200  1.2875  0.9766
  920MPD2    H313471   2.183   3.536  11.067  0.6666  1.1310 -1.0625
  920MPD2     N13472   1.827   3.265  11.153 -0.2202  0.4672  0.1171
  920MPD2    H513473   1.735   3.240  11.118 -0.5850  1.1332  0.5899
  920MPD2    N113474   1.813   3.566  10.808 -0.4316 -0.0793 -0.0487
  920MPD2    H713475   1.734   3.514  10.773  0.7474 -0.7823 -1.6225
  921MPD2     C13476   2.903   1.475  17.075  0.2847  0.4426  0.3077
  921MPD2    C113477   2.903   1.406  16.958 -0.1470 -0.7246  0.3081
  921MPD2    C213478   2.794   1.320  16.938  0.2697  0.4696  0.3393
  921MPD2    C313479   2.699   1.289  17.032 -0.1637 -0.2096 -0.1988
  921MPD2    C413480   2.704   1.366  17.151  0.4898 -0.2892 -0.3173
  921MPD2    C513481   2.806   1.451  17.169 -0.1647  0.3423  0.3227
  921MPD2     H13482   2.778   1.279  16.839 -0.9314  2.9875 -0.5131
  921MPD2    H113483   2.636   1.357  17.235 -0.5668  2.6003 -0.8893
  921MPD2    H213484   2.978   1.552  17.091  0.4781  0.3581 -0.1817
  921MPD2    H313485   2.802   1.512  17.259 -2.3910  1.1820 -0.3315
  921MPD2     N13486   2.606   1.188  17.005 -0.7868  0.1584  0.4642
  921MPD2    H513487   2.586   1.174  16.907 -1.2338  1.0290  0.4284
  921MPD2    N113488   3.001   1.432  16.850 -0.5919 -0.2140  0.0418
  921MPD2    H713489   3.079   1.493  16.870 -0.1045 -0.6239 -0.6030
  922MPD2     C13490   3.914   3.489  16.828 -0.5626  0.3757 -0.5792
  922MPD2    C113491   3.855   3.553  16.931 -0.0745 -0.8349 -0.5662
  922MPD2    C213492   3.760   3.489  17.002 -0.0888 -0.2383 -0.3278
  922MPD2    C313493   3.720   3.358  16.962 -0.7002 -0.0308 -0.8339
  922MPD2    C413494   3.777   3.295  16.854  0.0237  0.1223  0.5046
  922MPD2    C513495   3.878   3.364  16.786 -0.1059  0.0657 -0.3450
  922MPD2     H13496   3.715   3.534  17.090 -1.2577 -0.7295 -0.6619
  922MPD2    H113497   3.755   3.190  16.838 -0.2104  0.4832 -1.5755
  922MPD2    H213498   3.995   3.539  16.775 -0.5677 -1.9280 -2.7444
  922MPD2    H313499   3.937   3.314  16.709 -0.7802 -0.6092 -0.4320
  922MPD2     N13500   3.613   3.294  17.034 -0.5851 -0.1079  1.1476
  922MPD2    H513501   3.561   3.345  17.105 -2.6906  0.3961 -0.8069
  922MPD2    N113502   3.897   3.679  16.970 -0.0240  0.2403  0.1957
  922MPD2    H713503   3.863   3.705  17.062  0.8934  0.6571  0.4169
  923MPD2     C13504   0.173   0.980   9.444  0.3894  1.1311 -0.0211
  923MPD2    C113505   0.119   1.093   9.496  0.3962  1.0645  0.0842
  923MPD2    C213506   0.172   1.139   9.617 -0.4160  0.0622  0.8851
  923MPD2    C313507   0.287   1.088   9.669  0.3940 -0.2198 -0.1331
  923MPD2    C413508   0.348   0.977   9.603 -0.5602  0.0495  0.5097
  923MPD2    C513509   0.285   0.917   9.498 -0.1558 -0.3758  0.2540
  923MPD2     H13510   0.119   1.219   9.666 -1.6437  0.0213 -0.3716
  923MPD2    H113511   0.444   0.945   9.641 -0.4953 -0.0306  0.2743
  923MPD2    H213512   0.136   0.928   9.357  1.8062 -1.4091  0.8859
  923MPD2    H313513   0.319   0.822   9.458  0.7444  0.6397 -1.3927
  923MPD2     N13514   0.341   1.130   9.796  0.3487 -0.7969  0.5231
  923MPD2    H513515   0.419   1.076   9.834  1.7461  1.3703  0.7011
  923MPD2    N113516   0.007   1.151   9.427 -0.0200  0.0547  0.6012
  923MPD2    H713517   0.000   1.114   9.332 -0.9056 -0.5641  0.9079
  924MPD2     C13518   0.358   4.308  16.117 -0.3066  0.3697 -0.3211
  924MPD2    C113519   0.339   4.390  16.225 -0.1619 -0.2136  0.5220
  924MPD2    C213520   0.432   4.492  16.242  0.2257  0.5594  0.0766
  924MPD2    C313521   0.544   4.514  16.153 -0.1385  0.5340  0.0918
  924MPD2    C413522   0.556   4.431  16.048 -0.7232 -0.2332  0.0306
  924MPD2    C513523   0.468   4.324  16.038  0.2612  0.0411 -0.9745
  924MPD2     H13524   0.424   4.568  16.319 -1.0285  1.0447 -0.5329
  924MPD2    H113525   0.639   4.432  15.979 -0.4778 -0.3572  0.3201
  924MPD2    H213526   0.284   4.234  16.089  1.3375 -1.3991  0.0198
  924MPD2    H313527   0.475   4.261  15.950  2.9190  1.1062 -1.5269
  924MPD2     N13528   0.632   4.621  16.164  0.6313 -0.3188 -0.5322
  924MPD2    H513529   0.707   4.634  16.096  0.2361  1.5602 -0.6166
  924MPD2    N113530   0.221   4.374  16.306  0.9143  0.0187 -0.1071
  924MPD2    H713531   0.156   4.309  16.263  0.3101 -0.2738  1.2495
  925MPD2     C13532   3.412   1.554  14.653 -1.0972 -0.2088 -0.6949
  925MPD2    C113533   3.337   1.667  14.628  0.6673 -0.2905  0.9948
  925MPD2    C213534   3.226   1.694  14.713  0.2861 -0.6584 -0.2270
  925MPD2    C313535   3.189   1.596  14.800 -0.1915 -0.4198 -0.3006
  925MPD2    C413536   3.265   1.484  14.821 -0.1136 -0.3060 -0.0709
  925MPD2    C513537   3.373   1.466  14.745  0.4051  0.7120  0.1988
  925MPD2     H13538   3.160   1.777  14.692  0.4444  0.0383  2.0129
  925MPD2    H113539   3.240   1.412  14.898  0.5682  0.4044  0.8161
  925MPD2    H213540   3.507   1.527  14.607 -0.7319 -0.7481  0.3707
  925MPD2    H313541   3.431   1.377  14.766 -0.9455 -0.0992  0.5006
  925MPD2     N13542   3.087   1.618  14.892 -0.6878  0.3444 -0.0149
  925MPD2    H513543   3.067   1.538  14.951 -2.6612 -0.0374 -1.1809
  925MPD2    N113544   3.363   1.762  14.529 -0.7941 -0.2329  0.0168
  925MPD2    H713545   3.295   1.837  14.521  0.5598  0.9298 -0.4314
  926MPD2     C13546   2.070   0.598  13.106 -0.1921 -0.0453 -0.0873
  926MPD2    C113547   2.093   0.706  13.180  0.0610  0.1860 -0.2547
  926MPD2    C213548   2.170   0.806  13.129  0.3238  0.6319 -0.5262
  926MPD2    C313549   2.224   0.804  13.004 -0.2013  0.3055 -0.0024
  926MPD2    C413550   2.195   0.697  12.924 -0.4069 -0.4274 -0.5395
  926MPD2    C513551   2.123   0.595  12.977 -0.0751 -1.0760  0.1151
  926MPD2     H13552   2.185   0.891  13.195 -1.5172  1.2022 -0.8202
  926MPD2    H113553   2.251   0.688  12.831  2.7779 -0.7666  1.4272
  926MPD2    H213554   2.023   0.508  13.145 -0.8234 -0.3564 -1.5303
  926MPD2    H313555   2.095   0.506  12.922 -1.5062 -0.1721 -0.6587
  926MPD2     N13556   2.306   0.904  12.953  0.4693 -0.3826  0.2844
  926MPD2    H513557   2.333   0.895  12.855 -0.1990 -3.2303  0.3567
  926MPD2    N113558   2.037   0.729  13.311  1.0968  0.6446 -0.4372
  926MPD2    H713559   2.037   0.823  13.350  1.7904  0.0465  1.0096
  927MPD2     C13560   2.379   2.109   0.528  1.7097 -0.3625 -0.2881
  927MPD2    C113561   2.290   2.207   0.490 -0.0906 -0.3790 -0.0497
  927MPD2    C213562   2.322   2.303   0.397  0.3591  0.2493 -0.5847
  927MPD2    C313563   2.437   2.291   0.323  0.0198 -0.0627 -0.6837
  927MPD2    C413564   2.525   2.197   0.362 -0.0843  0.7248  0.9763
  927MPD2    C513565   2.493   2.110   0.459  0.3627  0.3720  0.1983
  927MPD2     H13566   2.261   2.389   0.371 -0.5699  0.6780  3.0561
  927MPD2    H113567   2.617   2.178   0.308 -2.1653  0.0017 -2.3375
  927MPD2    H213568   2.364   2.041   0.611 -1.7904  1.1689  0.3430
  927MPD2    H313569   2.561   2.032   0.489  0.3155  0.3971  0.3747
  927MPD2     N13570   2.450   2.374   0.212 -0.0065 -0.1748 -0.4683
  927MPD2    H513571   2.373   2.433   0.183  1.1840  2.1981  1.1940
  927MPD2    N113572   2.172   2.211   0.570  0.1102 -0.6674 -0.1829
  927MPD2    H713573   2.155   2.138   0.639 -0.6404  1.1353  1.5234
  928MPD2     C13574   0.368   0.714   0.958 -0.7947  0.3919  0.2243
  928MPD2    C113575   0.470   0.813   0.965 -0.3214  0.1492  0.2922
  928MPD2    C213576   0.526   0.836   0.842  0.1207 -0.5335 -0.1901
  928MPD2    C313577   0.473   0.800   0.719 -0.3114 -0.8026  0.2236
  928MPD2    C413578   0.374   0.702   0.721  1.1620  0.0654 -0.7370
  928MPD2    C513579   0.328   0.659   0.842 -0.1817  0.1325 -0.3016
  928MPD2     H13580   0.606   0.908   0.831  1.8431 -2.4585 -0.1355
  928MPD2    H113581   0.322   0.674   0.631  0.5686 -0.3853 -0.2525
  928MPD2    H213582   0.332   0.670   1.051  0.1811  0.6207  0.7160
  928MPD2    H313583   0.242   0.593   0.847 -0.3493  0.3435 -0.4490
  928MPD2     N13584   0.507   0.870   0.599  0.9030 -0.2707  0.5965
  928MPD2    H513585   0.553   0.960   0.607 -1.8958  1.5334 -3.3227
  928MPD2    N113586   0.518   0.870   1.087  0.1287 -0.6790  0.2997
  928MPD2    H713587   0.602   0.926   1.088 -1.4733  1.7397 -0.6104
  929MPD2     C13588   3.720   1.249   9.852  0.2716  0.7451 -0.4155
  929MPD2    C113589   3.807   1.177   9.933 -0.2656 -0.3758 -0.2109
  929MPD2    C213590   3.891   1.251  10.011  0.1370 -0.2036 -0.3280
  929MPD2    C313591   3.904   1.389  10.003  0.0049 -0.0388 -0.1020
  929MPD2    C413592   3.812   1.456   9.925  0.0608 -0.5496  0.5362
  929MPD2    C513593   3.725   1.385   9.848 -0.5869  0.2186 -0.0316
  929MPD2     H13594   3.966   1.190  10.060  1.5041  0.8747 -1.0754
  929MPD2    H113595   3.798   1.563   9.926 -0.1825 -0.5559 -1.3928
  929MPD2    H213596   3.651   1.195   9.788  1.3906 -0.6507 -0.4609
  929MPD2    H313597   3.648   1.443   9.797 -0.4128  1.7085  1.4085
  929MPD2     N13598   3.991   1.465  10.083 -0.0746 -0.5360 -0.1596
  929MPD2    H513599   3.977   1.566  10.088  1.4806 -0.2896 -1.1620
  929MPD2    N113600   3.800   1.038   9.932  0.1342  0.2835 -0.3660
  929MPD2    H713601   3.740   0.996   9.862 -0.2615  0.8866 -0.3914
  930MPD2     C13602   2.172   3.309  14.207 -0.3692 -0.6725  0.5948
  930MPD2    C113603   2.151   3.443  14.203 -0.1023 -0.3924  0.2327
  930MPD2    C213604   2.129   3.496  14.080 -0.2008  0.1733  0.0484
  930MPD2    C313605   2.124   3.424  13.966  0.0832 -0.1280 -1.1733
  930MPD2    C413606   2.149   3.289  13.973 -0.3034  0.7408 -0.2107
  930MPD2    C513607   2.183   3.235  14.094  0.3221  0.6133 -0.5601
  930MPD2     H13608   2.120   3.604  14.080 -0.4700  0.1515  0.0759
  930MPD2    H113609   2.162   3.227  13.885  0.4213  0.3042  0.2088
  930MPD2    H213610   2.207   3.268  14.301  1.1328  1.6127  1.0234
  930MPD2    H313611   2.208   3.130  14.096 -2.8668 -0.1697 -0.8174
  930MPD2     N13612   2.107   3.484  13.838 -0.3793 -0.1487 -0.3978
  930MPD2    H513613   2.098   3.423  13.758 -1.4000 -1.0958  0.4433
  930MPD2    N113614   2.153   3.514  14.325  0.0896  0.1776  0.6157
  930MPD2    H713615   2.189   3.470  14.409  1.3950 -0.7333 -0.4105
  931MPD2     C13616   2.132   1.874   1.057 -0.1965  0.0484 -0.1379
  931MPD2    C113617   1.998   1.892   1.023 -0.3713  0.2206 -0.0934
  931MPD2    C213618   1.900   1.827   1.099 -0.5451 -0.1515 -0.0255
  931MPD2    C313619   1.944   1.732   1.195  1.0432 -0.0601  0.0893
  931MPD2    C413620   2.076   1.705   1.214 -0.0660  0.6157 -0.2863
  931MPD2    C513621   2.168   1.777   1.144 -0.4770 -0.0307 -0.0647
  931MPD2     H13622   1.800   1.798   1.067 -1.4779 -0.0619  2.7567
  931MPD2    H113623   2.103   1.633   1.291  0.2749  1.5721  0.4855
  931MPD2    H213624   2.205   1.930   1.000  1.3237  0.3706  2.0943
  931MPD2    H313625   2.273   1.759   1.160  0.0906  2.9766 -0.5490
  931MPD2     N13626   1.861   1.644   1.269 -0.3202  0.6385 -0.3455
  931MPD2    H513627   1.907   1.584   1.335  0.4386 -0.2995 -1.7299
  931MPD2    N113628   1.975   1.986   0.922  0.0004 -0.0016  0.5036
  931MPD2    H713629   2.052   2.038   0.883 -1.4778 -1.5057 -4.3722
  932MPD2     C13630   3.954   1.704  10.969  0.2440  0.1798  0.5378
  932MPD2    C113631   4.006   1.791  11.062 -0.2587 -0.2084 -0.5267
  932MPD2    C213632   4.064   1.738  11.175  0.1786  0.4095 -0.0265
  932MPD2    C313633   4.066   1.606  11.202 -0.1077 -0.3132 -0.4810
  932MPD2    C413634   3.996   1.525  11.117  0.1453  0.1787 -0.4041
  932MPD2    C513635   3.940   1.574  10.999 -0.2652  0.1216 -1.0069
  932MPD2     H13636   4.118   1.807  11.239  0.2714  0.8024 -0.5325
  932MPD2    H113637   3.988   1.419  11.139  1.3200  0.3700  0.9856
  932MPD2    H213638   3.925   1.734  10.868  2.5969 -0.3988 -0.3008
  932MPD2    H313639   3.902   1.503  10.926 -0.0133  1.7880 -2.7840
  932MPD2     N13640   4.138   1.542  11.304  0.1228  0.1843  0.7019
  932MPD2    H513641   4.148   1.441  11.294 -0.5406  0.2419 -0.4662
  932MPD2    N113642   4.029   1.927  11.039 -0.0457  0.0489 -0.1453
  932MPD2    H713643   4.075   1.983  11.111 -2.7728  1.6416  0.3728
  933MPD2     C13644   0.564   1.198   1.966 -0.2611  0.3458 -0.2195
  933MPD2    C113645   0.494   1.202   1.848 -0.0962  0.5058  0.5167
  933MPD2    C213646   0.403   1.307   1.837  0.1885 -0.2564 -0.3198
  933MPD2    C313647   0.375   1.404   1.928  0.1714  0.1908 -0.5079
  933MPD2    C413648   0.450   1.397   2.045 -0.2691  0.5681 -0.3521
  933MPD2    C513649   0.531   1.285   2.068  0.2171 -0.0319 -0.3861
  933MPD2     H13650   0.360   1.322   1.738  0.5022  0.1879 -0.3912
  933MPD2    H113651   0.433   1.467   2.125 -1.7779  0.6039 -0.6989
  933MPD2    H213652   0.642   1.125   1.981 -1.9898 -1.3912  0.2198
  933MPD2    H313653   0.581   1.286   2.165 -0.3788 -2.7653 -0.0573
  933MPD2     N13654   0.281   1.511   1.902 -0.4549  0.3128 -0.1559
  933MPD2    H513655   0.232   1.505   1.814 -3.6130 -1.6743  1.7694
  933MPD2    N113656   0.518   1.106   1.744 -0.9275 -0.0388  0.3026
  933MPD2    H713657   0.590   1.037   1.763 -0.8306  0.1865  0.7461
  934MPD2     C13658   0.612   2.977   2.174 -0.1446  1.1161  0.1318
  934MPD2    C113659   0.680   2.863   2.127 -0.0604  0.4157  0.8266
  934MPD2    C213660   0.670   2.821   1.991 -0.3971  0.3626  0.5689
  934MPD2    C313661   0.607   2.909   1.908 -0.5033 -0.3272  0.0670
  934MPD2    C413662   0.549   3.026   1.951 -0.4768  0.1835 -0.7432
  934MPD2    C513663   0.557   3.065   2.082 -0.4786 -0.0469 -0.7301
  934MPD2     H13664   0.714   2.731   1.951 -2.6008 -1.1491  1.5778
  934MPD2    H113665   0.497   3.080   1.873 -2.8868 -1.3775 -0.2038
  934MPD2    H213666   0.620   3.013   2.275  0.4061  0.9971  0.1338
  934MPD2    H313667   0.515   3.159   2.115  0.2144  0.5991 -1.6712
  934MPD2     N13668   0.575   2.885   1.776  0.1901 -0.5754 -0.1427
  934MPD2    H513669   0.531   2.959   1.722  0.9719 -2.2580 -3.1072
  934MPD2    N113670   0.762   2.784   2.210 -0.5005  0.0946  0.2364
  934MPD2    H713671   0.808   2.706   2.165 -1.1252  0.4225 -0.9576
  935MPD2     C13672   0.990   2.237   1.081  0.5377 -1.3064 -0.0070
  935MPD2    C113673   0.893   2.301   1.019 -0.1695  0.5223  0.2298
  935MPD2    C213674   0.823   2.403   1.083 -0.7430  0.1406  0.6027
  935MPD2    C313675   0.874   2.443   1.207  0.4625  0.1028 -0.5946
  935MPD2    C413676   0.969   2.369   1.270 -0.8581  0.4657  0.1588
  935MPD2    C513677   1.029   2.270   1.210  0.1641  0.1829 -0.0561
  935MPD2     H13678   0.739   2.449   1.031 -0.9177  0.4487  1.1614
  935MPD2    H113679   1.002   2.388   1.371 -0.4630 -1.3160  0.3631
  935MPD2    H213680   1.039   2.153   1.032  1.0276 -1.4475  0.7208
  935MPD2    H313681   1.104   2.211   1.260 -1.0530 -0.1780  1.3091
  935MPD2     N13682   0.824   2.546   1.289  0.7054 -0.1024  0.2767
  935MPD2    H513683   0.866   2.552   1.381  0.4189 -0.7873  0.4523
  935MPD2    N113684   0.847   2.262   0.889 -0.1318 -0.3464  0.2956
  935MPD2    H713685   0.773   2.319   0.848  0.5398  0.2787 -0.0459
  936MPD2     C13686   3.867   0.472  12.595  0.0537 -0.9618  0.1427
  936MPD2    C113687   3.885   0.495  12.733 -0.0533 -0.6578  0.4548
  936MPD2    C213688   3.996   0.541  12.775 -0.1989  0.0876  0.2325
  936MPD2    C313689   4.096   0.574  12.688  0.2475 -0.9886 -0.2069
  936MPD2    C413690   4.084   0.555  12.552 -0.6378  0.7318  0.2078
  936MPD2    C513691   3.968   0.493  12.506  0.5237  0.3719 -0.1238
  936MPD2     H13692   4.013   0.562  12.880  0.6776  0.8947 -0.0786
  936MPD2    H113693   4.174   0.549  12.492 -1.9128  1.3561 -1.7550
  936MPD2    H213694   3.781   0.424  12.550 -0.0101 -1.1108  0.4255
  936MPD2    H313695   3.960   0.458  12.403  2.9105 -1.7509  0.4232
  936MPD2     N13696   4.225   0.608  12.737  0.1623  0.7305 -0.1808
  936MPD2    H513697   4.290   0.645  12.669 -1.2852  1.8479 -0.9454
  936MPD2    N113698   3.799   0.450  12.834 -0.5211  0.4329  0.4471
  936MPD2    H713699   3.820   0.492  12.924 -0.5057  2.5543 -0.5430
  937MPD2     C13700   2.272   1.873  11.593  0.2936 -1.0869  0.6330
  937MPD2    C113701   2.216   1.995  11.564 -0.0485 -0.7208 -0.7172
  937MPD2    C213702   2.276   2.081  11.475  0.9459 -0.0701 -0.3760
  937MPD2    C313703   2.390   2.052  11.404  0.3480  0.0837  0.0919
  937MPD2    C413704   2.446   1.927  11.430  0.5934 -0.0266 -0.5959
  937MPD2    C513705   2.388   1.843  11.525 -1.0336  0.4997  0.3815
  937MPD2     H13706   2.233   2.179  11.458 -3.5529 -2.0155  0.0049
  937MPD2    H113707   2.539   1.894  11.385  1.1578 -1.2348  1.4590
  937MPD2    H213708   2.239   1.804  11.670  2.7573 -0.4745  2.2552
  937MPD2    H313709   2.431   1.748  11.554 -1.2551  0.6378  1.1741
  937MPD2     N13710   2.444   2.158  11.329 -0.0187 -0.5365  0.7561
  937MPD2    H513711   2.394   2.245  11.341  3.0729  1.2535  0.5576
  937MPD2    N113712   2.123   2.058  11.653  0.2608  0.6633 -0.5373
  937MPD2    H713713   2.105   2.157  11.638  2.7181  0.9630 -1.4226
  938MPD2     C13714   0.232   3.083   0.685  0.4943 -0.3189 -0.0250
  938MPD2    C113715   0.311   3.009   0.772  0.8116 -0.9305 -0.5410
  938MPD2    C213716   0.259   2.910   0.847  0.9310  1.2060 -0.1528
  938MPD2    C313717   0.121   2.885   0.836  0.5510  0.0914  0.4211
  938MPD2    C413718   0.045   2.952   0.749  0.0705  0.3477 -0.0882
  938MPD2    C513719   0.102   3.051   0.680 -0.5025  0.3103  0.4631
  938MPD2     H13720   0.315   2.849   0.916  0.3579 -1.7440 -2.3160
  938MPD2    H113721   4.663   2.931   0.735  0.1098 -0.8462  1.4455
  938MPD2    H213722   0.267   3.167   0.626 -2.4678 -0.2695 -1.7395
  938MPD2    H313723   0.036   3.110   0.618  0.9956 -0.0729 -1.4912
  938MPD2     N13724   0.062   2.803   0.937 -0.2091 -0.1359 -0.1124
  938MPD2    H513725   4.686   2.818   0.951  0.0496  0.5849  1.0125
  938MPD2    N113726   0.447   3.031   0.789  0.0828 -0.0795  0.4681
  938MPD2    H713727   0.495   2.966   0.850 -0.9918  0.3880  1.8247
  939MPD2     C13728   1.803   3.333   0.984 -0.0329  0.6567 -0.2770
  939MPD2    C113729   1.837   3.472   0.976  0.4528  0.8092 -0.1242
  939MPD2    C213730   1.897   3.526   0.868  0.4176  0.2098 -0.4447
  939MPD2    C313731   1.941   3.440   0.769  0.1670  0.8078  0.0600
  939MPD2    C413732   1.913   3.303   0.777  0.1372  0.1424 -0.1654
  939MPD2    C513733   1.844   3.251   0.884 -0.0117  0.4242 -0.2646
  939MPD2     H13734   1.926   3.631   0.867  0.0606  0.3106 -0.1672
  939MPD2    H113735   1.953   3.242   0.696  0.6234  0.4317 -0.1473
  939MPD2    H213736   1.742   3.296   1.065  1.1483 -0.5496  0.0663
  939MPD2    H313737   1.822   3.147   0.905  1.9372  0.1759  0.4844
  939MPD2     N13738   1.987   3.513   0.655  0.2418  0.2122 -0.0402
  939MPD2    H513739   1.989   3.614   0.662 -0.4005  0.1618  0.9019
  939MPD2    N113740   1.794   3.553   1.087  0.2417 -0.3497  0.3811
  939MPD2    H713741   1.768   3.497   1.168  1.9780 -0.9229  0.5392
  940MPD2     C13742   0.065   0.401  12.938 -0.0930 -0.8533  0.4270
  940MPD2    C113743   0.168   0.346  13.005 -0.6354 -0.2936  1.0666
  940MPD2    C213744   0.259   0.267  12.941 -0.4654 -0.0862 -0.3067
  940MPD2    C313745   0.232   0.238  12.811 -1.0028  0.5435  0.4695
  940MPD2    C413746   0.122   0.287  12.748  0.1849 -0.0653  0.4813
  940MPD2    C513747   0.045   0.375  12.808 -1.0175 -0.2743  0.0282
  940MPD2     H13748   0.345   0.232  12.996  0.0434  1.0040 -0.3927
  940MPD2    H113749   0.092   0.272  12.645  1.1693 -0.4910  0.2619
  940MPD2    H213750   4.709   0.461  12.982 -0.3266  0.1195 -1.3429
  940MPD2    H313751   4.697   0.428  12.747 -1.5092 -1.0059 -0.0265
  940MPD2     N13752   0.302   0.137  12.742 -0.0344  0.0760  0.1310
  940MPD2    H513753   0.278   0.125  12.644 -2.3005 -0.0535  0.7178
  940MPD2    N113754   0.188   0.368  13.146 -0.0873  0.0525 -0.7773
  940MPD2    H713755   0.261   0.318  13.197 -2.4482 -1.0187  1.5907
  941MPD2     C13756   0.136   4.190   9.780  0.2479  0.1215  0.4845
  941MPD2    C113757   0.129   4.248   9.655  0.2074  0.6338  0.7994
  941MPD2    C213758   0.030   4.207   9.566  0.4632  0.1936 -0.5253
  941MPD2    C313759   4.645   4.129   9.616  0.3236  0.6565  0.1227
  941MPD2    C413760   4.641   4.102   9.748  0.0310 -0.5510  0.3237
  941MPD2    C513761   0.029   4.115   9.822  0.1665 -0.1850 -0.2124
  941MPD2     H13762   0.033   4.237   9.462  0.4167  0.0854 -0.5577
  941MPD2    H113763   4.554   4.047   9.779  0.9647 -1.4183  1.4053
  941MPD2    H213764   0.218   4.211   9.848 -1.0230  0.1341  1.9972
  941MPD2    H313765   0.029   4.080   9.925  0.4285 -0.2368 -0.2286
  941MPD2     N13766   4.538   4.094   9.533  0.4543 -0.5101 -0.0868
  941MPD2    H513767   4.461   4.056   9.586  0.6317  1.0758  1.3088
  941MPD2    N113768   0.223   4.341   9.614 -0.1804 -0.2268  0.0870
  941MPD2    H713769   0.211   4.374   9.519 -0.6983  0.9564  0.5644
  942MPD2     C13770   4.204   0.256   9.361  0.1369 -0.2001  0.5195
  942MPD2    C113771   4.092   0.205   9.286 -0.3658 -0.4377 -0.5491
  942MPD2    C213772   3.994   0.291   9.237 -0.3281  0.0940  0.3416
  942MPD2    C313773   3.987   0.426   9.286 -0.1061 -0.2803  0.9385
  942MPD2    C413774   4.096   0.467   9.362 -0.1325 -0.5707  0.1632
  942MPD2    C513775   4.210   0.389   9.381  0.0724 -0.1739  0.2820
  942MPD2     H13776   3.917   0.235   9.185  0.5736 -0.9578  0.1374
  942MPD2    H113777   4.096   0.570   9.395 -1.7871  0.6303 -3.6192
  942MPD2    H213778   4.294   0.197   9.376  0.1632 -0.1226  0.6689
  942MPD2    H313779   4.293   0.436   9.434  1.0138 -0.7583 -0.6750
  942MPD2     N13780   3.900   0.528   9.249 -0.5763  0.3488 -0.1380
  942MPD2    H513781   3.918   0.624   9.280 -1.4717  0.8393 -1.1438
  942MPD2    N113782   4.075   0.073   9.245  0.1789  0.5383  0.1145
  942MPD2    H713783   3.996   0.050   9.184 -0.0937 -1.4685  1.2145
  943MPD2     C13784   2.301   4.555   9.503 -0.5734 -0.1051  0.2447
  943MPD2    C113785   2.441   4.565   9.502 -0.6377 -0.2194  0.5435
  943MPD2    C213786   2.498   4.683   9.464 -0.4970  0.3219  0.2216
  943MPD2    C313787   2.417   0.073   9.450  0.1034 -0.4320  0.8323
  943MPD2    C413788   2.284   0.074   9.494  0.1052  0.4962 -0.1232
  943MPD2    C513789   2.228   4.671   9.510 -0.4319  0.4197 -0.2954
  943MPD2     H13790   2.603   4.684   9.436 -0.0448  1.2593  1.9754
  943MPD2    H113791   2.227   0.165   9.505 -0.9581  0.1470 -2.7795
  943MPD2    H213792   2.252   4.460   9.519  0.3913 -0.2576  2.3496
  943MPD2    H313793   2.125   4.664   9.543  0.0257 -1.8009  0.6941
  943MPD2     N13794   2.476   0.196   9.409 -0.3847  0.2382 -0.6413
  943MPD2    H513795   2.427   0.284   9.426  0.0083  0.5192 -0.9708
  943MPD2    N113796   2.512   4.438   9.518 -0.4226  0.0042 -0.2270
  943MPD2    H713797   2.460   4.357   9.549  0.3146  0.3257  1.8170
  944MPD2     C13798   2.896   3.324  11.232 -0.1667  0.6670 -0.2664
  944MPD2    C113799   2.873   3.440  11.163 -0.0357  0.3164 -0.4152
  944MPD2    C213800   2.770   3.522  11.204  0.5788 -0.4060 -0.1795
  944MPD2    C313801   2.692   3.482  11.312  0.7080 -0.3343  0.2043
  944MPD2    C413802   2.720   3.371  11.386 -0.0948  0.1004  0.3144
  944MPD2    C513803   2.828   3.287  11.346 -0.2651 -0.6258  0.3328
  944MPD2     H13804   2.749   3.616  11.155 -2.0347 -0.8537  0.0891
  944MPD2    H113805   2.665   3.344  11.475 -0.2904 -0.8290 -0.0899
  944MPD2    H213806   2.987   3.270  11.211  0.3636  0.6466  2.1286
  944MPD2    H313807   2.861   3.196  11.396 -0.3373 -1.8830 -1.9051
  944MPD2     N13808   2.594   3.576  11.344 -0.2577  0.4740  1.0857
  944MPD2    H513809   2.588   3.658  11.285 -0.7624 -0.1428  0.2696
  944MPD2    N113810   2.964   3.469  11.058 -0.9974  0.9003 -0.0093
  944MPD2    H713811   3.048   3.412  11.052  0.4744  2.7813  2.2108
    1TCq1    O113812   0.143   4.474  15.403  0.4892  0.0311  0.0538
    1TCq1    C113813   0.269   4.504  15.427 -0.4131  0.0420 -0.6760
    1TCq1    O213814   0.365   4.430  15.455 -0.7017  0.1337 -0.1435
    1TCq1    C213815   0.283   4.651  15.410 -0.1870  0.0479 -0.1304
    1TCq1    C313816   0.203   4.717  15.320  0.4093  0.6925 -0.0133
    1TCq1    C413817   0.221   0.125  15.303 -0.3634  0.0612 -0.0743
    1TCq1    C513818   0.329   0.192  15.371  0.2979  0.4278 -0.4661
    1TCq1    C613819   0.411   0.122  15.444  0.5876 -0.1901  0.1539
    1TCq1    C713820   0.387   4.715  15.478 -0.3842  0.2593  0.5320
    1TCq1    C813821   0.549   0.160  15.457 -0.1280  0.8926  0.7122
    1TCq1    O413822   0.609   0.109  15.550  0.4257  0.4864  0.5317
    1TCq1    C913823   0.123   0.201  15.226 -0.1563 -0.0292 -0.5747
    1TCq1    O513824   0.140   0.321  15.222  0.7340 -0.2778 -0.6916
    1TCq1    O613825   0.034   0.135  15.167 -0.2411 -0.4857  0.5973
    1TCq1    H113826   0.077   4.546  15.415  0.8725  0.1580  1.3930
    1TCq1    H213827   0.123   4.670  15.264 -0.2778  3.4431 -1.3185
    1TCq1    H313828   0.351   0.297  15.354  1.0778  0.3601  0.1553
    1TCq1    H413829   0.454   4.656  15.540 -1.0398 -0.4703  0.5442
    2MPD2     C13830   1.010   0.291  15.318  0.1904  0.8362  0.1052
    2MPD2    C113831   0.935   0.269  15.203  0.2257 -0.0832  0.0813
    2MPD2    C213832   0.804   0.239  15.206  0.5647 -0.5432 -0.1537
    2MPD2    C313833   0.740   0.242  15.330  0.3562  0.5388  0.2887
    2MPD2    C413834   0.803   0.275  15.444  0.3409 -0.0566  0.0080
    2MPD2    C513835   0.938   0.299  15.436  0.3639  0.4490 -0.1135
    2MPD2     H13836   0.745   0.229  15.116 -0.3088  2.4237  0.0785
    2MPD2    H113837   0.755   0.285  15.540  1.0951 -0.6597  0.4442
    2MPD2    H213838   1.116   0.308  15.329  0.5163 -0.7545 -0.6241
    2MPD2    H313839   0.990   0.326  15.527  2.3887  0.1253 -1.1715
    2MPD2     N13840   0.606   0.199  15.337  0.3515 -0.0564  0.1939
    2MPD2    H513841   0.560   0.186  15.247 -0.2226 -3.5415  0.9907
    2MPD2    N113842   1.012   0.273  15.078  0.4723  0.2737  0.0760
    2MPD2    H713843   1.103   0.317  15.078  0.0403  1.1794 -1.5181
    3TMC2    C113844   1.055   0.253  14.850  0.0419  0.0158 -0.5735
    3TMC2    C213845   1.139   0.364  14.856  0.6358 -0.2926 -0.0515
    3TMC2    C313846   1.227   0.381  14.749  0.3538 -0.0212 -0.4207
    3TMC2    C413847   1.050   0.166  14.741  0.2290 -0.3403  0.0503
    3TMC2    C513848   1.133   0.188  14.643  0.6743 -0.0137 -0.0068
    3TMC2    C613849   1.232   0.283  14.648  0.1661  0.4982  0.0560
    3TMC2     C13850   0.962   0.225  14.960 -0.0787  0.0640  0.2944
    3TMC2     O13851   0.864   0.158  14.931  0.3741 -0.3729 -0.2303
    3TMC2     H13852   1.136   0.449  14.924  0.1765 -0.5906  0.3026
    3TMC2    H113853   0.988   0.077  14.739  1.4716 -1.2793  2.4888
    3TMC2    H213854   1.291   0.318  14.563 -2.3652  0.1882 -1.8230
    3TMC2    C713855   1.090   0.138  14.517  0.1443 -0.0061 -0.5403
    3TMC2    C813856   1.325   0.489  14.735  0.1185  0.0506 -0.1945
    3TMC2    O113857   1.013   0.042  14.509  0.1414  0.2647 -0.2928
    3TMC2    O213858   1.388   0.504  14.630 -0.1910 -0.3472  0.7938
    3TMC2    O513859   1.386   0.505  14.851  0.7290 -0.2666  0.1457
    3TMC2    H513860   1.347   0.459  14.928  2.4187 -3.0005 -0.6460
    4MPD2     C13861   0.556   1.193  13.584 -0.5362  0.3248  0.4074
    4MPD2    C113862   0.553   1.081  13.498  0.7919  0.1283 -0.4445
    4MPD2    C213863   0.641   0.972  13.521  0.1529  0.7395  0.3010
    4MPD2    C313864   0.716   0.972  13.635 -0.4322  0.3116  0.2260
    4MPD2    C413865   0.712   1.074  13.728  0.3065 -1.0762 -0.0305
    4MPD2    C513866   0.630   1.182  13.697  0.0522  0.3644  0.1515
    4MPD2     H13867   0.627   0.887  13.455  1.8216  0.7333 -0.0246
    4MPD2    H113868   0.767   1.071  13.821  1.1768  1.4398 -0.4455
    4MPD2    H213869   0.495   1.283  13.584  0.3206  0.9254  2.7743
    4MPD2    H313870   0.633   1.263  13.769 -0.2576 -1.1558  1.8896
    4MPD2     N13871   0.795   0.854  13.654 -0.6554  0.1450  0.3362
    4MPD2    H513872   0.811   0.791  13.575  1.1316 -0.1661  0.9639
    4MPD2    N113873   0.447   1.085  13.406  0.5089  0.1148 -0.4975
    4MPD2    H713874   0.391   1.168  13.418  1.7560  0.5487  2.1601
    5TCq2    C113875   0.872   0.826  13.757 -0.5300  0.3147  0.3540
    5TCq2    O213876   0.888   0.883  13.866 -0.5383 -0.5592 -0.3878
    5TCq2    C213877   0.945   0.702  13.737 -0.5303 -0.6525 -0.3682
    5TCq2    C313878   0.992   0.666  13.612  0.2722  0.2649 -0.3032
    5TCq2    C413879   1.095   0.575  13.615 -0.2416  0.5775  0.6608
    5TCq2    C513880   1.140   0.512  13.722 -0.1141  0.6381 -0.5466
    5TCq2    C613881   1.080   0.543  13.842 -0.0449 -0.3316  0.4064
    5TCq2    C713882   0.996   0.650  13.849 -0.2706 -0.7857  0.5969
    5TCq2    C813883   1.111   0.472  13.966  0.2663 -0.3231  0.2417
    5TCq2    O413884   1.120   0.539  14.070  0.1665 -0.2416 -0.1169
    5TCq2    C913885   1.149   0.535  13.489  0.3572 -0.4289  0.2650
    5TCq2    O513886   1.122   0.596  13.379 -0.2842 -0.1369  0.0010
    5TCq2    O613887   1.243   0.455  13.496 -0.2798 -0.0395 -0.3885
    5TCq2    H213888   0.963   0.719  13.522  0.2402 -0.6740 -0.8451
    5TCq2    H313889   1.219   0.438  13.717  0.7061  1.3610  1.3572
    5TCq2    H413890   0.947   0.664  13.945 -3.2648  0.0499 -1.0704
    6MPD1     C13891   4.442   2.493  12.447 -0.0233 -0.5891  0.2317
    6MPD1    C113892   4.410   2.489  12.581 -0.5664 -0.4238 -0.3008
    6MPD1    C213893   4.457   2.378  12.650 -0.0443  0.1350 -0.5290
    6MPD1    C313894   4.531   2.275  12.589  0.2934 -0.5108 -0.7380
    6MPD1    C413895   4.550   2.283  12.451 -0.5481 -0.5697 -0.0464
    6MPD1    C513896   4.503   2.389  12.385 -0.4593 -0.4991 -0.1236
    6MPD1     H13897   4.441   2.379  12.757 -2.0135  1.6470 -0.8471
    6MPD1    H113898   4.596   2.203  12.394 -1.4005 -1.1095  0.0301
    6MPD1    H213899   4.415   2.574  12.381  2.2961 -0.4557 -0.5584
    6MPD1    H313900   4.528   2.399  12.280 -0.4231  0.8722  0.0149
    6MPD1     N13901   4.577   2.157  12.654  0.1418  0.5832 -0.4114
    6MPD1    H513902   4.607   2.078  12.598  2.2529  0.8272  0.3612
    6MPD1    N113903   4.364   2.606  12.644  0.7430 -0.1706  0.3413
    6MPD1    H613904   4.315   2.580  12.729 -0.9084  1.0392 -0.2494
    6MPD1    H713905   4.304   2.654  12.578 -0.5699 -2.7567 -0.3342
    7MPD2     C13906   4.660   1.676  13.390  0.7945 -0.5973 -0.6124
    7MPD2    C113907   4.717   1.636  13.272  0.6140  0.4750 -0.0581
    7MPD2    C213908   0.008   1.499  13.252  0.3087  0.0652  0.0970
    7MPD2    C313909   4.701   1.402  13.342 -0.0713 -0.0929 -0.9207
    7MPD2    C413910   4.643   1.444  13.463  0.0023 -0.1538 -0.2124
    7MPD2    C513911   4.619   1.580  13.482 -0.6083 -0.2894 -0.1564
    7MPD2     H13912   0.047   1.459  13.158  2.0982  2.9011 -0.3624
    7MPD2    H113913   4.596   1.377  13.534 -2.0768  0.7486 -0.7213
    7MPD2    H213914   4.656   1.779  13.423 -3.3563 -0.3584 -1.8299
    7MPD2    H313915   4.578   1.602  13.580  0.9543  2.6959 -0.1761
    7MPD2     N13916   4.716   1.268  13.311 -0.4063  0.7896  0.2384
    7MPD2    H513917   0.013   1.245  13.214  1.3444  2.7339  0.1502
    7MPD2    N113918   0.027   1.719  13.159 -0.6341 -0.6070  0.4559
    7MPD2    H713919   0.029   1.668  13.072 -0.1041  1.5975 -0.8252
    8TMC3    C113920   0.059   1.051  13.315  0.3077 -0.4027 -0.1095
    8TMC3    C213921   0.187   1.028  13.357  1.2343  0.5518  0.1344
    8TMC3    C313922   0.293   1.029  13.263 -0.4194  0.0567  0.3900
    8TMC3    C413923   0.029   1.050  13.184  0.4047  0.9771 -0.5680
    8TMC3    C513924   0.132   1.046  13.097  0.3241 -0.9654 -0.3235
    8TMC3    C613925   0.263   1.041  13.130  0.2593  0.2040  0.8490
    8TMC3     C13926   4.716   1.159  13.393 -0.4255 -0.3512 -0.1292
    8TMC3     O13927   4.714   1.146  13.514 -0.1389 -0.0434  0.2174
    8TMC3     H13928   0.225   1.030  13.459 -0.3303 -0.8580  0.7348
    8TMC3    H113929   4.646   1.057  13.168  0.1955  1.7554  1.1053
    8TMC3    H213930   0.343   1.054  13.059  0.4139 -2.2095  0.5818
    8TMC3    C713931   0.112   1.152  12.994  0.5199 -0.2612 -0.4314
    8TMC3    C813932   0.430   1.009  13.299  0.5426  0.2772 -0.3836
    8TMC3    O113933   0.025   1.224  13.041  0.3996 -0.0244 -0.0585
    8TMC3    O213934   0.507   0.943  13.231  0.4614 -0.1904 -0.0181
    9TMC3    C113935   4.611   2.000  12.841  0.2310 -0.0850 -0.4315
    9TMC3    C213936   4.664   1.917  12.746  0.3328  0.2995 -0.3360
    9TMC3    C313937   0.017   1.814  12.781  0.2847  1.0206 -0.6598
    9TMC3    C413938   4.659   1.997  12.971  0.7856 -0.2207 -0.7914
    9TMC3    C513939   0.021   1.897  13.009  0.8446 -0.3334  0.4835
    9TMC3    C613940   0.063   1.803  12.915  0.3042  0.1829  0.3534
    9TMC3     C13941   4.562   2.134  12.789 -0.0125  0.4048 -0.2555
    9TMC3     O13942   4.528   2.212  12.879  0.2218 -0.6752 -0.1351
    9TMC3     H13943   4.626   1.921  12.644 -1.4187 -1.2454  0.2696
    9TMC3    H113944   4.638   2.078  13.040  0.4255 -2.7626  2.0799
    9TMC3    H213945   0.143   1.738  12.948 -1.5233 -3.2615 -1.9761
    9TMC3    C713946   0.006   1.854  13.147 -0.8048 -0.4691 -0.0323
    9TMC3    C813947   0.075   1.723  12.685  0.4913 -0.2022  0.1328
    9TMC3    O113948   4.683   1.927  13.237  0.0182  0.5398  0.1552
    9TMC3    O213949   0.119   1.767  12.582  0.0616  0.2023  0.1879
   10MPD2     C13950   0.272   1.259  12.673  0.0485 -0.7403 -0.1893
   10MPD2    C113951   0.188   1.257  12.781  0.3549 -0.1879 -0.0277
   10MPD2    C213952   0.123   1.376  12.803 -0.6212 -0.9607  0.7300
   10MPD2    C313953   0.121   1.481  12.711  0.7094 -0.3295 -0.1493
   10MPD2    C413954   0.192   1.471  12.593 -0.4958 -0.0137 -0.0255
   10MPD2    C513955   0.272   1.360  12.578 -0.5100  0.8653  0.2590
   10MPD2     H13956   0.081   1.397  12.901  2.2728  0.1282  1.7398
   10MPD2    H113957   0.185   1.550  12.519 -2.0487 -0.7569 -0.6974
   10MPD2    H213958   0.343   1.178  12.657  0.9218  0.0203 -0.1672
   10MPD2    H313959   0.329   1.340  12.489  1.2679  1.6444  1.2203
   10MPD2     N13960   0.059   1.600  12.746  0.1685 -0.1464 -0.0180
   10MPD2    H513961   4.720   1.594  12.825  0.2241 -1.2280 -0.0483
   10MPD2    N113962   0.193   1.155  12.878  0.3785 -0.1250 -1.0604
   10MPD2    H713963   0.247   1.072  12.857  0.0551 -0.1893 -1.6246
   11MPD2     C13964   1.124   0.036  14.239 -0.2055  0.4170 -0.2097
   11MPD2    C113965   1.133   0.168  14.281 -0.5802  0.2286 -0.0676
   11MPD2    C213966   1.137   0.268  14.182 -0.4959 -0.4030  0.2081
   11MPD2    C313967   1.115   0.239  14.047  0.0456 -0.3636 -0.0071
   11MPD2    C413968   1.097   0.107  14.012 -0.1818  0.5613  0.1262
   11MPD2    C513969   1.105   0.009  14.107 -0.5870 -0.4435 -0.0950
   11MPD2     H13970   1.171   0.367  14.209  1.6700 -1.8184  2.6146
   11MPD2    H113971   1.059   0.086  13.912  1.2757 -0.8276 -0.1411
   11MPD2    H213972   1.140   4.677  14.308  1.4452 -0.1569 -1.2804
   11MPD2    H313973   1.098   4.633  14.067  1.4511 -1.0671  1.0945
   11MPD2     N13974   1.105   0.338  13.947  0.3109  0.0515  0.2512
   11MPD2    H513975   1.103   0.312  13.849 -0.4194 -0.4357  0.3956
   11MPD2    N113976   1.136   0.212  14.413  0.0107 -0.4642 -0.3709
   11MPD2    H713977   1.174   0.303  14.436 -1.5030  0.5084 -1.7692
    1MPD1     C13978   2.172   1.484  17.117  0.0491  1.2325  0.5457
    1MPD1    C113979   2.208   1.490  17.246  0.3122  0.4469 -0.7562
    1MPD1    C213980   2.331   1.530  17.285 -0.3630  0.4327  0.1522
    1MPD1    C313981   2.431   1.552  17.187 -0.7283  0.4637 -0.1026
    1MPD1    C413982   2.391   1.539  17.053 -0.2853 -1.0193  0.2941
    1MPD1    C513983   2.264   1.512  17.020 -1.1804 -0.6323  0.0428
    1MPD1     H13984   2.341   1.543  17.392  2.3859  1.7037 -0.2345
    1MPD1    H113985   2.456   1.563  16.970  0.0337  1.0987  1.1691
    1MPD1    H213986   2.070   1.468  17.082 -0.0885  4.4136 -0.5645
    1MPD1    H313987   2.230   1.514  16.917  0.6225 -0.7596 -0.5435
    1MPD1     N13988   2.552   1.615  17.215  1.1736 -0.1405  0.1494
    1MPD1    H513989   2.604   1.638  17.130 -0.0139 -2.0643 -1.1006
    1MPD1    N113990   2.111   1.473  17.348 -0.2219  0.2028 -0.3767
    1MPD1    H613991   2.136   1.404  17.418 -0.4383  2.7229  2.1698
    1MPD1    H713992   2.023   1.436  17.312 -0.1526 -1.1968  0.8988
    2MPD1     C13993   3.348   1.903   0.223  1.0684  0.1751 -0.0816
    2MPD1    C113994   3.379   1.941   0.092  0.8021 -0.1989  0.0412
    2MPD1    C213995   3.299   1.916  17.678  0.1012 -0.4144  0.4644
    2MPD1    C313996   3.168   1.874   0.009  0.3774 -0.3216 -0.4523
    2MPD1    C413997   3.128   1.851   0.140  0.5625  0.1896  0.2904
    2MPD1    C513998   3.218   1.860   0.249 -0.2596  0.1960  0.5851
    2MPD1     H13999   3.330   1.939  17.577 -0.3635  0.5910  0.5519
    2MPD1    H114000   3.026   1.833   0.169 -0.2661  0.8767 -2.2126
    2MPD1    H214001   3.416   1.915   0.307  1.6321 -1.8453 -0.2494
    2MPD1    H314002   3.182   1.835   0.349 -1.2385 -0.0597  0.1704
    2MPD1     N14003   3.081   1.866  17.598  0.4588  0.0027  0.3789
    2MPD1    H514004   3.120   1.884  17.506  0.5543 -0.8731  0.2460
    2MPD1    N114005   3.512   1.995   0.075  0.3644  0.1076 -0.2707
    2MPD1    H614006   3.548   2.024   0.166 -1.1526  0.0965  0.3419
    2MPD1    H714007   3.513   2.080   0.019  1.7491 -0.1436 -0.6380
    3TMC3    C114008   2.882   1.821  17.471 -0.4798  0.1714 -0.5733
    3TMC3    C214009   2.926   1.902  17.366  0.7732  0.0177  0.6734
    3TMC3    C314010   2.858   1.891  17.244 -0.9421  0.4222 -0.1252
    3TMC3    C414011   2.763   1.752  17.456  0.0247  0.0672 -0.6556
    3TMC3    C514012   2.695   1.754  17.338 -0.7490  0.0828 -0.0937
    3TMC3    C614013   2.739   1.826  17.230 -0.0821 -0.1516 -0.6588
    3TMC3     C14014   2.953   1.813  17.601  0.3433 -0.2502  0.0148
    3TMC3     O14015   2.877   1.773  17.686 -0.0480 -0.5119  0.3311
    3TMC3     H14016   3.021   1.954  17.364  0.3818  0.7250  0.2757
    3TMC3    H114017   2.736   1.685  17.536  1.0771  1.0595  0.5316
    3TMC3    H214018   2.683   1.815  17.138  2.2995 -3.4860 -1.6918
    3TMC3    C714019   2.585   1.660  17.334  0.8251  0.3480 -0.2297
    3TMC3    C814020   2.903   1.990  17.145  0.2379  0.0319 -0.6120
    3TMC3    O114021   2.550   1.622  17.442 -0.5389  0.6318  0.2169
    3TMC3    O214022   3.026   2.009  17.140 -0.9524  0.2760 -0.7276
    4MPD1     C14023   2.900   2.195  16.680 -1.1082 -0.4360  0.2202
    4MPD1    C114024   2.771   2.199  16.729 -0.1537  0.2221 -0.5087
    4MPD1    C214025   2.749   2.147  16.855  0.2791  0.5989 -0.1373
    4MPD1    C314026   2.842   2.085  16.927  0.1303  0.6016 -0.6983
    4MPD1    C414027   2.964   2.070  16.868  0.2194 -0.3145  0.0077
    4MPD1    C514028   3.001   2.129  16.748 -0.1141 -0.8151  0.4120
    4MPD1     H14029   2.649   2.151  16.898  0.7545  2.8551  0.7517
    4MPD1    H114030   3.041   2.015  16.921  0.1055  1.1911  1.7655
    4MPD1    H214031   2.928   2.250  16.591 -1.4508 -1.2403 -0.3878
    4MPD1    H314032   3.103   2.105  16.718  0.1326  1.3563 -0.4938
    4MPD1     N14033   2.807   2.024  17.051 -0.4469 -0.6208 -0.4803
    4MPD1    H514034   2.708   2.017  17.069 -0.2157  0.7470  1.3080
    4MPD1    N114035   2.679   2.281  16.665 -0.4681  0.1664 -0.2879
    4MPD1    H614036   2.678   2.289  16.563 -0.3620 -0.4556 -0.3409
    4MPD1    H714037   2.584   2.257  16.691  0.2226 -2.6853 -0.3456
    1TCq1    O114038   4.110   1.926  11.617  0.1125 -0.1393 -0.2524
    1TCq1    C114039   4.217   2.000  11.659 -0.2942  0.4031  0.2830
    1TCq1    O214040   4.240   2.028  11.775  0.0222 -0.1306  0.3722
    1TCq1    C214041   4.312   2.006  11.552 -0.6845 -0.0483 -0.0062
    1TCq1    C314042   4.430   1.955  11.589 -0.0734  0.2349 -0.5356
    1TCq1    C414043   4.538   1.969  11.504  0.0471 -0.4282 -0.0984
    1TCq1    C514044   4.512   2.012  11.372  0.4868  0.3393 -0.0599
    1TCq1    C614045   4.378   2.044  11.338 -0.3945 -0.2830 -0.1940
    1TCq1    C714046   4.273   2.043  11.428 -0.4545 -0.5163 -0.2671
    1TCq1    C814047   4.354   2.107  11.209  1.4998  0.3529  0.3607
    1TCq1    O414048   4.247   2.079  11.159 -0.2053  0.5315 -0.3353
    1TCq1    C914049   4.654   1.881  11.527 -0.1877 -0.5055  0.4993
    1TCq1    O514050   4.675   1.824  11.637 -0.7881 -0.2606  0.0489
    1TCq1    O614051   4.701   1.827  11.425 -0.1841  0.1118 -0.0400
    1TCq1    H114052   4.126   1.876  11.534  3.7224  1.8852 -0.7699
    1TCq1    H214053   4.455   1.942  11.693 -1.6860  0.5198 -0.1257
    1TCq1    H314054   4.592   2.006  11.300 -0.2544  0.2577 -0.8770
    1TCq1    H414055   4.178   2.089  11.406  0.2055  1.2592  0.5568
    2MPD1     C14056   4.429   2.424  10.799 -0.1110 -0.5519 -0.9174
    2MPD1    C114057   4.548   2.414  10.868 -0.4635  0.4032  0.0971
    2MPD1    C214058   4.551   2.344  10.998  0.6346 -0.2161 -0.5900
    2MPD1    C314059   4.442   2.272  11.039 -0.1579 -0.2396  0.5967
    2MPD1    C414060   4.330   2.268  10.953 -0.0833 -0.4692 -0.0645
    2MPD1    C514061   4.325   2.344  10.835  0.1352 -0.2383  0.3890
    2MPD1     H14062   4.644   2.352  11.053 -0.7794  2.4266  1.4421
    2MPD1    H114063   4.242   2.209  10.978  0.2793 -1.3224 -0.7883
    2MPD1    H214064   4.423   2.482  10.708 -2.9823  0.4567 -0.0887
    2MPD1    H314065   4.235   2.356  10.776  0.6774 -1.1668 -0.6192
    2MPD1     N14066   4.447   2.201  11.169  0.0017 -0.7853 -0.0799
    2MPD1    H514067   4.532   2.208  11.224 -0.4724  0.0446  0.5509
    2MPD1    N114068   4.655   2.492  10.830  0.4961 -0.0350  0.4262
    2MPD1    H614069   4.664   2.474  10.730  1.7602 -0.0978  0.5573
    2MPD1    H714070   0.017   2.468  10.879  1.3464  2.7255  0.2571
    1TCq1    O114071   0.834   2.334   9.310 -0.0351  0.6857  0.2659
    1TCq1    C114072   0.705   2.347   9.270  0.1476 -0.2744  0.1501
    1TCq1    O214073   0.645   2.261   9.209  0.3180  0.2843  0.7132
    1TCq1    C214074   0.652   2.486   9.285  1.4325 -1.2852 -0.1259
    1TCq1    C314075   0.708   2.576   9.373 -0.2933  0.2503 -0.3717
    1TCq1    C414076   0.669   2.706   9.379 -0.1266 -0.3140 -0.4260
    1TCq1    C514077   0.550   2.742   9.310  0.2938  0.2642  0.0310
    1TCq1    C614078   0.515   2.657   9.208 -0.1891  0.0425 -0.8863
    1TCq1    C714079   0.556   2.526   9.197 -0.1148  0.2665  0.7731
    1TCq1    C814080   0.394   2.697   9.139 -0.6979  0.7038 -0.2048
    1TCq1    O414081   0.355   2.810   9.168 -0.0594  0.0814 -0.1097
    1TCq1    C914082   0.716   2.792   9.492 -0.0072 -0.2991 -0.3022
    1TCq1    O514083   0.812   2.748   9.560 -0.5305 -0.7344 -0.3889
    1TCq1    O614084   0.668   2.907   9.508 -0.0062  0.1480 -0.2454
    1TCq1    H114085   0.862   2.406   9.371 -2.3592  2.9632 -1.3610
    1TCq1    H214086   0.775   2.540   9.451  1.6497 -0.4129 -2.3515
    1TCq1    H314087   0.516   2.845   9.317 -0.4190 -0.0763  1.5067
    1TCq1    H414088   0.549   2.466   9.107  0.5815  1.4817 -0.0820
    2MPD1     C14089   4.709   2.596   8.856 -0.1374 -0.2411 -0.4366
    2MPD1    C114090   0.064   2.482   8.862  0.5428  0.0173 -0.1832
    2MPD1    C214091   0.190   2.491   8.926  0.3465 -0.2517  0.3894
    2MPD1    C314092   0.212   2.596   9.004 -0.5264 -0.1437  0.7192
    2MPD1    C414093   0.139   2.713   8.990  0.1012 -0.3017 -0.3600
    2MPD1    C514094   0.022   2.710   8.923 -0.1255  0.5788  0.0815
    2MPD1     H14095   0.271   2.419   8.931 -0.7797 -1.5006  0.6024
    2MPD1    H114096   0.157   2.806   9.043 -0.0719 -0.1709 -0.5294
    2MPD1    H214097   4.614   2.598   8.804  0.2608  0.6321 -1.1335
    2MPD1    H314098   4.677   2.793   8.921 -0.5015  0.2149 -2.1987
    2MPD1     N14099   0.341   2.592   9.071 -0.8052  0.9476  1.1364
    2MPD1    H514100   0.382   2.499   9.080 -1.7971  0.1990 -1.9790
    2MPD1    N114101   0.037   2.370   8.780  0.1205 -0.6294 -0.0088
    2MPD1    H614102   0.087   2.290   8.819 -0.8927 -0.7389  1.0325
    2MPD1    H714103   4.663   2.349   8.766  0.3652 -0.0646 -2.6570
    1MPD1     C14104   2.727   0.992  11.703 -0.4493 -0.2395 -0.0190
    1MPD1    C114105   2.689   1.105  11.634 -0.0062  0.3745 -0.1245
    1MPD1    C214106   2.554   1.146  11.645 -0.8054 -0.6000  0.3498
    1MPD1    C314107   2.463   1.065  11.716  0.2321  0.8853  0.7518
    1MPD1    C414108   2.510   0.950  11.780  0.3906  0.0247  0.5205
    1MPD1    C514109   2.639   0.911  11.766  0.1150  0.3243 -0.1061
    1MPD1     H14110   2.512   1.223  11.581  0.3485  1.8772  2.5585
    1MPD1    H114111   2.449   0.881  11.836 -1.6549  1.0790 -0.3865
    1MPD1    H214112   2.827   0.951  11.698 -0.5195 -0.6073  1.6095
    1MPD1    H314113   2.676   0.820  11.811  0.6252  0.5799 -0.0129
    1MPD1     N14114   2.332   1.094  11.707 -0.0468  0.1095 -0.3124
    1MPD1    H514115   2.301   1.167  11.643  0.6374  0.5733 -0.1116
    1MPD1    N114116   2.794   1.183  11.578 -0.2332  0.1129 -0.2536
    1MPD1    H614117   2.759   1.219  11.490 -0.4560 -0.5351 -0.4334
    1MPD1    H714118   2.872   1.127  11.545  0.5619  1.0955 -0.0347
    2MPD1     C14119   0.392   1.879  10.608 -0.4862 -0.3960 -0.9364
    2MPD1    C114120   0.452   1.933  10.496 -0.1447 -0.1198 -0.5849
    2MPD1    C214121   0.554   2.026  10.514  0.5192 -0.0074 -0.1418
    2MPD1    C314122   0.615   2.046  10.639  0.6080 -0.4056 -0.0032
    2MPD1    C414123   0.551   1.990  10.754  0.1243  0.1356 -0.4158
    2MPD1    C514124   0.442   1.907  10.729 -0.1436  0.4006 -0.0723
    2MPD1     H14125   0.572   2.076  10.419 -0.9974  0.4522 -0.1990
    2MPD1    H114126   0.589   2.013  10.852 -0.5858 -0.8414  0.0852
    2MPD1    H214127   0.309   1.810  10.594 -0.5000 -0.5166 -0.2356
    2MPD1    H314128   0.394   1.860  10.815  0.8704 -2.2880 -0.9855
    2MPD1     N14129   0.738   2.111  10.662 -0.1903  0.4678 -0.0162
    2MPD1    H514130   0.774   2.096  10.756  0.3691 -0.6237 -0.4052
    2MPD1    N114131   0.389   1.929  10.369 -0.2460  0.0324 -0.2532
    2MPD1    H614132   0.325   1.852  10.350  0.3961 -0.7933  0.9442
    2MPD1    H714133   0.462   1.940  10.298 -0.3828 -3.1196 -0.8577
    3MPD1     C14134   1.233   3.061  10.627  0.3305 -0.4022 -0.4286
    3MPD1    C114135   1.294   2.994  10.730  0.6079 -0.0974  0.1765
    3MPD1    C214136   1.260   2.859  10.741 -0.1072 -0.9802 -0.6837
    3MPD1    C314137   1.179   2.798  10.643 -0.1020  0.0117 -0.2515
    3MPD1    C414138   1.133   2.866  10.532 -0.3128  0.0838  0.3204
    3MPD1    C514139   1.161   3.000  10.527 -0.5825 -0.1818 -0.1524
    3MPD1     H14140   1.306   2.802  10.821  0.3262  0.7925  0.3253
    3MPD1    H114141   1.080   2.819  10.450  1.2164 -0.0573 -0.5980
    3MPD1    H214142   1.238   3.169  10.617  4.4550 -0.5650  0.0825
    3MPD1    H314143   1.110   3.063  10.455  0.9980  0.1986 -0.9348
    3MPD1     N14144   1.156   2.663  10.662 -0.2128  0.6048 -0.0666
    3MPD1    H514145   1.188   2.615  10.746 -1.0161 -0.4303 -0.3481
    3MPD1    N114146   1.342   3.065  10.842 -0.1063  0.3567  0.4710
    3MPD1    H614147   1.372   3.160  10.822 -0.4812  0.1364 -1.1802
    3MPD1    H714148   1.404   3.016  10.906  0.2832  2.5047  1.7613
    4MPD2     C14149   1.725   1.465  12.037  0.1434 -0.0454 -0.3701
    4MPD2    C114150   1.740   1.438  11.904 -0.2966 -0.1353 -0.0941
    4MPD2    C214151   1.705   1.534  11.812 -0.0271  0.1313  0.5978
    4MPD2    C314152   1.661   1.658  11.851 -0.4362 -0.3991 -0.4191
    4MPD2    C414153   1.661   1.682  11.983 -0.4489 -0.4070 -0.4168
    4MPD2    C514154   1.691   1.588  12.075  0.3648 -0.0710 -0.3169
    4MPD2     H14155   1.718   1.505  11.709 -0.1581  0.1526  0.5758
    4MPD2    H114156   1.633   1.783  12.011  0.0335 -1.1726  2.8082
    4MPD2    H214157   1.762   1.398  12.114 -1.1685 -0.1076  0.1996
    4MPD2    H314158   1.687   1.608  12.182 -0.6948  2.4979 -0.8348
    4MPD2     N14159   1.640   1.771  11.759  0.6056  0.2970 -0.3757
    4MPD2    H514160   1.634   1.866  11.794 -0.6984  0.6781 -1.6293
    4MPD2    N114161   1.791   1.315  11.852  0.4426  0.2033  0.0769
    4MPD2    H714162   1.779   1.297  11.752 -0.4207  2.2191 -0.1853
    5TMC3    C114163   1.884   1.109  11.838 -0.0950 -0.1596  0.2998
    5TMC3    C214164   2.013   1.085  11.858  0.7818  0.3856 -0.3289
    5TMC3    C314165   2.105   1.102  11.752 -0.6243 -0.3806  0.1422
    5TMC3    C414166   1.834   1.130  11.713 -1.0085  0.0683  0.3666
    5TMC3    C514167   1.921   1.133  11.609  0.1237 -0.6816 -1.0989
    5TMC3    C614168   2.056   1.113  11.628 -0.3567  0.4629  0.0854
    5TMC3     C14169   1.843   1.212  11.922 -0.0073  0.0890 -0.7459
    5TMC3     O14170   1.878   1.203  12.041  0.0306  0.5869  0.1935
    5TMC3     H14171   2.042   1.081  11.962 -0.9796  0.2196  0.1455
    5TMC3    H114172   1.728   1.139  11.693 -0.9739 -1.6820 -0.5572
    5TMC3    H214173   2.131   1.127  11.551  0.0469 -1.7208  0.0985
    5TMC3    C714174   1.881   1.227  11.503 -0.5049 -0.3022 -0.5197
    5TMC3    C814175   2.234   1.030  11.772  0.1185 -0.2135 -0.1066
    5TMC3    O114176   1.787   1.302  11.534  0.1043  0.2101 -0.6974
    5TMC3    O214177   2.228   0.927  11.833  0.0232 -0.0173 -0.0955
    6TMC3    C114178   0.931   2.251  10.651  0.0385  0.4209  1.2366
    6TMC3    C214179   1.001   2.346  10.580  0.3106 -0.0053 -0.4261
    6TMC3    C314180   1.079   2.438  10.653 -0.0738  0.1622 -0.0221
    6TMC3    C414181   0.953   2.232  10.784  0.1132  0.1572 -0.4068
    6TMC3    C514182   1.047   2.310  10.845  0.0664  0.5786  0.7301
    6TMC3    C614183   1.094   2.425  10.788  0.3725  0.7550  0.6170
    6TMC3     C14184   0.815   2.189  10.580 -0.2057 -1.3170 -0.8100
    6TMC3     O14185   0.787   2.222  10.471 -0.2086  0.1281 -0.2391
    6TMC3     H14186   0.979   2.356  10.474 -1.5570  0.4599  0.0015
    6TMC3    H114187   0.917   2.147  10.841 -0.8333  1.0948  0.4092
    6TMC3    H214188   1.158   2.494  10.841  0.9359 -0.3279  1.3548
    6TMC3    C714189   1.116   2.269  10.966 -0.3218 -0.0556 -0.0633
    6TMC3    C814190   1.093   2.570  10.586 -0.1756 -0.0260  0.0895
    6TMC3    O114191   1.233   2.306  10.968  0.3532  0.0986 -0.5517
    6TMC3    O214192   1.024   2.587  10.484 -0.5867  0.1327  0.4029
    7MPD2     C14193   2.028   1.564  11.150 -0.3138  0.3526 -0.2780
    7MPD2    C114194   1.949   1.571  11.262 -0.4654  0.2746  0.7458
    7MPD2    C214195   1.933   1.458  11.337  0.3056 -0.6416  0.0278
    7MPD2    C314196   1.991   1.342  11.308  0.3028 -0.0843 -0.2202
    7MPD2    C414197   2.077   1.339  11.200 -0.0706 -0.0593  0.3683
    7MPD2    C514198   2.097   1.448  11.124  0.6897 -0.8272 -0.8207
    7MPD2     H14199   1.873   1.471  11.427  1.0975  1.3424  0.2962
    7MPD2    H114200   2.139   1.253  11.177 -2.1163 -1.0832 -1.3507
    7MPD2    H214201   2.058   1.650  11.091  1.9680 -0.4725 -0.3343
    7MPD2    H314202   2.159   1.437  11.035 -1.4008 -2.1379 -2.1063
    7MPD2     N14203   1.976   1.230  11.393  1.4814  0.2863  0.1062
    7MPD2    H514204   2.040   1.154  11.373  0.8995 -0.3848  0.7734
    7MPD2    N114205   1.896   1.685  11.323 -0.0283 -0.0137  0.6177
    7MPD2    H714206   1.863   1.671  11.418 -1.1589 -0.2676  0.1864
    8TMC3    C114207   1.799   1.896  11.354  0.3663  0.3628 -0.4204
    8TMC3    C214208   1.702   1.961  11.286 -0.0215  0.1083 -0.1870
    8TMC3    C314209   1.586   1.965  11.356  0.6753  0.5521 -0.2375
    8TMC3    C414210   1.794   1.867  11.491 -0.4366 -0.0545 -0.2475
    8TMC3    C514211   1.676   1.892  11.557 -0.0833  0.0020  0.3518
    8TMC3    C614212   1.572   1.936  11.487  0.6224 -0.0513 -0.6625
    8TMC3     C14213   1.883   1.811  11.273  0.4262 -0.3376 -0.0920
    8TMC3     O14214   1.906   1.838  11.156  0.1943  0.0234  0.1587
    8TMC3     H14215   1.701   1.969  11.178  0.4234  3.6688  0.0872
    8TMC3    H114216   1.865   1.804  11.543  0.8765  1.4155 -0.2715
    8TMC3    H214217   1.480   1.957  11.541  1.6837  0.5540  0.9103
    8TMC3    C714218   1.649   1.769  11.626 -0.3021  0.1139 -0.2855
    8TMC3    C814219   1.480   2.030  11.293 -0.7709  0.7196 -0.4476
    8TMC3    O114220   1.667   1.675  11.551  0.0137 -0.2313 -0.1053
    8TMC3    O214221   1.498   2.103  11.192 -0.6764 -0.9292  0.0210
    9MPD2     C14222   1.125   1.951  11.359 -0.7232 -0.1567 -0.6191
    9MPD2    C114223   1.235   2.015  11.301 -0.4638 -0.5042 -0.7951
    9MPD2    C214224   1.203   2.097  11.196 -0.1778  0.5592  0.0955
    9MPD2    C314225   1.075   2.119  11.157 -0.4774  0.0651  0.0204
    9MPD2    C414226   0.968   2.070  11.227 -0.3339 -0.4753 -0.5572
    9MPD2    C514227   1.000   1.995  11.335  0.4379 -0.5929 -0.2727
    9MPD2     H14228   1.275   2.139  11.127 -1.3007  2.9084  0.3459
    9MPD2    H114229   0.868   2.104  11.204 -0.0656  0.6448 -0.0462
    9MPD2    H214230   1.146   1.874  11.434  1.2331 -2.0927 -3.1557
    9MPD2    H314231   0.918   1.954  11.392  1.5084 -1.5914  0.5571
    9MPD2     N14232   1.033   2.189  11.051  0.6072  0.3415 -0.6635
    9MPD2    H514233   0.935   2.189  11.025  0.3720 -1.2165  0.2443
    9MPD2    N114234   1.363   1.986  11.350 -0.5532  1.2102  0.0046
    9MPD2    H714235   1.362   1.924  11.430 -1.0792  0.5780 -0.4955
    1MPD1     C14236   1.830   0.132  16.257 -0.1974  0.2124 -0.4240
    1MPD1    C114237   1.899   0.244  16.301 -0.5250 -0.6356 -1.1188
    1MPD1    C214238   1.877   0.288  16.434 -0.2260  0.2216  0.0495
    1MPD1    C314239   1.799   0.218  16.522 -0.4756  0.2896 -0.5202
    1MPD1    C414240   1.748   0.095  16.487 -0.2227 -0.0950  0.5763
    1MPD1    C514241   1.751   0.062  16.353 -0.8145  0.1482 -0.2173
    1MPD1     H14242   1.910   0.388  16.458 -0.2479  0.5494 -1.2674
    1MPD1    H114243   1.702   0.031  16.560 -1.3345  0.7459  0.6137
    1MPD1    H214244   1.827   0.099  16.154  3.9085 -0.4362 -0.3629
    1MPD1    H314245   1.696   4.699  16.317 -0.6844 -0.3058  0.6866
    1MPD1     N14246   1.752   0.270  16.644 -0.2518 -0.4121 -0.2253
    1MPD1    H514247   1.706   0.207  16.708 -3.2072 -0.5498 -2.4636
    1MPD1    N114248   1.964   0.325  16.208 -0.2223  0.3514 -0.4836
    1MPD1    H614249   2.037   0.377  16.256  0.5336 -2.0293  0.9820
    1MPD1    H714250   2.017   0.273  16.139  0.4002 -0.7350  0.8062
    2MPD1     C14251   0.990   0.041  16.889 -0.0115  0.3040  0.4754
    2MPD1    C114252   1.065   0.067  16.772  0.2307  0.2288  0.4178
    2MPD1    C214253   1.182   0.137  16.780 -0.0755  0.0905 -0.1427
    2MPD1    C314254   1.235   0.171  16.905  0.1725  0.4726 -1.1951
    2MPD1    C414255   1.167   0.146  17.021  0.5970 -0.3736  0.0532
    2MPD1    C514256   1.038   0.092  17.007  0.2838 -0.7728  0.4687
    2MPD1     H14257   1.239   0.164  16.692 -3.4959  2.8632 -1.5310
    2MPD1    H114258   1.210   0.148  17.120  0.4183  0.0308  0.1251
    2MPD1    H214259   0.890   4.724  16.899  0.1810  0.0454  1.4084
    2MPD1    H314260   0.967   0.070  17.085 -2.6598  0.5681 -1.8095
    2MPD1     N14261   1.360   0.236  16.900 -0.4580  0.3791  0.0778
    2MPD1    H514262   1.386   0.256  16.804 -1.5693  0.7743 -0.1433
    2MPD1    N114263   1.001   0.056  16.647  0.5197  0.3369  0.4674
    2MPD1    H614264   1.062   0.054  16.565 -0.2397  1.3118 -0.1278
    2MPD1    H714265   0.943   4.697  16.645  1.0625 -0.0760  1.6977
    3TCq2    C114266   1.428   0.289  17.010 -0.6316 -0.1843  0.4729
    3TCq2    O214267   1.407   0.278  17.127  0.0779 -0.6974 -0.5560
    3TCq2    C214268   1.546   0.373  16.972  0.1022 -1.1861  0.3238
    3TCq2    C314269   1.613   0.433  17.073  0.0405 -0.5532  0.1745
    3TCq2    C414270   1.748   0.457  17.053  0.3356 -0.3481  0.3532
    3TCq2    C514271   1.790   0.460  16.922  0.0060  0.0207  0.5372
    3TCq2    C614272   1.716   0.410  16.825 -0.2657 -0.1143  0.3323
    3TCq2    C714273   1.591   0.361  16.846 -0.3083 -0.2290  0.6513
    3TCq2    C814274   1.784   0.395  16.700 -0.4014 -0.4005 -0.3773
    3TCq2    O414275   1.869   0.477  16.667  0.0845 -0.8217  0.2207
    3TCq2    C914276   1.821   0.508  17.168  0.4166 -0.4214  0.8143
    3TCq2    O514277   1.949   0.519  17.176 -0.3348 -0.0538  0.5162
    3TCq2    O614278   1.764   0.528  17.282 -0.1847 -0.5291 -0.0416
    3TCq2    H214279   1.570   0.436  17.172 -1.2030  0.9953 -0.4253
    3TCq2    H314280   1.891   0.492  16.904  0.5879 -0.4729  2.9121
    3TCq2    H414281   1.530   0.314  16.770  0.6724  1.4129 -1.1636
    1TCq1    O114282   3.468   4.262  12.576 -0.0763 -0.0719 -0.0036
    1TCq1    C114283   3.452   4.246  12.713 -0.1037  0.0217  0.1765
    1TCq1    O214284   3.436   4.141  12.775  0.1488  0.3038 -0.1425
    1TCq1    C214285   3.428   4.380  12.767 -0.3396 -0.7508 -0.6165
    1TCq1    C314286   3.402   4.385  12.900 -0.0147  0.5779  0.7136
    1TCq1    C414287   3.419   4.496  12.979 -0.7807  0.5025  0.6052
    1TCq1    C514288   3.500   4.597  12.936 -0.3635  0.5147 -0.5353
    1TCq1    C614289   3.545   4.587  12.807 -0.3318 -0.5108  0.1500
    1TCq1    C714290   3.514   4.485  12.726 -0.2114 -0.1962 -0.8429
    1TCq1    C814291   3.666   4.663  12.772  0.3530 -0.3556  0.1203
    1TCq1    O414292   3.686   4.689  12.655 -0.4878 -0.1296  0.2164
    1TCq1    C914293   3.404   4.493  13.125  0.0474  1.1308  0.4300
    1TCq1    O514294   3.438   4.594  13.191  0.1597 -0.9107  0.0263
    1TCq1    O614295   3.390   4.377  13.176  0.1306 -0.1704 -0.0588
    1TCq1    H114296   3.452   4.355  12.548  0.0723  0.7942  2.7903
    1TCq1    H214297   3.367   4.288  12.934 -0.7886  0.2563 -1.0026
    1TCq1    H314298   3.525   4.676  13.006  1.2396  1.2341 -1.9302
    1TCq1    H414299   3.580   4.473  12.640  0.9004 -1.4668  0.2022
    2MPD2     C14300   3.905   0.114  12.769  0.7248  0.0219 -0.2238
    2MPD2    C114301   3.866   0.036  12.876 -0.7275 -0.3480 -0.1583
    2MPD2    C214302   3.965   0.004  12.962 -0.0694 -0.0916  0.7335
    2MPD2    C314303   4.093   0.053  12.956  0.0759  0.6438 -0.5709
    2MPD2    C414304   4.118   0.153  12.869  0.1254  0.0557 -0.1686
    2MPD2    C514305   4.024   0.187  12.774 -0.8732  0.1350 -0.1387
    2MPD2     H14306   3.942   4.663  13.046 -1.0838 -0.4333  0.1846
    2MPD2    H114307   4.213   0.205  12.861  0.6132 -0.2486  3.5973
    2MPD2    H214308   3.833   0.147  12.696  0.3125 -1.3251 -0.4216
    2MPD2    H314309   4.048   0.263  12.701 -1.0942  1.0059  0.6852
    2MPD2     N14310   4.186   0.006  13.045 -0.3476  0.2198  0.2680
    2MPD2    H514311   4.166   4.648  13.101 -0.1094 -0.5391 -0.7802
    2MPD2    N114312   3.747   4.689  12.879 -0.2135 -0.0108  0.3023
    2MPD2    H714313   3.730   4.635  12.964 -2.6484 -2.8320 -2.0174
    3TCq1    O114314   4.452   0.181  13.537 -0.2144  0.2635  0.0611
    3TCq1    C114315   4.411   0.048  13.526 -0.6255  0.5509 -0.4204
    3TCq1    O214316   4.370   4.710  13.623 -0.7824 -0.6847  0.0624
    3TCq1    C214317   4.447   4.712  13.395 -0.2200 -0.2605  0.0709
    3TCq1    C314318   4.457   4.572  13.385  0.2804  0.5067  0.7754
    3TCq1    C414319   4.425   4.507  13.270  0.2000  0.3300 -1.0203
    3TCq1    C514320   4.385   4.580  13.160 -0.1641  0.2950  0.4726
    3TCq1    C614321   4.386   4.713  13.169 -0.2848 -0.5167 -0.2849
    3TCq1    C714322   4.408   0.057  13.282  0.3796  0.5238 -0.5070
    3TCq1    C814323   4.303   0.064  13.075 -0.7485 -0.5689  0.5055
    3TCq1    O414324   4.351   0.172  13.043  0.2129 -0.2634  0.0557
    3TCq1    C914325   4.414   4.359  13.277 -0.5238 -0.2103 -0.3610
    3TCq1    O514326   4.467   4.303  13.378 -0.7481 -0.2397  0.2351
    3TCq1    O614327   4.378   4.306  13.166 -0.1184  0.2296  0.3894
    3TCq1    H114328   4.507   0.202  13.459  1.5549 -1.0840  0.9540
    3TCq1    H214329   4.470   4.509  13.472  1.8245 -0.4404 -0.1385
    3TCq1    H314330   4.359   4.525  13.070 -1.0199 -2.2412  2.2725
    3TCq1    H414331   4.369   0.157  13.288 -2.2380 -0.5953  1.1808
    1MPD2     C14332   3.640   0.777  14.704  0.7759  0.3506  0.1619
    1MPD2    C114333   3.509   0.748  14.678 -0.5436  0.2604 -0.7867
    1MPD2    C214334   3.450   0.643  14.742  0.8180 -0.3850  0.0068
    1MPD2    C314335   3.521   0.558  14.823  0.0463 -0.6055 -0.2010
    1MPD2    C414336   3.660   0.585  14.842  0.1452  0.0618 -0.2754
    1MPD2    C514337   3.718   0.692  14.784  0.4809  0.2937 -0.8469
    1MPD2     H14338   3.348   0.617  14.716  0.9620 -0.5661 -0.3771
    1MPD2    H114339   3.717   0.524  14.911  1.6226 -1.4381 -2.7992
    1MPD2    H214340   3.682   0.861  14.650  2.2729 -1.6096 -1.6920
    1MPD2    H314341   3.821   0.712  14.809  0.7235  1.3294 -2.6450
    1MPD2     N14342   3.453   0.476  14.910  0.3858 -0.5513  0.2645
    1MPD2    H514343   3.352   0.478  14.901  0.5140  0.9030 -0.8028
    1MPD2    N114344   3.430   0.833  14.596 -0.2546  0.0406 -0.1207
    1MPD2    H714345   3.482   0.904  14.545 -2.6446  0.5713 -1.7845
    2TMC3    C114346   3.237   0.961  14.519 -0.0606 -0.5227 -0.9101
    2TMC3    C214347   3.117   0.995  14.578 -1.2432  0.1179 -0.5899
    2TMC3    C314348   3.111   1.117  14.633  0.6253  0.3816  0.8075
    2TMC3    C414349   3.324   1.056  14.483 -0.0364 -0.4549 -0.1907
    2TMC3    C514350   3.297   1.181  14.516 -0.2084  0.7434  0.0001
    2TMC3    C614351   3.199   1.222  14.599 -0.1446 -0.3381  0.1711
    2TMC3     C14352   3.291   0.836  14.574  0.0141  1.1966 -0.1671
    2TMC3     O14353   3.209   0.764  14.629 -0.1828  0.0697 -0.1387
    2TMC3     H14354   3.044   0.918  14.599 -2.8893  1.1385 -2.5489
    2TMC3    H114355   3.404   1.042  14.412  0.3957  0.5550  0.0999
    2TMC3    H214356   3.200   1.324  14.634  2.8652  0.2878 -1.7235
    2TMC3    C714357   3.369   1.282  14.442  0.0308 -0.6988  0.4470
    2TMC3    C814358   3.069   1.111  14.769  0.3251 -0.0985  0.0552
    2TMC3    O114359   3.302   1.377  14.395  0.1273  0.0662 -0.0781
    2TMC3    O214360   3.048   1.214  14.831  0.3220  1.0455  0.5075
    3TCq1    O114361   4.608   1.364  14.180  0.3020 -0.5519 -0.9492
    3TCq1    C114362   4.521   1.335  14.076 -1.2472 -0.0030  0.2854
    3TCq1    O214363   4.496   1.409  13.982  0.1513  0.0991 -0.0643
    3TCq1    C214364   4.403   1.262  14.146 -0.6864 -0.6718  0.4805
    3TCq1    C314365   4.423   1.169  14.246 -0.2268  0.4700  0.6905
    3TCq1    C414366   4.315   1.128  14.319  0.1157  0.2120  0.2539
    3TCq1    C514367   4.186   1.177  14.295  0.4335  0.1757  0.2466
    3TCq1    C614368   4.169   1.271  14.195  0.2654 -0.9607  0.3506
    3TCq1    C714369   4.277   1.317  14.122 -0.1621 -0.1399  0.0461
    3TCq1    C814370   4.045   1.344  14.181 -0.1595 -0.2174 -0.2236
    3TCq1    O414371   4.035   1.434  14.097 -0.0759 -0.0797 -0.3784
    3TCq1    C914372   4.326   1.024  14.425 -0.0288  0.4894 -0.3537
    3TCq1    O514373   4.440   0.969  14.424  0.1751 -0.1851 -0.3160
    3TCq1    O614374   4.214   0.978  14.472  0.2929  0.1511  0.0633
    3TCq1    H114375   4.628   1.283  14.231  2.0420  1.0525  0.8568
    3TCq1    H214376   4.523   1.132  14.264 -0.6440 -0.4855  1.0302
    3TCq1    H314377   4.105   1.133  14.354 -0.3826 -0.2068 -1.1685
    3TCq1    H414378   4.254   1.395  14.051  0.4368 -0.1944 -0.2072
    4MPD2     C14379   3.772   1.453  14.172 -0.4895 -0.3355  0.3046
    4MPD2    C114380   3.811   1.345  14.253  0.2177  0.5753 -0.6184
    4MPD2    C214381   3.713   1.285  14.333  0.0762  0.0182  0.1075
    4MPD2    C314382   3.588   1.333  14.348 -0.3030 -0.1962  0.1660
    4MPD2    C414383   3.547   1.436  14.262  0.3064 -0.1930 -0.4243
    4MPD2    C514384   3.641   1.492  14.175  0.3348  0.3478 -0.1842
    4MPD2     H14385   3.751   1.202  14.391  0.4026  0.9066  1.1591
    4MPD2    H114386   3.452   1.486  14.247 -0.5603 -1.5723  0.4569
    4MPD2    H214387   3.821   1.504  14.090  1.3390 -1.8789  0.4240
    4MPD2    H314388   3.607   1.572  14.109  0.8696 -0.0921 -0.9854
    4MPD2     N14389   3.502   1.263  14.438 -0.2581  0.2176  0.5441
    4MPD2    H514390   3.537   1.197  14.507 -0.5440  1.3787  1.8059
    4MPD2    N114391   3.940   1.288  14.252  0.1726  0.0804  0.7629
    4MPD2    H714392   3.963   1.201  14.299  1.0484 -1.2228 -2.0774
    5TMC2    C114393   3.163   0.417  15.187  0.0976  0.5689 -0.1588
    5TMC2    C214394   3.170   0.309  15.270  0.3682 -0.3173 -0.1846
    5TMC2    C314395   3.286   0.239  15.276  0.4927  0.4509 -0.5011
    5TMC2    C414396   3.274   0.454  15.104  0.1262  0.2284  0.9183
    5TMC2    C514397   3.387   0.375  15.111  0.3860 -0.2245  0.7152
    5TMC2    C614398   3.403   0.265  15.199  0.2394 -0.9933 -0.3880
    5TMC2     C14399   3.052   0.514  15.199  0.1546 -0.2725 -0.0265
    5TMC2     O14400   2.993   0.523  15.308  0.1476 -0.1190  0.4390
    5TMC2     H14401   3.093   0.290  15.343  0.5040 -2.9362 -0.7201
    5TMC2    H114402   3.294   0.554  15.067 -1.0009 -0.2984 -1.0812
    5TMC2    H214403   3.488   0.199  15.186  0.5325 -0.7271  0.1918
    5TMC2    C714404   3.499   0.409  15.019 -0.2987  0.4601 -0.7307
    5TMC2    C814405   3.285   0.134  15.376  0.0788  0.1304 -1.1683
    5TMC2    O114406   3.611   0.384  15.059 -0.8339  0.2803  0.3123
    5TMC2    O214407   3.210   0.130  15.474 -0.3785  0.3695 -0.1996
    5TMC2    O514408   3.371   0.029  15.349 -0.0793 -0.6171 -0.4230
    5TMC2    H514409   3.411   0.028  15.259 -0.6158 -1.6934 -0.6404
    6MPD2     C14410   2.996   1.001  15.045 -0.6250 -0.2318 -1.0673
    6MPD2    C114411   3.046   0.928  14.942 -0.0650  0.3982 -0.8575
    6MPD2    C214412   3.060   0.793  14.953  0.0173 -0.6016  0.2737
    6MPD2    C314413   3.031   0.728  15.073  1.0533 -0.0755  0.8229
    6MPD2    C414414   2.984   0.805  15.176  0.7291 -0.6298 -0.1597
    6MPD2    C514415   2.966   0.941  15.161 -0.1338  0.7017 -0.0700
    6MPD2     H14416   3.117   0.743  14.875 -2.2641  0.9269 -2.3731
    6MPD2    H114417   2.959   0.767  15.275 -1.0171 -2.0999 -1.1748
    6MPD2    H214418   2.988   1.109  15.032  1.1250  0.1372  0.8351
    6MPD2    H314419   2.947   1.001  15.249 -0.2085 -0.7162  0.8769
    6MPD2     N14420   3.051   0.586  15.084 -0.0308  0.2576  0.1923
    6MPD2    H514421   3.094   0.532  15.009 -0.0371  0.1636  0.2562
    6MPD2    N114422   3.080   0.984  14.815  0.3442  0.0201 -0.1285
    6MPD2    H714423   3.114   0.917  14.747  1.8365  1.4236 -0.7545
  945NH4     N114424   2.983   1.446  16.027  0.7772  0.0617 -0.3994
  945NH4     H214425   3.005   1.533  15.974 -3.3947  0.4679 -1.4834
  945NH4     H314426   3.057   1.432  16.098 -0.0951 -1.9730  0.1101
  945NH4     H414427   2.972   1.368  15.959 -1.5627  0.3898 -0.4005
  945NH4     H514428   2.891   1.460  16.072  0.7708 -1.9754  0.2447
  946SOD     NA14429   1.518   4.401   8.550 -0.2942  0.0580 -0.2961
  947SOD     NA14430   2.479   1.450   1.374  0.1082 -0.2864 -0.3267
  948SOD     NA14431   4.645   2.928   3.445  0.2215  0.1743  0.3195
  949SOD     NA14432   2.409   2.182   3.806 -0.0592  0.6068 -0.4221
  950SOD     NA14433   2.400   0.038  10.574  0.6416 -0.1103  0.2591
  951SOD     NA14434   4.190   2.412   2.251  0.0024  0.4299 -0.0116
  952SOD     NA14435   1.347   0.300  13.391  0.2002 -0.0395  0.0698
  953SOD     NA14436   0.586   4.722  14.688  0.4512 -0.0611 -0.1289
  954SOD     NA14437   3.901   4.610  12.592  0.1578  0.5008 -0.5270
  955SOD     NA14438   4.146   0.314  11.731  0.2362  0.0743 -0.2146
  956SOD     NA14439   3.443   4.449  13.394 -0.1911  0.0132  0.2146
  957SOD     NA14440   0.082   1.670  11.530  0.3079 -0.4700 -0.1019
  958SOD     NA14441   4.273   1.269  16.488  0.3735  0.3312 -0.1658
  959SOD     NA14442   3.503   3.629  11.008 -0.1968 -0.3893 -0.0588
  960SOD     NA14443   3.214   4.121   9.938 -0.0582 -0.2871 -0.0280
  961SOD     NA14444   1.375   3.388   1.458  0.0981  0.0209  0.3849
  962SOD     NA14445   3.102   0.246  10.101 -0.2003 -0.2110  0.7258
  963SOD     NA14446   3.447   3.930   3.655 -0.6243  0.1696 -0.6685
  964SOD     NA14447   4.719   0.142   2.106 -0.3581  0.5509 -0.2073
  965SOD     NA14448   4.154   4.448   1.069 -0.1090 -0.5490 -0.0357
  966SOD     NA14449   4.050   1.997   7.339  0.0147 -0.1112  0.0594
  967SOD     NA14450   0.943   2.533   2.993 -0.3685 -0.0063 -0.3392
  968SOD     NA14451   3.887   1.113   0.619  0.2643  0.0781  0.2985
  969SOD     NA14452   1.210   4.513   0.994 -0.0418 -0.3717  0.0646
  970SOD     NA14453   3.235   1.660  10.386 -0.0418  0.8168 -0.0335
  971SOD     NA14454   2.486   2.435   7.713  0.3047 -0.0262  0.4509
  972SOD     NA14455   0.218   1.144  15.826  0.3838 -0.2849  0.1628
  973SOD     NA14456   3.284   4.128   9.614 -0.0052  0.0926 -0.2638
  974SOD     NA14457   1.436   0.445  17.488  0.4717  0.1075  0.1652
  975SOD     NA14458   3.498   4.191  10.149 -0.1957  0.6035  0.0068
  976SOD     NA14459   4.686   0.132  14.734 -0.4397  0.2041 -0.5379
  977SOD     NA14460   2.624   0.348   3.858  0.5712  0.1573 -0.3284
  978SOD     NA14461   2.759   4.485  16.190  0.6938 -0.1749  0.2099
  979SOD     NA14462   4.124   0.155  11.460  0.0698  0.0649  0.0946
  980SOD     NA14463   4.517   4.155  13.101 -0.1963  0.1567 -0.0247
  981SOD     NA14464   1.396   0.602  13.462  0.0348  0.3664 -0.3818
  982SOD     NA14465   0.788   0.093   9.900 -0.1705  0.2161 -0.4097
  983SOD     NA14466   2.030   2.277   9.762  0.3065 -0.2659  0.6631
  984SOD     NA14467   1.970   0.627  17.361  0.4164  0.2520 -0.1933
  985SOD     NA14468   2.058   0.001  11.196  0.3774 -0.0463  0.1547
  986SOD     NA14469   1.216   4.099  14.441 -0.0624  0.0025 -0.2121
  987SOD     NA14470   0.109   1.026  14.205  0.0390 -0.4788  0.6736
  988SOD     NA14471   2.745   1.751  11.993  0.1342  0.2603  1.1292
  989SOD     NA14472   0.817   4.621   7.762 -0.2290  0.1532  0.1005
  990SOD     NA14473   4.522   3.870  12.971  0.2853 -0.4534 -0.1233
  991SOD     NA14474   0.983   1.553  14.560  0.2163  0.3309  0.1723
  992SOD     NA14475   1.849   3.360  12.856  0.0691  0.0340  0.5176
  993SOD     NA14476   4.234   1.799   2.299 -0.3347  0.3278 -0.2596
  994SOD     NA14477   0.229   0.519  15.269  0.2469 -0.0553 -0.1524
  995SOD     NA14478   3.793   0.262  15.528 -0.4215 -0.0376  0.4957
  996SOD     NA14479   0.265   4.693  14.776 -0.2926 -0.0505  0.3485
  997SOD     NA14480   0.922   2.215   0.097 -0.6279 -0.0387  0.3030
  998SOD     NA14481   2.439   1.492   8.883  0.3086  0.1252  0.5901
  999SOD     NA14482   4.636   1.481  11.170 -0.0926 -0.0053 -0.6561
 1000SOD     NA14483   3.387   3.361  11.070  0.1912 -0.2563 -0.1604
 1001SOD     NA14484   1.948   3.818  14.073  0.3325  0.0692  0.2356
 1002SOD     NA14485   0.951   1.539  15.553  0.1306 -0.3387 -0.4296
 1003SOD     NA14486   3.613   3.492  10.743  0.0785 -0.1188  0.4060
 1004SOD     NA14487   2.264   3.243  15.398  0.4308  0.2661  0.2264
 1005SOD     NA14488   4.487   0.037  14.437  0.5986  0.3290 -0.1648
 1006SOD     NA14489   3.282   4.193  13.249 -0.5015 -0.3848  0.0332
 1007SOD     NA14490   3.174   4.101   2.926 -0.0363  0.8046  0.3029
 1008SOD     NA14491   4.587   3.485   7.672  0.2136 -0.1044 -0.2905
 1009SOD     NA14492   0.676   1.138  11.298  0.4447 -0.0596 -0.1221
 1010SOD     NA14493   3.362   1.986   6.807  0.5214 -0.1367 -0.3942
 1011SOL     OW14494   4.506   1.366   0.898  0.5735  0.3414 -0.0687
 1011SOL    HW114495   4.567   1.334   0.965 -0.0150 -1.0027 -0.1700
 1011SOL    HW214496   4.430   1.309   0.907  1.2437  0.0691  3.8455
 1012SOL     OW14497   4.643   0.385  16.574 -0.4976 -0.3015 -0.2851
 1012SOL    HW114498   4.716   0.325  16.558  0.5215  0.1232  2.6564
 1012SOL    HW214499   4.661   0.414  16.664 -0.1270  0.1923 -0.5235
 1013SOL     OW14500   0.251   3.882  15.357 -0.4955 -0.0149 -0.0790
 1013SOL    HW114501   0.307   3.959  15.348  1.2623 -0.9538  2.7035
 1013SOL    HW214502   0.183   3.910  15.295 -0.1564 -2.4326 -1.5314
 1014SOL     OW14503   4.120   4.172   7.650 -0.3362  0.0032 -1.0898
 1014SOL    HW114504   4.124   4.119   7.729 -0.3136  0.0984 -1.0267
 1014SOL    HW214505   4.144   4.105   7.587  2.6237 -1.3730  1.5130
 1015SOL     OW14506   3.967   2.385   4.436  0.2740  0.5457 -0.5069
 1015SOL    HW114507   4.058   2.362   4.415 -0.5393 -0.3088 -3.0347
 1015SOL    HW214508   3.955   2.443   4.361 -0.9184 -0.0230 -0.7546
 1016SOL     OW14509   3.271   3.376   0.717  0.4696 -0.5854 -0.4118
 1016SOL    HW114510   3.223   3.363   0.799  1.9014  1.7826  0.8080
 1016SOL    HW214511   3.344   3.322   0.749 -0.4582 -0.3880  2.0345
 1017SOL     OW14512   3.302   2.251  13.557 -0.5962 -0.3336 -0.4150
 1017SOL    HW114513   3.270   2.164  13.579 -0.6846 -0.0216  0.6446
 1017SOL    HW214514   3.395   2.241  13.580 -0.8962 -0.1092  0.8631
 1018SOL     OW14515   3.452   2.622   5.184  0.3832 -0.0759 -0.7858
 1018SOL    HW114516   3.525   2.670   5.144  1.5551 -0.1546  1.2146
 1018SOL    HW214517   3.488   2.624   5.273 -1.5559  2.1132 -0.0428
 1019SOL     OW14518   4.412   2.715  12.990 -0.2069 -0.5947  0.1572
 1019SOL    HW114519   4.328   2.700  12.947 -1.1717  0.7025  1.6073
 1019SOL    HW214520   4.480   2.683  12.931  0.2106 -0.5655  0.6206
 1020SOL     OW14521   1.997   3.235  14.440  0.3114 -0.1706  0.1254
 1020SOL    HW114522   1.920   3.210  14.490 -0.0061  1.5412  0.5047
 1020SOL    HW214523   1.969   3.276  14.358  0.8952  2.0840  1.0416
 1021SOL     OW14524   2.324   3.602   7.424 -0.6326  0.4249  0.3444
 1021SOL    HW114525   2.247   3.658   7.431 -0.7186  0.1872  1.4008
 1021SOL    HW214526   2.382   3.674   7.448  1.1291 -1.6952  2.5397
 1022SOL     OW14527   0.025   1.046   7.120  0.1448 -0.5999  0.1084
 1022SOL    HW114528   4.694   1.052   7.041  0.3840  0.0990 -0.0050
 1022SOL    HW214529   0.011   0.952   7.130 -1.9160 -0.3330 -0.2240
 1023SOL     OW14530   0.467   1.116   8.582  0.6896  0.4895 -0.4292
 1023SOL    HW114531   0.395   1.086   8.525 -0.0487  0.1655  0.6662
 1023SOL    HW214532   0.510   1.032   8.596  1.7346  1.1136  0.0929
 1024SOL     OW14533   3.530   1.493   2.840 -0.1532  0.0688 -0.3568
 1024SOL    HW114534   3.551   1.489   2.933  1.8247  0.4994 -0.7698
 1024SOL    HW214535   3.515   1.587   2.832 -0.6878  0.2295  2.6619
 1025SOL     OW14536   4.308   4.260   2.086 -0.3489 -0.0173 -0.3198
 1025SOL    HW114537   4.392   4.215   2.079  0.5057  0.7640  4.4348
 1025SOL    HW214538   4.245   4.194   2.116 -1.4648  0.6582 -1.1632
 1026SOL     OW14539   4.573   1.184   1.746  0.1936 -0.3685  0.2185
 1026SOL    HW114540   4.509   1.255   1.735 -1.5019 -1.7768  0.8954
 1026SOL    HW214541   4.517   1.112   1.775  0.5763  0.5002  3.1937
 1027SOL     OW14542   3.981   3.597   5.519 -0.7493 -0.2957 -0.2004
 1027SOL    HW114543   4.002   3.689   5.503 -1.5759 -0.0983 -0.1072
 1027SOL    HW214544   4.044   3.564   5.584 -2.2151 -0.8970  0.9106
 1028SOL     OW14545   2.742   4.541   2.494 -0.1277  0.7829  0.4962
 1028SOL    HW114546   2.753   4.622   2.543  0.1990  1.4116 -0.6192
 1028SOL    HW214547   2.775   4.565   2.408 -0.5442 -0.1475  0.0702
 1029SOL     OW14548   3.108   4.413   2.063 -0.2871  0.1484 -0.3493
 1029SOL    HW114549   3.139   4.488   2.113 -0.2510  1.0020 -1.6625
 1029SOL    HW214550   3.021   4.394   2.097 -0.1580 -1.6346 -0.9882
 1030SOL     OW14551   1.943   0.392  12.374 -0.0919 -0.8043  0.5998
 1030SOL    HW114552   1.995   0.451  12.428 -0.6529  2.0080 -1.9514
 1030SOL    HW214553   1.939   0.321  12.438 -0.7569 -2.0811 -0.8491
 1031SOL     OW14554   0.713   1.112  17.637 -0.4836  0.2441 -0.4252
 1031SOL    HW114555   0.765   1.183  17.675 -0.8553 -0.6097  1.6916
 1031SOL    HW214556   0.647   1.160  17.588 -0.5282  1.1739  0.5408
 1032SOL     OW14557   4.038   2.095   6.423  0.2890  0.3859 -0.1533
 1032SOL    HW114558   4.004   2.082   6.512 -0.4752  1.1038 -0.3404
 1032SOL    HW214559   4.084   2.178   6.435  0.2878 -0.0255  2.7135
 1033SOL     OW14560   3.441   3.965   4.988  0.2774  1.1938 -0.1231
 1033SOL    HW114561   3.413   3.881   4.952 -0.2873  2.6291 -3.1144
 1033SOL    HW214562   3.445   4.021   4.910 -1.7749  0.9180 -0.4551
 1034SOL     OW14563   1.611   3.189   9.568 -0.2457  0.0381 -0.2928
 1034SOL    HW114564   1.550   3.260   9.587  1.6060  1.4964  0.2286
 1034SOL    HW214565   1.685   3.247   9.549 -0.0893  0.3205  1.1325
 1035SOL     OW14566   4.078   1.057   6.392  0.3011 -0.5003 -0.1780
 1035SOL    HW114567   4.076   1.146   6.426 -0.6697  0.2641 -2.2843
 1035SOL    HW214568   4.054   1.057   6.299 -0.3183 -0.2379 -0.0200
 1036SOL     OW14569   1.366   3.451   7.657 -0.1656  0.0014 -0.1673
 1036SOL    HW114570   1.406   3.373   7.618 -1.2523 -0.9461  0.5854
 1036SOL    HW214571   1.425   3.469   7.730  0.2694 -0.9955 -0.2771
 1037SOL     OW14572   0.396   1.986   7.324  0.0617 -0.7089  0.5125
 1037SOL    HW114573   0.314   2.035   7.322  2.0021  2.5301  1.1780
 1037SOL    HW214574   0.446   2.016   7.248  0.2394 -2.0595  0.0807
 1038SOL     OW14575   2.495   2.249   6.111 -0.4384  0.2406  0.5134
 1038SOL    HW114576   2.407   2.213   6.109 -1.2659  2.2651  0.2791
 1038SOL    HW214577   2.532   2.201   6.186  1.0390  0.3717 -0.1353
 1039SOL     OW14578   2.885   1.216   2.247  0.7795 -0.0672  0.2410
 1039SOL    HW114579   2.841   1.188   2.327  0.7520  2.5540  1.1341
 1039SOL    HW214580   2.973   1.226   2.282  0.0566 -0.9204  2.3102
 1040SOL     OW14581   2.884   3.296   0.977 -0.2477  0.0470  0.2418
 1040SOL    HW114582   2.977   3.273   0.965  0.0777  1.9926 -0.9246
 1040SOL    HW214583   2.852   3.206   0.988  3.3414 -1.3024 -0.2951
 1041SOL     OW14584   1.131   1.548   2.909 -0.1276 -0.4908 -0.1827
 1041SOL    HW114585   1.075   1.624   2.891  0.1925  0.0444  1.1080
 1041SOL    HW214586   1.153   1.512   2.822 -3.3294 -0.1090 -1.1437
 1042SOL     OW14587   4.607   2.558   4.825 -0.0352  0.1551 -0.1792
 1042SOL    HW114588   4.597   2.654   4.824 -1.4712  0.0470  3.3378
 1042SOL    HW214589   4.608   2.544   4.920  1.9377  1.4969 -0.0085
 1043SOL     OW14590   0.570   1.217   3.975 -0.0902  0.3947  0.2865
 1043SOL    HW114591   0.559   1.132   3.933  1.2067  1.1772 -1.6656
 1043SOL    HW214592   0.482   1.253   3.958 -0.8215 -0.9363  1.2742
 1044SOL     OW14593   1.995   0.382   5.704  0.4730  0.0899 -0.2606
 1044SOL    HW114594   1.999   0.440   5.628  1.0202 -1.2471 -1.2400
 1044SOL    HW214595   2.060   0.314   5.686  1.1539  0.8484 -0.6820
 1045SOL     OW14596   1.887   3.819   7.820 -0.0699  0.1404  0.7342
 1045SOL    HW114597   1.828   3.775   7.882 -2.2367  2.6348  0.4662
 1045SOL    HW214598   1.826   3.849   7.752  0.3574  0.5120  0.5200
 1046SOL     OW14599   1.368   4.662   0.679  0.0939 -0.4928  0.2013
 1046SOL    HW114600   1.426   4.628   0.610  1.3266 -0.8093  1.3865
 1046SOL    HW214601   1.426   4.671   0.754 -2.6376 -1.8785  2.4689
 1047SOL     OW14602   1.484   2.849   7.041 -0.0634 -0.2001 -0.5353
 1047SOL    HW114603   1.416   2.786   7.065 -0.8899  0.3624 -1.4391
 1047SOL    HW214604   1.471   2.917   7.107 -0.8964 -0.9996  0.1241
 1048SOL     OW14605   3.892   4.682  14.213  0.2786  0.3119 -0.1514
 1048SOL    HW114606   3.873   0.049  14.236 -0.5141 -0.3804  1.8993
 1048SOL    HW214607   3.866   4.641  14.295  0.1364 -0.7782 -0.7508
 1049SOL     OW14608   1.992   3.811   2.496  0.4456  0.2765 -0.2653
 1049SOL    HW114609   1.919   3.763   2.533  2.5072 -0.4716  2.7805
 1049SOL    HW214610   2.064   3.748   2.495 -1.3781 -1.7986  1.0170
 1050SOL     OW14611   2.110   3.367   3.543 -0.2862 -0.1147  0.3885
 1050SOL    HW114612   2.040   3.302   3.548 -0.9019  0.3835 -1.7291
 1050SOL    HW214613   2.150   3.337   3.461 -0.2817 -1.6774  0.9551
 1051SOL     OW14614   4.232   4.193  15.030  0.2012 -0.1512 -0.1310
 1051SOL    HW114615   4.206   4.194  15.122 -2.6137 -0.5688 -0.9258
 1051SOL    HW214616   4.151   4.172  14.983  0.1215  0.8954 -0.4766
 1052SOL     OW14617   1.870   1.741   3.238 -1.0370  0.6603  0.3049
 1052SOL    HW114618   1.928   1.817   3.234  0.7400 -0.6222  1.9870
 1052SOL    HW214619   1.939   1.677   3.221 -0.8682  0.7897  0.5038
 1053SOL     OW14620   0.884   2.062   4.214  0.0933  0.2025 -0.3605
 1053SOL    HW114621   0.850   2.152   4.218 -1.0721 -0.2043 -0.8593
 1053SOL    HW214622   0.907   2.050   4.122  0.7861 -0.1837 -0.1291
 1054SOL     OW14623   1.485   4.379   7.727  0.1369 -0.1382 -0.0861
 1054SOL    HW114624   1.476   4.407   7.636 -0.4871 -0.1095 -0.0161
 1054SOL    HW214625   1.401   4.335   7.740  0.7808 -1.8330 -1.5288
 1055SOL     OW14626   1.986   2.444   7.160  0.2667 -0.4263  0.2609
 1055SOL    HW114627   1.991   2.408   7.249  0.9749  0.9056  0.7693
 1055SOL    HW214628   1.944   2.366   7.123 -0.1704  0.3967 -0.9492
 1056SOL     OW14629   0.143   2.681   2.387 -0.9422  0.3206  0.0052
 1056SOL    HW114630   0.092   2.633   2.453  0.0579  0.0043  0.5536
 1056SOL    HW214631   0.230   2.641   2.386 -1.5865 -1.0643 -0.2413
 1057SOL     OW14632   3.030   0.384   2.787  0.0268  0.0900 -0.2226
 1057SOL    HW114633   3.086   0.416   2.858 -1.0910  0.0230  0.6781
 1057SOL    HW214634   3.028   0.442   2.710 -1.0373  2.3196  1.4966
 1058SOL     OW14635   0.718   3.634   5.790  0.3137 -0.0431  0.2052
 1058SOL    HW114636   0.641   3.584   5.817  0.9121 -1.9604 -1.6856
 1058SOL    HW214637   0.777   3.560   5.794  1.0791  0.4260 -2.4427
 1059SOL     OW14638   3.286   1.730  12.783  0.3815  0.4286 -0.3470
 1059SOL    HW114639   3.339   1.664  12.738  0.9636  0.9205 -0.3858
 1059SOL    HW214640   3.290   1.705  12.876 -0.8598 -1.3759 -0.7893
 1060SOL     OW14641   1.054   1.153   8.955  0.6392  0.1278  0.5122
 1060SOL    HW114642   1.018   1.233   8.995  2.5982  1.4308 -0.3028
 1060SOL    HW214643   0.971   1.120   8.921  1.1751 -0.3311 -0.3332
 1061SOL     OW14644   2.947   0.455   9.783  0.0411  0.0488  0.0338
 1061SOL    HW114645   2.948   0.547   9.755 -0.5745  0.8364  2.5149
 1061SOL    HW214646   2.855   0.432   9.793  0.7891 -2.5888  0.8538
 1062SOL     OW14647   2.048   3.611   9.055 -0.3132 -0.6834  0.1268
 1062SOL    HW114648   2.101   3.557   9.113  1.0351  0.5355 -0.0030
 1062SOL    HW214649   1.967   3.614   9.106  0.3919  0.6947  1.1431
 1063SOL     OW14650   3.178   0.279   9.383 -0.1709  0.2045  0.1249
 1063SOL    HW114651   3.154   0.339   9.454 -1.6042  0.0129 -0.1901
 1063SOL    HW214652   3.114   0.309   9.318 -1.2569  1.7188  1.9033
 1064SOL     OW14653   0.673   2.107   6.119 -0.3479  0.0830 -0.2822
 1064SOL    HW114654   0.645   2.133   6.206 -0.6259 -0.6056 -0.1671
 1064SOL    HW214655   0.725   2.030   6.142  0.7435  1.5577  2.1461
 1065SOL     OW14656   3.049   0.941   6.407  0.1634 -0.6453 -0.5501
 1065SOL    HW114657   3.141   0.959   6.386 -0.6130  1.8024 -1.8304
 1065SOL    HW214658   3.019   1.016   6.356  0.8369 -0.9484 -1.4062
 1066SOL     OW14659   0.888   3.257   8.329  0.0973 -0.7063  0.3458
 1066SOL    HW114660   0.972   3.212   8.325  0.1989 -0.3730 -1.3274
 1066SOL    HW214661   0.833   3.181   8.345  0.3806 -0.8743  0.5184
 1067SOL     OW14662   4.232   0.060   2.289 -0.0483  0.1762 -0.1159
 1067SOL    HW114663   4.271   4.697   2.301 -0.6700 -0.3588 -1.9636
 1067SOL    HW214664   4.161   0.032   2.231  0.8047 -1.4234 -0.3982
 1068SOL     OW14665   1.551   3.871   2.775 -0.0052  0.5303 -0.7928
 1068SOL    HW114666   1.631   3.921   2.793  0.5686 -0.3924 -0.7943
 1068SOL    HW214667   1.518   3.861   2.865  0.2910 -1.1345 -0.8638
 1069SOL     OW14668   0.902   1.911   5.576  0.4299  0.2911  0.0769
 1069SOL    HW114669   0.975   1.971   5.588  0.6056 -0.0635  0.7270
 1069SOL    HW214670   0.895   1.913   5.480 -0.9691 -0.5016  0.1534
 1070SOL     OW14671   0.409   0.588   6.106  0.2426 -1.1388  0.0781
 1070SOL    HW114672   0.453   0.659   6.152 -2.6091  0.7678 -0.1018
 1070SOL    HW214673   0.359   0.646   6.049 -0.1627 -1.9899 -0.4433
 1071SOL     OW14674   3.451   3.476  15.378 -0.2893  0.3874 -0.0683
 1071SOL    HW114675   3.512   3.549  15.367 -1.7926  1.3683 -1.8195
 1071SOL    HW214676   3.505   3.423  15.437  0.9244  1.3614 -0.2853
 1072SOL     OW14677   2.851   3.331   2.017 -0.1535 -0.5214  0.4630
 1072SOL    HW114678   2.764   3.371   2.015  0.0472 -0.0952  0.2547
 1072SOL    HW214679   2.828   3.246   2.054 -2.5836  0.4207  1.0761
 1073SOL     OW14680   0.927   4.082   4.980 -0.3691  0.7429  0.1714
 1073SOL    HW114681   0.910   4.113   5.069 -1.9834  0.1734  0.0625
 1073SOL    HW214682   0.948   4.162   4.932 -1.3220  1.1541  0.4265
 1074SOL     OW14683   2.528   2.044  10.274 -0.1777  0.8020 -0.0473
 1074SOL    HW114684   2.509   1.952  10.258  1.4598  0.0192  2.5116
 1074SOL    HW214685   2.531   2.080  10.185 -2.2423  0.3251 -0.3129
 1075SOL     OW14686   2.523   3.189  13.406  0.3380 -0.4152 -0.1505
 1075SOL    HW114687   2.587   3.256  13.382 -1.5977  1.0202 -1.2140
 1075SOL    HW214688   2.586   3.124  13.439  1.0040  0.6648  0.7157
 1076SOL     OW14689   0.093   1.934  10.470  0.5163 -0.0604  0.5376
 1076SOL    HW114690   0.087   2.027  10.494  0.1051 -0.1013  0.5975
 1076SOL    HW214691   0.164   1.934  10.406  0.7764  0.1502  0.8237
 1077SOL     OW14692   3.548   1.393   1.066 -0.0408 -0.0995  0.1344
 1077SOL    HW114693   3.461   1.429   1.048 -0.1648  1.3113  3.4027
 1077SOL    HW214694   3.575   1.449   1.139 -2.0224 -0.9692  1.5431
 1078SOL     OW14695   0.059   1.848   4.220 -0.3624  1.1113 -0.1124
 1078SOL    HW114696   0.018   1.831   4.305 -0.1431 -1.4311 -0.5377
 1078SOL    HW214697   0.144   1.871   4.255 -0.3504  0.4755  0.2664
 1079SOL     OW14698   3.906   3.602  11.003 -0.0931  0.3336  0.1528
 1079SOL    HW114699   3.947   3.591  10.918 -2.1926 -2.4970 -0.4884
 1079SOL    HW214700   3.822   3.558  10.990 -1.1367  2.6713 -1.0492
 1080SOL     OW14701   4.156   3.373   3.669  0.3474 -0.0593 -0.3052
 1080SOL    HW114702   4.116   3.430   3.734 -1.7879 -1.1549 -0.6483
 1080SOL    HW214703   4.091   3.371   3.599  1.0810 -0.0941 -0.9926
 1081SOL     OW14704   3.264   0.743   8.282  0.2262  0.4128 -0.0242
 1081SOL    HW114705   3.271   0.693   8.200 -0.8208 -0.8707  0.6556
 1081SOL    HW214706   3.246   0.832   8.252 -0.6819  0.5759  1.0087
 1082SOL     OW14707   4.565   4.159   8.934 -0.2789 -0.2733  0.6203
 1082SOL    HW114708   4.589   4.251   8.927 -0.7949 -0.0860  1.3618
 1082SOL    HW214709   4.474   4.159   8.963  0.1117  1.2183  1.8236
 1083SOL     OW14710   1.985   0.502   3.069  0.0077  0.5878 -0.3313
 1083SOL    HW114711   2.058   0.442   3.083 -0.0245  0.3610 -1.1877
 1083SOL    HW214712   2.033   0.565   3.015  4.2945 -1.8925  0.5643
 1084SOL     OW14713   2.222   1.582  10.261 -0.0294  0.1587  0.3134
 1084SOL    HW114714   2.270   1.665  10.258 -0.1100  0.2802  2.3579
 1084SOL    HW214715   2.278   1.509  10.287  1.2560  0.4275 -1.7362
 1085SOL     OW14716   0.266   3.049   9.802 -0.0891 -0.5380  0.4710
 1085SOL    HW114717   0.236   2.959   9.817  0.9706 -0.9968 -0.1520
 1085SOL    HW214718   0.351   3.033   9.761 -0.2797 -1.9040  0.6199
 1086SOL     OW14719   3.733   3.845   4.903  0.9358 -1.0504 -0.0413
 1086SOL    HW114720   3.739   3.811   4.992 -0.6358 -1.0391  0.0816
 1086SOL    HW214721   3.680   3.923   4.920  0.8383 -1.2843  0.7093
 1087SOL     OW14722   2.435   3.604   7.933  0.6887  0.4562  0.1095
 1087SOL    HW114723   2.527   3.579   7.920  0.7346  0.9427 -0.5125
 1087SOL    HW214724   2.444   3.614   8.027  0.5648  0.9230  0.0741
 1088SOL     OW14725   3.708   3.406   3.258 -0.3470  0.0047 -0.3546
 1088SOL    HW114726   3.694   3.347   3.332  0.4253 -0.6482 -0.7276
 1088SOL    HW214727   3.703   3.341   3.188  2.0508 -0.6484  0.0907
 1089SOL     OW14728   0.990   2.921  17.045  0.2373  0.1377  0.3578
 1089SOL    HW114729   0.896   2.901  17.051  0.2988  0.3775  2.0031
 1089SOL    HW214730   0.996   2.973  17.125  1.8190 -1.4223  1.2538
 1090SOL     OW14731   2.273   2.442   6.318 -0.2164 -0.1867  0.3184
 1090SOL    HW114732   2.281   2.365   6.261  0.7034 -1.2337  1.8553
 1090SOL    HW214733   2.180   2.465   6.317 -0.2314 -0.2143  2.4726
 1091SOL     OW14734   2.581   1.550   5.149  0.3235  0.2800 -0.0041
 1091SOL    HW114735   2.528   1.623   5.118 -2.2491 -1.7658 -0.4529
 1091SOL    HW214736   2.663   1.575   5.107  0.0106  1.3720  0.0359
 1092SOL     OW14737   2.796   2.452   9.038 -0.2611  0.2415  0.4135
 1092SOL    HW114738   2.805   2.513   8.965  2.6750  0.2409  0.7525
 1092SOL    HW214739   2.705   2.461   9.064 -0.3732  0.2378  0.0077
 1093SOL     OW14740   3.695   3.457   0.659  0.1832  0.0206  0.0841
 1093SOL    HW114741   3.643   3.382   0.688  1.8458 -0.9846  0.4129
 1093SOL    HW214742   3.633   3.531   0.658  1.1028  0.7850  0.0685
 1094SOL     OW14743   2.692   0.020   4.157  0.0047  0.6340  0.2098
 1094SOL    HW114744   2.699   0.079   4.232  1.0912  0.3515  0.3339
 1094SOL    HW214745   2.769   0.047   4.107 -1.6240  1.6464 -1.7438
 1095SOL     OW14746   2.042   3.590  16.607 -0.0815  0.1023 -0.2022
 1095SOL    HW114747   2.132   3.621  16.594 -0.0758  0.2135  0.1078
 1095SOL    HW214748   2.024   3.626  16.694  0.6320 -1.8911  0.7612
 1096SOL     OW14749   1.071   3.076   9.144  0.4808  0.3888  0.1279
 1096SOL    HW114750   1.059   3.044   9.234 -1.4669 -0.0698 -0.2902
 1096SOL    HW214751   1.053   3.170   9.150  1.2390  0.4708  1.0819
 1097SOL     OW14752   2.537   4.376   4.950 -0.0009 -0.5619 -0.0050
 1097SOL    HW114753   2.611   4.326   4.915 -0.1661 -2.1424  1.9205
 1097SOL    HW214754   2.564   4.388   5.041 -0.9527 -1.3705  0.3809
 1098SOL     OW14755   4.015   0.547   4.608  0.6813 -0.3047  0.2012
 1098SOL    HW114756   3.955   0.504   4.670  0.4729 -0.1775  0.0881
 1098SOL    HW214757   4.062   0.610   4.663 -1.2646 -0.6298  2.2531
 1099SOL     OW14758   4.592   3.127   5.785 -0.1598 -0.2594 -0.9335
 1099SOL    HW114759   4.498   3.120   5.767 -0.4077 -1.0634  0.6876
 1099SOL    HW214760   4.594   3.069   5.861 -1.3780  1.8377  0.7219
 1100SOL     OW14761   2.807   3.001  11.007 -0.3520  0.6361  0.5129
 1100SOL    HW114762   2.859   2.938  11.057  1.3813  1.8271  0.2217
 1100SOL    HW214763   2.747   2.947  10.956  2.3197 -0.1581 -1.7932
 1101SOL     OW14764   3.950   3.920   1.598 -0.5514 -0.4858  1.0028
 1101SOL    HW114765   3.936   3.905   1.691  1.1649  0.5999  1.4334
 1101SOL    HW214766   4.040   3.890   1.582 -0.5844  0.3791 -0.8271
 1102SOL     OW14767   1.631   4.102  16.303 -0.0358 -0.1911 -0.0545
 1102SOL    HW114768   1.601   4.160  16.233  1.3041 -1.4669 -1.6910
 1102SOL    HW214769   1.571   4.027  16.300 -2.0569  1.4905 -1.4927
 1103SOL     OW14770   4.530   3.599   6.148  0.1029 -0.1009 -0.1083
 1103SOL    HW114771   4.519   3.622   6.240  0.0619  0.0344 -0.1474
 1103SOL    HW214772   4.595   3.530   6.145 -1.2998 -1.3890 -1.1553
 1104SOL     OW14773   4.469   3.862  14.645 -0.8336  0.1166  0.0786
 1104SOL    HW114774   4.437   3.939  14.597 -0.6865  0.1364  0.0134
 1104SOL    HW214775   4.557   3.878  14.678 -0.1903 -0.0177 -1.5930
 1105SOL     OW14776   1.016   0.570  12.325 -0.4154  0.7925  0.6114
 1105SOL    HW114777   1.078   0.637  12.296 -0.0575  0.5611  0.8454
 1105SOL    HW214778   1.070   0.491  12.325  0.3076  1.2917 -2.4619
 1106SOL     OW14779   4.616   3.815  14.194 -0.4828 -0.0243  0.0685
 1106SOL    HW114780   4.531   3.837  14.154 -1.3237 -1.6254  1.0017
 1106SOL    HW214781   4.634   3.728  14.160 -0.4079 -0.0063  0.0623
 1107SOL     OW14782   1.347   0.641   8.845  0.1489 -0.1434 -0.4049
 1107SOL    HW114783   1.428   0.607   8.883 -0.4738 -0.9808  0.1653
 1107SOL    HW214784   1.298   0.560   8.832  1.0892 -0.6531 -0.8232
 1108SOL     OW14785   0.081   1.997   7.947 -0.2448 -0.6747  0.1658
 1108SOL    HW114786   0.136   1.955   8.013  0.0093  0.5740  0.7629
 1108SOL    HW214787   0.008   1.936   7.944 -1.0851  0.1465  3.3489
 1109SOL     OW14788   1.241   3.128   5.716  0.6590  0.3827 -0.2128
 1109SOL    HW114789   1.212   3.083   5.796  1.0567  0.4914 -0.0078
 1109SOL    HW214790   1.320   3.074   5.713 -0.9810 -1.8865 -2.5710
 1110SOL     OW14791   4.048   3.261  12.410 -0.1059  0.2390  0.0776
 1110SOL    HW114792   4.073   3.349  12.436 -1.0511  1.1348 -2.0974
 1110SOL    HW214793   4.056   3.270  12.315 -1.6112  0.2108 -0.0553
 1111SOL     OW14794   0.873   3.960  15.570  0.2925 -0.4031  0.4259
 1111SOL    HW114795   0.887   4.050  15.540  2.1960 -0.3477  1.4534
 1111SOL    HW214796   0.782   3.954  15.542  0.1796 -0.5912  0.8334
 1112SOL     OW14797   4.280   1.629   4.952  0.5930 -0.3205  0.3943
 1112SOL    HW114798   4.360   1.662   4.911  1.0318 -0.7819  0.8892
 1112SOL    HW214799   4.299   1.535   4.949  1.1160 -0.1401 -1.9744
 1113SOL     OW14800   1.844   4.463   2.652 -0.3146  0.0654 -0.1043
 1113SOL    HW114801   1.803   4.548   2.667 -0.2956  0.0107  0.2557
 1113SOL    HW214802   1.794   4.434   2.575  0.5077  0.6576 -0.8645
 1114SOL     OW14803   4.671   2.044  14.381  0.6970 -0.2303 -0.4087
 1114SOL    HW114804   4.610   2.063  14.310  1.1770 -2.1598 -1.3076
 1114SOL    HW214805   4.711   1.963  14.350  0.3814 -0.4458 -0.2579
 1115SOL     OW14806   1.194   2.884  16.408 -0.4399  0.1589  0.1604
 1115SOL    HW114807   1.180   2.834  16.488  0.0771  0.9409  0.7305
 1115SOL    HW214808   1.131   2.834  16.355 -0.1798 -0.6136  0.5863
 1116SOL     OW14809   0.628   0.921   6.064  0.6688 -0.3206 -0.0390
 1116SOL    HW114810   0.641   0.873   6.145  0.7501 -0.2143  0.0115
 1116SOL    HW214811   0.610   1.008   6.100  1.2280 -1.3381  2.7245
 1117SOL     OW14812   3.595   0.611   8.671  0.0275 -0.0174 -0.1419
 1117SOL    HW114813   3.535   0.631   8.600  0.5641  1.2318 -0.2413
 1117SOL    HW214814   3.579   0.680   8.736 -0.7384  0.3090 -0.6787
 1118SOL     OW14815   2.741   0.106  12.795 -0.1205  1.3666 -0.3879
 1118SOL    HW114816   2.815   0.147  12.841 -1.2250  0.6888  1.9975
 1118SOL    HW214817   2.690   0.089  12.874 -1.0940  0.6960 -1.1724
 1119SOL     OW14818   2.439   1.610  15.674  0.3572 -0.3681  0.5676
 1119SOL    HW114819   2.531   1.604  15.700  0.7245  1.2302 -0.3944
 1119SOL    HW214820   2.414   1.518  15.686  2.0593 -0.9680 -0.5207
 1120SOL     OW14821   1.305   1.838   9.433 -0.2100  0.1881  0.2910
 1120SOL    HW114822   1.389   1.884   9.433  0.0106 -0.2090  1.0888
 1120SOL    HW214823   1.261   1.874   9.357 -1.1401 -1.2915  0.1198
 1121SOL     OW14824   2.708   1.337   7.571  0.4054  0.4174 -0.4930
 1121SOL    HW114825   2.750   1.263   7.528  0.2536  0.4101 -0.6319
 1121SOL    HW214826   2.724   1.312   7.662  0.3761  3.9506  0.4912
 1122SOL     OW14827   1.903   2.181   9.317  0.1443 -0.1086  0.4463
 1122SOL    HW114828   1.828   2.228   9.281 -0.3608 -1.4826 -0.2665
 1122SOL    HW214829   1.864   2.111   9.369  0.8810 -0.4715  0.5018
 1123SOL     OW14830   3.094   3.466   3.265  0.1873  0.3770  0.5547
 1123SOL    HW114831   3.115   3.450   3.357  0.7255 -1.0095  0.1901
 1123SOL    HW214832   3.010   3.421   3.257 -0.0254  0.7321  0.7616
 1124SOL     OW14833   1.854   2.759   8.517  0.2195  0.0297 -0.4733
 1124SOL    HW114834   1.775   2.752   8.570  1.5111 -1.5776  1.2185
 1124SOL    HW214835   1.882   2.848   8.538 -0.3756  0.1365 -0.1409
 1125SOL     OW14836   3.062   2.382  10.794 -0.1470  0.3933 -0.0206
 1125SOL    HW114837   3.018   2.303  10.828  2.8112 -0.6196  1.5354
 1125SOL    HW214838   3.155   2.370  10.816  0.1467  0.1008 -1.4322
 1126SOL     OW14839   3.505   4.608   3.382 -0.0447  0.3761 -0.6640
 1126SOL    HW114840   3.548   4.524   3.367 -0.0135  0.4063 -0.7446
 1126SOL    HW214841   3.470   4.620   3.293  0.8503  1.5741 -0.8558
 1127SOL     OW14842   2.168   1.715   5.485 -0.0352 -0.1990 -0.2580
 1127SOL    HW114843   2.107   1.645   5.508 -2.3517  1.6369 -0.7850
 1127SOL    HW214844   2.219   1.720   5.566 -2.3441  0.0266  1.1780
 1128SOL     OW14845   2.909   3.708   6.256 -0.4628  0.6568  0.0460
 1128SOL    HW114846   2.992   3.676   6.293 -0.0266 -0.4361 -1.8943
 1128SOL    HW214847   2.937   3.753   6.177  0.0201 -1.1545 -0.8170
 1129SOL     OW14848   0.492   0.218   9.937 -0.0785 -0.1127  0.0406
 1129SOL    HW114849   0.412   0.260   9.905  0.3082  0.7065  0.1515
 1129SOL    HW214850   0.547   0.205   9.859  0.4864  3.8363 -0.2108
 1130SOL     OW14851   3.956   4.246   2.510 -0.6564 -0.0857  0.1808
 1130SOL    HW114852   3.906   4.237   2.591  0.8331 -2.4750  0.7962
 1130SOL    HW214853   3.884   4.222   2.451 -0.0813 -0.7541 -0.2412
 1131SOL     OW14854   3.080   4.542   7.278 -0.1134  0.1300 -0.0270
 1131SOL    HW114855   3.099   4.612   7.216 -0.5928 -0.0742 -0.4027
 1131SOL    HW214856   3.081   4.601   7.353  0.1438 -0.8144  0.7117
 1132SOL     OW14857   1.006   4.698   3.696  0.2515 -0.1510 -0.2800
 1132SOL    HW114858   1.048   4.636   3.755 -0.2472  1.1944  1.4982
 1132SOL    HW214859   1.058   0.055   3.690  1.1608 -0.8786 -2.2224
 1133SOL     OW14860   4.184   0.730  16.835 -0.8295  0.3956 -0.4116
 1133SOL    HW114861   4.185   0.715  16.930 -0.6446 -1.1830 -0.6527
 1133SOL    HW214862   4.262   0.681  16.809 -0.7615  0.2208  0.1074
 1134SOL     OW14863   0.341   4.714   2.445  0.2459 -0.2707  0.0305
 1134SOL    HW114864   0.357   4.699   2.538  4.6566  1.1997 -0.5080
 1134SOL    HW214865   0.292   4.636   2.418  0.1928  0.2403 -1.3110
 1135SOL     OW14866   4.084   2.432   7.131  0.5044  0.1544  0.3826
 1135SOL    HW114867   4.049   2.403   7.215 -2.5908  1.8539 -0.3050
 1135SOL    HW214868   4.029   2.509   7.119  0.9515  0.3071 -0.7719
 1136SOL     OW14869   1.588   1.445  11.463 -0.0796 -0.3649 -0.5734
 1136SOL    HW114870   1.587   1.524  11.516 -2.8722  0.6936 -2.1947
 1136SOL    HW214871   1.663   1.396  11.497 -0.1022 -0.1165 -0.1748
 1137SOL     OW14872   2.431   0.032   6.668  0.0270  0.0919  0.2068
 1137SOL    HW114873   2.444   4.672   6.626 -2.2797 -0.0480 -0.2316
 1137SOL    HW214874   2.454   0.013   6.759  0.4614 -1.1717 -0.1787
 1138SOL     OW14875   3.530   1.431  16.178 -0.5244 -0.0334  0.4116
 1138SOL    HW114876   3.518   1.343  16.141  0.3186  0.3753 -0.8379
 1138SOL    HW214877   3.585   1.464  16.108 -1.3345 -1.2215 -0.7812
 1139SOL     OW14878   0.387   3.898   3.383 -0.4193 -0.5646 -0.1051
 1139SOL    HW114879   0.419   3.809   3.399 -0.4632 -0.6743 -0.6134
 1139SOL    HW214880   0.437   3.950   3.446 -0.6327 -0.7273  0.1983
 1140SOL     OW14881   3.509   0.466  10.347  0.2536  0.3137  0.3335
 1140SOL    HW114882   3.523   0.390  10.291  0.6622  2.2891 -2.2423
 1140SOL    HW214883   3.519   0.429  10.435 -3.9638  0.9078  1.0966
 1141SOL     OW14884   2.710   4.369   6.452  0.1040  0.8040 -0.5653
 1141SOL    HW114885   2.776   4.335   6.513  0.3929  1.7775 -0.3346
 1141SOL    HW214886   2.673   4.285   6.424  2.5551  0.4705 -2.8238
 1142SOL     OW14887   3.904   4.162  10.715  0.3321  0.7099 -0.3811
 1142SOL    HW114888   3.991   4.152  10.676 -0.3868  2.2016 -2.3506
 1142SOL    HW214889   3.918   4.218  10.792 -1.8258  0.0918  0.4658
 1143SOL     OW14890   0.245   3.336   4.064 -0.7283  0.1288  0.8203
 1143SOL    HW114891   0.309   3.266   4.053 -1.5978 -0.7403  1.3552
 1143SOL    HW214892   0.171   3.277   4.055 -0.4243  0.2563 -2.5976
 1144SOL     OW14893   2.522   1.878  16.958  0.5290  0.0666 -0.1003
 1144SOL    HW114894   2.579   1.803  16.941  0.4382  0.0553 -0.3494
 1144SOL    HW214895   2.441   1.845  16.920  0.0304 -0.7484  1.6476
 1145SOL     OW14896   1.029   3.170   6.789  0.7068  0.1692  0.3131
 1145SOL    HW114897   1.034   3.173   6.885 -0.9231 -1.4720  0.4534
 1145SOL    HW214898   0.943   3.128   6.778  1.5468 -1.4612  0.0258
 1146SOL     OW14899   1.602   0.109   5.775 -0.2431  0.4474  0.1836
 1146SOL    HW114900   1.536   0.052   5.735  1.3234 -2.5655  1.9061
 1146SOL    HW214901   1.544   0.169   5.823 -1.0257 -0.7743  0.7633
 1147SOL     OW14902   1.919   4.691   7.435 -0.2540 -0.7178 -0.0919
 1147SOL    HW114903   1.927   4.613   7.380  0.8959 -0.4910 -0.2420
 1147SOL    HW214904   1.955   0.036   7.379  0.1215 -0.4561  0.4719
 1148SOL     OW14905   4.291   2.611   1.767  0.1248  0.5381  0.0021
 1148SOL    HW114906   4.305   2.701   1.739 -2.2654  1.1492  0.7693
 1148SOL    HW214907   4.317   2.563   1.688  0.5414 -1.1057  1.1445
 1149SOL     OW14908   4.288   0.890   6.635 -0.2858  0.7702  0.0815
 1149SOL    HW114909   4.326   0.971   6.601 -0.3384  0.9926  0.5444
 1149SOL    HW214910   4.253   0.859   6.552 -0.4172 -0.3516  0.5484
 1150SOL     OW14911   3.882   1.010   1.932 -0.1932  0.3482  0.5067
 1150SOL    HW114912   3.853   1.081   1.990  0.9579  0.0222  1.4868
 1150SOL    HW214913   3.827   0.938   1.962  0.8948 -0.5833  0.2686
 1151SOL     OW14914   1.821   0.435   9.259 -0.4004 -0.0999  0.5528
 1151SOL    HW114915   1.832   0.398   9.346  1.5631 -0.6171  0.0771
 1151SOL    HW214916   1.909   0.470   9.247 -0.3400 -0.3855  0.1837
 1152SOL     OW14917   3.383   0.718   6.567  0.4896  0.3683 -0.0624
 1152SOL    HW114918   3.309   0.766   6.604 -0.9374 -0.5308 -1.7474
 1152SOL    HW214919   3.442   0.791   6.546 -1.2636  1.5854 -0.8442
 1153SOL     OW14920   0.383   2.906  10.703  0.2394 -0.3196 -0.5997
 1153SOL    HW114921   0.429   2.941  10.627  0.7656 -1.0629 -0.6270
 1153SOL    HW214922   0.321   2.845  10.664 -1.6453 -0.4058  2.4990
 1154SOL     OW14923   0.044   2.992  16.608 -0.4403 -0.0061 -0.3419
 1154SOL    HW114924   0.046   2.980  16.513  0.7580  1.0648 -0.4529
 1154SOL    HW214925   0.127   3.040  16.604 -0.8483  0.7327  0.2057
 1155SOL     OW14926   3.669   3.811   0.734 -0.0522 -0.6644  0.4687
 1155SOL    HW114927   3.586   3.856   0.716 -0.4926 -1.0011  1.7130
 1155SOL    HW214928   3.708   3.887   0.776 -1.8479  0.0951  0.7853
 1156SOL     OW14929   2.772   0.480   6.484 -0.1332  0.4205 -0.1731
 1156SOL    HW114930   2.850   0.512   6.439  1.0408 -1.1351  0.7543
 1156SOL    HW214931   2.774   0.384   6.476 -1.0081  0.4595 -0.9381
 1157SOL     OW14932   3.417   1.313   5.189  0.0171 -0.3222  0.3363
 1157SOL    HW114933   3.424   1.236   5.246 -1.3800 -1.8946 -1.6064
 1157SOL    HW214934   3.464   1.380   5.239  0.3438  0.5211 -1.1057
 1158SOL     OW14935   1.684   2.753   8.732  0.2698 -0.3914  0.1633
 1158SOL    HW114936   1.611   2.812   8.746  2.4929  2.3698  0.1175
 1158SOL    HW214937   1.750   2.800   8.784  1.4812 -2.0477  0.1283
 1159SOL     OW14938   3.167   2.195   9.858  0.0990 -0.1854 -0.5551
 1159SOL    HW114939   3.235   2.201   9.790  0.6404  0.5454  0.0415
 1159SOL    HW214940   3.209   2.230   9.936  0.3814 -1.6713 -0.0478
 1160SOL     OW14941   1.668   1.057  13.356  0.1103  0.2166  0.4942
 1160SOL    HW114942   1.670   1.046  13.261 -0.5068  0.6064  0.4423
 1160SOL    HW214943   1.576   1.056  13.381 -0.7197 -1.0074 -2.5846
 1161SOL     OW14944   3.809   3.728   6.563 -1.0116  0.4394  0.3273
 1161SOL    HW114945   3.814   3.648   6.615  2.4618  1.3639  1.4194
 1161SOL    HW214946   3.716   3.740   6.544 -1.2186  0.2058  1.1907
 1162SOL     OW14947   0.552   3.401   2.741  0.2395  0.7120  0.3755
 1162SOL    HW114948   0.623   3.449   2.784 -3.7883  2.9452  4.5894
 1162SOL    HW214949   0.543   3.459   2.665 -0.9898  2.2188  1.6561
 1163SOL     OW14950   4.261   1.112   0.468 -0.1861  0.0220  0.0889
 1163SOL    HW114951   4.271   1.102   0.563 -0.1097  1.1179  0.1906
 1163SOL    HW214952   4.219   1.198   0.468 -1.0558 -0.4035 -1.2380
 1164SOL     OW14953   4.615   0.401  15.132  0.4009 -0.2489  0.5273
 1164SOL    HW114954   4.688   0.361  15.179 -0.0523  0.0487  1.4879
 1164SOL    HW214955   4.633   0.492  15.157 -1.0066  0.1818 -0.0060
 1165SOL     OW14956   4.227   1.849   7.370 -0.1988  0.0362 -0.0954
 1165SOL    HW114957   4.311   1.861   7.415 -0.6366 -0.4908  0.8665
 1165SOL    HW214958   4.267   1.807   7.294 -2.5834 -2.6419  0.1441
 1166SOL     OW14959   4.386   3.516   7.571 -0.1712 -0.0730  0.1720
 1166SOL    HW114960   4.333   3.585   7.531 -2.5795 -1.6925  0.5797
 1166SOL    HW214961   4.326   3.441   7.568 -0.5277  0.2588 -1.2715
 1167SOL     OW14962   1.906   1.404  14.132  0.3894  0.1209  0.2917
 1167SOL    HW114963   1.959   1.334  14.094 -1.4453  0.9682 -3.7762
 1167SOL    HW214964   1.821   1.364  14.147  0.8835 -1.4049 -0.9644
 1168SOL     OW14965   4.378   1.659   5.219 -0.1713 -0.0095 -0.0097
 1168SOL    HW114966   4.359   1.749   5.248 -0.6243 -0.0959 -0.0351
 1168SOL    HW214967   4.328   1.650   5.137  0.6526  0.5306 -0.5742
 1169SOL     OW14968   0.919   2.683   8.009  0.4262  0.5342 -0.0055
 1169SOL    HW114969   0.952   2.719   7.927  0.3007 -0.2620 -0.4111
 1169SOL    HW214970   0.845   2.742   8.018 -2.2398 -2.5746 -1.6501
 1170SOL     OW14971   0.820   2.776  16.727  0.4667 -0.3945  0.1477
 1170SOL    HW114972   0.733   2.799  16.695  0.8906  0.7361 -0.1911
 1170SOL    HW214973   0.874   2.840  16.680 -1.2114  1.1878  0.3959
 1171SOL     OW14974   4.288   3.602   1.848  0.2500  0.7429 -0.3612
 1171SOL    HW114975   4.271   3.652   1.927  0.1132 -0.4429  0.3625
 1171SOL    HW214976   4.207   3.552   1.841  1.1713 -0.8188  0.1458
 1172SOL     OW14977   0.825   1.454   2.269 -0.1626 -0.5591 -0.3177
 1172SOL    HW114978   0.843   1.452   2.175 -1.0025 -0.3734 -0.4866
 1172SOL    HW214979   0.912   1.445   2.308 -0.2854 -2.2162 -0.4317
 1173SOL     OW14980   1.835   3.416   3.719 -0.1493  0.3446  0.2318
 1173SOL    HW114981   1.884   3.344   3.680 -0.1784 -0.3013  1.3932
 1173SOL    HW214982   1.893   3.444   3.790 -1.5247  2.3487  0.5456
 1174SOL     OW14983   0.492   1.177   6.057 -0.3008 -0.4231  0.3471
 1174SOL    HW114984   0.486   1.268   6.028  1.3264 -0.2844  0.4898
 1174SOL    HW214985   0.452   1.132   5.983 -1.5102 -0.2372  0.8878
 1175SOL     OW14986   2.453   1.333   4.272  0.3062 -0.3176  0.0148
 1175SOL    HW114987   2.483   1.410   4.223  1.6795 -0.8615  0.0221
 1175SOL    HW214988   2.527   1.275   4.289  0.2774 -0.3173  0.1416
 1176SOL     OW14989   3.490   0.057   6.800 -0.4551  0.0103 -0.1578
 1176SOL    HW114990   3.423   0.028   6.862  1.0426 -0.2712  1.3184
 1176SOL    HW214991   3.441   0.097   6.729  0.5849 -0.6514 -1.2565
 1177SOL     OW14992   3.460   0.140   6.231 -0.3025  0.2363 -0.6298
 1177SOL    HW114993   3.511   0.187   6.166 -1.8662  3.2201  0.2853
 1177SOL    HW214994   3.514   0.143   6.310  1.8462 -0.4498 -2.0889
 1178SOL     OW14995   1.726   1.956   8.960 -0.7672 -0.0762 -0.2505
 1178SOL    HW114996   1.707   1.954   9.054 -0.4614  0.0862 -0.1827
 1178SOL    HW214997   1.802   2.015   8.960  0.6895 -1.9330  1.1843
 1179SOL     OW14998   0.802   1.963   3.067 -0.6411 -0.6654  0.5029
 1179SOL    HW114999   0.794   2.015   2.987  1.3410 -0.6760  0.2953
 1179SOL    HW215000   0.893   1.931   3.065 -0.9582 -1.4858 -0.6877
 1180SOL     OW15001   3.890   4.040  16.632  0.2483  0.2750  0.0089
 1180SOL    HW115002   3.953   4.099  16.674 -0.2504  1.8097 -1.4416
 1180SOL    HW215003   3.834   4.029  16.709  1.5213 -0.2158  0.8757
 1181SOL     OW15004   1.769   0.061  13.510  0.0685  0.6530 -0.3555
 1181SOL    HW115005   1.749   0.147  13.548  1.8926  0.6095  0.6884
 1181SOL    HW215006   1.725   0.072  13.426 -0.9269 -4.1817 -0.4422
 1182SOL     OW15007   2.649   1.015   4.773 -0.0376 -0.1569 -0.1951
 1182SOL    HW115008   2.569   1.018   4.720  1.8339  0.6025 -3.0201
 1182SOL    HW215009   2.612   1.064   4.846  0.8112  2.4293 -1.4939
 1183SOL     OW15010   4.078   4.220   5.843 -0.5892  0.4122  0.6494
 1183SOL    HW115011   4.156   4.182   5.803 -0.4723  0.7350  0.5693
 1183SOL    HW215012   4.100   4.244   5.933  0.5162  1.7091  0.0372
 1184SOL     OW15013   1.373   2.182   3.527 -0.2487 -0.0006  0.4804
 1184SOL    HW115014   1.413   2.262   3.559  0.4825 -0.8242  1.6317
 1184SOL    HW215015   1.448   2.134   3.491 -0.4042  1.4213 -1.6847
 1185SOL     OW15016   2.726   0.666   5.915  0.5721  0.1999 -0.0019
 1185SOL    HW115017   2.654   0.728   5.923 -0.4364 -1.1384  1.2925
 1185SOL    HW215018   2.685   0.589   5.875  0.6447  0.4998 -0.6494
 1186SOL     OW15019   1.165   0.659   5.328 -0.7975  0.7160 -0.1136
 1186SOL    HW115020   1.253   0.623   5.319 -0.9485  1.5458 -4.6391
 1186SOL    HW215021   1.183   0.747   5.294  1.2893  0.1491 -0.4624
 1187SOL     OW15022   0.628   1.843   5.639  0.3419 -0.0866 -0.0007
 1187SOL    HW115023   0.661   1.765   5.683  3.9371  0.3237 -1.9827
 1187SOL    HW215024   0.709   1.892   5.631  0.1385  0.5064  1.6897
 1188SOL     OW15025   0.752   0.852   6.568 -0.0721 -0.0012 -0.5308
 1188SOL    HW115026   0.817   0.907   6.524 -0.0831  0.7179  0.3626
 1188SOL    HW215027   0.771   0.859   6.661  1.1594  1.0005 -0.8496
 1189SOL     OW15028   1.794   2.681   1.739 -0.1618  0.2103  0.4337
 1189SOL    HW115029   1.850   2.638   1.673  0.9606 -1.9960  2.8208
 1189SOL    HW215030   1.706   2.666   1.704  0.2570  0.3127 -0.6745
 1190SOL     OW15031   2.409   4.123   5.389 -0.5431  0.0887 -0.0703
 1190SOL    HW115032   2.383   4.154   5.302  0.0794  0.0642 -0.2645
 1190SOL    HW215033   2.371   4.190   5.445  2.0139  1.6320 -0.1776
 1191SOL     OW15034   2.434   1.546   7.236 -0.0936 -0.5044 -0.6780
 1191SOL    HW115035   2.381   1.504   7.303  1.4703 -0.8168  0.3752
 1191SOL    HW215036   2.505   1.592   7.282 -0.4036 -0.0084 -0.7049
 1192SOL     OW15037   0.344   0.546  10.113 -0.6585  0.1201 -0.3981
 1192SOL    HW115038   0.261   0.551  10.160 -1.1148 -1.6310 -1.0186
 1192SOL    HW215039   0.405   0.512  10.179  0.8249 -1.1710 -2.4392
 1193SOL     OW15040   3.850   3.748   7.175 -0.0354  0.7082  0.4150
 1193SOL    HW115041   3.891   3.830   7.201  0.9138  0.0589  0.9498
 1193SOL    HW215042   3.847   3.767   7.081 -1.0291  0.1544  0.3361
 1194SOL     OW15043   3.303   3.071   6.096 -0.2369  0.7755  0.3411
 1194SOL    HW115044   3.240   3.031   6.037  0.5728 -0.2703  0.1890
 1194SOL    HW215045   3.388   3.039   6.064 -0.9817 -1.2175  0.4227
 1195SOL     OW15046   3.362   3.860  12.817 -0.1415 -0.1904  0.1656
 1195SOL    HW115047   3.278   3.884  12.778  0.0832  0.0957 -0.1397
 1195SOL    HW215048   3.412   3.939  12.797  0.5456 -0.2769  1.5513
 1196SOL     OW15049   3.762   2.764   1.801  0.0675 -0.3662  0.7240
 1196SOL    HW115050   3.801   2.722   1.725  1.3856 -0.0439  1.2191
 1196SOL    HW215051   3.805   2.849   1.795 -0.3006 -0.2129  0.3014
 1197SOL     OW15052   3.597   1.060  11.526 -0.5127  0.2228  1.1795
 1197SOL    HW115053   3.544   1.057  11.446 -0.8913  2.7843  1.3437
 1197SOL    HW215054   3.567   1.140  11.568 -0.8504 -0.3205  1.9701
 1198SOL     OW15055   2.926   1.834   2.830  0.6155  0.6343 -0.2544
 1198SOL    HW115056   2.844   1.870   2.796  0.8707  3.7288  2.3161
 1198SOL    HW215057   2.961   1.793   2.752  0.1874  0.2142 -0.2232
 1199SOL     OW15058   0.489   0.339   6.155  0.0335 -0.6359  0.5865
 1199SOL    HW115059   0.446   0.421   6.132  0.7707 -0.3861  0.0855
 1199SOL    HW215060   0.426   0.281   6.113  0.4938  1.0514 -2.4166
 1200SOL     OW15061   3.185   3.779   5.633  0.5677  0.7155  0.9824
 1200SOL    HW115062   3.133   3.798   5.555 -0.8677 -0.1728  1.7002
 1200SOL    HW215063   3.112   3.801   5.691 -0.7795 -0.4615 -0.2404
 1201SOL     OW15064   0.620   0.532   2.396  0.0612 -0.3192 -0.2002
 1201SOL    HW115065   0.602   0.439   2.385  0.2532 -0.1116 -2.2430
 1201SOL    HW215066   0.542   0.570   2.355 -1.4398 -1.4740  1.5821
 1202SOL     OW15067   2.898   2.993  14.669  0.1518 -0.2888 -0.2167
 1202SOL    HW115068   2.918   3.019  14.579  5.5913  3.8170  2.1422
 1202SOL    HW215069   2.859   2.908  14.651 -2.1317  0.7678 -0.2953
 1203SOL     OW15070   1.345   3.419   1.028 -0.3555 -0.3096 -0.1850
 1203SOL    HW115071   1.403   3.440   0.954 -1.1862 -0.5997 -0.9140
 1203SOL    HW215072   1.266   3.410   0.974 -2.5398  2.4305  2.5780
 1204SOL     OW15073   2.394   2.566   8.239  0.1142 -0.6107 -0.2085
 1204SOL    HW115074   2.429   2.653   8.260  2.1606 -2.1322  2.7216
 1204SOL    HW215075   2.314   2.568   8.290  0.4011  0.2045  0.2019
 1205SOL     OW15076   2.125   1.707   9.823 -0.4421  0.6227 -0.1780
 1205SOL    HW115077   2.113   1.674   9.912  0.2111 -0.6068 -0.5346
 1205SOL    HW215078   2.177   1.638   9.781  0.9819  1.1667  0.6783
 1206SOL     OW15079   2.437   4.059   4.049  0.1660 -0.3369  0.1759
 1206SOL    HW115080   2.383   4.110   4.110  0.2571  0.8792 -0.7663
 1206SOL    HW215081   2.397   4.076   3.964 -2.5271 -1.2576  1.2555
 1207SOL     OW15082   1.705   1.531   3.994  0.2737 -0.1070  0.0260
 1207SOL    HW115083   1.738   1.621   3.983  1.2596 -0.7536 -2.2815
 1207SOL    HW215084   1.719   1.515   3.901  1.4479 -1.5850  0.4649
 1208SOL     OW15085   0.025   1.559   5.441  0.3528  0.0133  0.5995
 1208SOL    HW115086   0.107   1.567   5.393 -0.4880  4.2022 -0.1420
 1208SOL    HW215087   0.012   1.653   5.454 -2.1423 -0.2197 -0.2197
 1209SOL     OW15088   3.477   3.677   0.963  0.1969  0.0760  0.1368
 1209SOL    HW115089   3.481   3.675   0.868  0.3115 -3.6550  0.2195
 1209SOL    HW215090   3.524   3.757   0.987  0.1691  0.3505 -0.7395
 1210SOL     OW15091   0.840   0.390   7.112  0.0298 -0.1063  0.2298
 1210SOL    HW115092   0.833   0.295   7.107 -1.1263  0.1562 -2.9302
 1210SOL    HW215093   0.748   0.407   7.132  0.3677  2.2764 -0.2539
 1211SOL     OW15094   3.759   2.818  10.697  0.3157  0.1383  1.0986
 1211SOL    HW115095   3.684   2.874  10.719 -0.4407  0.0867 -1.3686
 1211SOL    HW215096   3.830   2.833  10.758  0.2535 -1.0260  1.4590
 1212SOL     OW15097   4.179   1.495   5.447  0.3421 -0.5707  0.1914
 1212SOL    HW115098   4.268   1.477   5.479  0.6734  0.4599 -0.1400
 1212SOL    HW215099   4.135   1.414   5.472  0.2088 -0.9996 -1.3978
 1213SOL     OW15100   1.586   0.788  11.943 -0.0976  0.5393  0.0218
 1213SOL    HW115101   1.561   0.874  11.908  0.6794  1.5753  2.0131
 1213SOL    HW215102   1.672   0.802  11.983  0.0952 -0.9251  0.1126
 1214SOL     OW15103   3.456   2.096   5.468 -0.4646 -0.2084  0.5145
 1214SOL    HW115104   3.400   2.081   5.544  0.5795  0.2717  1.3816
 1214SOL    HW215105   3.411   2.048   5.399  0.5655  1.8017 -1.5797
 1215SOL     OW15106   2.219   4.569  11.115 -0.2577 -0.2635  0.0089
 1215SOL    HW115107   2.266   4.525  11.186 -1.3516 -1.9909 -0.3224
 1215SOL    HW215108   2.289   4.617  11.072 -0.4632  0.2321  0.2258
 1216SOL     OW15109   0.072   3.994   4.359 -0.5629  0.0221  0.4877
 1216SOL    HW115110   4.701   3.987   4.344  0.2326 -2.9852 -2.9953
 1216SOL    HW215111   0.084   3.934   4.433 -1.5268 -4.2744 -2.8914
 1217SOL     OW15112   1.808   4.671   0.607  0.4136  0.2680  0.4622
 1217SOL    HW115113   1.795   0.031   0.653  1.1211 -0.8276  2.6549
 1217SOL    HW215114   1.807   4.711   0.520 -2.5216  3.0460  1.7523
 1218SOL     OW15115   0.588   0.934  12.129 -0.2792 -0.0475 -0.0865
 1218SOL    HW115116   0.642   0.943  12.208  1.6190  1.3658 -1.5394
 1218SOL    HW215117   0.628   0.850  12.105 -1.8224 -1.2179  1.4536
 1219SOL     OW15118   1.382   4.222   3.594 -0.1486  0.1944 -0.0785
 1219SOL    HW115119   1.361   4.307   3.632  1.4976  0.6378 -0.1573
 1219SOL    HW215120   1.385   4.246   3.502 -0.9552  1.7221  0.3076
 1220SOL     OW15121   1.780   2.726  14.701 -0.3859  0.0603  0.0103
 1220SOL    HW115122   1.814   2.639  14.683 -2.6610 -0.6623 -0.8178
 1220SOL    HW215123   1.730   2.742  14.620 -4.0789 -0.7196  2.1319
 1221SOL     OW15124   4.531   0.797   4.484  0.2177 -0.0302  0.1743
 1221SOL    HW115125   4.449   0.761   4.451  1.1149 -2.5765  0.6586
 1221SOL    HW215126   4.520   0.876   4.431 -0.8181 -1.2322 -1.3974
 1222SOL     OW15127   2.016   1.626  10.065  0.4054  0.3625 -0.3321
 1222SOL    HW115128   1.928   1.610  10.098  0.1220  0.5935 -0.9617
 1222SOL    HW215129   2.070   1.600  10.139  0.0189 -0.7790 -0.4461
 1223SOL     OW15130   3.971   1.630   3.988 -0.3627 -0.4986  0.5446
 1223SOL    HW115131   3.983   1.584   4.071  1.5034 -2.7700 -0.9927
 1223SOL    HW215132   4.033   1.581   3.935 -0.5961 -0.2377  0.0271
 1224SOL     OW15133   3.076   2.685   4.554  0.0155  0.0687 -0.2482
 1224SOL    HW115134   3.108   2.604   4.514  2.2505  1.1281 -0.6471
 1224SOL    HW215135   3.037   2.637   4.626  1.2194  0.5956  0.7520
 1225SOL     OW15136   3.970   1.486  14.512 -0.4953 -0.8016  0.0368
 1225SOL    HW115137   4.062   1.506  14.494  0.3758 -1.1895  4.2740
 1225SOL    HW215138   3.988   1.396  14.538 -0.4990 -0.2702  1.8467
 1226SOL     OW15139   0.329   1.333   1.358 -0.3209 -0.5386 -0.1509
 1226SOL    HW115140   0.328   1.415   1.407  1.8396 -1.4906  1.4649
 1226SOL    HW215141   0.351   1.281   1.436  0.2205 -2.4499 -1.5689
 1227SOL     OW15142   1.111   2.935  13.711  0.2156  0.2044 -0.3076
 1227SOL    HW115143   1.018   2.950  13.696  0.1142 -0.4130 -0.2928
 1227SOL    HW215144   1.123   2.949  13.805  1.7057  1.3169 -0.6630
 1228SOL     OW15145   4.149   1.237   4.433 -0.0548 -0.5068  0.4370
 1228SOL    HW115146   4.056   1.256   4.418 -0.1038 -0.9782  0.1543
 1228SOL    HW215147   4.181   1.293   4.504  0.6884 -2.0855  1.3293
 1229SOL     OW15148   3.354   0.877  17.653  0.2940  0.0677  0.0920
 1229SOL    HW115149   3.297   0.941  17.697 -1.3432 -1.7088  0.5951
 1229SOL    HW215150   3.352   0.803   0.017  1.9132  0.7644  0.9895
 1230SOL     OW15151   3.517   1.251   0.130  0.0919 -0.9534  0.6240
 1230SOL    HW115152   3.545   1.297   0.209 -2.5709 -2.2374  2.3099
 1230SOL    HW215153   3.464   1.180   0.164 -0.3972 -0.5319  0.7460
 1231SOL     OW15154   0.427   1.937   8.618  0.2307  0.3355 -0.2938
 1231SOL    HW115155   0.389   2.023   8.635 -2.1949 -0.6736 -0.6117
 1231SOL    HW215156   0.472   1.949   8.534  2.1564 -0.5882  0.6021
 1232SOL     OW15157   3.356   1.266   4.484 -0.0937 -0.0340  0.1544
 1232SOL    HW115158   3.412   1.306   4.550 -0.6161 -1.3653  1.4007
 1232SOL    HW215159   3.410   1.266   4.404 -0.1098  0.1482  0.1435
 1233SOL     OW15160   4.090   2.331   6.122  0.4080 -0.1846 -0.7752
 1233SOL    HW115161   3.998   2.357   6.129  0.4504 -0.0500 -0.7013
 1233SOL    HW215162   4.075   2.238   6.107 -2.6371  0.5155 -2.1685
 1234SOL     OW15163   2.263   4.723   8.151 -0.0025 -0.5669 -0.2477
 1234SOL    HW115164   2.291   4.698   8.063  1.6983 -1.0058  0.4364
 1234SOL    HW215165   2.320   4.673   8.209 -1.3068 -1.8509 -0.0528
 1235SOL     OW15166   2.168   0.250   4.980  0.4577  0.0464 -1.0319
 1235SOL    HW115167   2.199   0.207   5.060 -0.7243 -0.1601 -0.6836
 1235SOL    HW215168   2.074   0.260   4.991  0.6427  1.0411 -0.2550
 1236SOL     OW15169   1.085   1.063   6.967 -0.2735  0.3114 -0.1327
 1236SOL    HW115170   1.123   0.976   6.982 -3.1744 -0.6834  1.4384
 1236SOL    HW215171   1.050   1.052   6.879  0.6800  1.3125 -0.6287
 1237SOL     OW15172   1.272   2.033  11.822  0.0896  0.1159 -0.3516
 1237SOL    HW115173   1.190   2.082  11.825 -0.6310 -1.0635 -0.6581
 1237SOL    HW215174   1.283   2.028  11.917  1.7003  1.9680 -0.4432
 1238SOL     OW15175   1.309   4.219   0.648 -0.0202 -0.2294 -0.1253
 1238SOL    HW115176   1.403   4.235   0.636 -0.1344 -0.8341 -1.9346
 1238SOL    HW215177   1.289   4.157   0.577 -0.5533 -0.0849 -0.1009
 1239SOL     OW15178   0.903   4.497  16.131 -0.1262 -0.0223 -0.0212
 1239SOL    HW115179   0.950   4.433  16.078  0.1347  0.5947 -0.5299
 1239SOL    HW215180   0.860   4.440  16.195 -0.4460  0.9975  0.6738
 1240SOL     OW15181   4.068   1.207   7.907 -0.2116  0.0498  0.0465
 1240SOL    HW115182   3.995   1.226   7.849 -0.6884  1.9530  1.2681
 1240SOL    HW215183   4.140   1.222   7.846 -1.6433 -1.8921 -2.0947
 1241SOL     OW15184   0.462   4.601   7.535 -0.2592  0.9880 -0.1111
 1241SOL    HW115185   0.500   4.688   7.520  0.1547  0.7529 -0.4189
 1241SOL    HW215186   0.527   4.562   7.594 -0.4027 -0.3832 -0.8623
 1242SOL     OW15187   1.669   2.672  10.711  0.2827 -0.6857 -0.0927
 1242SOL    HW115188   1.646   2.608  10.779 -1.0590 -0.2061 -0.1154
 1242SOL    HW215189   1.738   2.631  10.659  0.8891  1.8970 -1.3259
 1243SOL     OW15190   1.352   1.707  11.503  0.4245 -0.0475 -0.0155
 1243SOL    HW115191   1.333   1.619  11.469  1.3212 -1.4156  3.0563
 1243SOL    HW215192   1.327   1.704  11.595  0.1952  3.6359  0.0521
 1244SOL     OW15193   0.537   2.246  15.256 -0.1922 -0.1713  1.1545
 1244SOL    HW115194   0.447   2.227  15.282  1.0140 -1.4855  4.3780
 1244SOL    HW215195   0.540   2.268  15.163  0.0828  0.5555  1.3373
 1245SOL     OW15196   0.839   0.243   9.105  0.0073  0.0719  0.0640
 1245SOL    HW115197   0.766   0.239   9.044  1.1422 -0.6268 -1.2381
 1245SOL    HW215198   0.905   0.216   9.042  1.5375  2.4810  0.6562
 1246SOL     OW15199   3.310   3.924   2.479 -0.5463 -0.1323 -0.6340
 1246SOL    HW115200   3.314   3.829   2.488  0.0772 -0.1800 -1.4155
 1246SOL    HW215201   3.393   3.942   2.434  0.4512 -0.0175  1.2339
 1247SOL     OW15202   0.172   0.150   7.186  0.2097 -0.2888  0.5396
 1247SOL    HW115203   0.258   0.165   7.148 -0.9775  0.8617 -1.7312
 1247SOL    HW215204   0.186   0.125   7.277  2.8562 -2.7975 -0.5611
 1248SOL     OW15205   3.434   0.453   6.648 -0.5549  0.3195  0.0922
 1248SOL    HW115206   3.528   0.455   6.631 -0.6217 -0.9998 -0.4348
 1248SOL    HW215207   3.404   0.534   6.607  0.0966  0.5584  0.1024
 1249SOL     OW15208   4.425   0.879   1.775  0.4096  0.2195  0.1730
 1249SOL    HW115209   4.415   0.922   1.860 -0.8323 -0.4827  0.3956
 1249SOL    HW215210   4.492   0.815   1.797 -1.8225 -2.6845 -1.3483
 1250SOL     OW15211   0.529   3.621   1.210  0.6991 -0.1436 -0.0198
 1250SOL    HW115212   0.622   3.598   1.203  0.2989 -1.3026 -1.5604
 1250SOL    HW215213   0.497   3.539   1.248 -0.1390 -0.4825 -1.4772
 1251SOL     OW15214   1.153   2.711   5.545 -0.2267  0.1173 -0.1264
 1251SOL    HW115215   1.200   2.762   5.479 -0.3342  0.7573  0.2911
 1251SOL    HW215216   1.204   2.723   5.625 -0.0289  0.1071 -0.2500
 1252SOL     OW15217   2.494   3.531   4.793 -0.1233 -0.3327 -0.5717
 1252SOL    HW115218   2.497   3.442   4.829  1.9262  0.3503  0.9285
 1252SOL    HW215219   2.404   3.528   4.759  0.1642  1.4799 -1.4765
 1253SOL     OW15220   1.059   2.962  13.977 -0.5683  0.2343 -0.5863
 1253SOL    HW115221   1.029   3.051  13.960 -2.4241 -0.5001 -1.0593
 1253SOL    HW215222   0.986   2.926  14.027 -0.6813 -0.0944 -0.9881
 1254SOL     OW15223   1.227   0.754   4.531  0.1916  0.1266  0.4575
 1254SOL    HW115224   1.152   0.775   4.588 -1.0099 -1.7523 -0.4237
 1254SOL    HW215225   1.179   0.728   4.453 -0.7830  3.3983 -0.0470
 1255SOL     OW15226   1.491   1.227  11.985  0.6146  0.3558  0.4552
 1255SOL    HW115227   1.429   1.298  11.966  0.1840 -0.0565  0.3253
 1255SOL    HW215228   1.546   1.268  12.051  0.5094  0.6672  0.3529
 1256SOL     OW15229   1.974   3.114   4.666  0.4032 -0.3208  0.3986
 1256SOL    HW115230   1.912   3.167   4.716  1.1200  0.7727  0.1427
 1256SOL    HW215231   2.000   3.047   4.728 -2.4405 -1.0245  0.8393
 1257SOL     OW15232   0.316   0.790   6.772 -0.0293 -0.3061 -0.1769
 1257SOL    HW115233   0.235   0.842   6.773  0.8163  0.9148  2.3343
 1257SOL    HW215234   0.386   0.855   6.780 -0.1467  0.0576 -2.0737
 1258SOL     OW15235   4.463   2.053  17.072  0.2655  0.6576  0.1234
 1258SOL    HW115236   4.501   2.127  17.024  0.8235  0.2545 -0.0521
 1258SOL    HW215237   4.538   2.031  17.128  0.1987  0.8457  0.2907
 1259SOL     OW15238   0.965   3.227   6.273  0.1974 -0.3569  0.2026
 1259SOL    HW115239   1.038   3.228   6.211 -0.1985 -1.5036 -0.2714
 1259SOL    HW215240   0.996   3.181   6.351 -0.8435  0.2585  0.9744
 1260SOL     OW15241   3.229   1.606   7.290  0.2200 -0.1742  0.3569
 1260SOL    HW115242   3.247   1.515   7.268  0.7502 -0.3880  1.6850
 1260SOL    HW215243   3.302   1.623   7.349  0.8619 -2.4259  0.2292
 1261SOL     OW15244   4.063   3.133   6.788  0.3932  0.2140  0.3102
 1261SOL    HW115245   4.148   3.135   6.744  0.4171 -0.1744  0.3428
 1261SOL    HW215246   4.003   3.120   6.714  1.8601 -3.7741 -0.1825
 1262SOL     OW15247   2.273   1.576   8.726 -0.2254 -0.2372 -0.2938
 1262SOL    HW115248   2.182   1.597   8.748  0.4907  2.3521  0.1989
 1262SOL    HW215249   2.296   1.631   8.651 -2.5403  3.7085  1.8830
 1263SOL     OW15250   2.026   4.452   2.379  0.0978  0.3732  0.1964
 1263SOL    HW115251   2.002   4.364   2.349 -0.3938  0.3145  0.7592
 1263SOL    HW215252   2.114   4.444   2.344  0.3056 -0.7100  0.9819
 1264SOL     OW15253   0.152   3.701  14.877  0.2022 -0.0928  0.1722
 1264SOL    HW115254   0.105   3.716  14.959  1.4655 -0.2961  0.9266
 1264SOL    HW215255   0.170   3.793  14.856 -1.3290  0.2404  0.2874
 1265SOL     OW15256   4.704   0.327  14.394 -0.0136 -0.1757 -0.0043
 1265SOL    HW115257   4.674   0.244  14.431  0.9209  0.0497  1.2490
 1265SOL    HW215258   0.020   0.367  14.471  1.2672  0.2429 -0.8796
 1266SOL     OW15259   1.465   3.838   8.518  0.5160 -0.3628 -0.4204
 1266SOL    HW115260   1.397   3.793   8.569  1.2439 -0.9270  0.0444
 1266SOL    HW215261   1.415   3.904   8.470 -0.6049 -0.3727  0.7029
 1267SOL     OW15262   4.235   0.783   0.016  0.7676 -0.3348 -0.0202
 1267SOL    HW115263   4.224   0.708   0.074 -0.5235  0.1104  0.3061
 1267SOL    HW215264   4.317   0.765  17.667  1.4071  1.7155  0.3299
 1268SOL     OW15265   3.379   4.646  12.120 -0.2227 -0.1035  0.0053
 1268SOL    HW115266   3.443   4.642  12.050 -2.0135  0.3481 -1.6586
 1268SOL    HW215267   3.423   4.697  12.188 -1.5240  0.5358  0.3646
 1269SOL     OW15268   3.106   3.818  12.654 -0.1144 -0.0600  0.6523
 1269SOL    HW115269   3.019   3.802  12.691 -0.0329  1.3396  1.4388
 1269SOL    HW215270   3.111   3.729  12.620 -2.4918 -0.6775  1.9686
 1270SOL     OW15271   2.594   0.216  16.000  0.1760  0.3109  0.2466
 1270SOL    HW115272   2.645   0.211  16.081  0.9903  1.1637 -0.2111
 1270SOL    HW215273   2.503   0.228  16.025  0.4220 -1.8439  2.1793
 1271SOL     OW15274   2.997   2.234   4.593  0.2300  0.6025  1.0574
 1271SOL    HW115275   2.950   2.153   4.613 -0.3905  0.5807 -0.5213
 1271SOL    HW215276   2.969   2.285   4.669 -0.6301  0.0752  1.0873
 1272SOL     OW15277   0.828   3.624  15.114  0.6680  0.2108 -0.4723
 1272SOL    HW115278   0.819   3.529  15.099 -0.7457  0.0943  1.0857
 1272SOL    HW215279   0.818   3.625  15.209 -3.3618 -1.4762 -0.8593
 1273SOL     OW15280   1.594   3.474   0.496 -0.0821  0.4342  0.3627
 1273SOL    HW115281   1.620   3.547   0.440  1.5148 -0.1534  0.3528
 1273SOL    HW215282   1.581   3.414   0.422 -1.1318  0.0763  0.8370
 1274SOL     OW15283   3.052   1.547  13.688 -0.1495 -0.2258  0.1755
 1274SOL    HW115284   2.969   1.561  13.733 -0.6264  0.5358 -0.9587
 1274SOL    HW215285   3.069   1.456  13.713 -1.0502 -0.9569 -1.9122
 1275SOL     OW15286   1.865   2.575   9.343  0.0511  0.0786  0.0978
 1275SOL    HW115287   1.816   2.511   9.292 -0.8118  1.1664 -0.4376
 1275SOL    HW215288   1.851   2.648   9.283 -1.2003  0.5453  0.9526
 1276SOL     OW15289   2.086   2.962   6.747 -0.1480 -0.3293 -0.5078
 1276SOL    HW115290   2.163   2.978   6.692  0.8779 -1.5087  0.6001
 1276SOL    HW215291   2.077   3.051   6.778  1.2218 -0.8591  1.3781
 1277SOL     OW15292   2.171   3.435   7.614  0.3926  0.1434 -0.6935
 1277SOL    HW115293   2.233   3.450   7.543  0.4999  1.1653 -0.3824
 1277SOL    HW215294   2.198   3.508   7.669 -2.4102 -1.0936  2.3779
 1278SOL     OW15295   0.322   1.889   8.963 -0.1335  0.5780  0.1132
 1278SOL    HW115296   0.335   1.869   9.056 -3.0352  0.4623  0.5084
 1278SOL    HW215297   0.275   1.973   8.966 -0.3188  0.5031 -0.6781
 1279SOL     OW15298   1.982   1.824   4.111  0.4458  0.0634 -0.8443
 1279SOL    HW115299   1.925   1.785   4.045  0.5221  0.5753 -1.2133
 1279SOL    HW215300   2.036   1.752   4.146  2.2393  1.9382  0.2559
 1280SOL     OW15301   4.438   0.572   8.607 -0.4609 -0.1676  0.1187
 1280SOL    HW115302   4.394   0.523   8.676 -0.6899 -0.3578 -0.1590
 1280SOL    HW215303   4.474   0.641   8.663 -2.3933 -0.3236  1.5469
 1281SOL     OW15304   3.157   3.926  11.816 -0.0962  0.1134  0.5799
 1281SOL    HW115305   3.101   3.887  11.749  0.0749 -0.5611  0.8365
 1281SOL    HW215306   3.104   3.984  11.872 -0.7997 -0.5624  0.6138
 1282SOL     OW15307   2.914   3.243  16.837  0.9439 -0.5103  0.4180
 1282SOL    HW115308   2.824   3.259  16.863  0.8340 -2.9797  1.5698
 1282SOL    HW215309   2.938   3.169  16.892  1.5430 -1.8143 -1.5673
 1283SOL     OW15310   0.310   1.613   5.570  0.6415 -0.0825  0.2644
 1283SOL    HW115311   0.318   1.565   5.488 -1.6986  0.8466 -0.4808
 1283SOL    HW215312   0.276   1.698   5.545  0.8227 -0.2005 -0.3705
 1284SOL     OW15313   3.570   1.390   0.644 -0.0449 -0.1217 -0.0745
 1284SOL    HW115314   3.486   1.413   0.684 -0.2474  0.7295 -0.9905
 1284SOL    HW215315   3.633   1.426   0.706  0.0714  0.3475 -0.4658
 1285SOL     OW15316   2.103   0.457   6.446 -0.0402  0.6235 -0.1966
 1285SOL    HW115317   2.140   0.446   6.359  0.5451 -2.1053  0.4037
 1285SOL    HW215318   2.175   0.481   6.505  1.9979 -3.0432 -1.2145
 1286SOL     OW15319   4.258   2.532   7.796  0.5118  0.7644  0.0190
 1286SOL    HW115320   4.232   2.605   7.853 -2.1183 -0.4169  0.3421
 1286SOL    HW215321   4.353   2.532   7.806  0.5964 -0.5861 -0.8692
 1287SOL     OW15322   0.093   4.534  10.880  0.6980 -0.0904 -0.2875
 1287SOL    HW115323   0.013   4.578  10.911  0.6641 -0.2304 -0.1763
 1287SOL    HW215324   0.147   4.561  10.955  1.6733 -2.4815 -0.1183
 1288SOL     OW15325   2.878   3.292   2.553  0.0004  0.0972 -0.0985
 1288SOL    HW115326   2.970   3.299   2.528 -0.0860 -2.6505 -1.0751
 1288SOL    HW215327   2.835   3.304   2.469  0.1005 -0.7965 -0.2758
 1289SOL     OW15328   0.721   1.161  14.056 -0.2448 -0.3900  0.1818
 1289SOL    HW115329   0.635   1.192  14.028 -0.3789  1.2786  2.4217
 1289SOL    HW215330   0.777   1.215  14.001  0.6216 -1.6360 -0.1430
 1290SOL     OW15331   2.444   3.410  16.128  0.0694  0.2039 -0.6029
 1290SOL    HW115332   2.360   3.437  16.164  0.1761 -0.3100  0.0267
 1290SOL    HW215333   2.468   3.485  16.073 -0.4221  0.5685 -0.3143
 1291SOL     OW15334   4.595   3.487   1.171  0.6538  0.2208 -0.1829
 1291SOL    HW115335   4.640   3.540   1.105  0.5783  2.7295  1.8061
 1291SOL    HW215336   4.507   3.493   1.132  0.4441 -0.2980  0.2117
 1292SOL     OW15337   3.572   4.216  14.206 -0.0228  0.1777  0.4791
 1292SOL    HW115338   3.600   4.308  14.210 -2.2933  0.8718  0.6626
 1292SOL    HW215339   3.522   4.230  14.125 -0.4876  0.2075  0.7705
 1293SOL     OW15340   0.624   0.320   7.925  0.0045  0.3841  0.0241
 1293SOL    HW115341   0.683   0.300   7.997  0.5785 -3.6744 -1.6112
 1293SOL    HW215342   0.597   0.405   7.962 -1.3817  0.1992 -0.5525
 1294SOL     OW15343   2.754   1.443   9.564  0.2412  0.0042  0.6389
 1294SOL    HW115344   2.795   1.446   9.477 -1.1228  2.4737  0.0768
 1294SOL    HW215345   2.754   1.537   9.584 -0.8814  0.1442  0.0117
 1295SOL     OW15346   0.093   4.110  13.954  0.0022 -0.6772 -0.2269
 1295SOL    HW115347   0.123   4.019  13.948 -1.8315 -1.4738  2.4252
 1295SOL    HW215348   0.098   4.134  13.861 -2.0730  1.5120  0.2434
 1296SOL     OW15349   0.068   2.152  17.075 -0.4213 -0.5955 -0.1702
 1296SOL    HW115350   0.018   2.094  17.132 -0.8804 -2.3918 -2.4088
 1296SOL    HW215351   4.717   2.211  17.066  0.2984  0.2280 -0.7851
 1297SOL     OW15352   0.968   2.492   3.393  0.4660 -0.0531 -0.0294
 1297SOL    HW115353   0.906   2.541   3.446  2.2698 -0.6948  2.6872
 1297SOL    HW215354   0.931   2.412   3.357  1.8810 -1.0806  0.7855
 1298SOL     OW15355   2.502   2.092   9.264  0.0226 -0.2989  0.7073
 1298SOL    HW115356   2.432   2.121   9.321 -0.3341 -0.5079  0.3753
 1298SOL    HW215357   2.584   2.109   9.311 -1.0496 -1.1617  2.8624
 1299SOL     OW15358   4.647   1.589   1.740  0.5096  0.2309 -0.5960
 1299SOL    HW115359   0.007   1.553   1.711  1.6159  0.1780  2.7215
 1299SOL    HW215360   4.600   1.509   1.714  0.1436 -0.1641  1.3136
 1300SOL     OW15361   3.446   2.414  14.809 -0.0554 -0.0905  0.2396
 1300SOL    HW115362   3.415   2.336  14.855 -0.7988  0.3833  0.5295
 1300SOL    HW215363   3.428   2.394  14.717  1.9344  1.9373 -0.5964
 1301SOL     OW15364   4.432   2.728   4.309  0.7396 -0.1443 -0.7589
 1301SOL    HW115365   4.477   2.652   4.272  0.4232 -0.5294 -0.3503
 1301SOL    HW215366   4.499   2.796   4.309  1.9253 -1.3066  0.1887
 1302SOL     OW15367   1.495   3.888   3.833 -0.4014  0.2920  0.1524
 1302SOL    HW115368   1.502   3.795   3.855 -1.6540  1.0868  4.0729
 1302SOL    HW215369   1.496   3.943   3.912  0.2276 -0.4345  0.6476
 1303SOL     OW15370   3.317   0.164   7.307 -0.3057 -0.1893 -0.4604
 1303SOL    HW115371   3.223   0.149   7.298 -0.0095 -1.2826 -1.7381
 1303SOL    HW215372   3.337   0.158   7.400 -0.6426  2.7820 -0.2035
 1304SOL     OW15373   0.045   1.670   8.940  0.7251 -0.1747 -1.0291
 1304SOL    HW115374   0.109   1.607   8.973  0.1425  0.0966  0.6423
 1304SOL    HW215375   0.074   1.751   8.983  0.2847 -1.4526  1.6730
 1305SOL     OW15376   1.579   2.532   9.563  0.3824  0.1130 -0.3658
 1305SOL    HW115377   1.559   2.593   9.492 -2.0779 -1.4185 -1.0105
 1305SOL    HW215378   1.608   2.595   9.628  0.1650 -0.3639  0.2021
 1306SOL     OW15379   1.994   1.999   8.017 -0.0004 -0.2649 -0.1750
 1306SOL    HW115380   2.034   2.018   8.101 -0.0776  1.5924 -0.5577
 1306SOL    HW215381   1.960   1.910   8.031 -0.1288  0.0274  1.2994
 1307SOL     OW15382   2.290   2.164   4.048  0.1062  0.0901 -0.1799
 1307SOL    HW115383   2.209   2.129   4.085 -0.0037 -0.0876 -0.5872
 1307SOL    HW215384   2.350   2.099   4.085  3.3668  2.4053 -1.4255
 1308SOL     OW15385   0.373   0.065   9.174  0.0847 -0.4448 -0.5264
 1308SOL    HW115386   0.445   0.031   9.120  2.6468 -0.6839  3.0102
 1308SOL    HW215387   0.302   0.003   9.158  0.1139 -1.4735  3.3111
 1309SOL     OW15388   2.334   1.086   7.787  0.2609 -0.1092  0.4186
 1309SOL    HW115389   2.332   0.998   7.826  1.2029  0.2987  1.3746
 1309SOL    HW215390   2.383   1.075   7.706 -0.3541 -1.0098  0.1608
 1310SOL     OW15391   4.043   3.583   3.801  0.1114  0.6307 -0.0989
 1310SOL    HW115392   4.127   3.616   3.833 -0.3803  0.2402  1.6004
 1310SOL    HW215393   3.999   3.667   3.787 -1.8874 -0.5210 -0.6795
 1311SOL     OW15394   1.473   0.438   6.511  0.3462  0.5256  0.4505
 1311SOL    HW115395   1.505   0.390   6.435  0.3535  0.2745  0.6114
 1311SOL    HW215396   1.399   0.388   6.546 -0.1832  0.6795 -0.4569
 1312SOL     OW15397   2.518   3.380   2.443 -0.4208 -0.4664  0.3199
 1312SOL    HW115398   2.456   3.310   2.425 -3.2612  1.3545  2.8917
 1312SOL    HW215399   2.489   3.412   2.529 -0.8627 -0.5347  0.1932
 1313SOL     OW15400   1.543   1.578   4.219 -0.1459  0.1533 -0.0106
 1313SOL    HW115401   1.540   1.519   4.294  0.3843  0.5054  0.2882
 1313SOL    HW215402   1.604   1.546   4.153 -1.5839  0.6170 -1.5375
 1314SOL     OW15403   0.560   2.621  13.142 -0.3958 -0.9934 -0.5515
 1314SOL    HW115404   0.551   2.526  13.149 -1.4522 -0.7078  1.9490
 1314SOL    HW215405   0.469   2.650  13.140 -0.0595  0.1285  0.1646
 1315SOL     OW15406   0.303   1.143   8.193 -0.0311  0.4969 -0.6190
 1315SOL    HW115407   0.369   1.206   8.223  0.4300 -0.0746 -0.4410
 1315SOL    HW215408   0.334   1.066   8.240 -0.4890  1.0543  0.6086
 1316SOL     OW15409   1.539   3.884   3.041 -0.2936  0.7845  0.3233
 1316SOL    HW115410   1.492   3.801   3.046  0.2700  0.4238 -0.3304
 1316SOL    HW215411   1.612   3.866   3.101  0.3517  0.8603 -0.4410
 1317SOL     OW15412   1.807   3.520   0.203 -0.1165 -0.4020  0.3366
 1317SOL    HW115413   1.743   3.475   0.148  0.5525  0.1839 -0.9146
 1317SOL    HW215414   1.749   3.581   0.249 -0.8894 -1.3654  0.6271
 1318SOL     OW15415   0.978   1.068   2.954  0.2314 -0.0631 -0.6818
 1318SOL    HW115416   1.065   1.059   2.915 -0.4032  2.2405 -2.5958
 1318SOL    HW215417   0.940   1.129   2.891  1.0170 -1.0796 -2.1420
 1319SOL     OW15418   4.405   2.480  13.625 -0.3971 -0.2000  0.0320
 1319SOL    HW115419   4.344   2.445  13.690 -2.4535  2.5804 -0.4125
 1319SOL    HW215420   4.359   2.549  13.577  3.4512  2.3658  0.0265
 1320SOL     OW15421   1.873   3.702   3.618  0.0312 -0.2268  0.2089
 1320SOL    HW115422   1.838   3.634   3.561 -1.3414 -0.9954  1.9650
 1320SOL    HW215423   1.825   3.686   3.700  1.3187 -0.4626  0.9185
 1321SOL     OW15424   0.447   4.522   5.662 -0.2711  0.5168 -0.5597
 1321SOL    HW115425   0.449   4.564   5.575 -1.3455  2.0102  0.1305
 1321SOL    HW215426   0.401   4.443   5.636 -1.8158  1.8704 -1.9433
 1322SOL     OW15427   1.482   4.641   8.433 -0.0539  0.2491  0.0880
 1322SOL    HW115428   1.479   0.003   8.475 -1.9414 -0.3751  1.2043
 1322SOL    HW215429   1.542   4.651   8.359  0.2793  0.2926  0.3626
 1323SOL     OW15430   1.327   1.160   7.700  0.2396 -0.8034 -0.6371
 1323SOL    HW115431   1.293   1.146   7.611  0.8953  0.2376 -1.0491
 1323SOL    HW215432   1.264   1.220   7.739  1.3518  1.0008 -1.6262
 1324SOL     OW15433   2.771   2.962   4.253 -0.1087  0.5250 -0.4226
 1324SOL    HW115434   2.744   2.923   4.171  0.8728 -1.2530  0.0964
 1324SOL    HW215435   2.768   3.057   4.242  0.8739  0.3705 -1.9618
 1325SOL     OW15436   3.780   0.508   0.370  0.3049  0.0414 -0.0037
 1325SOL    HW115437   3.789   0.548   0.457 -0.3310  1.9890 -0.8343
 1325SOL    HW215438   3.854   0.448   0.364  0.1998 -0.1410  0.5131
 1326SOL     OW15439   0.157   3.332   3.413  0.0928 -0.4260  0.6758
 1326SOL    HW115440   0.115   3.307   3.495 -0.5920 -3.1421 -0.5118
 1326SOL    HW215441   0.154   3.426   3.428 -1.7771 -0.2054 -1.1238
 1327SOL     OW15442   0.331   4.449   1.426 -0.0152 -0.4515 -0.1606
 1327SOL    HW115443   0.335   4.382   1.358  0.3245 -1.5590  0.9433
 1327SOL    HW215444   0.421   4.440   1.459 -0.0879  0.2073  0.2162
 1328SOL     OW15445   0.040   0.309  16.227  0.0319 -0.4369  0.3670
 1328SOL    HW115446   0.057   0.260  16.308 -0.9153  0.2013  0.9616
 1328SOL    HW215447   0.124   0.294  16.185  1.3634  1.5869  2.2738
 1329SOL     OW15448   1.571   2.147   4.222 -0.4420  0.5856 -0.2607
 1329SOL    HW115449   1.617   2.188   4.296  0.6307 -1.2391  0.0864
 1329SOL    HW215450   1.628   2.185   4.155 -0.0204  0.3939 -0.0125
 1330SOL     OW15451   3.546   4.431   3.720 -0.6590  0.2659 -0.2810
 1330SOL    HW115452   3.613   4.494   3.694 -2.2326  2.5752  1.1656
 1330SOL    HW215453   3.527   4.396   3.633  1.8564 -1.9167  0.0562
 1331SOL     OW15454   0.447   2.222   9.022  0.7856 -0.0347  0.0513
 1331SOL    HW115455   0.504   2.231   8.945  0.0089 -0.5590 -0.5987
 1331SOL    HW215456   0.508   2.196   9.091  1.3013  0.6242 -0.1654
 1332SOL     OW15457   2.732   3.564   2.766 -0.2343 -0.1423 -0.0347
 1332SOL    HW115458   2.706   3.649   2.731  0.4187 -0.4820 -1.3497
 1332SOL    HW215459   2.813   3.555   2.714  0.5851 -1.1892  1.4362
 1333SOL     OW15460   4.090   3.543   2.715 -0.1603  0.2891  0.1214
 1333SOL    HW115461   4.085   3.636   2.691  1.1915  0.8552  2.0663
 1333SOL    HW215462   4.015   3.513   2.663 -0.2039  0.4106  0.1142
 1334SOL     OW15463   1.804   0.334   9.543 -0.0821 -0.2103 -0.0394
 1334SOL    HW115464   1.737   0.270   9.519  2.5926 -1.7030 -3.4988
 1334SOL    HW215465   1.784   0.347   9.636 -0.3136 -0.4338 -0.0565
 1335SOL     OW15466   4.580   3.929  10.119 -0.0055  0.0617  0.4144
 1335SOL    HW115467   4.632   4.001  10.157  4.3636 -2.6850 -0.2844
 1335SOL    HW215468   4.653   3.871  10.097  0.0306 -0.8754  2.9419
 1336SOL     OW15469   1.452   3.725   1.155  0.2949 -0.1670  0.2289
 1336SOL    HW115470   1.443   3.706   1.061 -1.2505 -1.1914  0.5955
 1336SOL    HW215471   1.486   3.815   1.152  1.8671 -0.7341  1.3007
 1337SOL     OW15472   4.237   3.237  13.698  0.1963 -0.1666  0.1924
 1337SOL    HW115473   4.285   3.161  13.731 -1.3549 -2.3092 -2.4838
 1337SOL    HW215474   4.214   3.288  13.776 -0.0085 -1.8067  1.1962
 1338SOL     OW15475   1.179   1.777   3.798 -0.4387 -0.2574 -0.4474
 1338SOL    HW115476   1.269   1.756   3.820  0.0262  0.6990 -1.4415
 1338SOL    HW215477   1.133   1.754   3.878  0.0746  0.8118  0.1467
 1339SOL     OW15478   3.464   2.291   8.668 -0.7040  0.0486  0.0331
 1339SOL    HW115479   3.468   2.383   8.644  0.9924  0.0134  0.1462
 1339SOL    HW215480   3.549   2.270   8.630 -0.6464 -0.6133  0.5277
 1340SOL     OW15481   2.787   3.034   8.577  0.6185 -0.4375 -0.4615
 1340SOL    HW115482   2.783   3.130   8.574  2.1361 -0.3848 -1.0394
 1340SOL    HW215483   2.703   2.997   8.550 -0.5336  1.3471  0.6787
 1341SOL     OW15484   4.718   1.753   5.102 -0.1839 -0.5100 -0.1947
 1341SOL    HW115485   0.079   1.734   5.063  0.5304 -0.2277  1.1849
 1341SOL    HW215486   0.009   1.738   5.196  0.6102  1.2701 -0.0282
 1342SOL     OW15487   3.523   2.577  12.664 -0.2052  0.0436  0.6801
 1342SOL    HW115488   3.608   2.562  12.624 -0.0875  0.6690  0.6921
 1342SOL    HW215489   3.531   2.671  12.678 -1.1879 -0.0868  2.1355
 1343SOL     OW15490   4.168   1.759   2.873  0.8579 -0.3240  0.3299
 1343SOL    HW115491   4.190   1.684   2.929  2.1929  0.4587  0.8486
 1343SOL    HW215492   4.256   1.787   2.849 -0.9911  3.6625 -1.7323
 1344SOL     OW15493   1.808   1.376  17.258  0.4312  0.3460  0.0030
 1344SOL    HW115494   1.802   1.471  17.244 -0.7587  0.2751  0.0770
 1344SOL    HW215495   1.769   1.376  17.346 -1.0692  0.9408 -0.6730
 1345SOL     OW15496   3.704   3.219   6.763  0.5489  0.1219  0.2643
 1345SOL    HW115497   3.738   3.176   6.685 -1.1326 -0.2798 -0.2586
 1345SOL    HW215498   3.666   3.150   6.817  1.5752 -1.0395 -0.5051
 1346SOL     OW15499   3.496   2.557   2.105 -0.3332 -0.6352 -0.1912
 1346SOL    HW115500   3.515   2.503   2.029  0.3977 -0.0954 -0.3853
 1346SOL    HW215501   3.513   2.500   2.180  0.5411  0.6111  0.5472
 1347SOL     OW15502   2.936   4.695   1.902  0.2147 -0.9607 -0.2881
 1347SOL    HW115503   2.923   4.606   1.870 -0.4370 -0.7658 -0.5726
 1347SOL    HW215504   2.968   4.693   1.993  0.0720 -1.9293 -0.2587
 1348SOL     OW15505   2.324   3.317   4.152 -0.7524  0.3457  0.0258
 1348SOL    HW115506   2.286   3.397   4.188 -1.2897 -0.2837  0.8549
 1348SOL    HW215507   2.372   3.360   4.081 -0.7526 -0.2038 -0.3071
 1349SOL     OW15508   4.701   3.774   1.089 -0.3074 -0.3906 -0.1156
 1349SOL    HW115509   4.629   3.833   1.112  1.6561  1.2204  1.8926
 1349SOL    HW215510   0.044   3.806   1.149  1.7745 -3.1830 -0.9414
 1350SOL     OW15511   4.545   1.210   4.563  0.3425 -0.3138  0.2292
 1350SOL    HW115512   4.547   1.207   4.468  2.7569  0.4624  0.2727
 1350SOL    HW215513   4.466   1.157   4.578  0.2978 -0.3877 -0.2792
 1351SOL     OW15514   1.068   4.185   6.388  0.3350 -0.3402 -0.3763
 1351SOL    HW115515   1.116   4.260   6.422  0.7916 -0.4112 -0.8447
 1351SOL    HW215516   1.124   4.123   6.435 -0.6953 -1.1528 -0.2183
 1352SOL     OW15517   1.468   0.464   8.352 -0.3344  0.2986 -0.8634
 1352SOL    HW115518   1.435   0.389   8.301 -0.6566 -0.5017  0.5128
 1352SOL    HW215519   1.509   0.517   8.284  0.9168 -0.7837 -0.9650
 1353SOL     OW15520   2.870   4.357   2.182  0.4544  0.7904 -0.1758
 1353SOL    HW115521   2.781   4.331   2.159  0.8059 -0.1589 -0.5020
 1353SOL    HW215522   2.860   4.444   2.219 -2.8075 -0.0111  0.8421
 1354SOL     OW15523   0.071   3.838   5.200 -0.1461 -0.3232 -1.3143
 1354SOL    HW115524   0.145   3.786   5.168  1.6564  1.2461  0.2346
 1354SOL    HW215525   0.125   3.893   5.257  2.7373 -2.7402 -1.7392
 1355SOL     OW15526   4.672   3.805   5.527  0.4526 -0.6083 -0.0732
 1355SOL    HW115527   4.714   3.856   5.596  0.9734  0.1430 -0.9399
 1355SOL    HW215528   0.014   3.739   5.507 -0.8069 -1.6277 -0.8908
 1356SOL     OW15529   3.129   1.730  10.573 -0.0405 -0.2836 -0.0254
 1356SOL    HW115530   3.037   1.710  10.585  0.0944 -1.4255 -0.8802
 1356SOL    HW215531   3.149   1.802  10.632  0.6048  2.0487 -3.0686
 1357SOL     OW15532   4.259   4.158   8.734 -0.1933  0.0654 -0.4504
 1357SOL    HW115533   4.281   4.183   8.824 -1.1706 -1.7921  0.2965
 1357SOL    HW215534   4.167   4.136   8.750  0.4301 -0.5980  2.1921
 1358SOL     OW15535   2.297   4.274   5.583  0.6219  0.5613 -0.4231
 1358SOL    HW115536   2.207   4.247   5.603  0.1947  1.5442 -1.0073
 1358SOL    HW215537   2.340   4.239   5.661  0.2483  2.4000  0.6171
 1359SOL     OW15538   2.014   3.516   3.965  0.0632 -0.2810  0.0830
 1359SOL    HW115539   2.060   3.572   4.029 -0.6923  1.4307 -0.8698
 1359SOL    HW215540   2.055   3.547   3.885  0.8937 -0.2925  0.5008
 1360SOL     OW15541   0.028   1.771   6.965 -0.4864  0.9345 -0.0299
 1360SOL    HW115542   4.700   1.824   6.905  0.8511 -0.1308 -2.1244
 1360SOL    HW215543   4.701   1.786   7.045  0.7711 -1.9111  1.3109
 1361SOL     OW15544   1.643   1.811   3.404  0.2054 -0.6638 -0.1324
 1361SOL    HW115545   1.604   1.890   3.365  1.4336  0.3021  0.6133
 1361SOL    HW215546   1.709   1.787   3.340 -1.3774 -0.8483 -1.7090
 1362SOL     OW15547   0.831   3.818   8.125 -0.3458 -0.2347  0.1860
 1362SOL    HW115548   0.888   3.805   8.200 -1.2724 -0.8430  0.7823
 1362SOL    HW215549   0.779   3.894   8.151 -1.7001 -1.8270  2.0832
 1363SOL     OW15550   4.529   3.512   5.585  0.6229  0.2483 -0.3993
 1363SOL    HW115551   4.446   3.553   5.609  0.7540  1.4634 -2.1065
 1363SOL    HW215552   4.574   3.574   5.528 -2.4333  0.8970 -2.1201
 1364SOL     OW15553   0.254   3.953   5.388  0.2240 -0.8085 -0.2965
 1364SOL    HW115554   0.301   3.958   5.471  0.6477 -0.6346 -0.5447
 1364SOL    HW215555   0.328   3.966   5.328  0.7920  0.3506  0.6603
 1365SOL     OW15556   0.443   4.498   0.262  0.0149 -0.0134 -0.1122
 1365SOL    HW115557   0.397   4.414   0.263 -2.6606  1.4189 -2.2036
 1365SOL    HW215558   0.489   4.476   0.181  0.7927 -0.7816  0.5404
 1366SOL     OW15559   4.671   4.117   4.694  0.2377 -0.1824  0.2022
 1366SOL    HW115560   4.619   4.036   4.699  0.0615 -0.1029 -0.3500
 1366SOL    HW215561   4.618   4.184   4.737  0.3275  0.8608 -1.3198
 1367SOL     OW15562   1.488   2.720   4.096  0.4742 -0.3455  0.6163
 1367SOL    HW115563   1.543   2.798   4.087 -2.1858  1.2281 -1.9525
 1367SOL    HW215564   1.555   2.662   4.059 -0.7471 -0.5111 -1.3456
 1368SOL     OW15565   1.706   2.758  15.228 -0.5956  0.3273 -0.0082
 1368SOL    HW115566   1.628   2.813  15.219 -0.4945  0.1431 -2.0265
 1368SOL    HW215567   1.711   2.716  15.143 -0.2537  1.1505 -0.3998
 1369SOL     OW15568   1.050   0.877   3.750 -0.1309 -0.1299  0.0308
 1369SOL    HW115569   1.102   0.958   3.756  0.1648 -0.1915 -1.6662
 1369SOL    HW215570   1.078   0.838   3.667  1.3271  2.7327 -0.8382
 1370SOL     OW15571   1.243   4.009   5.655  0.0889  0.0972 -0.1774
 1370SOL    HW115572   1.157   3.970   5.668 -0.5044  1.0124 -1.4738
 1370SOL    HW215573   1.222   4.102   5.660  2.5748  0.5496  1.8127
 1371SOL     OW15574   1.185   1.768  13.149  0.1149 -0.2386 -0.6041
 1371SOL    HW115575   1.091   1.772  13.170 -0.1419  1.3858 -2.0645
 1371SOL    HW215576   1.202   1.679  13.179 -1.5776 -0.7906 -1.2374
 1372SOL     OW15577   0.460   1.640   0.188  0.3404  0.3478 -0.0708
 1372SOL    HW115578   0.430   1.562   0.235 -2.4809  0.8234 -1.0538
 1372SOL    HW215579   0.375   1.676   0.164  0.3670  0.1481 -0.4748
 1373SOL     OW15580   3.399   1.548   4.202  0.2158  0.7091  0.2053
 1373SOL    HW115581   3.455   1.622   4.177  1.8180 -0.5219  0.1953
 1373SOL    HW215582   3.420   1.543   4.295  2.2385  0.4740 -0.2704
 1374SOL     OW15583   0.231   4.555   3.585  0.7153  0.3490 -0.2670
 1374SOL    HW115584   0.225   4.535   3.679  3.1403 -0.6804 -0.3340
 1374SOL    HW215585   0.198   4.645   3.584 -0.3344 -0.0407 -0.7311
 1375SOL     OW15586   0.265   0.501  17.113  1.2217  0.1800  0.8064
 1375SOL    HW115587   0.190   0.530  17.165  1.6191  2.6666 -0.0169
 1375SOL    HW215588   0.334   0.490  17.178 -0.0471  1.0728  2.3108
 1376SOL     OW15589   4.237   2.064   7.770  0.1773  0.4575  0.0887
 1376SOL    HW115590   4.269   2.152   7.753  0.1099  0.7382  1.3595
 1376SOL    HW215591   4.187   2.089   7.848 -0.0213  2.0085 -0.5283
 1377SOL     OW15592   3.285   2.141  10.866 -0.2932  0.2127 -0.0760
 1377SOL    HW115593   3.257   2.073  10.928  2.5099 -1.8020 -0.9837
 1377SOL    HW215594   3.381   2.139  10.875 -0.3062  0.4177  0.1150
 1378SOL     OW15595   4.051   0.933   0.228  0.0206 -0.0818  0.2270
 1378SOL    HW115596   4.118   0.983   0.181  0.7655 -1.5305 -0.2322
 1378SOL    HW215597   3.998   0.897   0.158  2.2426 -1.7800 -0.5901
 1379SOL     OW15598   2.176   1.131   8.751  0.0332 -0.3412 -0.0350
 1379SOL    HW115599   2.268   1.109   8.736  0.1120 -0.7773  1.0747
 1379SOL    HW215600   2.134   1.066   8.694 -0.5692  0.0009  0.0286
 1380SOL     OW15601   3.206   0.300   0.765 -0.4222  0.1213  0.4134
 1380SOL    HW115602   3.197   0.209   0.791 -1.0979  0.1321  0.2178
 1380SOL    HW215603   3.271   0.321   0.832  1.2916 -0.0718 -1.2048
 1381SOL     OW15604   1.465   2.905   6.231  0.3184 -0.3738 -0.0413
 1381SOL    HW115605   1.406   2.883   6.302  1.7261 -1.3913  0.8132
 1381SOL    HW215606   1.511   2.978   6.273  1.0938 -0.8566 -0.0547
 1382SOL     OW15607   4.699   1.098   5.520 -0.9245 -0.0930  0.0258
 1382SOL    HW115608   4.683   1.186   5.553  1.6431 -0.3144  1.8577
 1382SOL    HW215609   4.689   1.122   5.428  1.1372  0.5342 -0.0368
 1383SOL     OW15610   3.452   0.862   8.578 -0.0886  0.1058 -0.2609
 1383SOL    HW115611   3.485   0.865   8.668  0.5915 -0.8741 -0.4833
 1383SOL    HW215612   3.359   0.838   8.582  0.1605 -1.0898 -1.6215
 1384SOL     OW15613   2.547   0.057  12.982  0.7039  0.2178 -0.1626
 1384SOL    HW115614   2.536   0.011  13.066 -0.3553 -1.9934 -1.5315
 1384SOL    HW215615   2.474   0.010  12.944  0.7177 -1.0361  1.3594
 1385SOL     OW15616   4.679   0.446   7.713 -0.2372 -0.3102 -0.8114
 1385SOL    HW115617   4.586   0.457   7.731 -0.7276 -2.8420 -1.8569
 1385SOL    HW215618   4.658   0.413   7.626 -1.7931 -1.4941  0.0180
 1386SOL     OW15619   4.388   4.686   7.563 -0.4101  0.1756 -0.3669
 1386SOL    HW115620   4.383   4.716   7.654 -1.8035 -2.0277  0.2643
 1386SOL    HW215621   4.457   0.017   7.525  0.9706 -0.4587  1.2293
 1387SOL     OW15622   2.613   1.136  15.110  0.3583  0.0234  0.2534
 1387SOL    HW115623   2.589   1.050  15.076 -0.0548 -0.5075  1.9042
 1387SOL    HW215624   2.674   1.166  15.042  0.2812  0.4932  0.3923
 1388SOL     OW15625   3.835   0.427   3.129 -0.3852 -0.1022  0.1414
 1388SOL    HW115626   3.739   0.433   3.134 -0.2923  1.2688  0.3020
 1388SOL    HW215627   3.837   0.364   3.202 -0.2076  0.1295  0.3352
 1389SOL     OW15628   4.405   3.531  11.482 -0.3577 -0.1310 -0.7037
 1389SOL    HW115629   4.365   3.570  11.560  0.4554 -4.1111  1.6665
 1389SOL    HW215630   4.427   3.610  11.432  1.8844  0.9916  2.1072
 1390SOL     OW15631   3.433   0.333   1.299  0.1227 -0.0581 -0.0986
 1390SOL    HW115632   3.524   0.358   1.284  0.0885  1.5018  2.3558
 1390SOL    HW215633   3.439   0.261   1.235 -2.8597 -1.2826  0.9961
 1391SOL     OW15634   3.239   4.004  13.340 -0.1470 -0.2743 -0.0569
 1391SOL    HW115635   3.152   3.986  13.375 -0.8172 -0.4079 -1.7934
 1391SOL    HW215636   3.264   3.915  13.316 -2.5173 -0.6682 -1.0957
 1392SOL     OW15637   0.963   2.700   4.630  0.1044  0.2782 -0.1023
 1392SOL    HW115638   0.953   2.731   4.540  2.4554  2.3674  0.3814
 1392SOL    HW215639   0.924   2.777   4.670  0.2673 -0.3955  1.3557
 1393SOL     OW15640   2.361   1.889   9.569  0.0746 -0.4505 -0.6391
 1393SOL    HW115641   2.285   1.925   9.522 -1.3205 -1.4682  0.8218
 1393SOL    HW215642   2.389   1.813   9.517  0.6880 -1.1179  0.6850
 1394SOL     OW15643   2.352   0.385   9.809  0.3810  0.8443  0.0421
 1394SOL    HW115644   2.262   0.401   9.780  0.5457  0.3443 -0.7479
 1394SOL    HW215645   2.387   0.471   9.834 -1.1701  2.0184 -1.7967
 1395SOL     OW15646   4.359   4.282   2.544  0.8463  0.2519 -0.3060
 1395SOL    HW115647   4.381   4.304   2.634 -0.4709 -0.4882  0.2040
 1395SOL    HW215648   4.282   4.332   2.516 -1.1567 -2.4572  0.4488
 1396SOL     OW15649   1.010   1.569   4.409 -0.2532 -0.2182  0.1437
 1396SOL    HW115650   0.962   1.642   4.369  0.8604 -0.6486 -2.0037
 1396SOL    HW215651   1.029   1.517   4.331 -0.7547 -2.1335  1.3003
 1397SOL     OW15652   4.121   4.608   5.240  0.2949  0.5546  0.7054
 1397SOL    HW115653   4.066   4.544   5.284  1.5447 -0.5983  0.5994
 1397SOL    HW215654   4.064   4.681   5.216 -1.9795 -0.9676  1.4786
 1398SOL     OW15655   1.260   2.831  17.043  0.0188 -0.0568  0.3515
 1398SOL    HW115656   1.180   2.883  17.050 -0.2996 -0.4299 -0.5267
 1398SOL    HW215657   1.241   2.738  17.030  0.3609  0.3927 -3.5166
 1399SOL     OW15658   2.674   2.938   5.859 -0.5053 -0.1686 -0.2131
 1399SOL    HW115659   2.582   2.915   5.843 -1.3164  0.3925  3.7275
 1399SOL    HW215660   2.714   2.930   5.773  0.5810  0.6665  0.2136
 1400SOL     OW15661   1.490   3.794   2.497  0.3256 -0.0331 -0.4711
 1400SOL    HW115662   1.490   3.703   2.528  3.4082 -0.6732 -2.3524
 1400SOL    HW215663   1.492   3.829   2.587 -0.9578  1.4565 -1.0213
 1401SOL     OW15664   3.616   2.062   7.910  0.3295  0.2242  0.1582
 1401SOL    HW115665   3.685   2.030   7.969  0.2363 -0.2425  0.0173
 1401SOL    HW215666   3.646   2.152   7.905 -0.5375  0.4987 -0.1942
 1402SOL     OW15667   0.978   3.301   3.677 -0.3042  0.4150 -0.0552
 1402SOL    HW115668   0.963   3.371   3.740  0.8054 -0.4396  1.1679
 1402SOL    HW215669   0.978   3.219   3.726 -0.1052  1.6047  1.9405
 1403SOL     OW15670   2.608   1.066   3.534  0.1985 -0.4877  0.1794
 1403SOL    HW115671   2.539   1.068   3.467  2.5104 -0.7648 -2.2004
 1403SOL    HW215672   2.564   1.007   3.595 -0.2584 -1.4309 -1.0513
 1404SOL     OW15673   4.323   0.030   7.226  0.5143  0.3616  0.0555
 1404SOL    HW115674   4.347   0.018   7.135 -1.6134 -0.8266 -0.3591
 1404SOL    HW215675   4.271   4.675   7.246  0.6583 -0.5936 -3.4110
 1405SOL     OW15676   2.122   0.232   6.985  0.0893  0.1738 -0.1687
 1405SOL    HW115677   2.127   0.327   6.973  0.7950 -0.0329 -1.4883
 1405SOL    HW215678   2.204   0.216   7.031 -0.6153  1.5569  1.6007
 1406SOL     OW15679   2.310   1.752   0.731  0.0081 -0.6385  0.7054
 1406SOL    HW115680   2.271   1.690   0.793 -0.2017 -0.7742  0.4366
 1406SOL    HW215681   2.235   1.778   0.678  0.3453  0.0938  0.5854
 1407SOL     OW15682   2.904   2.000   8.466  0.2211  0.1571  0.4203
 1407SOL    HW115683   2.958   1.955   8.401  2.3794 -0.7630  2.8544
 1407SOL    HW215684   2.836   1.937   8.488  1.5156 -2.4063 -2.9283
 1408SOL     OW15685   3.182   4.009   6.327 -0.3941 -0.3439 -0.4304
 1408SOL    HW115686   3.274   4.004   6.303 -0.0176  0.8740  0.8008
 1408SOL    HW215687   3.174   4.098   6.360  2.3459 -0.2770 -0.0161
 1409SOL     OW15688   0.709   0.199   5.142  0.6376 -0.0402 -0.5197
 1409SOL    HW115689   0.625   0.204   5.098 -0.1835 -0.8488  0.9757
 1409SOL    HW215690   0.764   0.247   5.080  0.4508 -0.8299 -1.2799
 1410SOL     OW15691   4.374   0.544   5.748 -0.3800  0.2278 -0.5363
 1410SOL    HW115692   4.368   0.638   5.767 -5.3858 -0.8121  2.9833
 1410SOL    HW215693   4.370   0.507   5.836  0.0764 -3.6897 -2.1606
 1411SOL     OW15694   0.306   1.166   4.432  0.4385 -0.2067 -0.3319
 1411SOL    HW115695   0.357   1.175   4.512 -2.0764 -0.3202  1.2752
 1411SOL    HW215696   0.319   1.072   4.425  1.0932 -0.1572  0.2503
 1412SOL     OW15697   3.910   1.386   5.886 -0.0533  0.0779 -0.2677
 1412SOL    HW115698   3.862   1.412   5.964  0.5562  1.5061 -0.3781
 1412SOL    HW215699   3.982   1.449   5.886 -0.2648  0.3236 -0.5362
 1413SOL     OW15700   0.115   1.128   7.390 -0.2735 -0.1199 -0.7663
 1413SOL    HW115701   0.043   1.100   7.333 -1.3772  0.1748  0.4750
 1413SOL    HW215702   0.187   1.114   7.330 -0.9079 -2.3190 -1.0124
 1414SOL     OW15703   0.953   3.611   4.843 -0.2022 -0.1489  0.6805
 1414SOL    HW115704   0.991   3.689   4.883  2.2642 -0.3345 -1.3101
 1414SOL    HW215705   0.865   3.635   4.816  0.9492  2.3255 -0.8278
 1415SOL     OW15706   4.116   2.282  13.899  0.1921  0.3982  0.3779
 1415SOL    HW115707   4.020   2.280  13.898  0.2203 -1.3591 -0.0988
 1415SOL    HW215708   4.141   2.317  13.814 -0.5130 -1.9651 -0.8101
 1416SOL     OW15709   2.874   4.650   9.272  0.7496  0.3681 -0.1526
 1416SOL    HW115710   2.852   4.595   9.348  0.6308 -1.3936 -1.4639
 1416SOL    HW215711   2.805   4.716   9.276  0.1094 -0.2588 -0.9229
 1417SOL     OW15712   1.303   3.874   4.973  0.9322 -0.1247  0.4475
 1417SOL    HW115713   1.387   3.915   4.952  0.0047  1.1915 -0.6918
 1417SOL    HW215714   1.315   3.781   4.956  1.3064  0.2713 -1.4483
 1418SOL     OW15715   3.520   2.206  17.572 -0.5511  0.2288  0.3296
 1418SOL    HW115716   3.611   2.216  17.542 -0.4854  0.4111  0.5888
 1418SOL    HW215717   3.494   2.294  17.598  3.1254  1.6073 -0.5991
 1419SOL     OW15718   1.751   1.848   8.254 -0.2097 -0.6438 -0.6880
 1419SOL    HW115719   1.690   1.820   8.185  0.0774  0.7230 -1.5113
 1419SOL    HW215720   1.835   1.832   8.212  2.0180  3.4822  2.1561
 1420SOL     OW15721   4.438   1.821   2.783 -0.8429 -1.3462 -0.3125
 1420SOL    HW115722   4.520   1.790   2.822  0.6404  1.8188 -0.9285
 1420SOL    HW215723   4.457   1.915   2.789 -0.8257 -1.4185  0.7166
 1421SOL     OW15724   0.507   3.225   7.406 -0.6769 -0.5411 -0.1309
 1421SOL    HW115725   0.551   3.183   7.480  0.3589 -2.1837 -1.6456
 1421SOL    HW215726   0.465   3.292   7.460  0.0685  0.4272 -0.7619
 1422SOL     OW15727   1.958   0.345   9.913 -0.7382  0.5388 -0.6333
 1422SOL    HW115728   1.953   0.425   9.964 -1.2245  0.0115  0.1535
 1422SOL    HW215729   2.023   0.375   9.850 -3.0333  2.0005 -2.3000
 1423SOL     OW15730   3.295   3.767   4.849 -0.5049 -0.5383 -0.1558
 1423SOL    HW115731   3.334   3.680   4.856  2.7504  1.2422  3.7459
 1423SOL    HW215732   3.224   3.751   4.788 -1.1579 -0.2460  0.5320
 1424SOL     OW15733   1.238   4.012   1.883  0.2886 -0.2771  0.0233
 1424SOL    HW115734   1.221   3.995   1.790  0.9027  1.1583 -0.3537
 1424SOL    HW215735   1.331   4.037   1.880 -0.7012  3.1882 -1.1505
 1425SOL     OW15736   2.582   2.749   1.819  0.0581  0.0520 -0.0612
 1425SOL    HW115737   2.513   2.739   1.885  0.2433  1.6883  0.3678
 1425SOL    HW215738   2.650   2.693   1.857  0.8198 -1.6125 -3.8459
 1426SOL     OW15739   1.849   0.527  16.047  0.4738 -0.2211  0.4284
 1426SOL    HW115740   1.852   0.432  16.053  1.4901 -0.2867 -1.0196
 1426SOL    HW215741   1.879   0.544  16.136  0.5796 -0.0260  0.3583
 1427SOL     OW15742   0.312   0.902   2.814 -0.1897  0.5564  0.3247
 1427SOL    HW115743   0.339   0.993   2.799 -0.8289  0.6093 -0.4805
 1427SOL    HW215744   0.286   0.862   2.731  0.3743  0.8581  0.0015
 1428SOL     OW15745   3.486   4.057   4.711 -0.6306  0.1019  0.4382
 1428SOL    HW115746   3.512   4.098   4.629 -1.6865 -0.6334 -0.2529
 1428SOL    HW215747   3.428   3.986   4.684  0.7273 -0.3487 -1.2170
 1429SOL     OW15748   0.249   0.879   7.690 -0.5033 -0.3912  0.3219
 1429SOL    HW115749   0.188   0.807   7.707  0.2229 -0.9021  0.7660
 1429SOL    HW215750   0.263   0.906   7.781  2.8400  0.5388 -0.4894
 1430SOL     OW15751   3.758   2.821  11.065  0.1977  0.3588  0.4583
 1430SOL    HW115752   3.761   2.726  11.051  1.5003  0.6625 -1.2918
 1430SOL    HW215753   3.665   2.831  11.045  0.5787  0.3472 -1.3178
 1431SOL     OW15754   0.715   3.938   0.972 -0.0967 -0.0538 -0.0264
 1431SOL    HW115755   0.777   3.866   0.984  1.1853  0.7588 -1.8308
 1431SOL    HW215756   0.631   3.893   0.986 -0.3565  0.7086  0.9198
 1432SOL     OW15757   3.772   2.610   6.833 -0.4113  0.0250 -0.1003
 1432SOL    HW115758   3.812   2.582   6.750  2.1268  2.2998  0.3488
 1432SOL    HW215759   3.704   2.673   6.809  0.3046  1.1408  0.8238
 1433SOL     OW15760   0.098   3.239   9.870 -0.2170  0.0972 -0.6986
 1433SOL    HW115761   0.154   3.169   9.835 -0.5458  0.6595 -2.3405
 1433SOL    HW215762   0.066   3.285   9.793  1.6560 -0.6929 -1.9557
 1434SOL     OW15763   1.777   1.240   8.840  0.4753 -0.5576  0.6989
 1434SOL    HW115764   1.761   1.313   8.780 -0.3974  0.1898  1.8602
 1434SOL    HW215765   1.830   1.285   8.906 -1.1751  2.3945  0.0299
 1435SOL     OW15766   3.883   2.173   7.323 -0.0213  0.2791 -0.1255
 1435SOL    HW115767   3.912   2.254   7.365  2.5247 -2.2142  2.9530
 1435SOL    HW215768   3.790   2.197   7.329 -0.3041 -0.5729 -1.1201
 1436SOL     OW15769   3.497   1.093   5.930 -0.7046  0.1331 -0.2933
 1436SOL    HW115770   3.504   1.071   5.837  1.2753 -3.1308  0.6023
 1436SOL    HW215771   3.408   1.065   5.952 -0.8629 -0.5867 -1.8850
 1437SOL     OW15772   2.835   1.728  10.517  0.6426 -0.3768 -0.1347
 1437SOL    HW115773   2.840   1.667  10.444 -0.0835 -0.2825 -0.2568
 1437SOL    HW215774   2.742   1.732  10.539  0.7794  2.9606 -0.1065
 1438SOL     OW15775   3.689   2.909   3.763 -0.1560 -0.2166  0.0378
 1438SOL    HW115776   3.740   2.858   3.701  1.6057  0.0239  1.2657
 1438SOL    HW215777   3.731   2.995   3.755  1.4096 -0.9057  0.8104
 1439SOL     OW15778   1.089   3.409   3.427  0.2757 -0.2987 -0.0314
 1439SOL    HW115779   1.050   3.407   3.514 -1.5970  2.1386 -0.8086
 1439SOL    HW215780   1.058   3.492   3.390 -0.1742 -0.5044 -0.1192
 1440SOL     OW15781   1.002   1.428   5.701 -0.1984 -0.4749  0.6721
 1440SOL    HW115782   0.959   1.343   5.699  0.9035 -1.0269  0.7273
 1440SOL    HW215783   0.945   1.473   5.764 -0.5851  0.1681 -0.1392
 1441SOL     OW15784   4.070   4.092   3.066 -0.7868  0.0069  0.2093
 1441SOL    HW115785   4.089   4.020   3.006 -2.8199 -0.4933  0.1547
 1441SOL    HW215786   4.133   4.077   3.137 -1.2701 -0.0865  0.6183
 1442SOL     OW15787   3.409   3.113   6.493  0.1454 -0.4534  0.2321
 1442SOL    HW115788   3.325   3.129   6.537  0.3997  0.6120  0.3264
 1442SOL    HW215789   3.394   3.022   6.468 -0.8973 -0.2866  0.2410
 1443SOL     OW15790   3.129   2.131   3.305 -0.0135 -0.4768  0.9880
 1443SOL    HW115791   3.194   2.082   3.256 -0.6670 -0.9917  0.6435
 1443SOL    HW215792   3.164   2.101   3.389 -1.3840 -3.6053  0.4142
 1444SOL     OW15793   2.214   0.999   4.079 -0.3354  0.8130  0.3901
 1444SOL    HW115794   2.177   1.086   4.094 -0.8405  0.5081  0.9080
 1444SOL    HW215795   2.158   0.964   4.010  2.0265 -1.7191 -0.2558
 1445SOL     OW15796   3.989   1.047   7.448 -0.2074  0.0469  0.5338
 1445SOL    HW115797   4.077   1.014   7.429 -0.3469  0.1492 -0.3050
 1445SOL    HW215798   3.941   1.025   7.369  2.0927 -0.7251 -0.6624
 1446SOL     OW15799   1.627   3.677   5.460  0.1334 -0.4150 -0.5123
 1446SOL    HW115800   1.702   3.674   5.400  1.2510 -0.7119  0.8816
 1446SOL    HW215801   1.554   3.671   5.399 -1.1933 -1.8483  1.2116
 1447SOL     OW15802   3.463   0.540   4.878  0.6679 -0.0753 -0.0355
 1447SOL    HW115803   3.538   0.561   4.823  0.2403  0.5072 -0.3935
 1447SOL    HW215804   3.422   0.480   4.816 -2.5369  1.6508  0.4424
 1448SOL     OW15805   2.966   1.786  12.010 -0.5182  0.2373  0.2047
 1448SOL    HW115806   3.014   1.795  12.092  1.5081  0.8082 -1.0569
 1448SOL    HW215807   3.013   1.846  11.952 -1.0596  1.9176  1.5185
 1449SOL     OW15808   1.336   1.455  11.952 -0.1239 -0.0748  0.3614
 1449SOL    HW115809   1.333   1.548  11.972  0.4804  0.1970 -0.8184
 1449SOL    HW215810   1.299   1.449  11.863 -0.1668 -0.7990  0.4229
 1450SOL     OW15811   4.415   1.021   9.135  0.2105 -0.1768  0.0038
 1450SOL    HW115812   4.382   0.962   9.203 -0.9463 -0.6094 -0.9420
 1450SOL    HW215813   4.340   1.036   9.078  0.4481  0.1383 -0.2311
 1451SOL     OW15814   3.933   2.243   6.979  0.2030  0.6856  0.1094
 1451SOL    HW115815   4.012   2.199   7.010  0.2038  0.4062 -0.2834
 1451SOL    HW215816   3.949   2.332   7.009 -2.1523  0.8123  0.9333
 1452SOL     OW15817   1.465   4.244   4.409  0.0371 -0.0537  0.1358
 1452SOL    HW115818   1.380   4.201   4.403  0.0114  0.2916 -1.8221
 1452SOL    HW215819   1.461   4.277   4.499  0.6887 -1.2871  0.6133
 1453SOL     OW15820   1.036   0.449   5.476 -0.0288 -0.0019  0.0989
 1453SOL    HW115821   1.108   0.387   5.470  1.0504  1.4255 -1.7486
 1453SOL    HW215822   1.070   0.530   5.440  0.8821 -0.6531 -0.4955
 1454SOL     OW15823   0.982   1.944  14.441 -0.4760  0.2226 -0.2838
 1454SOL    HW115824   0.927   2.002  14.492 -1.1947 -1.0174  0.3667
 1454SOL    HW215825   0.910   1.890  14.408  1.0888 -1.7172 -0.5380
 1455SOL     OW15826   3.600   2.472  13.277  0.4619  0.2741  0.4200
 1455SOL    HW115827   3.527   2.423  13.315  0.9925  0.6201  1.8820
 1455SOL    HW215828   3.667   2.429  13.329  2.0378  1.2631 -0.7859
 1456SOL     OW15829   3.829   4.051  15.221  0.1787  0.5790 -0.1642
 1456SOL    HW115830   3.822   4.111  15.295 -0.0117  1.2811 -0.7576
 1456SOL    HW215831   3.848   3.971  15.271  0.9705  0.7327 -0.2213
 1457SOL     OW15832   3.360   1.957  15.235  0.2912 -0.1418 -0.5141
 1457SOL    HW115833   3.314   1.939  15.153 -2.8962  2.0199  0.7820
 1457SOL    HW215834   3.348   2.048  15.260 -0.1677  0.1806 -1.9285
 1458SOL     OW15835   1.877   2.646   2.011 -0.0866 -0.3133 -0.5663
 1458SOL    HW115836   1.791   2.653   2.053  0.6900 -1.7645  1.2854
 1458SOL    HW215837   1.860   2.672   1.921  0.1320 -0.0814 -0.5395
 1459SOL     OW15838   0.429   3.068   4.137 -0.0064 -0.1346  0.0329
 1459SOL    HW115839   0.494   3.034   4.077 -1.8148  0.3823 -2.2397
 1459SOL    HW215840   0.481   3.140   4.172  0.7964  0.0060 -1.4448
 1460SOL     OW15841   3.751   2.213  10.648  0.4235 -0.0104  0.3623
 1460SOL    HW115842   3.721   2.242  10.562  0.0703 -0.7069  0.2505
 1460SOL    HW215843   3.824   2.274  10.652 -0.0247  0.5958 -0.6670
 1461SOL     OW15844   2.297   0.144   6.390 -0.0280 -0.4130 -0.1444
 1461SOL    HW115845   2.341   0.224   6.419  1.7118 -2.0946  1.7905
 1461SOL    HW215846   2.364   0.083   6.360  1.5299  1.2307 -0.0033
 1462SOL     OW15847   3.924   0.405   4.818 -0.1297 -0.3533  0.0804
 1462SOL    HW115848   3.994   0.438   4.873  0.8620 -1.3350 -0.5996
 1462SOL    HW215849   3.848   0.412   4.876 -0.2143  2.2012 -0.3464
 1463SOL     OW15850   2.838   4.511   8.527  0.6631  0.0701 -0.3052
 1463SOL    HW115851   2.884   4.537   8.606  0.2580 -0.9974  0.2820
 1463SOL    HW215852   2.905   4.474   8.469  3.1618  0.5331  2.2917
 1464SOL     OW15853   0.552   2.989  11.527 -0.1479 -0.1253  0.2383
 1464SOL    HW115854   0.645   2.967  11.528 -0.3592 -1.0357 -0.7046
 1464SOL    HW215855   0.549   3.076  11.487 -0.8402 -0.0736  0.3919
 1465SOL     OW15856   1.699   3.989   0.585  0.1287 -0.2230  0.1583
 1465SOL    HW115857   1.677   3.907   0.630  1.5145 -1.0857 -0.7290
 1465SOL    HW215858   1.756   3.955   0.515  1.5926 -1.4532  1.9610
 1466SOL     OW15859   4.651   0.918  14.286 -0.4039  0.3152  0.0882
 1466SOL    HW115860   4.575   0.934  14.342 -0.9319 -0.0108 -0.5319
 1466SOL    HW215861   4.631   0.829  14.257  0.1256 -0.2743  1.5443
 1467SOL     OW15862   2.530   0.997  15.884  0.1625 -0.4601  0.2024
 1467SOL    HW115863   2.441   0.979  15.854  0.6076 -2.4818  0.1055
 1467SOL    HW215864   2.577   0.971  15.805  0.1844  2.7216 -0.8307
 1468SOL     OW15865   1.936   1.236  12.708 -0.0841 -0.1623  0.0205
 1468SOL    HW115866   2.031   1.223  12.700  0.3209  1.9206  1.2617
 1468SOL    HW215867   1.899   1.186  12.636  0.1587 -1.2018  0.6129
 1469SOL     OW15868   4.524   0.233  17.548  0.1886  0.1995 -0.1499
 1469SOL    HW115869   4.502   0.260  17.459 -2.9224  1.4610  1.0376
 1469SOL    HW215870   4.590   0.167  17.525  1.1435  0.7283  1.0949
 1470SOL     OW15871   1.683   1.970   2.763  0.2493  0.7039 -0.0432
 1470SOL    HW115872   1.629   1.943   2.689 -0.0419 -1.2710  0.9083
 1470SOL    HW215873   1.673   2.064   2.749  0.2384  0.7489  0.2661
 1471SOL     OW15874   0.446   4.101   6.269  0.1377  0.3806  0.3029
 1471SOL    HW115875   0.426   4.121   6.178  0.6530 -3.0989 -0.5631
 1471SOL    HW215876   0.505   4.173   6.291  0.3771  0.2533  0.0757
 1472SOL     OW15877   1.127   3.414   8.599  0.3001 -0.3255 -0.3475
 1472SOL    HW115878   1.143   3.327   8.636 -1.2607 -1.3572 -2.0944
 1472SOL    HW215879   1.163   3.405   8.510 -0.2857 -0.2477 -0.5903
 1473SOL     OW15880   0.689   3.144  11.787  0.6806  0.6584  0.2828
 1473SOL    HW115881   0.708   3.205  11.717  1.5213 -0.1115 -0.1660
 1473SOL    HW215882   0.745   3.067  11.775 -1.8997 -0.8443 -2.0851
 1474SOL     OW15883   3.956   1.258   9.181 -0.0969  0.4603 -0.8794
 1474SOL    HW115884   4.032   1.301   9.222 -1.2697  0.2333  1.5648
 1474SOL    HW215885   3.888   1.320   9.204 -1.4946 -1.3625 -0.0892
 1475SOL     OW15886   2.836   0.641  14.160  0.1698 -0.1211  0.4444
 1475SOL    HW115887   2.747   0.662  14.131  1.0014  2.0850 -0.5642
 1475SOL    HW215888   2.841   0.557  14.115  0.0734 -0.0622  0.3237
 1476SOL     OW15889   1.528   3.274   8.387  0.2354 -0.2330  0.0841
 1476SOL    HW115890   1.510   3.273   8.481  0.4429  4.3384  0.2009
 1476SOL    HW215891   1.622   3.294   8.390  0.4180 -0.8811 -1.3036
 1477SOL     OW15892   1.694   2.376   9.221  0.5757  0.1829 -0.0612
 1477SOL    HW115893   1.598   2.381   9.221  0.5659 -0.1905  3.2643
 1477SOL    HW215894   1.706   2.348   9.130  0.7308 -0.6542  0.2212
 1478SOL     OW15895   4.071   0.602   8.703 -0.4165  0.5576 -0.4378
 1478SOL    HW115896   4.126   0.547   8.759 -2.5710 -2.0383 -0.8963
 1478SOL    HW215897   4.033   0.540   8.641  1.2891 -0.8814 -0.0176
 1479SOL     OW15898   4.156   2.921   8.777  0.2197  0.0038 -0.0938
 1479SOL    HW115899   4.200   2.984   8.720  0.3125 -1.8000 -2.0017
 1479SOL    HW215900   4.069   2.959   8.789 -0.3669 -1.1588 -0.6254
 1480SOL     OW15901   2.563   0.305  16.812  0.2871 -0.4327  0.7882
 1480SOL    HW115902   2.511   0.235  16.852 -2.0657 -0.0392 -1.6438
 1480SOL    HW215903   2.532   0.385  16.855  0.4254  0.1118 -0.1318
 1481SOL     OW15904   4.382   1.591   3.350  0.0102 -0.2294  0.7430
 1481SOL    HW115905   4.466   1.636   3.354 -0.6479  0.8274  2.5421
 1481SOL    HW215906   4.407   1.513   3.399 -0.1787 -0.4369  0.5135
 1482SOL     OW15907   3.814   4.215  11.419 -0.4622  0.6155 -0.2079
 1482SOL    HW115908   3.778   4.199  11.506  1.5563 -0.1017  0.4864
 1482SOL    HW215909   3.805   4.310  11.408  0.3751  0.6756 -0.3914
 1483SOL     OW15910   0.740   2.945   7.974 -0.4153 -0.0015 -0.0895
 1483SOL    HW115911   0.709   2.987   8.054  0.1567  0.4286 -0.0903
 1483SOL    HW215912   0.792   3.016   7.937 -2.8560  2.2536  0.8926
 1484SOL     OW15913   1.729   3.476  12.422 -0.2371  0.4703  0.2987
 1484SOL    HW115914   1.706   3.550  12.365  0.2289 -0.0701 -0.5969
 1484SOL    HW215915   1.804   3.432  12.380 -2.0661 -1.5367 -0.8470
 1485SOL     OW15916   1.659   3.434   5.587  0.7499  0.0294  0.3927
 1485SOL    HW115917   1.633   3.526   5.578  1.9347  0.2808 -0.5227
 1485SOL    HW215918   1.739   3.434   5.534  0.5456  0.9101  0.0734
 1486SOL     OW15919   0.581   4.555  15.143 -0.0771  0.1858 -0.0136
 1486SOL    HW115920   0.664   4.596  15.120 -0.2256  1.5604  1.9833
 1486SOL    HW215921   0.588   4.525  15.233  1.0651  3.7363  1.0737
 1487SOL     OW15922   3.733   0.214   7.204  0.0536  0.1600  0.1216
 1487SOL    HW115923   3.713   0.274   7.132 -0.4384 -0.9279 -0.6416
 1487SOL    HW215924   3.763   0.267   7.278  0.2755  0.9598 -0.5444
 1488SOL     OW15925   4.049   0.791   7.071  0.7341  0.1745 -0.0082
 1488SOL    HW115926   4.009   0.824   6.991  0.6842 -1.3412 -0.6109
 1488SOL    HW215927   3.997   0.712   7.085 -0.6324  0.7241 -1.9875
 1489SOL     OW15928   3.472   2.005   4.995 -0.5566 -0.4822 -0.0148
 1489SOL    HW115929   3.401   1.941   5.007 -0.7528  0.1818  2.3020
 1489SOL    HW215930   3.472   2.028   4.902  2.8640 -0.6519 -0.0724
 1490SOL     OW15931   1.570   1.693  17.546  0.1703 -0.2498  0.1808
 1490SOL    HW115932   1.537   1.614  17.503  0.6817 -1.8003  2.6401
 1490SOL    HW215933   1.501   1.751  17.513  1.7900  1.1887 -0.6872
 1491SOL     OW15934   3.995   3.559   4.445 -0.0780  0.1991  0.1329
 1491SOL    HW115935   4.029   3.648   4.437  0.4819 -0.0882 -0.7146
 1491SOL    HW215936   3.968   3.572   4.536  1.7426 -0.6370  0.8051
 1492SOL     OW15937   2.059   3.539   7.954  0.3338  0.3159  0.1142
 1492SOL    HW115938   2.072   3.607   8.020  0.4042  0.0671  0.3573
 1492SOL    HW215939   2.107   3.580   7.882 -1.3463 -0.1119 -1.2723
 1493SOL     OW15940   0.815   0.962   6.819  0.5710  0.3236  0.3834
 1493SOL    HW115941   0.848   1.049   6.795 -1.0981  0.9886  0.4306
 1493SOL    HW215942   0.735   0.982   6.868  1.0253  1.7114  0.5524
 1494SOL     OW15943   1.399   0.043   1.866 -0.0194  0.4213 -0.3683
 1494SOL    HW115944   1.352   0.120   1.898  1.2147  1.9725 -2.2866
 1494SOL    HW215945   1.373   4.698   1.928 -0.1004  0.1292 -0.7247
 1495SOL     OW15946   1.298   1.514   0.843 -0.2172  0.4988 -0.1325
 1495SOL    HW115947   1.306   1.427   0.806  1.0182  0.6929 -0.3129
 1495SOL    HW215948   1.253   1.557   0.770  0.4375 -0.0951 -0.8798
 1496SOL     OW15949   4.696   1.973  13.518 -0.0797  0.3099 -0.1759
 1496SOL    HW115950   4.603   1.954  13.507  0.7563 -2.6151 -2.1195
 1496SOL    HW215951   4.719   1.968  13.425  1.7752 -1.1874  0.3511
 1497SOL     OW15952   2.228   0.832   7.365 -0.0459 -0.5285 -0.7158
 1497SOL    HW115953   2.254   0.828   7.273  0.0515  3.2346 -0.8697
 1497SOL    HW215954   2.134   0.819   7.352  0.2105 -0.7690 -2.2724
 1498SOL     OW15955   4.572   2.569   7.182  0.1302  0.0981 -0.0506
 1498SOL    HW115956   4.567   2.474   7.168  6.3163 -0.5761  2.0623
 1498SOL    HW215957   4.664   2.590   7.165  0.1557  0.0616  0.0427
 1499SOL     OW15958   0.399   2.228   2.752  0.4849 -0.5548  0.0556
 1499SOL    HW115959   0.450   2.242   2.673 -0.0860  3.5289  0.3815
 1499SOL    HW215960   0.313   2.219   2.711  0.5890  1.2031 -0.5523
 1500SOL     OW15961   0.220   3.044  15.437  0.8316  0.0574  0.2931
 1500SOL    HW115962   0.234   2.951  15.456 -1.6336 -0.6555 -1.4238
 1500SOL    HW215963   0.301   3.084  15.468  0.0533  1.7806  0.0900
 1501SOL     OW15964   4.393   3.462   8.818  0.1724  0.3799  0.6023
 1501SOL    HW115965   4.336   3.422   8.884  1.5615  1.2974  2.3684
 1501SOL    HW215966   4.326   3.496   8.759  0.4239  1.9526  1.2282
 1502SOL     OW15967   3.228   2.042   6.237 -0.3588  0.8606 -0.9269
 1502SOL    HW115968   3.280   2.112   6.279  0.8468 -1.1650  0.9684
 1502SOL    HW215969   3.184   2.015   6.317 -1.8976  0.3633 -1.9561
 1503SOL     OW15970   1.070   2.223  12.583 -0.1522  0.6457  0.3816
 1503SOL    HW115971   1.076   2.315  12.609  2.1376  0.4379  0.5616
 1503SOL    HW215972   1.118   2.174  12.649 -0.1295 -0.6849 -0.6284
 1504SOL     OW15973   1.186   4.487   5.855 -0.0736 -0.4022  0.5994
 1504SOL    HW115974   1.091   4.488   5.842  0.0854  1.4400 -0.4411
 1504SOL    HW215975   1.192   4.469   5.949 -2.3591 -0.3387  0.7598
 1505SOL     OW15976   0.989   1.331   8.557 -0.2316 -0.3682  0.1232
 1505SOL    HW115977   0.986   1.418   8.517 -0.1388 -0.9838 -1.2309
 1505SOL    HW215978   0.915   1.348   8.615 -0.2378  0.6299 -0.1716
 1506SOL     OW15979   0.352   4.406   3.392  0.5719 -0.6310  0.6644
 1506SOL    HW115980   0.321   4.460   3.464  0.2066  0.5620 -0.3708
 1506SOL    HW215981   0.423   4.355   3.430  2.1948  0.6159 -0.6564
 1507SOL     OW15982   2.792   0.419   2.489  0.2374 -0.0663  0.2590
 1507SOL    HW115983   2.826   0.498   2.530 -1.2191  1.3000 -1.1650
 1507SOL    HW215984   2.859   0.392   2.425 -0.6173 -0.0604 -0.6270
 1508SOL     OW15985   3.500   2.387   2.387 -0.3295  0.3790 -0.1874
 1508SOL    HW115986   3.418   2.344   2.412 -0.2342 -1.3052 -2.7542
 1508SOL    HW215987   3.547   2.320   2.338 -0.2305 -1.6773  2.6957
 1509SOL     OW15988   2.738   4.346  14.027  0.1166  0.2206  0.3262
 1509SOL    HW115989   2.818   4.309  14.064 -1.0601 -1.6415  1.0134
 1509SOL    HW215990   2.699   4.404  14.092 -1.8498 -0.9745  0.2231
 1510SOL     OW15991   0.277   1.107   6.925 -0.0486 -0.3490 -0.1132
 1510SOL    HW115992   0.204   1.050   6.899 -0.8209  0.3828  0.4300
 1510SOL    HW215993   0.275   1.169   6.853 -0.8213 -2.5299 -1.9777
 1511SOL     OW15994   2.416   4.048   0.187  0.2987  0.4816  0.2862
 1511SOL    HW115995   2.472   4.079   0.258 -1.2475  2.6896  0.5508
 1511SOL    HW215996   2.339   4.100   0.210  0.2591  0.2747  0.6271
 1512SOL     OW15997   2.713   0.984  14.859  0.1856 -0.5358  0.3769
 1512SOL    HW115998   2.741   0.903  14.816  1.5110 -0.3004  0.7988
 1512SOL    HW215999   2.618   0.970  14.858  0.1450 -0.2790  0.7260
 1513SOL     OW16000   0.334   3.600   2.560 -0.7558 -0.1876  0.3242
 1513SOL    HW116001   0.285   3.633   2.636 -0.5075 -0.3284  0.5439
 1513SOL    HW216002   0.268   3.612   2.492 -0.3061 -0.4432 -0.1567
 1514SOL     OW16003   3.687   4.592  13.182 -0.0590 -0.5534 -0.4754
 1514SOL    HW116004   3.715   4.528  13.247 -0.5589 -0.6651 -0.3783
 1514SOL    HW216005   3.595   4.593  13.205  0.3358 -1.3156  1.1262
 1515SOL     OW16006   4.625   1.107  14.587  0.0809  0.1677 -0.0444
 1515SOL    HW116007   4.570   1.053  14.530  1.0799 -0.1857 -0.6754
 1515SOL    HW216008   4.562   1.149  14.645  0.3594  0.1192  0.2894
 1516SOL     OW16009   2.578   4.629   8.502 -0.2888  0.0731  0.3428
 1516SOL    HW116010   2.673   4.620   8.503 -0.4629 -2.1281 -2.6589
 1516SOL    HW216011   2.555   4.563   8.569  0.2273 -0.6380 -0.1850
 1517SOL     OW16012   3.226   3.969   5.312  0.0014  0.6462 -0.4394
 1517SOL    HW116013   3.247   4.053   5.353  1.4871 -0.3181  0.7786
 1517SOL    HW216014   3.194   3.986   5.223 -0.7433  0.0937 -0.2812
 1518SOL     OW16015   3.106   0.787   6.913  0.3535 -0.9378 -0.3961
 1518SOL    HW116016   3.026   0.735   6.903  0.2723 -0.1672 -3.8829
 1518SOL    HW216017   3.157   0.737   6.976 -1.0803 -2.0785 -0.1206
 1519SOL     OW16018   0.042   4.462   7.468  0.2251  0.0122  0.1737
 1519SOL    HW116019   4.720   4.387   7.505 -0.7151 -1.2257 -3.5998
 1519SOL    HW216020   0.050   4.522   7.542  0.3903 -1.0944  1.0605
 1520SOL     OW16021   0.522   1.203   2.436  0.1763 -0.3346  0.0136
 1520SOL    HW116022   0.576   1.270   2.477  2.0182 -0.8185 -1.6492
 1520SOL    HW216023   0.585   1.173   2.372  1.3219  0.3424  0.8287
 1521SOL     OW16024   2.913   1.454   5.362 -0.5376  0.1521  0.5247
 1521SOL    HW116025   2.912   1.364   5.396  0.5245  0.5672  1.6461
 1521SOL    HW216026   3.005   1.480   5.370 -0.1803 -0.9805  0.2074
 1522SOL     OW16027   0.338   0.315   3.963 -0.7583  0.0358  0.2954
 1522SOL    HW116028   0.284   0.339   3.888  1.1123  1.6059 -0.5224
 1522SOL    HW216029   0.281   0.333   4.038 -0.7923  0.4863  0.1596
 1523SOL     OW16030   3.898   1.334   2.295 -0.3248 -0.3849 -0.0828
 1523SOL    HW116031   3.898   1.311   2.202  0.8257  0.7322 -0.3637
 1523SOL    HW216032   3.852   1.259   2.332 -2.4978  0.7645 -0.4846
 1524SOL     OW16033   3.896   3.102  12.562 -0.2318 -0.1421  0.4982
 1524SOL    HW116034   3.916   3.145  12.479  0.8335 -0.8538  0.3978
 1524SOL    HW216035   3.951   3.025  12.552 -2.6254 -1.7683 -0.3738
 1525SOL     OW16036   2.754   1.724   9.498 -0.4756 -0.4817  0.2006
 1525SOL    HW116037   2.676   1.742   9.444  0.1332  0.1807 -0.4640
 1525SOL    HW216038   2.823   1.730   9.431  0.0394 -2.9308  0.5462
 1526SOL     OW16039   2.270   1.670   0.391 -0.0152 -0.0700  0.1471
 1526SOL    HW116040   2.346   1.710   0.348  1.1982 -0.8731  1.5508
 1526SOL    HW216041   2.227   1.739   0.441  0.0990 -1.5201  2.2235
 1527SOL     OW16042   0.294   2.583   6.689  0.4582  0.5576  0.0912
 1527SOL    HW116043   0.278   2.519   6.758 -0.7055 -0.2390 -0.9256
 1527SOL    HW216044   0.378   2.545   6.665  0.5044  0.5495  0.2684
 1528SOL     OW16045   2.465   2.424   9.337 -0.5919 -0.6362  0.3044
 1528SOL    HW116046   2.386   2.370   9.342  0.1455 -2.0798 -3.6534
 1528SOL    HW216047   2.492   2.405   9.427  1.7389 -3.7454 -1.0509
 1529SOL     OW16048   1.572   0.412   3.289  0.0741  0.4788  0.2673
 1529SOL    HW116049   1.576   0.408   3.384 -1.1539 -2.5243  0.1722
 1529SOL    HW216050   1.592   0.321   3.264 -1.1742  0.3583 -0.2805
 1530SOL     OW16051   2.918   1.380   6.118 -0.0172 -0.3255  0.0667
 1530SOL    HW116052   2.884   1.377   6.028  1.8784  0.5319 -0.6793
 1530SOL    HW216053   2.919   1.476   6.127  3.5870 -0.4135  0.3614
 1531SOL     OW16054   1.196   2.389   9.832  0.5459 -0.3127 -0.4691
 1531SOL    HW116055   1.192   2.318   9.768  1.8563 -0.5417 -0.2818
 1531SOL    HW216056   1.290   2.390   9.850  0.2631 -2.6685  1.1510
 1532SOL     OW16057   0.503   3.465   5.840 -0.2199 -0.1060 -0.4667
 1532SOL    HW116058   0.429   3.406   5.825  0.1456 -0.6167 -0.2565
 1532SOL    HW216059   0.561   3.398   5.876 -0.0228 -0.0294 -0.6414
 1533SOL     OW16060   0.787   0.333   8.664  0.2665  0.0534 -0.5859
 1533SOL    HW116061   0.739   0.323   8.746 -2.1731  0.3402 -1.9755
 1533SOL    HW216062   0.824   0.245   8.654 -1.0830 -0.3623 -1.8725
 1534SOL     OW16063   2.565   3.660   4.055 -0.3374 -0.3871 -0.4012
 1534SOL    HW116064   2.605   3.619   3.978  0.8067  0.7368 -0.4138
 1534SOL    HW216065   2.475   3.668   4.026 -0.8679  0.5004  1.5066
 1535SOL     OW16066   1.062   3.264  15.447 -0.0089 -0.1350 -0.2130
 1535SOL    HW116067   1.026   3.233  15.364 -1.1489  0.9052 -0.0995
 1535SOL    HW216068   1.022   3.210  15.515 -1.0060  1.6087  0.5835
 1536SOL     OW16069   2.719   0.051   6.936  0.4985  0.5583 -0.2556
 1536SOL    HW116070   2.736   0.042   7.030 -0.2683 -0.0351 -0.1735
 1536SOL    HW216071   2.640   4.721   6.927  1.1164 -0.6140  1.3709
 1537SOL     OW16072   3.534   3.080   2.896  0.5851 -0.3775  0.4611
 1537SOL    HW116073   3.494   3.020   2.832 -0.6688  0.2175  0.6828
 1537SOL    HW216074   3.462   3.141   2.913  0.4914 -0.3393 -0.0763
 1538SOL     OW16075   3.724   2.826   4.026 -0.1848  0.0553 -0.1736
 1538SOL    HW116076   3.815   2.854   4.021  0.2881 -1.1157  2.2244
 1538SOL    HW216077   3.701   2.847   3.935  0.8792 -3.3862 -1.2480
 1539SOL     OW16078   2.600   2.734  12.856  0.4195  0.0552  0.0334
 1539SOL    HW116079   2.589   2.666  12.790  0.3825  0.7294 -0.6470
 1539SOL    HW216080   2.646   2.799  12.803 -2.5263  1.0530 -1.2665
 1540SOL     OW16081   3.476   0.151   1.101  0.1084  0.0479 -0.2850
 1540SOL    HW116082   3.464   0.071   1.152  2.4533 -0.6351 -0.8328
 1540SOL    HW216083   3.540   0.127   1.034  1.0031  0.4571  0.4314
 1541SOL     OW16084   1.516   2.078  16.858  0.1966 -0.1774  0.3173
 1541SOL    HW116085   1.530   2.027  16.778  1.4582  1.5734 -0.5803
 1541SOL    HW216086   1.578   2.149  16.840  0.0110  0.3029  1.5674
 1542SOL     OW16087   1.412   2.941  13.369  0.2176  0.7294 -0.0639
 1542SOL    HW116088   1.476   2.870  13.370 -0.8392 -0.2137  0.2702
 1542SOL    HW216089   1.355   2.899  13.433 -0.2389 -2.3146 -2.4722
 1543SOL     OW16090   4.577   3.681   3.926 -0.5211 -0.0726 -0.5418
 1543SOL    HW116091   4.599   3.752   3.865  2.3518  1.1598  1.9564
 1543SOL    HW216092   4.604   3.610   3.868  1.1421  0.4743 -0.4214
 1544SOL     OW16093   3.838   0.964   7.218 -0.3216  0.4364 -0.0727
 1544SOL    HW116094   3.760   0.924   7.180  1.1093 -2.1848 -0.2884
 1544SOL    HW216095   3.908   0.912   7.179 -1.1895 -1.7661  1.3006
 1545SOL     OW16096   2.728   4.041  13.085 -0.1344  0.0495  0.5281
 1545SOL    HW116097   2.720   4.135  13.102 -2.5529 -0.3383  1.5927
 1545SOL    HW216098   2.724   3.998  13.170 -1.4340 -1.6249 -0.4024
 1546SOL     OW16099   2.613   2.106   2.018  0.3024 -0.6439 -0.4017
 1546SOL    HW116100   2.610   2.090   2.112 -2.4378  0.2134 -0.3521
 1546SOL    HW216101   2.546   2.041   1.996 -1.0721  1.1752 -1.6299
 1547SOL     OW16102   4.581   2.589   7.444  0.2740  0.8216 -0.1390
 1547SOL    HW116103   4.651   2.527   7.462  0.3411  0.3598 -2.0090
 1547SOL    HW216104   4.579   2.597   7.349  2.0727 -2.5948 -0.4698
 1548SOL     OW16105   2.579   4.262   1.195 -0.3053  0.7281  0.3578
 1548SOL    HW116106   2.529   4.269   1.113 -1.0665  0.0689  0.7711
 1548SOL    HW216107   2.615   4.174   1.187 -3.3796 -0.6019  0.8853
 1549SOL     OW16108   0.577   4.034   6.866  0.0368 -0.0782  0.3428
 1549SOL    HW116109   0.554   4.005   6.778 -0.8586 -1.7935  1.1342
 1549SOL    HW216110   0.491   4.042   6.907  0.2432  1.5687  0.4436
 1550SOL     OW16111   1.810   3.477   8.038 -0.0327 -0.1123  0.2082
 1550SOL    HW116112   1.830   3.438   8.124  2.0921 -0.3978 -0.4220
 1550SOL    HW216113   1.900   3.502   8.017 -1.1028  0.9131 -3.0337
 1551SOL     OW16114   3.348   3.765  13.231  0.0293  1.1085  0.0290
 1551SOL    HW116115   3.442   3.781  13.218  0.6121 -1.4594  1.1632
 1551SOL    HW216116   3.325   3.723  13.148  0.9542 -0.0174  0.3535
 1552SOL     OW16117   1.447   0.620  16.008  0.0159  0.3735 -0.4780
 1552SOL    HW116118   1.360   0.634  16.045  0.6963  0.5523  1.0455
 1552SOL    HW216119   1.424   0.548  15.950 -2.9137 -0.0667  1.2195
 1553SOL     OW16120   0.611   0.513   1.772  0.2441  0.7523  0.1316
 1553SOL    HW116121   0.643   0.513   1.862  0.6174  2.8385 -0.0005
 1553SOL    HW216122   0.694   0.493   1.730  0.5659 -2.2671  2.2460
 1554SOL     OW16123   4.613   4.394   1.762 -0.4405 -0.3625  0.0708
 1554SOL    HW116124   4.693   4.440   1.735  0.6436 -0.3371  3.2680
 1554SOL    HW216125   4.574   4.403   1.675  2.0079  3.1567 -0.6867
 1555SOL     OW16126   0.922   4.405  11.347 -0.2023  0.3290 -0.1243
 1555SOL    HW116127   0.887   4.428  11.261  0.0150 -0.5069 -0.4383
 1555SOL    HW216128   0.847   4.427  11.401 -0.3226 -1.8573  0.6104
 1556SOL     OW16129   3.410   3.906   9.688 -0.1874  0.0129 -0.7170
 1556SOL    HW116130   3.387   3.853   9.764 -1.1872  0.9793 -0.3502
 1556SOL    HW216131   3.506   3.901   9.697 -0.2459  0.0745 -0.0428
 1557SOL     OW16132   4.143   1.857   5.481  0.4620  0.2019  0.2139
 1557SOL    HW116133   4.173   1.934   5.530  2.7397  0.3344 -1.3682
 1557SOL    HW216134   4.175   1.870   5.392  2.5370 -0.0147  0.9280
 1558SOL     OW16135   3.808   3.709   4.135 -0.1919 -0.6323 -0.1047
 1558SOL    HW116136   3.901   3.713   4.113  0.1811  1.2918  1.7666
 1558SOL    HW216137   3.800   3.782   4.197 -1.0517  0.8634 -1.9759
 1559SOL     OW16138   0.956   1.504   4.155  0.0926 -0.1685 -0.1708
 1559SOL    HW116139   0.864   1.482   4.172 -0.0593  0.9530  0.4803
 1559SOL    HW216140   0.970   1.528   4.063 -4.0672  0.0152 -0.7883
 1560SOL     OW16141   1.026   4.391   0.880  0.3194  0.3640 -0.0499
 1560SOL    HW116142   0.959   4.428   0.823 -2.1814  0.9595  3.2918
 1560SOL    HW216143   1.022   4.300   0.850 -0.4177  0.4294 -0.1301
 1561SOL     OW16144   4.655   4.719   7.205  0.2114  0.0173 -0.6806
 1561SOL    HW116145   4.616   0.029   7.286  0.2383 -1.5299 -0.0333
 1561SOL    HW216146   0.009   0.047   7.183  0.0909  1.3133  1.8672
 1562SOL     OW16147   4.174   4.566  11.171  0.5681  0.5616 -0.6283
 1562SOL    HW116148   4.257   4.605  11.143  0.8526 -0.6697 -1.4996
 1562SOL    HW216149   4.198   4.548  11.262 -0.0974  1.2049 -0.3261
 1563SOL     OW16150   3.427   1.180  17.518 -0.4905  0.3498 -0.4348
 1563SOL    HW116151   3.474   1.105  17.481  1.6415  2.2527 -1.5704
 1563SOL    HW216152   3.491   1.208  17.584 -1.5716 -0.2982  0.8994
 1564SOL     OW16153   3.580   4.048   6.648 -0.7210 -0.3882  0.9249
 1564SOL    HW116154   3.509   3.984   6.652 -1.6501  0.6743  1.5333
 1564SOL    HW216155   3.570   4.092   6.733 -0.2104  1.3370  0.0935
 1565SOL     OW16156   2.559   4.686   7.538  0.4163 -0.6324  0.6586
 1565SOL    HW116157   2.568   0.038   7.594  1.4850  0.7089 -1.3162
 1565SOL    HW216158   2.652   4.664   7.534  1.0227  2.3371 -1.5638
 1566SOL     OW16159   0.684   1.928   1.801  0.2730 -0.0017 -0.2019
 1566SOL    HW116160   0.705   2.015   1.837 -0.0153 -0.7926  1.8600
 1566SOL    HW216161   0.696   1.959   1.711  1.5907  0.5659  0.1625
 1567SOL     OW16162   3.180   4.416   8.887  0.2639 -0.2557 -0.1681
 1567SOL    HW116163   3.217   4.328   8.897  1.3047  0.4822  2.6333
 1567SOL    HW216164   3.153   4.429   8.978  0.2574  1.6687 -0.4352
 1568SOL     OW16165   3.460   4.546   4.531  0.3440 -0.4629 -0.0885
 1568SOL    HW116166   3.374   4.588   4.535  0.5239 -0.1906  1.3309
 1568SOL    HW216167   3.439   4.475   4.592  2.9549 -1.3111 -0.1970
 1569SOL     OW16168   1.622   4.190   3.793 -0.1043  0.1165  0.5944
 1569SOL    HW116169   1.610   4.196   3.698  0.5542  0.2641  0.5192
 1569SOL    HW216170   1.699   4.133   3.789 -0.8599 -0.9156  0.8089
 1570SOL     OW16171   3.750   3.970   0.396 -0.3854  0.5438  0.4382
 1570SOL    HW116172   3.712   4.056   0.410 -1.0804  0.3623 -0.3118
 1570SOL    HW216173   3.672   3.914   0.406  0.4535 -0.2551  2.5432
 1571SOL     OW16174   0.519   3.752   5.179  0.1702 -0.0375 -0.2912
 1571SOL    HW116175   0.561   3.667   5.193  0.0467  0.1368  1.1713
 1571SOL    HW216176   0.550   3.799   5.256 -2.2573  1.3970 -0.2005
 1572SOL     OW16177   1.990   3.973  16.645  0.2485  0.3294  0.5119
 1572SOL    HW116178   1.969   3.982  16.738 -2.2748 -0.2023 -0.0078
 1572SOL    HW216179   1.909   4.005  16.604 -0.7106 -2.4872  0.2357
 1573SOL     OW16180   4.278   3.864  10.067 -0.1956 -0.0833  0.0002
 1573SOL    HW116181   4.265   3.815   9.986  1.0652  0.1630 -0.3484
 1573SOL    HW216182   4.367   3.895  10.052 -0.3206  1.0460  1.6329
 1574SOL     OW16183   2.014   1.562   5.861  0.5384  0.0462 -0.3946
 1574SOL    HW116184   1.975   1.643   5.893 -2.8059 -1.1026 -1.5585
 1574SOL    HW216185   1.952   1.500   5.901  0.0930  1.8246  1.6861
 1575SOL     OW16186   2.143   0.374  17.084  0.1375  0.8555  0.4002
 1575SOL    HW116187   2.132   0.315  17.159 -0.1146  2.8204  1.9109
 1575SOL    HW216188   2.068   0.430  17.105 -0.7016 -0.4677  0.9609
 1576SOL     OW16189   3.919   2.417  13.099  0.3517 -0.1277  0.1517
 1576SOL    HW116190   3.847   2.358  13.078  0.2183 -0.6928  2.2010
 1576SOL    HW216191   3.886   2.486  13.042  1.9171  1.3858  1.0734
 1577SOL     OW16192   1.922   2.693   7.753  0.3050 -0.2897  0.7123
 1577SOL    HW116193   2.008   2.720   7.787 -0.1651 -1.3197  2.7383
 1577SOL    HW216194   1.948   2.660   7.667 -0.8703  2.6092 -0.7283
 1578SOL     OW16195   2.083   2.255  16.100  0.2903  0.4334  0.0971
 1578SOL    HW116196   2.172   2.227  16.124  0.1459 -1.1371 -1.2183
 1578SOL    HW216197   2.074   2.218  16.012 -1.3120  1.3535 -0.1252
 1579SOL     OW16198   2.581   1.931   1.626 -0.0699 -0.5204 -0.3807
 1579SOL    HW116199   2.631   1.853   1.649  1.8986  1.1426  0.9470
 1579SOL    HW216200   2.494   1.901   1.655 -0.1334 -1.9762 -2.1008
 1580SOL     OW16201   2.567   0.912  10.363  0.6371  0.0293 -0.4646
 1580SOL    HW116202   2.540   0.844  10.425 -0.1286 -1.2413 -2.2184
 1580SOL    HW216203   2.629   0.960  10.419 -1.4780  1.6970  0.4704
 1581SOL     OW16204   2.388   0.013  15.832 -0.3002 -0.2329  0.4073
 1581SOL    HW116205   2.363   4.645  15.817  0.6424 -0.6957  1.6968
 1581SOL    HW216206   2.354   0.032  15.919  4.1204 -1.3954  2.4075
 1582SOL     OW16207   2.911   2.206  10.020  0.0591 -0.8348  0.6897
 1582SOL    HW116208   2.883   2.115  10.009 -1.1193 -0.5107  0.9550
 1582SOL    HW216209   2.976   2.210   9.951 -1.7917  1.1525 -0.9527
 1583SOL     OW16210   1.904   4.180   1.914  0.5113 -0.2071 -0.6740
 1583SOL    HW116211   1.863   4.163   1.829  1.1856 -0.6538 -0.9142
 1583SOL    HW216212   1.919   4.090   1.943  1.2505  0.2607  0.3872
 1584SOL     OW16213   1.183   2.106  14.714  0.3191 -0.2412 -0.0099
 1584SOL    HW116214   1.100   2.146  14.742 -1.1910 -1.9411 -2.0216
 1584SOL    HW216215   1.218   2.165  14.647 -4.8271  0.7864 -1.8251
 1585SOL     OW16216   3.027   0.206   9.038  0.1718  0.1727  0.2004
 1585SOL    HW116217   2.997   0.275   9.097 -1.7437  1.5780 -2.3870
 1585SOL    HW216218   2.948   0.153   9.025 -0.3388  1.1185 -0.6095
 1586SOL     OW16219   4.123   3.338   5.407 -0.4296  0.4401 -0.3081
 1586SOL    HW116220   4.178   3.380   5.341  1.3917  0.9511  1.5327
 1586SOL    HW216221   4.064   3.289   5.349  1.8813 -1.1044 -1.3684
 1587SOL     OW16222   4.349   4.636   6.685  0.0441 -0.2124 -0.4595
 1587SOL    HW116223   4.400   4.575   6.738  2.0383  1.8783  0.0253
 1587SOL    HW216224   4.394   4.719   6.700 -1.4665  0.6970 -0.9418
 1588SOL     OW16225   3.479   0.074  14.400 -0.0437 -0.2690  0.5432
 1588SOL    HW116226   3.427   0.114  14.470  0.6700  2.9134 -0.7267
 1588SOL    HW216227   3.563   0.060  14.443  0.8397 -1.8763 -1.6954
 1589SOL     OW16228   2.489   4.140   8.727  0.7511 -0.1025 -0.4691
 1589SOL    HW116229   2.522   4.193   8.654 -1.0649 -2.3617 -2.9316
 1589SOL    HW216230   2.412   4.186   8.759  1.3674  0.8161 -0.3030
 1590SOL     OW16231   4.603   3.179  14.592 -0.2931 -0.0053  0.0503
 1590SOL    HW116232   4.665   3.248  14.615 -1.0488 -0.2740  2.9108
 1590SOL    HW216233   4.567   3.194  14.505  2.5416  2.9973 -0.6053
 1591SOL     OW16234   4.653   4.011   7.973 -1.2510  0.2909  0.2505
 1591SOL    HW116235   4.578   4.029   8.029 -0.9911  0.4090  0.5590
 1591SOL    HW216236   4.681   4.099   7.947 -0.0881 -0.1241  0.0653
 1592SOL     OW16237   1.359   2.700   6.720  0.0560 -0.4601 -0.4801
 1592SOL    HW116238   1.301   2.636   6.680  1.6343 -1.2316 -1.5161
 1592SOL    HW216239   1.302   2.776   6.729  1.9092  1.1384 -2.1537
 1593SOL     OW16240   1.273   4.291  15.115 -0.0908 -0.3769  0.5386
 1593SOL    HW116241   1.183   4.298  15.084  0.5911  0.3784 -1.2749
 1593SOL    HW216242   1.289   4.198  15.131  1.2313 -0.4468 -1.1151
 1594SOL     OW16243   0.684   4.211   0.308 -0.2191 -0.1267  0.3562
 1594SOL    HW116244   0.737   4.241   0.382 -0.1680 -1.2995  0.7952
 1594SOL    HW216245   0.598   4.247   0.328 -0.7996 -1.3618  0.0935
 1595SOL     OW16246   2.739   1.116   8.671  0.4250  0.3471  0.4500
 1595SOL    HW116247   2.646   1.129   8.654  0.6908  2.0657  0.3183
 1595SOL    HW216248   2.774   1.205   8.665  0.1222  0.5791  2.0568
 1596SOL     OW16249   2.279   2.205   5.623  0.2777 -0.2049  0.0709
 1596SOL    HW116250   2.270   2.277   5.561 -0.9419  2.4436  3.3360
 1596SOL    HW216251   2.374   2.188   5.622  0.2717 -0.2852  0.7752
 1597SOL     OW16252   0.582   2.738   7.149 -0.0393  0.1157  0.1731
 1597SOL    HW116253   0.650   2.677   7.176 -0.7699 -0.1258  1.4378
 1597SOL    HW216254   0.602   2.801   7.218 -0.4151  2.6246 -1.9936
 1598SOL     OW16255   0.237   3.094   7.598 -0.2648  0.0348  0.1024
 1598SOL    HW116256   0.193   3.117   7.680  2.6645  1.5561  1.2333
 1598SOL    HW216257   0.321   3.065   7.634  0.1965  0.9328 -0.2477
 1599SOL     OW16258   1.196   2.730  15.611  0.0093 -0.0986 -0.1251
 1599SOL    HW116259   1.256   2.656  15.603  0.4588  0.2514  0.0555
 1599SOL    HW216260   1.174   2.735  15.705  1.1731  0.3052  0.1210
 1600SOL     OW16261   0.768   2.229  11.015  0.1561  0.3341 -0.0528
 1600SOL    HW116262   0.791   2.301  11.074 -0.9065  0.1566  0.5742
 1600SOL    HW216263   0.672   2.225  11.018  0.1854  1.5286  2.2294
 1601SOL     OW16264   3.509   0.957   2.534  0.3924  0.6165  0.9948
 1601SOL    HW116265   3.536   1.005   2.612 -1.5824  1.0737  1.3906
 1601SOL    HW216266   3.497   0.870   2.573 -0.9351  0.1993 -0.3284
 1602SOL     OW16267   1.290   3.147   3.959 -0.7257 -0.1445 -0.9029
 1602SOL    HW116268   1.281   3.068   4.013 -0.2266  0.0066 -0.5908
 1602SOL    HW216269   1.247   3.116   3.879  3.8108 -1.9731 -2.6068
 1603SOL     OW16270   3.428   2.098  11.492 -0.5931 -0.6047  0.1726
 1603SOL    HW116271   3.447   2.191  11.499 -0.3973 -0.6723  0.5484
 1603SOL    HW216272   3.448   2.072  11.403  0.2273  0.4349  0.0567
 1604SOL     OW16273   2.195   3.475  16.307 -0.1619  0.2241  0.0481
 1604SOL    HW116274   2.206   3.410  16.377 -0.0902 -0.8226 -0.9266
 1604SOL    HW216275   2.103   3.498  16.303  0.0713  0.9814 -0.8891
 1605SOL     OW16276   3.458   1.473   9.970  0.3034  0.0740 -0.3398
 1605SOL    HW116277   3.535   1.474  10.028 -2.6678  0.9769  3.5956
 1605SOL    HW216278   3.408   1.551   9.994 -0.8230 -0.1074 -2.0815
 1606SOL     OW16279   4.279   0.938   8.008 -0.4434  0.0456 -0.0167
 1606SOL    HW116280   4.330   1.012   8.041  1.3956 -0.6686 -1.2801
 1606SOL    HW216281   4.191   0.965   8.032 -1.0283 -0.8377 -1.1854
 1607SOL     OW16282   2.939   1.972   0.455  0.8011 -0.1656 -0.6015
 1607SOL    HW116283   2.894   1.950   0.373  0.3972  2.9646 -1.1888
 1607SOL    HW216284   3.005   2.029   0.416  1.1693  2.5332  3.9709
 1608SOL     OW16285   1.377   1.387  15.984  0.0590 -0.0770 -0.1661
 1608SOL    HW116286   1.328   1.349  15.912 -1.6440 -0.3398  1.1183
 1608SOL    HW216287   1.369   1.482  15.977  0.3701 -0.1910 -1.9166
 1609SOL     OW16288   4.098   0.058   4.014 -0.0170  0.5679 -0.1680
 1609SOL    HW116289   4.106   0.125   4.082  1.0896 -0.6743  0.9219
 1609SOL    HW216290   4.189   0.030   4.018 -0.8681 -2.3239 -0.5661
 1610SOL     OW16291   1.327   3.524   1.276  0.4392  0.3911 -0.0347
 1610SOL    HW116292   1.340   3.477   1.194  2.7718  0.2171  0.4389
 1610SOL    HW216293   1.385   3.596   1.250  1.5094  0.2677  2.0795
 1611SOL     OW16294   0.057   3.114   8.789 -0.4829 -0.0912  0.1772
 1611SOL    HW116295   0.125   3.082   8.730  0.5351  1.7782  0.3205
 1611SOL    HW216296   0.117   3.167   8.841  0.6766 -1.8382  0.6042
 1612SOL     OW16297   1.820   3.067   7.049  0.4248  0.8726  0.3299
 1612SOL    HW116298   1.771   3.113   6.981 -2.0695  1.4039  2.4933
 1612SOL    HW216299   1.892   3.125   7.075  0.2127  0.6170  1.4924
 1613SOL     OW16300   0.684   0.502   2.845 -0.0210 -0.3327  0.6859
 1613SOL    HW116301   0.656   0.417   2.809 -0.2475 -0.6866  1.6864
 1613SOL    HW216302   0.709   0.535   2.759  2.2902  1.3303  2.0196
 1614SOL     OW16303   2.387   0.264  14.028 -0.1596 -0.6654 -0.4070
 1614SOL    HW116304   2.316   0.303  14.079 -0.2520  0.2040 -1.1802
 1614SOL    HW216305   2.433   0.340  13.991  0.4060  0.2193  2.1463
 1615SOL     OW16306   1.852   3.737   8.318  1.0276 -0.1004 -0.0989
 1615SOL    HW116307   1.840   3.779   8.403  0.0209  2.1428 -1.3542
 1615SOL    HW216308   1.882   3.809   8.263  1.9466 -0.2879  0.1475
 1616SOL     OW16309   0.450   2.023  11.155  0.2601  0.2907  0.2867
 1616SOL    HW116310   0.514   2.044  11.223  1.4670 -0.9297 -0.4563
 1616SOL    HW216311   0.469   2.100  11.101 -0.6735  1.0309  1.0275
 1617SOL     OW16312   0.930   2.425   5.689 -0.2824  0.3895  0.1345
 1617SOL    HW116313   0.980   2.419   5.607 -0.1987 -1.4819  0.3163
 1617SOL    HW216314   0.868   2.495   5.670  0.0258  0.9949  1.3552
 1618SOL     OW16315   4.213   2.733   7.967 -0.3910  0.0925 -0.0126
 1618SOL    HW116316   4.155   2.715   8.041 -1.1114  1.1583 -0.3185
 1618SOL    HW216317   4.299   2.713   8.005 -0.5936  0.5999  0.6974
 1619SOL     OW16318   2.277   2.165   9.082 -0.7730 -0.4138 -0.5264
 1619SOL    HW116319   2.192   2.202   9.058 -0.2385  1.6371  0.7368
 1619SOL    HW216320   2.292   2.199   9.170  0.1810 -0.1331 -0.7894
 1620SOL     OW16321   2.127   4.185   0.559 -0.7787  0.1500  0.0709
 1620SOL    HW116322   2.075   4.169   0.638 -0.0913  0.8319  0.6601
 1620SOL    HW216323   2.155   4.274   0.579 -2.0750  0.6166 -0.2173
 1621SOL     OW16324   0.935   4.577   4.875  0.1179 -0.0519 -0.4675
 1621SOL    HW116325   0.892   4.605   4.794 -1.3051 -0.2440  0.2204
 1621SOL    HW216326   0.931   4.483   4.860  2.3182 -0.4653  1.6240
 1622SOL     OW16327   3.262   4.314   1.545 -0.0708  0.2949  1.0396
 1622SOL    HW116328   3.245   4.253   1.618  3.0609 -2.4030 -0.4712
 1622SOL    HW216329   3.178   4.297   1.503  0.7348 -4.0390  1.1114
 1623SOL     OW16330   1.954   2.540  13.507 -0.1468 -0.2677 -0.0166
 1623SOL    HW116331   2.000   2.583  13.434 -0.8737  2.0109  0.8667
 1623SOL    HW216332   1.913   2.617  13.546 -0.4645 -0.2162 -0.4502
 1624SOL     OW16333   1.008   0.576   5.121 -0.0355 -0.0051 -0.5140
 1624SOL    HW116334   1.051   0.627   5.189 -1.8458  0.5042  0.2428
 1624SOL    HW216335   1.081   0.516   5.103  1.8693  2.4193 -0.7716
 1625SOL     OW16336   4.066   2.854   2.681 -0.5605  0.1949 -0.5978
 1625SOL    HW116337   4.138   2.911   2.707 -0.2707 -0.9854  1.1499
 1625SOL    HW216338   4.090   2.766   2.710 -0.4934  0.0767 -1.0077
 1626SOL     OW16339   3.759   3.002   5.403  0.4421 -0.0651  0.3218
 1626SOL    HW116340   3.747   3.094   5.427 -1.9132 -0.1577 -0.4891
 1626SOL    HW216341   3.741   2.954   5.484 -2.8551  2.1558  0.9166
 1627SOL     OW16342   3.310   1.372   7.703 -0.2399  0.2686 -0.1323
 1627SOL    HW116343   3.286   1.282   7.721  2.1586  0.0530  2.0652
 1627SOL    HW216344   3.290   1.420   7.784  0.3718  1.4626 -0.6846
 1628SOL     OW16345   4.289   2.985   5.237  0.1036 -0.2523  0.0347
 1628SOL    HW116346   4.207   2.993   5.287  0.6284  1.0816  0.6735
 1628SOL    HW216347   4.328   2.911   5.285  0.8992 -1.8236 -3.0263
 1629SOL     OW16348   4.551   4.054  13.423  0.7625  0.0057  0.0014
 1629SOL    HW116349   4.543   4.150  13.418 -0.3541 -0.1098 -0.3600
 1629SOL    HW216350   4.531   4.040  13.515 -0.8170 -0.2878 -0.3887
 1630SOL     OW16351   0.463   0.827   3.532 -0.5182 -0.1401  0.1348
 1630SOL    HW116352   0.531   0.807   3.467 -1.4818 -0.1433 -0.8740
 1630SOL    HW216353   0.395   0.765   3.503  0.3598 -0.1640 -1.9105
 1631SOL     OW16354   0.512   3.832  13.651  0.3788 -0.2433  0.0614
 1631SOL    HW116355   0.564   3.837  13.571  0.3073 -0.7232 -0.0107
 1631SOL    HW216356   0.465   3.916  13.657  0.3996 -0.1767 -0.7162
 1632SOL     OW16357   4.050   2.815   3.758  0.7382 -0.0568  0.1550
 1632SOL    HW116358   4.026   2.742   3.702  2.3038  0.5661 -1.3293
 1632SOL    HW216359   3.993   2.809   3.834  3.0162  1.8267  2.0339
 1633SOL     OW16360   2.398   3.035   9.343 -0.3082  0.2252 -0.2465
 1633SOL    HW116361   2.453   3.088   9.402  1.9994 -0.7810 -1.4824
 1633SOL    HW216362   2.467   3.002   9.286 -1.1150 -0.2522 -0.9300
 1634SOL     OW16363   3.681   4.614   8.405  0.0417 -0.0363  0.1703
 1634SOL    HW116364   3.764   4.571   8.427  0.2296  0.1079 -0.2724
 1634SOL    HW216365   3.692   4.678   8.475  1.1651  1.1744 -1.1460
 1635SOL     OW16366   2.727   3.983  13.344 -0.8907  0.0346  0.8675
 1635SOL    HW116367   2.727   4.035  13.424  0.6555 -0.4590  1.1885
 1635SOL    HW216368   2.714   3.903  13.395 -1.7639 -0.0043  0.5766
 1636SOL     OW16369   3.468   4.456   8.455 -0.1367  0.4448 -0.6322
 1636SOL    HW116370   3.552   4.498   8.437 -0.4438  1.3732  0.1028
 1636SOL    HW216371   3.425   4.513   8.519 -0.9297  1.2414 -1.8908
 1637SOL     OW16372   4.378   3.394   1.971 -0.2970  0.0584 -0.2353
 1637SOL    HW116373   4.326   3.319   1.939 -1.6291  0.4713  0.9785
 1637SOL    HW216374   4.347   3.465   1.915  0.8521  0.1379 -0.7728
 1638SOL     OW16375   0.669   2.890   7.374  0.5622  0.0446 -0.2942
 1638SOL    HW116376   0.598   2.912   7.434  1.2573  4.8607 -1.1804
 1638SOL    HW216377   0.679   2.977   7.335  2.3057  0.3440  0.8059
 1639SOL     OW16378   0.342   4.221   0.207  0.0823  0.0925 -0.1661
 1639SOL    HW116379   0.276   4.157   0.234 -0.6429  0.7490 -0.3672
 1639SOL    HW216380   0.341   4.212   0.111  2.0020 -2.9947  0.1242
 1640SOL     OW16381   4.383   2.288   6.105 -0.6034 -0.0568 -0.1029
 1640SOL    HW116382   4.421   2.351   6.167 -1.4920  0.5247 -0.1508
 1640SOL    HW216383   4.293   2.285   6.138 -0.2634  2.0438  1.0517
 1641SOL     OW16384   1.299   4.628   7.747  0.0868 -0.3421 -0.8857
 1641SOL    HW116385   1.272   4.642   7.656  0.8718  0.7063 -0.9529
 1641SOL    HW216386   1.287   4.533   7.753 -0.7664 -0.1784  0.0738
 1642SOL     OW16387   3.457   4.323   0.965  0.6487 -0.1109  0.1552
 1642SOL    HW116388   3.372   4.334   0.922  0.3407 -2.0711  0.2390
 1642SOL    HW216389   3.421   4.317   1.054  1.3666 -0.5562  0.4170
 1643SOL     OW16390   0.118   0.056   1.543 -0.2931  0.1172  0.3473
 1643SOL    HW116391   0.182   0.040   1.612 -2.2586 -1.3592  1.8538
 1643SOL    HW216392   0.174   0.083   1.470  2.8115 -1.4323  2.1854
 1644SOL     OW16393   0.884   3.904   7.395  0.4633  0.3183  0.0799
 1644SOL    HW116394   0.851   3.934   7.480  0.8879 -1.5328  0.9068
 1644SOL    HW216395   0.877   3.809   7.406 -0.3131  0.0066 -3.2041
 1645SOL     OW16396   3.650   2.805   5.917 -0.6164  0.4496  0.2129
 1645SOL    HW116397   3.666   2.899   5.917  0.3285  0.3026  2.2369
 1645SOL    HW216398   3.565   2.798   5.875 -1.0815 -0.6545  1.3266
 1646SOL     OW16399   0.024   0.647  17.017  0.5277  1.1970 -0.1350
 1646SOL    HW116400   0.081   0.584  16.974  0.1930 -0.8344  2.4223
 1646SOL    HW216401   0.013   0.589  17.092 -2.6889  0.3614 -1.2735
 1647SOL     OW16402   0.405   3.001   6.180 -0.4127 -0.0543 -0.8249
 1647SOL    HW116403   0.314   2.971   6.180 -0.1048 -0.9801  1.8041
 1647SOL    HW216404   0.378   3.093   6.181 -3.5313 -0.9565 -1.7984
 1648SOL     OW16405   2.531   4.692  15.570 -0.2038  0.3005  0.0983
 1648SOL    HW116406   2.574   4.614  15.535  2.2280  1.4449  0.5325
 1648SOL    HW216407   2.477   4.659  15.642  1.3598  0.8009  1.4815
 1649SOL     OW16408   3.431   2.876   2.738 -0.7121  0.2811 -0.2333
 1649SOL    HW116409   3.461   2.844   2.653  0.4185 -0.2080  0.3607
 1649SOL    HW216410   3.341   2.846   2.725 -1.2594  1.4800  0.7548
 1650SOL     OW16411   3.157   3.638   6.317  0.1930 -0.1968  1.2914
 1650SOL    HW116412   3.199   3.672   6.238  1.6066  0.5447  2.3674
 1650SOL    HW216413   3.230   3.589   6.355 -0.4337 -0.3121  2.3305
 1651SOL     OW16414   4.514   3.293   4.946 -0.8527 -0.0999  0.0194
 1651SOL    HW116415   4.537   3.220   4.889  0.2780 -0.3593  0.7929
 1651SOL    HW216416   4.500   3.244   5.028 -0.9490  0.9574  0.6399
 1652SOL     OW16417   2.504   1.541   7.999 -0.0012 -0.1388  0.1672
 1652SOL    HW116418   2.427   1.493   8.028  0.3646  0.6848  2.5293
 1652SOL    HW216419   2.473   1.583   7.918  0.4582 -1.8209 -0.8850
 1653SOL     OW16420   1.332   0.319   2.769  0.2837 -0.0030 -0.0467
 1653SOL    HW116421   1.301   0.350   2.684 -1.1757  1.9794  1.2028
 1653SOL    HW216422   1.337   0.402   2.817  2.0181  0.7396 -1.5087
 1654SOL     OW16423   1.562   4.313   4.654  0.2091 -0.3603 -0.4314
 1654SOL    HW116424   1.625   4.385   4.663 -1.3610  0.9853 -0.2078
 1654SOL    HW216425   1.563   4.265   4.737 -3.5545  1.6077  0.7337
 1655SOL     OW16426   0.497   4.602  17.551 -0.8159  0.3308 -0.2922
 1655SOL    HW116427   0.407   4.571  17.543 -0.2675 -0.8978 -1.5742
 1655SOL    HW216428   0.520   4.595  17.459 -2.0250  0.2877 -0.5902
 1656SOL     OW16429   1.714   2.094  16.369 -0.3548  0.1311 -0.2692
 1656SOL    HW116430   1.783   2.158  16.383 -0.4804  0.6989 -2.3663
 1656SOL    HW216431   1.759   2.013  16.395 -3.6942 -1.1481  1.6364
 1657SOL     OW16432   2.751   1.709   1.663 -0.1056 -0.0956 -0.2374
 1657SOL    HW116433   2.741   1.651   1.738 -1.2835  0.6015  0.1485
 1657SOL    HW216434   2.840   1.741   1.674 -0.3530  0.4554  0.1920
 1658SOL     OW16435   2.335   3.730   3.829 -0.5488 -0.4476  0.3693
 1658SOL    HW116436   2.406   3.713   3.767  0.1132 -0.8034  1.2125
 1658SOL    HW216437   2.279   3.664   3.789 -0.2663  0.3614 -1.3340
 1659SOL     OW16438   2.209   3.408   6.856  0.0735  0.0263  0.2929
 1659SOL    HW116439   2.291   3.416   6.807 -0.5353  0.2179 -0.7110
 1659SOL    HW216440   2.241   3.382   6.942 -0.4907 -0.6464  0.2961
 1660SOL     OW16441   2.973   1.506   7.893  0.0240 -0.5791 -0.5631
 1660SOL    HW116442   3.011   1.418   7.887  0.4351 -0.5579  1.8911
 1660SOL    HW216443   2.930   1.504   7.978  0.6732  0.8664 -0.2128
 1661SOL     OW16444   1.806   1.926  15.654  0.7842  0.4838  0.6360
 1661SOL    HW116445   1.721   1.950  15.689  0.6372 -1.1150  1.3412
 1661SOL    HW216446   1.818   1.836  15.685 -2.8269  0.3291  1.4951
 1662SOL     OW16447   3.452   3.481   7.892 -0.3674 -0.4175 -0.0475
 1662SOL    HW116448   3.498   3.398   7.905  0.1586 -0.1310 -0.0651
 1662SOL    HW216449   3.505   3.546   7.940 -1.4661  0.9446 -0.6980
 1663SOL     OW16450   1.720   1.907   5.806 -0.0286  0.0606 -0.3733
 1663SOL    HW116451   1.735   1.996   5.837 -0.5277  0.4996 -1.4087
 1663SOL    HW216452   1.796   1.870   5.851  0.6259  1.0891 -0.6273
 1664SOL     OW16453   2.903   2.823   8.344 -0.0919  0.3015 -0.2708
 1664SOL    HW116454   2.902   2.727   8.352 -1.4726  0.4340  1.1441
 1664SOL    HW216455   2.821   2.839   8.391  0.9761 -0.3671  1.8213
 1665SOL     OW16456   4.517   0.153  15.125  0.8609 -0.2921 -0.2112
 1665SOL    HW116457   4.608   0.129  15.143  0.3203 -0.7914  1.8513
 1665SOL    HW216458   4.538   0.244  15.104 -0.8549  0.0538 -0.4058
 1666SOL     OW16459   0.025   3.054   1.208 -0.1631 -0.2652  0.2086
 1666SOL    HW116460   4.719   3.115   1.275 -1.9280  1.8898 -2.5593
 1666SOL    HW216461   0.030   2.973   1.259 -1.2371 -0.4919 -0.0449
 1667SOL     OW16462   1.370   3.544  15.432  0.4149  0.1936  0.6438
 1667SOL    HW116463   1.456   3.575  15.461  0.4014  0.5380  0.3066
 1667SOL    HW216464   1.338   3.583  15.350 -1.6904 -1.4697  0.6711
 1668SOL     OW16465   1.881   4.004   3.157 -0.0052  0.2390  0.2042
 1668SOL    HW116466   1.966   3.963   3.174  1.0847  3.2425  1.8758
 1668SOL    HW216467   1.896   4.081   3.211  1.2322  0.6284 -0.6867
 1669SOL     OW16468   0.915   4.512   5.854 -0.7020  0.1718  0.0413
 1669SOL    HW116469   0.826   4.540   5.832 -1.0977  0.1547  1.6142
 1669SOL    HW216470   0.897   4.506   5.948 -0.2939  0.6001  0.1429
 1670SOL     OW16471   3.064   1.506   8.227 -0.6315  0.4549  0.8117
 1670SOL    HW116472   3.105   1.420   8.222 -2.5689 -0.5185  1.7634
 1670SOL    HW216473   3.009   1.493   8.304 -0.3135  1.6337  1.2345
 1671SOL     OW16474   1.600   1.275   4.088 -0.5684  0.4265 -0.3391
 1671SOL    HW116475   1.618   1.263   4.182 -0.0132 -0.0210 -0.5008
 1671SOL    HW216476   1.645   1.357   4.066  0.6884  0.1708  1.2444
 1672SOL     OW16477   4.496   4.623  16.729 -0.3080  0.1199  0.5576
 1672SOL    HW116478   4.446   4.611  16.648 -0.9247  0.4529  0.8982
 1672SOL    HW216479   4.519   4.530  16.742 -0.0957  0.0198 -0.5116
 1673SOL     OW16480   2.171   2.542   6.967  0.6501 -0.4383 -0.1170
 1673SOL    HW116481   2.148   2.633   6.949 -0.7949 -0.5442  1.1697
 1673SOL    HW216482   2.094   2.523   7.021  0.7713  0.7037  0.4539
 1674SOL     OW16483   2.471   3.507  10.627  0.7360 -0.5773  0.1878
 1674SOL    HW116484   2.492   3.544  10.713  1.2775 -0.4673  0.0104
 1674SOL    HW216485   2.542   3.443  10.630  0.6228 -0.7512 -1.2475
 1675SOL     OW16486   3.688   0.229  13.586 -0.0936 -0.9592 -0.2608
 1675SOL    HW116487   3.722   0.159  13.642 -0.7064 -1.1535 -0.1244
 1675SOL    HW216488   3.709   0.185  13.504 -0.2626  1.1539 -1.4239
 1676SOL     OW16489   0.073   0.140  17.400  0.4132 -0.1478 -0.1890
 1676SOL    HW116490   0.045   0.065  17.346  3.4889 -0.6016 -1.1298
 1676SOL    HW216491   0.123   0.195  17.340  2.5105 -2.6274 -0.6997
 1677SOL     OW16492   4.689   0.444   6.089 -0.1192  0.2793 -0.0009
 1677SOL    HW116493   0.014   0.518   6.125 -1.9948  2.0205 -0.9779
 1677SOL    HW216494   0.000   0.379   6.149  0.9006  1.3257  0.5332
 1678SOL     OW16495   1.437   1.673  12.341 -0.6920  0.2795  0.2177
 1678SOL    HW116496   1.432   1.593  12.394  2.1551 -0.6541 -0.9189
 1678SOL    HW216497   1.494   1.729  12.394 -0.1046  1.2101 -1.4030
 1679SOL     OW16498   0.760   0.589   0.703 -0.3426 -0.2070 -0.5300
 1679SOL    HW116499   0.710   0.507   0.699  0.9690 -1.0815  0.8830
 1679SOL    HW216500   0.732   0.616   0.790 -1.4339 -1.1170 -0.6043
 1680SOL     OW16501   3.803   0.803  11.627 -0.4278  0.2109  0.2279
 1680SOL    HW116502   3.762   0.789  11.542 -1.9537  1.8270  0.7028
 1680SOL    HW216503   3.742   0.744  11.671  0.3459 -2.1855 -1.9405
 1681SOL     OW16504   1.436   3.451   8.235  0.1951  0.2282  0.1722
 1681SOL    HW116505   1.472   3.392   8.301  0.8979 -1.4931 -1.7386
 1681SOL    HW216506   1.490   3.530   8.246 -1.5428  1.5803 -1.0093
 1682SOL     OW16507   3.071   0.883   9.690 -0.4907  0.4918  0.6227
 1682SOL    HW116508   3.041   0.889   9.600 -0.7533 -1.0483  0.6065
 1682SOL    HW216509   3.128   0.806   9.697  1.3494  1.9682  2.1513
 1683SOL     OW16510   2.981   0.256   1.136 -0.6908  0.4344 -0.1705
 1683SOL    HW116511   2.926   0.292   1.206 -0.4665  0.0387  0.2114
 1683SOL    HW216512   2.941   0.301   1.062  2.1650  0.5190 -1.6301
 1684SOL     OW16513   1.418   3.859   1.445 -0.6256  0.5324 -0.2758
 1684SOL    HW116514   1.384   3.772   1.425 -1.5940  1.6308 -3.3035
 1684SOL    HW216515   1.501   3.844   1.491 -2.6779  1.8816  3.8191
 1685SOL     OW16516   2.727   0.047  11.228  0.2676 -0.4337  0.0303
 1685SOL    HW116517   2.664   4.705  11.257 -0.1898  0.4994  1.1718
 1685SOL    HW216518   2.802   4.713  11.239  0.4375 -0.1449  0.3888
 1686SOL     OW16519   3.224   1.103  11.063  0.1308 -1.1681 -0.0415
 1686SOL    HW116520   3.220   1.126  11.156  0.9352 -1.0241 -0.0408
 1686SOL    HW216521   3.219   1.007  11.059 -2.3840 -1.0947  1.8692
 1687SOL     OW16522   1.985   1.088   9.783 -0.7252 -0.5190  0.0157
 1687SOL    HW116523   1.904   1.131   9.755 -1.7241 -1.5105  1.3638
 1687SOL    HW216524   2.047   1.159   9.801 -1.5246 -0.7853  3.8075
 1688SOL     OW16525   3.255   2.862   3.646  0.5423  1.2037  0.4463
 1688SOL    HW116526   3.291   2.895   3.729  1.0548  1.0634  0.2834
 1688SOL    HW216527   3.326   2.823   3.595  1.4687  2.0637  1.0426
 1689SOL     OW16528   1.597   0.256   6.189  0.2771  0.2527  0.7212
 1689SOL    HW116529   1.653   0.325   6.226  1.0860  1.0368 -1.9658
 1689SOL    HW216530   1.597   0.193   6.261  0.1588  1.2330  1.5898
 1690SOL     OW16531   2.676   4.605  14.464 -0.3527  0.2537  0.5904
 1690SOL    HW116532   2.754   4.650  14.433 -0.5009  1.3246  1.7594
 1690SOL    HW216533   2.626   4.679  14.499  0.0279  0.7020  0.1830
 1691SOL     OW16534   2.574   2.132   6.335 -0.0997 -0.3185 -0.2746
 1691SOL    HW116535   2.649   2.156   6.390 -0.1046 -3.4400  1.0581
 1691SOL    HW216536   2.514   2.083   6.390  0.4478 -0.1389  0.4722
 1692SOL     OW16537   3.646   2.936   7.573  0.0075  0.1347 -0.2900
 1692SOL    HW116538   3.731   2.894   7.578  0.3452  0.8842  0.2631
 1692SOL    HW216539   3.608   2.917   7.659 -1.3150 -0.2376 -0.9561
 1693SOL     OW16540   1.360   1.985   4.158  0.1903 -0.7131  0.0719
 1693SOL    HW116541   1.294   2.015   4.221 -1.0802 -3.5020  0.0807
 1693SOL    HW216542   1.439   2.031   4.187 -0.6294  1.4226 -1.1045
 1694SOL     OW16543   4.109   0.466   4.985  0.3516  0.6442 -0.1004
 1694SOL    HW116544   4.195   0.502   5.009  0.8685  0.2389 -1.3752
 1694SOL    HW216545   4.071   0.471   5.073 -0.6577  1.5635 -0.5967
 1695SOL     OW16546   4.511   1.663   8.847 -0.1564  0.1651  0.7394
 1695SOL    HW116547   4.605   1.651   8.854  0.0813  0.7052 -1.6501
 1695SOL    HW216548   4.475   1.579   8.877 -1.2309 -0.2304 -1.6583
 1696SOL     OW16549   2.087   2.796   6.963  0.2782  0.1927  0.0499
 1696SOL    HW116550   1.999   2.819   6.992 -0.1093  0.0300 -0.9897
 1696SOL    HW216551   2.092   2.839   6.878  1.1786 -3.2119 -1.5902
 1697SOL     OW16552   0.070   4.084   0.149 -0.2085 -0.2066 -0.0835
 1697SOL    HW116553   0.022   4.028   0.210 -0.7512 -0.8840 -1.1320
 1697SOL    HW216554   0.038   4.166   0.187 -0.7275 -0.0142 -0.9393
 1698SOL     OW16555   3.006   2.985   0.825 -0.1111  0.3636  0.3324
 1698SOL    HW116556   2.998   3.013   0.916  1.6800  2.0084 -0.0151
 1698SOL    HW216557   3.021   3.061   0.768  1.3004 -1.4946 -1.7641
 1699SOL     OW16558   0.525   0.624   8.792 -0.3935 -0.1305  0.1042
 1699SOL    HW116559   0.455   0.640   8.856 -0.5108  1.5585 -0.4552
 1699SOL    HW216560   0.486   0.579   8.717  1.2881 -0.2788 -0.6839
 1700SOL     OW16561   3.269   1.932   8.084  0.1556 -0.0345  0.2492
 1700SOL    HW116562   3.216   1.853   8.081 -1.8312  1.3265  0.0918
 1700SOL    HW216563   3.353   1.887   8.094  0.7411  1.3829  1.8161
 1701SOL     OW16564   3.593   2.179   9.252  0.4721 -0.0918  0.6345
 1701SOL    HW116565   3.604   2.109   9.318 -1.0547 -1.8991 -1.0359
 1701SOL    HW216566   3.678   2.223   9.252  1.8415 -2.7128  0.6880
 1702SOL     OW16567   4.579   1.915   3.137 -0.1561  0.5925 -0.1392
 1702SOL    HW116568   4.548   1.867   3.060 -1.0843  1.1178 -0.0883
 1702SOL    HW216569   4.630   1.982   3.091 -0.0032  2.0837  2.2141
 1703SOL     OW16570   2.694   0.265  16.268  0.1279  0.2678 -0.1346
 1703SOL    HW116571   2.778   0.224  16.290  1.6531  1.8915 -2.9637
 1703SOL    HW216572   2.646   0.274  16.351 -1.2794 -1.0618 -0.8190
 1704SOL     OW16573   2.912   2.419   0.718  0.3773  0.5562  0.2807
 1704SOL    HW116574   2.981   2.435   0.654 -1.1715  1.3714 -1.1967
 1704SOL    HW216575   2.936   2.493   0.773 -0.9518  0.4582  1.0005
 1705SOL     OW16576   2.656   4.050   8.911 -0.1386  0.4972 -0.0042
 1705SOL    HW116577   2.607   4.085   8.986  2.0131 -0.3279  1.7863
 1705SOL    HW216578   2.603   4.089   8.842  2.3696  1.6278 -1.2699
 1706SOL     OW16579   0.701   1.492   4.217 -0.3841  0.0506 -0.3790
 1706SOL    HW116580   0.660   1.406   4.231 -1.9954  1.1609  1.7281
 1706SOL    HW216581   0.658   1.545   4.284  0.1347 -0.0201  0.0099
 1707SOL     OW16582   0.476   3.819   0.978  0.0506  0.1527 -0.3556
 1707SOL    HW116583   0.437   3.778   0.901 -1.0812  1.2022 -0.3485
 1707SOL    HW216584   0.444   3.754   1.040 -0.9830  3.0997  2.2035
 1708SOL     OW16585   3.278   3.908   4.562 -0.0985  0.1337  0.4294
 1708SOL    HW116586   3.197   3.958   4.556  0.6049  1.4144  1.6646
 1708SOL    HW216587   3.239   3.821   4.574  1.3900 -0.8336 -1.9380
 1709SOL     OW16588   1.456   3.878   0.378  0.3316 -0.6502 -0.0015
 1709SOL    HW116589   1.529   3.928   0.339  1.5979 -0.7709  2.2333
 1709SOL    HW216590   1.410   3.844   0.301 -0.6207  1.6628 -0.4533
 1710SOL     OW16591   2.284   2.540   7.692 -0.2088 -0.3009  0.5067
 1710SOL    HW116592   2.281   2.594   7.613 -1.2698  1.4186  1.7208
 1710SOL    HW216593   2.296   2.610   7.756 -0.4303  0.1477  0.0511
 1711SOL     OW16594   2.092   0.320   4.386  0.0378 -0.4474 -0.0304
 1711SOL    HW116595   2.054   0.406   4.364  0.3098 -0.1405  0.7018
 1711SOL    HW216596   2.083   0.320   4.481 -0.4101 -3.0761 -0.0942
 1712SOL     OW16597   4.030   1.734   1.756  0.4461  0.4429 -0.0005
 1712SOL    HW116598   4.039   1.814   1.806  0.7552  0.1675  0.3822
 1712SOL    HW216599   4.120   1.702   1.758  0.4997  0.5151 -0.8577
 1713SOL     OW16600   1.657   3.686   0.329 -0.1932  0.6289 -0.0652
 1713SOL    HW116601   1.573   3.731   0.318  1.1204  3.3021  1.0291
 1713SOL    HW216602   1.705   3.752   0.377 -1.0438  0.5897  0.8440
 1714SOL     OW16603   4.261   3.741   2.080 -0.6016 -0.0116 -0.5716
 1714SOL    HW116604   4.205   3.814   2.052 -1.4741 -0.4540  0.0054
 1714SOL    HW216605   4.218   3.725   2.164  0.6109  0.2502  0.0841
 1715SOL     OW16606   3.728   0.727   3.244  0.4730 -0.6287  0.6032
 1715SOL    HW116607   3.657   0.790   3.255 -0.1716 -1.2515 -0.0504
 1715SOL    HW216608   3.732   0.719   3.149  0.3980  0.8779  0.4731
 1716SOL     OW16609   1.298   0.104   4.204  0.1656  0.3206 -0.8840
 1716SOL    HW116610   1.384   0.137   4.230 -0.3695  0.4629  0.7572
 1716SOL    HW216611   1.276   0.054   4.283  0.1359 -0.6250 -1.4981
 1717SOL     OW16612   4.388   0.704   6.791 -0.0063 -0.2047  0.5165
 1717SOL    HW116613   4.403   0.781   6.845 -1.3589  0.5023 -0.1168
 1717SOL    HW216614   4.347   0.746   6.715  3.8299  1.3206 -0.7133
 1718SOL     OW16615   0.626   3.124   9.381 -0.6371 -0.0112 -0.8974
 1718SOL    HW116616   0.639   3.044   9.433  1.2364  1.5972  1.0822
 1718SOL    HW216617   0.621   3.078   9.297 -0.4563  0.6696 -1.2766
 1719SOL     OW16618   0.110   0.162  14.910  0.1902  0.0219 -0.5132
 1719SOL    HW116619   0.188   0.216  14.898  0.5258 -0.2024  0.6418
 1719SOL    HW216620   0.095   0.180  15.002  2.5458  0.7044 -0.2597
 1720SOL     OW16621   0.858   3.683  14.845 -0.2369  0.5517  0.6454
 1720SOL    HW116622   0.777   3.641  14.815 -0.1612  0.7177  0.2088
 1720SOL    HW216623   0.868   3.658  14.937 -1.0751 -1.2181  0.2565
 1721SOL     OW16624   1.909   2.980   7.489  0.0842  0.8881  0.3277
 1721SOL    HW116625   1.961   2.953   7.564  0.9038 -0.4764 -0.7356
 1721SOL    HW216626   1.954   3.064   7.476  3.3741 -1.0025 -0.2208
 1722SOL     OW16627   1.843   4.250  16.785  0.8423 -0.7845  0.1273
 1722SOL    HW116628   1.933   4.283  16.783 -0.2251  2.0330 -1.3283
 1722SOL    HW216629   1.832   4.215  16.696  3.2421  0.6333 -0.7287
 1723SOL     OW16630   0.199   1.777  13.494  0.0101 -0.4256 -0.0249
 1723SOL    HW116631   0.139   1.705  13.512 -0.3141 -0.2853 -0.5276
 1723SOL    HW216632   0.146   1.846  13.534 -2.2906 -2.1378 -0.1274
 1724SOL     OW16633   3.853   1.058  16.989  0.5944  0.5488  0.0659
 1724SOL    HW116634   3.851   1.004  17.068 -3.2405  1.1185  0.3429
 1724SOL    HW216635   3.824   0.996  16.922  2.0385  0.9408 -0.9365
 1725SOL     OW16636   4.439   1.273   7.877  0.1449 -0.1218 -0.0831
 1725SOL    HW116637   4.412   1.264   7.968  2.4938  2.1813  0.8398
 1725SOL    HW216638   4.514   1.214   7.864 -1.1614 -2.1158  1.5189
 1726SOL     OW16639   0.778   0.568   8.504 -0.0397 -0.4005 -0.6736
 1726SOL    HW116640   0.717   0.552   8.431  0.0904  0.9561 -1.0740
 1726SOL    HW216641   0.766   0.486   8.551 -0.0221  0.1384  0.2605
 1727SOL     OW16642   0.458   0.935   5.119 -0.3864 -0.0410  0.3024
 1727SOL    HW116643   0.473   0.864   5.182  0.5715  0.0469  0.1606
 1727SOL    HW216644   0.534   0.918   5.064  0.8962  0.2288  1.9603
 1728SOL     OW16645   3.692   0.546   5.781  0.2194  0.1717  0.1722
 1728SOL    HW116646   3.658   0.603   5.850  0.4515 -1.0585  1.3055
 1728SOL    HW216647   3.746   0.482   5.828 -2.2034 -1.3056  0.9451
 1729SOL     OW16648   4.348   0.122  16.608 -0.5112 -0.2791  0.0766
 1729SOL    HW116649   4.255   0.147  16.612 -0.2758  0.8725 -1.4116
 1729SOL    HW216650   4.371   0.119  16.701 -0.2414 -1.0357 -0.0143
 1730SOL     OW16651   1.992   2.197   4.039  0.0071  0.0998  0.2431
 1730SOL    HW116652   1.976   2.126   4.102 -0.6671 -1.0090 -1.1422
 1730SOL    HW216653   1.965   2.274   4.089 -1.7619 -0.7922  0.6902
 1731SOL     OW16654   0.832   0.650   0.429  0.4931  0.4947 -0.1763
 1731SOL    HW116655   0.862   0.738   0.405  1.3837  0.0890 -0.5596
 1731SOL    HW216656   0.785   0.666   0.510  1.3097  0.2776  0.3352
 1732SOL     OW16657   0.533   1.462   7.616  0.0239 -0.2756 -0.0213
 1732SOL    HW116658   0.561   1.514   7.540 -0.6901 -2.6980 -1.9456
 1732SOL    HW216659   0.503   1.380   7.575 -0.6368 -0.0151 -0.0653
 1733SOL     OW16660   1.066   1.650   6.371 -0.1590  0.2681  0.1733
 1733SOL    HW116661   1.053   1.681   6.281  1.5142  2.0960  0.5449
 1733SOL    HW216662   1.133   1.582   6.358  1.4648  1.6636  1.1419
 1734SOL     OW16663   2.091   4.146   9.310 -0.5544  0.3907 -0.1662
 1734SOL    HW116664   2.082   4.101   9.226 -2.5535  0.9784 -0.2730
 1734SOL    HW216665   2.049   4.086   9.372 -1.3363 -1.3835 -2.4079
 1735SOL     OW16666   4.050   0.247   2.660 -0.3049  0.6975  0.2420
 1735SOL    HW116667   4.135   0.271   2.622 -0.7773 -0.4539 -1.5560
 1735SOL    HW216668   4.034   0.315   2.725 -0.7841  0.9623 -0.1561
 1736SOL     OW16669   3.586   4.283   3.030 -0.2649 -0.3224 -0.2138
 1736SOL    HW116670   3.588   4.364   3.082  0.3491  0.2227 -1.0874
 1736SOL    HW216671   3.676   4.259   3.008  0.0156 -0.8092  1.4391
 1737SOL     OW16672   2.668   3.799  16.610 -0.7845 -0.5197  0.1871
 1737SOL    HW116673   2.674   3.754  16.695  0.8696  1.0721  0.9170
 1737SOL    HW216674   2.585   3.771  16.570 -1.2254  1.4060 -0.2512
 1738SOL     OW16675   3.289   2.742   8.937 -0.3124 -0.0814 -0.0444
 1738SOL    HW116676   3.248   2.752   9.023  2.7054  0.3069  1.3399
 1738SOL    HW216677   3.211   2.738   8.882 -1.2769 -1.7005  1.4239
 1739SOL     OW16678   3.687   0.401   1.552  0.0439  0.1453  0.7038
 1739SOL    HW116679   3.611   0.347   1.574 -0.9688  1.1815 -0.2651
 1739SOL    HW216680   3.749   0.341   1.512  0.8428  0.3839  1.5877
 1740SOL     OW16681   4.419   4.276   1.471  0.0611 -0.1658  0.4261
 1740SOL    HW116682   4.422   4.365   1.505 -0.8273 -0.2481  0.7197
 1740SOL    HW216683   4.365   4.239   1.541 -0.7106 -0.0667 -0.1164
 1741SOL     OW16684   3.887   3.095   8.119  0.1448 -0.8701  0.2784
 1741SOL    HW116685   3.837   3.042   8.181 -2.4462 -1.5061 -2.3178
 1741SOL    HW216686   3.890   3.172   8.175 -0.0199 -1.2266  0.7743
 1742SOL     OW16687   1.894   4.234   0.260  0.1679 -0.3178  0.2866
 1742SOL    HW116688   1.943   4.251   0.180  1.8917  0.9594  1.6042
 1742SOL    HW216689   1.917   4.142   0.272  1.7429 -0.1788 -1.5865
 1743SOL     OW16690   2.264   3.997   3.023 -0.7117  0.4365  0.1302
 1743SOL    HW116691   2.243   4.063   2.957 -1.9991  0.6222  0.7288
 1743SOL    HW216692   2.197   4.018   3.087  0.3036  1.0158  1.0104
 1744SOL     OW16693   3.265   1.352  10.710 -0.3238  0.1304  0.0286
 1744SOL    HW116694   3.214   1.278  10.678 -0.0803  0.8678 -2.0613
 1744SOL    HW216695   3.327   1.357  10.638  1.8563 -1.0164  1.8053
 1745SOL     OW16696   0.108   1.327  15.878  0.2295 -0.2432 -0.5157
 1745SOL    HW116697   0.013   1.317  15.865 -0.1258  0.4465  1.5872
 1745SOL    HW216698   0.107   1.418  15.908 -2.6904  0.0192 -1.4325
 1746SOL     OW16699   3.970   2.141   5.969  0.0971 -0.2971 -0.2030
 1746SOL    HW116700   4.022   2.062   5.954  3.3632  2.1453 -1.6859
 1746SOL    HW216701   3.964   2.181   5.882  1.6231  3.0465  1.2306
 1747SOL     OW16702   0.591   3.503  12.878  0.3816 -0.3088  0.9599
 1747SOL    HW116703   0.512   3.493  12.932 -1.9480  2.6463 -1.8921
 1747SOL    HW216704   0.577   3.418  12.837  1.3803  0.4620 -0.9716
 1748SOL     OW16705   0.645   3.566  14.775 -0.4486 -0.1185  0.1573
 1748SOL    HW116706   0.584   3.519  14.831  0.6746 -0.2283  1.3041
 1748SOL    HW216707   0.622   3.533  14.689 -3.8573  1.8504  0.3313
 1749SOL     OW16708   2.776   1.532   5.923  0.0537  0.7465  0.1563
 1749SOL    HW116709   2.821   1.616   5.921 -1.8249  1.8009  2.2086
 1749SOL    HW216710   2.686   1.563   5.932 -0.7190 -1.5148  0.2960
 1750SOL     OW16711   3.946   3.085   2.529 -0.0722 -0.0313 -0.1589
 1750SOL    HW116712   3.981   3.001   2.559  2.3567  1.3748  0.9960
 1750SOL    HW216713   3.995   3.108   2.450 -1.9094 -0.3802 -1.3891
 1751SOL     OW16714   4.478   2.224   5.328 -0.0448  0.1753 -0.1248
 1751SOL    HW116715   4.470   2.285   5.401 -0.9656  0.3032 -0.3306
 1751SOL    HW216716   4.387   2.233   5.299 -1.0479 -2.6574  2.1797
 1752SOL     OW16717   3.683   1.454   8.572  0.8146  0.2990 -0.5895
 1752SOL    HW116718   3.591   1.460   8.596  0.9442  1.0626 -0.2700
 1752SOL    HW216719   3.696   1.360   8.562 -1.6878 -0.2090  1.0088
 1753SOL     OW16720   4.426   4.645   9.526  0.2356  0.3190 -0.5246
 1753SOL    HW116721   4.362   4.645   9.455  1.1082 -1.7039 -1.2868
 1753SOL    HW216722   4.381   4.715   9.574 -2.4100 -0.2038 -2.2931
 1754SOL     OW16723   0.661   1.142   8.186  0.1789  0.2570 -0.0291
 1754SOL    HW116724   0.674   1.200   8.260 -0.3819  0.2421  0.0757
 1754SOL    HW216725   0.644   1.066   8.241  1.4434 -0.2204 -0.2789
 1755SOL     OW16726   0.337   4.260   1.801  0.2247  0.2913  0.3596
 1755SOL    HW116727   0.247   4.279   1.828 -0.1648 -0.2934 -0.5443
 1755SOL    HW216728   0.396   4.296   1.868 -0.2164  3.1860 -0.8259
 1756SOL     OW16729   2.898   3.756   4.461 -0.6622 -0.3835 -0.1478
 1756SOL    HW116730   2.902   3.747   4.366  0.7118 -2.2691  0.0903
 1756SOL    HW216731   2.804   3.771   4.470 -0.0122  2.0925  2.6647
 1757SOL     OW16732   1.655   3.749   6.587  0.2501 -0.2011  0.0792
 1757SOL    HW116733   1.628   3.697   6.511 -0.2431 -0.4841  0.4447
 1757SOL    HW216734   1.686   3.681   6.647  1.0799 -1.6913 -2.0284
 1758SOL     OW16735   3.232   3.994   1.108 -0.0247 -0.3517 -0.6585
 1758SOL    HW116736   3.261   3.928   1.170  0.1298  0.4059  0.0743
 1758SOL    HW216737   3.154   3.945   1.080 -1.8169  1.7328  0.6689
 1759SOL     OW16738   2.514   1.887   3.377 -0.1739 -0.6057  0.3887
 1759SOL    HW116739   2.609   1.892   3.368 -0.0355 -1.8886  1.1280
 1759SOL    HW216740   2.484   1.801   3.345  0.9516 -0.8500 -0.0139
 1760SOL     OW16741   4.274   4.654  14.368  0.0187 -0.1117 -0.0095
 1760SOL    HW116742   4.266   4.686  14.278 -0.6693  0.2280  0.1677
 1760SOL    HW216743   4.192   4.683  14.410  0.7803  0.6949  0.9184
 1761SOL     OW16744   1.750   0.624   5.032 -1.0296  0.3908 -0.1038
 1761SOL    HW116745   1.680   0.650   4.973  0.0527  2.1880 -0.6060
 1761SOL    HW216746   1.756   0.689   5.102 -0.4790 -0.1184  0.3298
 1762SOL     OW16747   3.361   1.053  13.595  0.2121 -0.0086  0.4297
 1762SOL    HW116748   3.328   1.037  13.684  1.8973  0.1248  1.0728
 1762SOL    HW216749   3.315   0.990  13.539  0.9467  0.1617 -0.3543
 1763SOL     OW16750   3.089   3.949   0.317 -0.6195  0.2762  0.4620
 1763SOL    HW116751   3.107   3.857   0.335 -0.8395  0.0398 -0.5414
 1763SOL    HW216752   3.128   3.984   0.397 -0.7411 -1.2972  1.2119
 1764SOL     OW16753   0.314   3.283   9.625  0.5452 -0.0895 -0.4479
 1764SOL    HW116754   0.227   3.313   9.598 -0.7206 -1.9427  1.6153
 1764SOL    HW216755   0.315   3.200   9.577  1.1106  0.9890 -2.3149
 1765SOL     OW16756   3.056   3.934   1.519  0.4861  0.4506  0.2585
 1765SOL    HW116757   3.009   3.996   1.464 -1.4312 -2.3667 -1.2603
 1765SOL    HW216758   3.087   3.989   1.591  1.3052 -0.8489  0.9058
 1766SOL     OW16759   0.918   1.201  10.648 -0.2561 -0.2004 -0.5128
 1766SOL    HW116760   0.886   1.226  10.734 -2.4604  2.4395 -2.0844
 1766SOL    HW216761   0.902   1.277  10.591  0.7864  0.9265  0.6996
 1767SOL     OW16762   3.294   0.235   7.807 -0.1029 -0.4725  0.6207
 1767SOL    HW116763   3.299   0.326   7.836  0.1307 -0.9907  2.2421
 1767SOL    HW216764   3.314   0.189   7.889 -0.6665 -0.1124  0.9573
 1768SOL     OW16765   0.854   3.632  11.566  0.2512  0.1090 -0.2417
 1768SOL    HW116766   0.948   3.614  11.560 -0.0322 -1.4644 -0.1018
 1768SOL    HW216767   0.828   3.651  11.476 -0.7125 -1.3365 -0.2659
 1769SOL     OW16768   4.072   2.705   1.907  0.2408  0.1388 -0.0622
 1769SOL    HW116769   4.131   2.670   1.840 -0.4897  0.9507 -1.1141
 1769SOL    HW216770   4.089   2.650   1.984  2.2584  1.8819  0.7576
 1770SOL     OW16771   1.228   0.234   5.589 -0.3054  0.4222  1.1414
 1770SOL    HW116772   1.253   0.315   5.634  1.7623 -0.6352  1.8452
 1770SOL    HW216773   1.183   0.183   5.657 -2.1760  0.7219  0.1481
 1771SOL     OW16774   3.115   0.415   4.864 -0.1617 -0.0500 -0.3015
 1771SOL    HW116775   3.139   0.405   4.956 -0.0859 -0.4653 -0.3646
 1771SOL    HW216776   3.108   0.510   4.854 -0.0289 -0.0156 -0.0547
 1772SOL     OW16777   3.846   3.273   3.992  0.3383 -0.4600  0.9159
 1772SOL    HW116778   3.837   3.235   4.080  0.9513 -1.0967  0.7012
 1772SOL    HW216779   3.763   3.319   3.979  1.2483  1.0839  0.5115
 1773SOL     OW16780   1.996   0.854   6.381  0.1889  0.3031  0.7509
 1773SOL    HW116781   2.059   0.910   6.427  1.4641 -1.8416  1.5914
 1773SOL    HW216782   1.914   0.902   6.388 -0.2759 -0.7100  2.2129
 1774SOL     OW16783   0.043   2.808   6.789 -0.3723  0.0173  0.7027
 1774SOL    HW116784   0.106   2.841   6.853 -0.2611 -1.2111  1.2160
 1774SOL    HW216785   0.049   2.713   6.797  0.3957  0.0625  0.5822
 1775SOL     OW16786   4.484   0.258   8.379  0.2574 -0.1614 -0.1334
 1775SOL    HW116787   4.449   0.280   8.465  1.0163  0.2070  0.0835
 1775SOL    HW216788   4.539   0.181   8.394 -2.5386 -1.7933  1.6472
 1776SOL     OW16789   1.525   2.084   7.938 -0.6980  0.0298 -0.3042
 1776SOL    HW116790   1.467   2.069   8.012 -0.7400 -1.0133 -0.5417
 1776SOL    HW216791   1.606   2.119   7.975 -0.3636 -1.3439  0.2451
 1777SOL     OW16792   4.687   4.452   8.887 -0.6497 -0.0155 -0.2935
 1777SOL    HW116793   4.631   4.491   8.954 -0.3696  1.1944 -0.7577
 1777SOL    HW216794   0.040   4.506   8.905 -0.6867 -0.2379  0.5399
 1778SOL     OW16795   4.405   2.648  11.771 -0.0820  0.1747 -0.0548
 1778SOL    HW116796   4.419   2.708  11.698  1.8940 -0.3878 -0.1183
 1778SOL    HW216797   4.348   2.584  11.729  2.0115 -1.0958 -0.9805
 1779SOL     OW16798   2.337   1.561   9.459  0.0725  0.4698 -0.8825
 1779SOL    HW116799   2.339   1.581   9.553 -0.0045  0.3036 -0.8458
 1779SOL    HW216800   2.253   1.516   9.462  0.5449 -0.3464  0.5452
 1780SOL     OW16801   2.657   1.312  16.582 -0.3258 -0.3796  0.0286
 1780SOL    HW116802   2.752   1.311  16.595 -0.2734  1.2305 -0.2611
 1780SOL    HW216803   2.638   1.268  16.500 -0.6734  1.1917 -0.7288
 1781SOL     OW16804   2.875   1.119   7.101 -0.1245 -0.2128 -0.5446
 1781SOL    HW116805   2.969   1.105   7.093  0.0500 -1.3599  3.5468
 1781SOL    HW216806   2.856   1.130   7.008  1.2918  0.6760 -0.7354
 1782SOL     OW16807   1.574   4.470   4.294  0.5001  0.3014  0.3962
 1782SOL    HW116808   1.536   4.382   4.298  0.5898  0.1874 -1.2938
 1782SOL    HW216809   1.528   4.495   4.214  1.3668 -1.3215 -0.6091
 1783SOL     OW16810   3.036   3.338   4.945 -0.6734  0.2564 -0.0634
 1783SOL    HW116811   2.947   3.304   4.944 -0.5135 -0.1634  0.0234
 1783SOL    HW216812   3.083   3.303   5.020  1.3153 -1.4915 -2.1148
 1784SOL     OW16813   3.842   2.789   3.529  0.1284  0.3589  0.0089
 1784SOL    HW116814   3.761   2.747   3.500 -0.0011  0.0850  0.7557
 1784SOL    HW216815   3.879   2.724   3.589 -1.3711  0.9164  1.5379
 1785SOL     OW16816   3.922   2.430  12.751  0.4945 -0.0385 -0.5239
 1785SOL    HW116817   3.844   2.399  12.795 -0.3898 -0.4906 -2.4016
 1785SOL    HW216818   3.982   2.359  12.771 -1.5954 -1.7732 -0.5018
 1786SOL     OW16819   1.466   0.263   5.944  0.1009 -0.1687  0.4992
 1786SOL    HW116820   1.524   0.263   6.020 -0.4724 -0.5203  0.9396
 1786SOL    HW216821   1.383   0.303   5.972 -0.9277 -1.3081 -0.8935
 1787SOL     OW16822   4.096   2.800   0.304  0.5080 -0.3043 -0.2618
 1787SOL    HW116823   4.079   2.871   0.242  0.1586 -1.2661 -1.2799
 1787SOL    HW216824   4.153   2.843   0.368 -0.8570  1.2047 -0.0510
 1788SOL     OW16825   2.469   2.037   8.588  0.5670 -0.8583  0.8837
 1788SOL    HW116826   2.422   2.017   8.507 -1.1225 -0.0600  1.6792
 1788SOL    HW216827   2.423   1.990   8.658  2.3211 -1.6450  1.5182
 1789SOL     OW16828   2.990   3.874  10.096 -0.5509 -0.0757 -0.1085
 1789SOL    HW116829   3.042   3.894  10.018  0.4897  3.5585  1.5082
 1789SOL    HW216830   2.984   3.779  10.083  1.0330 -0.1218 -0.5910
 1790SOL     OW16831   4.145   1.398   5.186  0.4142  0.2872 -0.5772
 1790SOL    HW116832   4.182   1.402   5.274 -3.0188 -0.5416  0.9094
 1790SOL    HW216833   4.218   1.402   5.125  1.6380 -0.7208  0.8212
 1791SOL     OW16834   4.053   1.974   3.097 -0.1887 -0.4050 -0.0157
 1791SOL    HW116835   4.122   1.942   3.156  0.7321 -0.8048 -1.2984
 1791SOL    HW216836   4.056   1.906   3.030 -0.4556 -1.1483  0.7182
 1792SOL     OW16837   1.581   0.736   3.378  0.3247 -0.0675 -0.0052
 1792SOL    HW116838   1.631   0.712   3.455 -0.3860 -0.7723  0.2317
 1792SOL    HW216839   1.605   0.665   3.318  2.9096 -0.0369  0.9931
 1793SOL     OW16840   3.726   3.621   1.709  0.3070 -0.0764 -0.0233
 1793SOL    HW116841   3.710   3.657   1.621 -0.2472 -0.0638  0.0794
 1793SOL    HW216842   3.684   3.535   1.697 -0.1348  0.1845 -0.4014
 1794SOL     OW16843   2.792   1.919   0.234  0.0616 -0.4263 -0.1046
 1794SOL    HW116844   2.811   1.993   0.176  2.9997  0.5104  2.0531
 1794SOL    HW216845   2.811   1.858   0.163  1.8430  2.2139 -1.8603
 1795SOL     OW16846   2.848   2.009   7.174  0.1767  0.9269 -0.0520
 1795SOL    HW116847   2.863   2.079   7.237 -0.1456  1.2768 -0.3652
 1795SOL    HW216848   2.832   1.934   7.231  0.8531  0.8180 -0.0109
 1796SOL     OW16849   0.866   2.456  11.149 -0.0670  0.5375 -0.2148
 1796SOL    HW116850   0.911   2.496  11.075 -2.0101  1.5208 -0.8837
 1796SOL    HW216851   0.901   2.510  11.220  0.4662 -2.1298  1.5299
 1797SOL     OW16852   0.652   4.323   5.389 -0.0112 -0.0809  0.0636
 1797SOL    HW116853   0.688   4.412   5.395 -0.0387 -0.1257  0.8395
 1797SOL    HW216854   0.641   4.326   5.294 -0.0132 -2.0466  0.0159
 1798SOL     OW16855   0.712   0.918   8.343  0.0519  0.3773  0.6896
 1798SOL    HW116856   0.672   0.868   8.414  1.9092 -1.8378  0.1852
 1798SOL    HW216857   0.801   0.914   8.377  0.5678  0.2155 -0.6795
 1799SOL     OW16858   1.337   0.606   4.747  0.2873 -0.1011  0.4739
 1799SOL    HW116859   1.270   0.621   4.813  0.6193  0.7294  0.6221
 1799SOL    HW216860   1.296   0.652   4.674 -0.6088  0.9062  1.6295
 1800SOL     OW16861   1.201   0.809   8.677 -0.7908  0.4797  0.5510
 1800SOL    HW116862   1.166   0.735   8.628 -0.5777 -0.5122  1.8824
 1800SOL    HW216863   1.263   0.766   8.736 -1.8374  1.0480  2.0844
 1801SOL     OW16864   0.907   0.657   8.146  0.0018  0.2022  0.0958
 1801SOL    HW116865   0.939   0.746   8.162  0.3007 -0.3424  2.4858
 1801SOL    HW216866   0.987   0.606   8.157 -0.2300 -0.7538 -2.6970
 1802SOL     OW16867   4.086   2.306   0.091  0.4105  0.3287  0.7481
 1802SOL    HW116868   4.116   2.264   0.010  2.3368 -0.8961  2.1048
 1802SOL    HW216869   4.033   2.375   0.052  0.5685 -0.2608 -0.5209
 1803SOL     OW16870   4.092   0.765   4.756  0.2754 -0.3002 -0.0205
 1803SOL    HW116871   4.056   0.851   4.776 -1.2505 -0.7107 -1.0429
 1803SOL    HW216872   4.187   0.779   4.757 -0.1365  2.3950  1.5442
 1804SOL     OW16873   4.248   1.850   3.224  0.0740 -0.9136  0.2155
 1804SOL    HW116874   4.316   1.905   3.262 -1.7893  2.1910 -0.9669
 1804SOL    HW216875   4.281   1.761   3.237  1.7862 -0.1196  1.3111
 1805SOL     OW16876   3.085   4.644  12.366  0.3294  0.4512  0.6559
 1805SOL    HW116877   3.073   4.559  12.408  0.5138  0.7775  1.3788
 1805SOL    HW216878   2.999   4.685  12.364  0.9132  1.6920  0.6078
 1806SOL     OW16879   1.827   2.804   5.494 -0.4579 -0.1811  0.5258
 1806SOL    HW116880   1.771   2.873   5.458  0.4324 -0.7756 -1.9576
 1806SOL    HW216881   1.797   2.801   5.585 -1.5745  0.3665  0.1819
 1807SOL     OW16882   1.485   2.689   3.689 -0.0610  0.6388  0.3974
 1807SOL    HW116883   1.532   2.769   3.667  1.4987 -0.4205 -0.1919
 1807SOL    HW216884   1.397   2.712   3.661  0.8470 -0.2169 -3.1465
 1808SOL     OW16885   4.498   0.415   5.278  0.1434  0.2008  0.9789
 1808SOL    HW116886   4.565   0.479   5.252  1.2092 -0.5877  1.7551
 1808SOL    HW216887   4.454   0.456   5.352 -2.8349  0.4478 -0.9345
 1809SOL     OW16888   4.282   2.635   5.651 -0.6705  0.6068 -0.4317
 1809SOL    HW116889   4.298   2.602   5.739 -0.9312  1.7906  0.0587
 1809SOL    HW216890   4.188   2.619   5.656  0.0609 -2.9946  2.0816
 1810SOL     OW16891   1.873   2.193   2.076  0.1248  0.0416  0.1913
 1810SOL    HW116892   1.871   2.223   1.985  0.7616 -0.6169 -0.0408
 1810SOL    HW216893   1.868   2.270   2.133 -0.6723  0.0328  0.1364
 1811SOL     OW16894   1.983   3.142  13.289 -0.0782 -0.0031  0.2045
 1811SOL    HW116895   2.047   3.088  13.336 -0.2203 -0.2650  0.0970
 1811SOL    HW216896   1.899   3.121  13.329 -0.1677 -2.0278 -1.0492
 1812SOL     OW16897   3.369   4.478   7.048 -0.0999 -0.3571  0.1826
 1812SOL    HW116898   3.338   4.461   6.959  3.8597 -1.7767 -0.9173
 1812SOL    HW216899   3.371   4.573   7.049  0.0704 -0.3455 -2.1870
 1813SOL     OW16900   0.633   0.465   3.622 -0.1213 -0.2590  0.5011
 1813SOL    HW116901   0.655   0.373   3.633  1.7072  0.3442  1.8820
 1813SOL    HW216902   0.703   0.502   3.568  0.5224 -2.2710 -0.0361
 1814SOL     OW16903   4.679   1.272  10.403 -0.2636 -0.5228 -0.5902
 1814SOL    HW116904   4.609   1.298  10.462 -0.5479 -3.5935  0.4500
 1814SOL    HW216905   4.633   1.271  10.319 -0.9458 -0.7358 -0.2135
 1815SOL     OW16906   2.242   1.677  15.506 -0.2532  0.6550 -0.9928
 1815SOL    HW116907   2.326   1.661  15.549  1.1178  1.8023 -3.2134
 1815SOL    HW216908   2.273   1.756  15.463  1.6058  0.1930 -0.5222
 1816SOL     OW16909   1.522   0.995   4.439 -0.1752 -0.0502  0.1139
 1816SOL    HW116910   1.554   0.970   4.353  1.2120  2.5252 -0.0894
 1816SOL    HW216911   1.433   1.022   4.416  0.3238  0.6242 -0.9670
 1817SOL     OW16912   0.795   1.856   6.196  0.3136  0.0433  0.6929
 1817SOL    HW116913   0.718   1.802   6.213  0.0412  0.1819 -0.0814
 1817SOL    HW216914   0.839   1.788   6.145  0.4181 -0.4170  1.4017
 1818SOL     OW16915   3.692   1.818   4.984 -0.1122  0.9980  0.2023
 1818SOL    HW116916   3.767   1.877   4.978 -0.2222  1.0955 -0.1889
 1818SOL    HW216917   3.617   1.876   4.975 -2.3641 -1.8223  0.7476
 1819SOL     OW16918   4.165   0.072   6.545 -0.4266 -0.3195  0.0877
 1819SOL    HW116919   4.195   0.006   6.607 -4.0641  1.3182  3.6499
 1819SOL    HW216920   4.237   0.135   6.545 -0.1960 -0.5874  1.3351
 1820SOL     OW16921   2.319   3.553  11.962  0.0037 -0.7648  0.5668
 1820SOL    HW116922   2.259   3.605  11.908  1.4904  0.2920 -0.0656
 1820SOL    HW216923   2.385   3.530  11.898 -1.5694  0.4081 -1.4897
 1821SOL     OW16924   1.333   2.772   6.042  0.4767  0.2560  0.5940
 1821SOL    HW116925   1.258   2.771   6.102 -0.1650  0.0141 -0.2185
 1821SOL    HW216926   1.387   2.834   6.092  2.4162 -1.0999  0.1764
 1822SOL     OW16927   2.460   2.222   0.799  0.4132 -0.0686 -0.5830
 1822SOL    HW116928   2.512   2.145   0.822  2.2009  1.4407  0.3881
 1822SOL    HW216929   2.504   2.242   0.716 -0.2063 -1.8779 -1.3601
 1823SOL     OW16930   1.237   0.313   6.600  0.1283  0.6068 -0.4693
 1823SOL    HW116931   1.207   0.238   6.651  1.3338  1.3517  1.3289
 1823SOL    HW216932   1.175   0.384   6.619  0.3920  1.0874 -1.3846
 1824SOL     OW16933   2.874   2.113   8.870 -0.1097 -0.1520 -0.0971
 1824SOL    HW116934   2.922   2.168   8.807 -2.0013 -1.5486 -2.7435
 1824SOL    HW216935   2.788   2.107   8.829  1.5468  1.5427 -3.8349
 1825SOL     OW16936   4.179   1.354   2.354 -0.0556 -0.2822  0.1014
 1825SOL    HW116937   4.089   1.376   2.329 -0.2885  2.6083  3.4505
 1825SOL    HW216938   4.160   1.267   2.389  1.7942 -1.5782 -2.0976
 1826SOL     OW16939   4.287   1.454   2.617 -0.1352  0.2897  0.2085
 1826SOL    HW116940   4.357   1.388   2.619  0.0623  0.5433  1.1724
 1826SOL    HW216941   4.246   1.440   2.531 -1.6300  3.0184  0.5038
 1827SOL     OW16942   0.813   4.664  13.568 -0.4091 -0.4844 -0.1135
 1827SOL    HW116943   0.884   0.005  13.568 -1.2496  0.4156  2.5619
 1827SOL    HW216944   0.745   4.713  13.523 -0.8221 -2.2179 -1.3588
 1828SOL     OW16945   2.666   3.708  12.331  0.5465  0.1770  0.0592
 1828SOL    HW116946   2.739   3.764  12.304 -0.9874  1.4265 -1.4851
 1828SOL    HW216947   2.612   3.703  12.253 -1.4738  0.0180  1.4593
 1829SOL     OW16948   0.244   1.651   5.848 -0.0883  0.5026 -0.1268
 1829SOL    HW116949   0.302   1.620   5.778 -0.1860 -1.4394  0.6557
 1829SOL    HW216950   0.164   1.681   5.805  0.7888  1.2694 -1.2412
 1830SOL     OW16951   4.722   2.756  13.081 -0.2041  0.0685  0.1166
 1830SOL    HW116952   0.002   2.689  13.150 -1.1353 -0.6059 -0.4855
 1830SOL    HW216953   0.076   2.731  13.031 -1.1549 -0.3794 -1.1119
 1831SOL     OW16954   1.648   4.462  16.061  0.1042 -0.1417  0.2738
 1831SOL    HW116955   1.728   4.429  16.103 -0.8534 -1.4793  1.0478
 1831SOL    HW216956   1.679   4.495  15.977  2.0773 -0.0133  1.0500
 1832SOL     OW16957   0.366   0.580  16.063 -0.4416  0.5989  0.3379
 1832SOL    HW116958   0.374   0.486  16.045  0.4145  0.9623 -1.1174
 1832SOL    HW216959   0.350   0.587  16.158 -0.5579  1.3348  0.2597
 1833SOL     OW16960   0.614   1.518   8.320  0.1291 -0.1040 -0.4924
 1833SOL    HW116961   0.675   1.589   8.297  0.2760 -0.2384 -0.5200
 1833SOL    HW216962   0.670   1.441   8.325 -0.8818 -0.7714  0.6492
 1834SOL     OW16963   2.699   1.272   5.749  0.6666 -0.3234 -0.6515
 1834SOL    HW116964   2.662   1.205   5.807 -1.1809  0.2256 -1.2061
 1834SOL    HW216965   2.675   1.347   5.804  0.7297 -0.9323  0.2125
 1835SOL     OW16966   4.125   2.834  13.234  0.1049  0.5710 -0.2576
 1835SOL    HW116967   4.144   2.884  13.154 -0.9401  0.2036 -0.7267
 1835SOL    HW216968   4.196   2.866  13.290  0.7345  0.9471 -1.2548
 1836SOL     OW16969   2.557   3.648  15.690 -0.3270  0.4000 -0.0280
 1836SOL    HW116970   2.584   3.685  15.606 -1.4904  1.8320  0.2392
 1836SOL    HW216971   2.559   3.554  15.671 -1.4974  0.7224 -1.7046
 1837SOL     OW16972   3.346   0.415   4.269  0.5302  0.4738 -0.2594
 1837SOL    HW116973   3.257   0.433   4.240 -0.1480 -2.4112  0.0561
 1837SOL    HW216974   3.388   0.393   4.185 -2.5491  0.7662 -1.8616
 1838SOL     OW16975   2.297   2.705   8.995  0.5877  0.1722 -0.0870
 1838SOL    HW116976   2.374   2.685   9.049  1.4763  0.0201 -1.3850
 1838SOL    HW216977   2.286   2.797   9.015 -0.2115 -0.2025  1.1946
 1839SOL     OW16978   3.693   1.245   6.924 -0.1188 -1.0695  0.1468
 1839SOL    HW116979   3.638   1.235   7.002 -0.0597 -0.1358  0.3015
 1839SOL    HW216980   3.738   1.329   6.936  0.4082 -1.4448  0.8336
 1840SOL     OW16981   0.849   0.367   4.974  0.1071 -0.0880  0.2350
 1840SOL    HW116982   0.902   0.429   5.024  1.5093 -0.4641 -0.7919
 1840SOL    HW216983   0.785   0.428   4.939  0.7661  0.9414  0.8382
 1841SOL     OW16984   4.611   2.896  16.780 -0.1781 -0.0891  0.2330
 1841SOL    HW116985   4.674   2.909  16.709  0.7324 -0.0079  1.0640
 1841SOL    HW216986   4.627   2.978  16.826  0.2757  0.1205 -0.3002
 1842SOL     OW16987   1.319   3.736   6.448 -0.1012 -0.0475  0.8796
 1842SOL    HW116988   1.246   3.692   6.404 -0.3386 -0.2176  1.4335
 1842SOL    HW216989   1.390   3.735   6.385  1.5283  0.0301  2.7289
 1843SOL     OW16990   3.449   1.195  11.711  0.2631  0.0581  0.2639
 1843SOL    HW116991   3.434   1.110  11.754 -0.3715  0.3225  0.5586
 1843SOL    HW216992   3.410   1.255  11.774 -0.7573 -0.0905 -0.2322
 1844SOL     OW16993   2.942   0.517   4.491  0.3584  0.3919 -0.0724
 1844SOL    HW116994   3.037   0.531   4.489  0.7099 -1.9205  0.3934
 1844SOL    HW216995   2.931   0.452   4.560 -0.3935 -2.3601 -2.7633
 1845SOL     OW16996   0.152   2.636   7.205  0.2208  0.0372  0.5148
 1845SOL    HW116997   0.138   2.724   7.238  0.8803  0.2752  0.1598
 1845SOL    HW216998   0.203   2.656   7.127 -0.3763  0.5958  0.2590
 1846SOL     OW16999   0.825   1.178  17.268 -0.7165 -0.1866 -0.3270
 1846SOL    HW117000   0.907   1.227  17.260 -1.4398  1.1541  0.4150
 1846SOL    HW217001   0.843   1.125  17.345  2.9499 -0.3366 -1.2871
 1847SOL     OW17002   1.436   1.769   0.097 -0.0313 -0.1609  0.0319
 1847SOL    HW117003   1.376   1.712   0.049 -1.1557  0.6437  0.4866
 1847SOL    HW217004   1.519   1.774   0.051  0.4534 -0.7945  0.8502
 1848SOL     OW17005   2.146   1.514   3.420  0.8601 -0.0807  0.3528
 1848SOL    HW117006   2.198   1.470   3.353  0.6224  0.3876 -0.1443
 1848SOL    HW217007   2.195   1.593   3.441  0.4765  0.5789 -1.2149
 1849SOL     OW17008   2.635   1.074   7.424 -0.2793 -0.8264  0.5051
 1849SOL    HW117009   2.686   1.059   7.503  1.4722 -0.7699 -0.6173
 1849SOL    HW217010   2.549   1.040   7.449 -1.1471 -0.0020 -1.3519
 1850SOL     OW17011   3.271   1.995   8.909 -0.6595 -0.2256  1.1528
 1850SOL    HW117012   3.283   2.001   8.815  0.4088  1.4681  1.4051
 1850SOL    HW217013   3.191   1.942   8.907 -1.8818  1.6809  0.2098
 1851SOL     OW17014   3.810   1.149   0.117 -0.1867 -0.1324  0.0784
 1851SOL    HW117015   3.725   1.131   0.076 -0.9698  0.7185  1.3195
 1851SOL    HW217016   3.871   1.150   0.043  1.6415 -1.9212  1.5664
 1852SOL     OW17017   3.590   3.737  13.463  0.8148 -0.8323 -0.3729
 1852SOL    HW117018   3.524   3.721  13.532 -0.8912  1.3594 -1.5155
 1852SOL    HW217019   3.589   3.651  13.421  1.6822 -0.8083 -0.4288
 1853SOL     OW17020   2.588   2.474   6.049  0.0887 -0.4919 -0.5002
 1853SOL    HW117021   2.641   2.434   5.980  0.2696 -1.8337  0.4111
 1853SOL    HW217022   2.560   2.389   6.082 -1.9306  0.1463 -0.5394
 1854SOL     OW17023   3.121   4.132   5.123 -0.0336 -0.0972  0.2299
 1854SOL    HW117024   3.134   4.121   5.029 -0.3962 -1.8455  0.3794
 1854SOL    HW217025   3.142   4.223   5.142  0.7378 -0.5661  1.5883
 1855SOL     OW17026   2.721   1.229  13.799  0.0282 -0.4338  0.0250
 1855SOL    HW117027   2.729   1.163  13.867 -4.5545 -1.6432 -0.5959
 1855SOL    HW217028   2.678   1.183  13.727  1.6626 -0.5492 -0.8928
 1856SOL     OW17029   0.866   1.788  15.929 -0.1852 -0.1113  0.0907
 1856SOL    HW117030   0.929   1.718  15.942 -0.2806 -0.1585  0.3067
 1856SOL    HW217031   0.911   1.852  15.875 -0.7679  0.3433  0.1431
 1857SOL     OW17032   3.538   0.233  13.807  0.1480  0.7671 -0.4564
 1857SOL    HW117033   3.585   0.255  13.727  0.4288 -0.8092 -0.7300
 1857SOL    HW217034   3.600   0.261  13.874 -0.7179 -2.6902  1.8241
 1858SOL     OW17035   2.135   3.973   5.357  0.1211 -0.7289 -0.3458
 1858SOL    HW117036   2.051   3.946   5.393 -0.8726  1.5334 -0.9165
 1858SOL    HW217037   2.142   4.066   5.381  2.3456 -1.4906  1.9218
 1859SOL     OW17038   4.497   1.399   6.258 -0.4777 -0.0975 -0.0258
 1859SOL    HW117039   4.404   1.407   6.236  0.2314  3.0942 -1.9457
 1859SOL    HW217040   4.544   1.445   6.188  1.2295 -0.1390  1.0887
 1860SOL     OW17041   3.100   4.045  16.654  0.0258 -0.0829 -0.0911
 1860SOL    HW117042   3.046   3.991  16.598 -4.0572  0.5959  3.2113
 1860SOL    HW217043   3.143   4.104  16.591 -0.7687  0.4116 -0.1707
 1861SOL     OW17044   0.484   1.804   2.709  0.1459 -0.2346  0.2601
 1861SOL    HW117045   0.452   1.723   2.669  0.0664 -0.0262 -0.0946
 1861SOL    HW217046   0.549   1.833   2.646 -1.2222  0.5392 -0.7843
 1862SOL     OW17047   1.981   0.216   7.959  0.7605  0.4407  0.3018
 1862SOL    HW117048   1.928   0.294   7.970 -1.6707 -0.9600 -1.4475
 1862SOL    HW217049   2.056   0.261   7.919  1.6439 -0.0967  1.3393
 1863SOL     OW17050   2.083   0.244   5.362 -0.1704  0.9851  0.3088
 1863SOL    HW117051   1.995   0.215   5.387 -0.5423  1.4176 -0.4840
 1863SOL    HW217052   2.109   0.305   5.431 -0.2474  0.1204  1.1026
 1864SOL     OW17053   3.547   4.531  17.323  0.1537  0.2588  0.3698
 1864SOL    HW117054   3.455   4.510  17.339 -0.6263  2.9046 -0.5248
 1864SOL    HW217055   3.536   4.617  17.282 -2.7583 -0.0374  0.5009
 1865SOL     OW17056   4.318   2.418  12.097  0.1414  0.1742  0.1925
 1865SOL    HW117057   4.248   2.440  12.035  0.4197  2.1907  0.5968
 1865SOL    HW217058   4.316   2.322  12.089 -1.5680  0.2421 -0.3058
 1866SOL     OW17059   2.333   0.973  11.027 -0.2621  0.6205 -0.2191
 1866SOL    HW117060   2.289   0.889  11.014  0.3605 -0.0136  1.7021
 1866SOL    HW217061   2.358   0.992  10.937 -2.2893  0.0407 -0.9062
 1867SOL     OW17062   2.321   3.861  10.906  0.1938 -0.0418 -0.7423
 1867SOL    HW117063   2.246   3.911  10.936  0.7784 -0.4706  1.4393
 1867SOL    HW217064   2.357   3.914  10.835 -0.7071  0.7494 -0.5935
 1868SOL     OW17065   4.298   0.342   2.863 -0.2220 -0.0650  0.5388
 1868SOL    HW117066   4.389   0.322   2.845  0.3280  1.3313  1.7892
 1868SOL    HW217067   4.274   0.391   2.785 -1.4471  1.6142  1.9603
 1869SOL     OW17068   3.844   0.285   5.092  0.0249 -0.6922  0.1002
 1869SOL    HW117069   3.786   0.290   5.168  0.6026 -2.6753  0.6634
 1869SOL    HW217070   3.784   0.264   5.020  0.3982  0.9452 -0.6882
 1870SOL     OW17071   3.117   2.839   2.125  0.3448 -0.0020 -0.2636
 1870SOL    HW117072   3.209   2.838   2.098 -0.1166 -2.0919 -1.6977
 1870SOL    HW217073   3.110   2.935   2.131 -0.6331  0.0449 -2.5465
 1871SOL     OW17074   1.921   3.922   4.361 -0.8563  0.0970  0.1860
 1871SOL    HW117075   1.995   3.967   4.400 -2.1126  1.8928  0.4985
 1871SOL    HW217076   1.849   3.949   4.418 -1.0680 -1.5136  0.6845
 1872SOL     OW17077   2.073   1.404   2.733  0.4292 -0.0604  0.4424
 1872SOL    HW117078   1.986   1.442   2.718  0.6860  0.6637  0.7877
 1872SOL    HW217079   2.049   1.340   2.800  1.7123 -3.7599 -2.6275
 1873SOL     OW17080   0.464   1.456   5.731 -0.1576  0.2819  0.0648
 1873SOL    HW117081   0.432   1.504   5.654  0.4471  2.1764  0.9712
 1873SOL    HW217082   0.443   1.368   5.701 -1.7557  0.8665 -0.5354
 1874SOL     OW17083   1.992   2.344   2.599 -0.2133  0.0335 -0.0015
 1874SOL    HW117084   1.935   2.388   2.536  0.2117  0.5824 -0.0054
 1874SOL    HW217085   1.997   2.259   2.557 -0.3377 -0.8803  1.8340
 1875SOL     OW17086   3.170   4.522   5.591 -0.2226 -0.1745 -0.1965
 1875SOL    HW117087   3.192   4.539   5.683  2.0901 -0.7030 -0.6528
 1875SOL    HW217088   3.088   4.473   5.598  1.4009 -2.8921  0.0706
 1876SOL     OW17089   2.671   1.051   2.966 -0.6321  0.4659 -0.5578
 1876SOL    HW117090   2.610   1.048   2.892  0.4106 -1.0017 -1.3374
 1876SOL    HW217091   2.612   1.021   3.035  0.6329  3.0209  1.6190
 1877SOL     OW17092   3.043   4.266   2.944 -0.3038 -0.0127  0.3979
 1877SOL    HW117093   3.015   4.340   2.890 -1.5262 -0.3146  0.6013
 1877SOL    HW217094   2.967   4.265   3.003 -1.8109  1.1780 -1.5115
 1878SOL     OW17095   4.346   2.549   4.513  0.0141 -0.2591  0.1559
 1878SOL    HW117096   4.367   2.625   4.458 -1.3402 -0.2119 -0.3064
 1878SOL    HW217097   4.305   2.484   4.455  0.0402 -0.1822  0.0505
 1879SOL     OW17098   3.762   4.587  11.767  0.1619 -0.2072  0.1213
 1879SOL    HW117099   3.831   4.650  11.786 -0.4563 -0.3568  2.8290
 1879SOL    HW217100   3.760   4.580  11.671  0.6826  0.4250  0.0654
 1880SOL     OW17101   1.590   1.266   3.517  0.2906  0.2423  0.2959
 1880SOL    HW117102   1.576   1.264   3.612 -0.8915  0.1688  0.1225
 1880SOL    HW217103   1.560   1.354   3.494 -0.7663  0.6368  3.1367
 1881SOL     OW17104   0.072   4.508   1.520 -0.0610 -0.4203  0.1164
 1881SOL    HW117105   0.072   4.603   1.526  2.2273 -0.4167 -0.0926
 1881SOL    HW217106   0.158   4.492   1.483 -0.1955  0.9335 -0.7763
 1882SOL     OW17107   4.278   2.952   3.813  0.4432 -0.3346  0.8637
 1882SOL    HW117108   4.314   2.943   3.901  2.2894 -1.7742 -0.0448
 1882SOL    HW217109   4.198   2.900   3.819  0.1372  0.0161 -0.2241
 1883SOL     OW17110   3.543   0.432   8.267 -0.3848  0.0800 -0.1987
 1883SOL    HW117111   3.461   0.391   8.297  0.6154 -0.9831  1.1032
 1883SOL    HW217112   3.616   0.375   8.293  0.0986  0.6027 -0.4100
 1884SOL     OW17113   3.744   0.226   1.874 -0.4874 -0.4559 -0.8156
 1884SOL    HW117114   3.805   0.155   1.853 -1.1635 -0.8611 -1.4633
 1884SOL    HW217115   3.740   0.212   1.969 -0.2327 -0.3071 -0.7850
 1885SOL     OW17116   2.035   0.958  15.902 -0.2679  0.0228 -0.3454
 1885SOL    HW117117   1.990   0.886  15.858  0.1329 -1.4368  1.6287
 1885SOL    HW217118   1.983   0.964  15.982 -0.9651  0.6908 -0.8492
 1886SOL     OW17119   3.430   0.820   6.901 -0.2311 -0.1150  0.0807
 1886SOL    HW117120   3.359   0.769   6.941 -1.7746  2.4111  0.5816
 1886SOL    HW217121   3.444   0.777   6.817  0.7267 -1.1514  0.7772
 1887SOL     OW17122   4.259   0.803   2.074 -0.1037 -0.0636  0.5952
 1887SOL    HW117123   4.266   0.721   2.024 -0.2615 -0.1795  0.7637
 1887SOL    HW217124   4.179   0.779   2.121 -0.0658 -1.2241  0.0880
 1888SOL     OW17125   3.701   2.222   4.359  0.3625 -0.2288  0.0565
 1888SOL    HW117126   3.791   2.241   4.387  0.3035  2.1228 -1.3652
 1888SOL    HW217127   3.691   2.317   4.356  0.1295 -0.2034  2.1940
 1889SOL     OW17128   2.511   1.358   2.953  0.0405  0.2327  0.5782
 1889SOL    HW117129   2.597   1.323   2.975 -0.7348 -0.1488  2.9518
 1889SOL    HW217130   2.527   1.361   2.858  2.4142 -1.6875  0.9195
 1890SOL     OW17131   3.361   1.720  15.672  0.9759  0.1906 -0.4393
 1890SOL    HW117132   3.282   1.667  15.657  2.3399 -1.7916 -0.6484
 1890SOL    HW217133   3.345   1.786  15.605 -1.9674 -2.7077 -2.5980
 1891SOL     OW17134   3.355   3.182  10.533  0.9627 -0.3170 -0.2492
 1891SOL    HW117135   3.333   3.113  10.594  0.7635  0.2307  0.3009
 1891SOL    HW217136   3.374   3.260  10.586 -1.3082  0.1399 -0.1386
 1892SOL     OW17137   2.384   1.332   1.157 -0.1641  0.5975 -0.1267
 1892SOL    HW117138   2.371   1.250   1.203 -0.5879  0.7310 -0.0145
 1892SOL    HW217139   2.295   1.342   1.124 -0.1511 -2.1172 -0.9907
 1893SOL     OW17140   0.949   1.474   0.786 -0.5516  0.6764 -0.1479
 1893SOL    HW117141   0.942   1.519   0.870 -1.6536  0.4875 -0.1402
 1893SOL    HW217142   0.924   1.545   0.727 -0.2891  1.1400  0.2963
 1894SOL     OW17143   2.077   1.564  14.270 -0.8376 -0.2223  0.9521
 1894SOL    HW117144   2.007   1.507  14.239 -1.0061 -0.0847  1.0807
 1894SOL    HW217145   2.134   1.491  14.294  1.6198  0.5898 -2.3386
 1895SOL     OW17146   3.603   3.530   2.052 -0.0878 -0.3701  0.0286
 1895SOL    HW117147   3.614   3.480   2.133  0.7275  0.2014  0.2673
 1895SOL    HW217148   3.689   3.512   2.014 -0.1487  0.1459 -0.3535
 1896SOL     OW17149   2.396   2.211   2.594  0.1678  0.1225 -0.2240
 1896SOL    HW117150   2.356   2.140   2.545  0.2644  0.4670 -0.7977
 1896SOL    HW217151   2.343   2.230   2.672  0.2823  1.9075 -0.5885
 1897SOL     OW17152   3.492   4.358  11.802  0.7429  0.2801 -0.0742
 1897SOL    HW117153   3.427   4.301  11.761  1.4498  0.0613 -0.8980
 1897SOL    HW217154   3.574   4.322  11.767  0.2600 -2.0286  1.1864
 1898SOL     OW17155   0.273   4.342  13.443  0.2999  0.1201  0.0716
 1898SOL    HW117156   0.357   4.297  13.439  0.7715  0.8397  1.9092
 1898SOL    HW217157   0.231   4.312  13.362  1.0043 -0.4579 -0.0757
 1899SOL     OW17158   2.208   2.164   0.866 -0.0983  0.7611 -0.6643
 1899SOL    HW117159   2.271   2.194   0.800  1.6832  2.6829  1.9501
 1899SOL    HW217160   2.254   2.197   0.943 -2.8654 -1.6491  2.0212
 1900SOL     OW17161   1.778   1.586   4.958  0.1355 -0.2614 -0.1038
 1900SOL    HW117162   1.794   1.492   4.948 -0.8725 -0.4085 -0.3124
 1900SOL    HW217163   1.795   1.606   4.865 -0.5492  1.2676  0.0972
 1901SOL     OW17164   1.460   0.583  12.765  0.4303 -0.5927  0.2423
 1901SOL    HW117165   1.417   0.627  12.692  2.6498  1.4663  0.1757
 1901SOL    HW217166   1.386   0.547  12.814  0.4287  0.1861  0.8089
 1902SOL     OW17167   3.435   1.986   9.640 -0.2834  0.8384  0.3024
 1902SOL    HW117168   3.426   1.984   9.736  0.5601 -2.0124  0.3292
 1902SOL    HW217169   3.414   2.078   9.626 -1.5978  0.2172 -1.6955
 1903SOL     OW17170   3.977   4.324   8.607  0.0261 -0.9762 -0.3096
 1903SOL    HW117171   4.005   4.248   8.557  0.6546 -0.0515 -1.3815
 1903SOL    HW217172   3.977   4.310   8.701 -0.7382  0.9595 -0.0029
 1904SOL     OW17173   1.892   1.657   2.860 -0.5441 -0.1831 -0.0851
 1904SOL    HW117174   1.971   1.644   2.913  1.0952  0.4887 -2.3791
 1904SOL    HW217175   1.915   1.719   2.791  0.2034 -0.7667 -0.3561
 1905SOL     OW17176   4.124   1.730  15.177  0.1462  0.2396  0.4236
 1905SOL    HW117177   4.179   1.673  15.123 -0.0196  0.2876  0.2026
 1905SOL    HW217178   4.126   1.683  15.260  0.6350 -2.0894 -0.9014
 1906SOL     OW17179   2.661   4.121  10.811 -0.1097  0.4170  0.2398
 1906SOL    HW117180   2.703   4.073  10.881  0.7813  0.5637 -0.2008
 1906SOL    HW217181   2.611   4.057  10.760 -0.8721  0.5562  0.7986
 1907SOL     OW17182   3.896   0.746   6.066 -0.2389  0.0712 -0.1209
 1907SOL    HW117183   3.978   0.719   6.024 -0.1280 -1.1205  0.8411
 1907SOL    HW217184   3.875   0.679   6.132 -3.4308 -0.5696 -1.7891
 1908SOL     OW17185   3.985   4.421   5.617  0.8837 -0.2527 -0.5945
 1908SOL    HW117186   3.939   4.375   5.687 -0.7003  1.6161 -0.3968
 1908SOL    HW217187   3.982   4.509   5.655  0.6498 -0.9214  0.9136
 1909SOL     OW17188   2.718   2.342   6.900 -0.5941 -0.0232 -0.0449
 1909SOL    HW117189   2.705   2.287   6.976  2.0338  0.1505  0.5325
 1909SOL    HW217190   2.674   2.422   6.929 -1.5765  0.5390 -3.0204
 1910SOL     OW17191   4.722   1.662   7.811  0.0655  0.4746 -0.4747
 1910SOL    HW117192   0.072   1.611   7.846 -1.4905  0.3904  2.6606
 1910SOL    HW217193   4.682   1.705   7.886 -1.0186 -1.3727  0.0158
 1911SOL     OW17194   3.682   1.921  11.538  0.2610 -0.1212  0.7337
 1911SOL    HW117195   3.615   1.988  11.523  0.8965  0.2139 -0.5770
 1911SOL    HW217196   3.626   1.844  11.539 -0.0698  0.1027 -2.0300
 1912SOL     OW17197   4.083   4.138   8.098 -0.1910  0.2690  0.3357
 1912SOL    HW117198   4.102   4.067   8.159  2.7898  1.1339  0.4331
 1912SOL    HW217199   4.073   4.102   8.010 -1.3854 -0.1325  0.6379
 1913SOL     OW17200   3.181   1.788   7.105  0.1551 -0.0773  0.2717
 1913SOL    HW117201   3.191   1.732   7.182  0.0477  0.9336  1.0305
 1913SOL    HW217202   3.268   1.793   7.066  0.5012  2.2300  1.3477
 1914SOL     OW17203   3.425   2.062  11.214  0.4006 -0.0943  0.0418
 1914SOL    HW117204   3.465   2.001  11.152 -0.5163 -0.6469 -0.0065
 1914SOL    HW217205   3.339   2.061  11.174  1.1731 -0.1879 -1.6016
 1915SOL     OW17206   4.335   3.106   7.957 -0.3334 -0.1106 -0.3628
 1915SOL    HW117207   4.412   3.055   7.984  0.6305  1.0959 -0.8467
 1915SOL    HW217208   4.341   3.095   7.862  2.4237  0.2634 -0.2304
 1916SOL     OW17209   1.920   1.060   2.326 -0.0267  0.5994 -0.4458
 1916SOL    HW117210   1.923   1.133   2.388  1.4279 -0.9730  1.3383
 1916SOL    HW217211   1.997   1.009   2.352  0.1779  1.4807  0.6466
 1917SOL     OW17212   4.399   3.592  15.827  0.0594 -0.3696  0.1233
 1917SOL    HW117213   4.447   3.528  15.878  0.0617 -0.0877  0.4742
 1917SOL    HW217214   4.354   3.647  15.891 -0.8777 -0.5623 -0.3707
 1918SOL     OW17215   4.290   3.589   3.945  0.1723 -0.0007  0.1758
 1918SOL    HW117216   4.325   3.500   3.953  0.3176  0.1053  0.7047
 1918SOL    HW217217   4.365   3.641   3.974 -2.4175  2.8630  1.7008
 1919SOL     OW17218   3.977   0.798   7.690 -0.8631  0.2442  0.2194
 1919SOL    HW117219   4.042   0.857   7.727  2.1441 -1.0872 -2.9598
 1919SOL    HW217220   3.907   0.862   7.673 -0.2950  0.1246 -2.5443
 1920SOL     OW17221   3.775   1.585   0.225 -0.3990  0.0371 -0.5745
 1920SOL    HW117222   3.740   1.497   0.241  0.3172  0.0990  1.3305
 1920SOL    HW217223   3.712   1.610   0.158  1.8743  0.9318 -2.3712
 1921SOL     OW17224   0.684   4.420   7.689 -0.3040 -0.5259 -0.5407
 1921SOL    HW117225   0.601   4.378   7.710 -0.4878  0.3512  0.4661
 1921SOL    HW217226   0.703   4.352   7.624  0.0307 -0.9329 -0.0111
 1922SOL     OW17227   2.743   1.977  12.965 -0.1219 -0.1110 -0.6743
 1922SOL    HW117228   2.792   2.044  13.013  2.1037 -1.2916 -1.3095
 1922SOL    HW217229   2.786   1.982  12.879 -0.1466 -3.0582 -0.8428
 1923SOL     OW17230   3.830   4.422   2.058  0.1213 -0.2832 -0.6373
 1923SOL    HW117231   3.918   4.388   2.073 -0.1937 -0.8432 -0.0157
 1923SOL    HW217232   3.814   4.460   2.145  0.8455  0.4577 -0.8267
 1924SOL     OW17233   2.954   1.713   8.487  0.2211 -0.2889 -0.1439
 1924SOL    HW117234   2.967   1.725   8.581  0.0618 -0.0791 -0.1486
 1924SOL    HW217235   2.935   1.620   8.485 -2.5156  0.2962 -1.3232
 1925SOL     OW17236   3.394   2.138  12.314  0.6319 -0.0210  0.5491
 1925SOL    HW117237   3.403   2.192  12.392 -0.2835 -1.7002  1.8087
 1925SOL    HW217238   3.301   2.117  12.305  1.1503 -1.9412 -0.3191
 1926SOL     OW17239   3.927   1.356   2.011 -0.0582  0.0901 -0.5113
 1926SOL    HW117240   3.916   1.373   1.917  0.1555 -0.8755 -0.7081
 1926SOL    HW217241   4.001   1.296   2.013 -0.4906 -0.4867 -1.6347
 1927SOL     OW17242   3.592   3.361   9.270 -0.1428 -0.7737  0.8015
 1927SOL    HW117243   3.624   3.279   9.308  0.6445 -1.2512 -0.8632
 1927SOL    HW217244   3.621   3.348   9.180  0.4864 -2.8710  1.3121
 1928SOL     OW17245   0.311   1.875   5.479  0.2387  0.2358  0.5536
 1928SOL    HW117246   0.335   1.956   5.434  0.9460 -0.8218 -0.9843
 1928SOL    HW217247   0.387   1.869   5.537  1.8013  0.8280 -1.4253
 1929SOL     OW17248   0.560   4.260   2.653  0.2464  0.2205  0.3728
 1929SOL    HW117249   0.594   4.175   2.682  1.6023  0.7728  0.4081
 1929SOL    HW217250   0.469   4.261   2.680 -0.6498  1.1234 -2.6694
 1930SOL     OW17251   3.916   2.461  17.650 -0.1866 -0.0087 -0.0604
 1930SOL    HW117252   3.845   2.519  17.678  0.2574 -0.8203  2.7710
 1930SOL    HW217253   3.873   2.382  17.617 -0.2506 -0.6009  1.4394
 1931SOL     OW17254   3.078   1.488  10.347 -0.5508 -0.1439  0.5517
 1931SOL    HW117255   3.065   1.393  10.337 -0.0365 -0.2383  0.7578
 1931SOL    HW217256   2.990   1.520  10.327 -0.8612 -0.3655  1.5556
 1932SOL     OW17257   2.563   0.467   5.758 -0.4494 -0.5424  0.1036
 1932SOL    HW117258   2.516   0.443   5.678  2.5928 -1.4550 -1.4322
 1932SOL    HW217259   2.497   0.453   5.826 -0.3845 -0.7061  0.1340
 1933SOL     OW17260   2.305   0.659   7.581  0.4983  0.5926  0.1913
 1933SOL    HW117261   2.290   0.706   7.499 -1.6373  0.2256  0.3489
 1933SOL    HW217262   2.225   0.677   7.631  0.5566  1.4838 -0.0342
 1934SOL     OW17263   2.560   2.444   1.752  0.0945  0.3663 -0.2462
 1934SOL    HW117264   2.577   2.350   1.758  1.2957  0.6652  1.0814
 1934SOL    HW217265   2.638   2.486   1.789  0.0542  0.5494 -0.3688
 1935SOL     OW17266   4.212   0.482   8.450 -0.9518  0.6644  0.3315
 1935SOL    HW117267   4.250   0.397   8.470  1.1594  1.6955  0.7334
 1935SOL    HW217268   4.275   0.540   8.493  0.1598  0.4396 -1.0056
 1936SOL     OW17269   1.086   4.183   6.850  0.0386 -0.2459 -0.1559
 1936SOL    HW117270   1.161   4.197   6.792 -2.2074  2.3832 -2.4246
 1936SOL    HW217271   1.080   4.275   6.877 -3.3788  0.5291 -3.4186
 1937SOL     OW17272   2.268   2.093   7.307  0.2211  0.1367 -0.4629
 1937SOL    HW117273   2.281   2.005   7.342  1.0742 -0.0101 -1.1644
 1937SOL    HW217274   2.281   2.076   7.214  0.9030  0.5034 -0.4340
 1938SOL     OW17275   4.325   4.124   0.739  0.0848  0.3625 -0.1811
 1938SOL    HW117276   4.270   4.076   0.677  0.9560 -1.7372  0.7071
 1938SOL    HW217277   4.397   4.151   0.682 -1.2185  0.0769 -1.9623
 1939SOL     OW17278   1.795   2.915   8.953  0.2651  0.0762 -0.6972
 1939SOL    HW117279   1.800   2.955   8.866  3.2267  0.6210 -0.2580
 1939SOL    HW217280   1.787   2.995   9.004 -1.0187 -0.0350 -0.7242
 1940SOL     OW17281   0.914   3.185  11.423 -0.2405 -0.0267 -0.0804
 1940SOL    HW117282   0.887   3.248  11.356  0.5085  0.7072  0.2953
 1940SOL    HW217283   0.879   3.228  11.502 -0.2335  0.5689 -0.3988
 1941SOL     OW17284   3.097   2.790  11.461 -0.0049  0.0054 -0.1030
 1941SOL    HW117285   3.015   2.788  11.510  0.1981 -0.3632  0.2223
 1941SOL    HW217286   3.094   2.868  11.405 -0.4655 -0.6490 -0.9833
 1942SOL     OW17287   2.949   4.553   4.331 -0.1405 -0.1922 -0.0411
 1942SOL    HW117288   2.981   4.613   4.398  1.1666 -1.6214  0.6076
 1942SOL    HW217289   2.861   4.540   4.367 -0.0914 -0.0017  0.1487
 1943SOL     OW17290   4.522   2.120   5.662 -0.1221  0.0972  0.2354
 1943SOL    HW117291   4.579   2.181   5.710  1.3639 -0.4713 -0.8255
 1943SOL    HW217292   4.582   2.090   5.594  0.1227 -0.2776  0.6147
 1944SOL     OW17293   1.988   1.064   5.859  0.5248 -0.1300  0.0968
 1944SOL    HW117294   1.909   1.054   5.807 -0.7016  1.3158  1.6550
 1944SOL    HW217295   1.958   1.105   5.940  0.2380  0.4043 -0.2767
 1945SOL     OW17296   2.889   1.944   5.356 -0.1077  0.4710  0.3164
 1945SOL    HW117297   2.886   1.881   5.428 -1.3254 -2.6749 -2.5072
 1945SOL    HW217298   2.915   2.023   5.404  3.3839  0.0706 -0.9184
 1946SOL     OW17299   2.642   4.020   3.091 -0.2660  0.0756 -0.1696
 1946SOL    HW117300   2.595   4.029   3.009  2.1695  1.5951 -1.4075
 1946SOL    HW217301   2.594   4.088   3.138  0.4608 -0.9483  2.0727
 1947SOL     OW17302   2.731   2.561   1.937  0.1806  0.5881 -0.4486
 1947SOL    HW117303   2.819   2.588   1.964  0.9454 -1.4702 -0.8798
 1947SOL    HW217304   2.701   2.520   2.019  1.3040  0.1779 -0.2407
 1948SOL     OW17305   3.682   0.956  14.404  0.1485  0.5904  0.0997
 1948SOL    HW117306   3.658   1.012  14.479 -2.7009  0.9825 -1.1348
 1948SOL    HW217307   3.777   0.940  14.402 -0.2028 -1.6046  0.9956
 1949SOL     OW17308   0.753   3.981   7.675 -0.1643  0.6242  0.2826
 1949SOL    HW117309   0.669   3.967   7.717  0.7625  0.7818  2.1863
 1949SOL    HW217310   0.814   3.954   7.744  1.3895  1.6782 -0.6935
 1950SOL     OW17311   2.153   2.636   7.374 -0.2722  0.1600  0.2536
 1950SOL    HW117312   2.127   2.716   7.329 -2.7841 -1.0732 -0.5103
 1950SOL    HW217313   2.075   2.603   7.419 -1.9832  0.1821 -2.7710
 1951SOL     OW17314   4.086   0.069  17.579 -0.2915 -0.1405  0.3288
 1951SOL    HW117315   4.167   0.107  17.612  0.7858 -2.5978  0.5414
 1951SOL    HW217316   4.045   0.152  17.557 -0.0013 -0.1246 -0.1589
 1952SOL     OW17317   4.115   1.947  12.173 -0.1631  0.0616 -0.0535
 1952SOL    HW117318   4.054   1.879  12.200  0.2008  0.8408  2.6869
 1952SOL    HW217319   4.097   1.954  12.079  1.7013  1.5260 -0.2931
 1953SOL     OW17320   0.245   2.611   3.515  0.2758 -0.4605  0.0568
 1953SOL    HW117321   0.238   2.594   3.421  3.0252  0.3933 -0.3027
 1953SOL    HW217322   0.184   2.543   3.544  1.1069 -0.7372  1.1636
 1954SOL     OW17323   1.608   0.259   7.357 -0.1234  0.6130  0.1450
 1954SOL    HW117324   1.538   0.325   7.354 -1.1930 -0.5530 -1.0794
 1954SOL    HW217325   1.641   0.274   7.268 -1.0160  0.5731 -0.2004
 1955SOL     OW17326   3.944   0.537   7.279 -0.3895  0.2625  0.5720
 1955SOL    HW117327   4.005   0.573   7.344 -1.3423 -0.8236  2.0663
 1955SOL    HW217328   3.922   0.455   7.323 -1.9650 -1.0421 -2.6787
 1956SOL     OW17329   2.935   4.076   1.280  0.9551  0.0733 -0.4161
 1956SOL    HW117330   2.893   4.111   1.201  0.1017  0.5488  0.2449
 1956SOL    HW217331   2.900   3.987   1.277  0.2799  0.2981  0.5770
 1957SOL     OW17332   2.719   2.541   1.490  0.3106  0.0573  0.3439
 1957SOL    HW117333   2.670   2.474   1.537 -0.6730  0.7025  0.2553
 1957SOL    HW217334   2.788   2.485   1.454 -1.0471 -1.4517  0.1170
 1958SOL     OW17335   4.246   1.462   3.612 -0.4854  0.8353 -0.2854
 1958SOL    HW117336   4.339   1.460   3.592 -0.5753  1.6958 -0.7850
 1958SOL    HW217337   4.220   1.379   3.572 -0.5689 -0.2131  1.9691
 1959SOL     OW17338   0.834   2.861   8.676  0.2540 -0.2008  0.7679
 1959SOL    HW117339   0.869   2.950   8.668 -0.9760  0.1048 -1.3537
 1959SOL    HW217340   0.752   2.874   8.723 -1.3243 -0.4167 -1.9130
 1960SOL     OW17341   1.441   4.048   4.119  0.2551 -0.7355 -0.0372
 1960SOL    HW117342   1.531   4.034   4.147  0.8390 -0.3198 -1.6507
 1960SOL    HW217343   1.390   4.021   4.195  1.9927  0.5243  1.5665
 1961SOL     OW17344   0.789   3.738   4.330  0.7578 -0.3299  0.4104
 1961SOL    HW117345   0.800   3.675   4.259 -0.0444 -0.0667  0.0630
 1961SOL    HW217346   0.714   3.704   4.378  0.1978  0.1649 -0.1171
 1962SOL     OW17347   3.236   3.375   8.032 -0.3857  0.2177 -0.0117
 1962SOL    HW117348   3.248   3.298   7.977 -0.7926  0.9553 -1.1186
 1962SOL    HW217349   3.322   3.417   8.020 -0.1830  0.7689  3.4171
 1963SOL     OW17350   1.590   3.209   5.723 -0.4395 -0.6761  0.0050
 1963SOL    HW117351   1.510   3.203   5.672 -2.5115 -0.1195  3.1546
 1963SOL    HW217352   1.628   3.286   5.683 -1.1420 -0.5174 -0.3459
 1964SOL     OW17353   2.551   2.952   2.053  0.2607  0.3824  0.0503
 1964SOL    HW117354   2.496   2.875   2.068  0.5496 -0.0494 -1.1213
 1964SOL    HW217355   2.626   2.903   2.086 -1.1460 -0.3400  2.2349
 1965SOL     OW17356   2.750   1.426   8.051  0.3802 -0.0010  0.3928
 1965SOL    HW117357   2.754   1.347   8.106 -2.7872 -0.6518 -0.2972
 1965SOL    HW217358   2.659   1.456   8.056 -0.0452 -1.3439  0.7759
 1966SOL     OW17359   3.261   4.460   6.365  0.1533 -0.1029 -0.1153
 1966SOL    HW117360   3.198   4.528   6.390 -0.5955 -0.9829  0.3888
 1966SOL    HW217361   3.317   4.457   6.443  0.2742 -2.2237 -0.2910
 1967SOL     OW17362   4.600   0.544   6.563  0.3835 -0.3967 -0.1976
 1967SOL    HW117363   4.647   0.577   6.639 -0.9398  0.7152  0.1463
 1967SOL    HW217364   4.512   0.551   6.599  0.5972  0.9823  0.0405
 1968SOL     OW17365   4.650   2.753   5.744  0.2117 -0.1515 -0.3026
 1968SOL    HW117366   0.013   2.725   5.772 -0.2673  2.2446  3.6205
 1968SOL    HW217367   4.599   2.676   5.770  2.3525 -1.8328 -1.0100
 1969SOL     OW17368   3.428   2.464   3.677  0.5736  0.0660 -0.3037
 1969SOL    HW117369   3.412   2.526   3.606 -1.0522 -0.3422 -0.3034
 1969SOL    HW217370   3.485   2.397   3.642  0.8047 -0.6648  1.5033
 1970SOL     OW17371   1.778   2.492   2.452 -0.0745  0.0090  0.2779
 1970SOL    HW117372   1.760   2.497   2.546  1.7252 -1.4649  0.7014
 1970SOL    HW217373   1.693   2.519   2.419 -0.3039 -1.8800 -0.6693
 1971SOL     OW17374   3.186   1.976  15.029 -0.1910 -0.0539  0.1213
 1971SOL    HW117375   3.146   2.051  14.986 -0.7198  0.2079  1.0655
 1971SOL    HW217376   3.163   1.897  14.980 -2.9752  0.9144 -0.1159
 1972SOL     OW17377   2.587   2.979   5.202  0.0999 -0.4824  0.5899
 1972SOL    HW117378   2.677   2.952   5.221  0.6285  1.5228  0.9637
 1972SOL    HW217379   2.544   2.950   5.282 -1.2772  3.0863  1.1388
 1973SOL     OW17380   4.462   4.430   6.818 -0.1213 -0.6009 -0.3495
 1973SOL    HW117381   4.483   4.478   6.898  0.2346  2.0023 -2.0012
 1973SOL    HW217382   4.410   4.361   6.859  0.2780 -0.2423  0.7736
 1974SOL     OW17383   2.711   4.010  16.294  0.3674  0.0210  0.8879
 1974SOL    HW117384   2.722   4.094  16.250 -0.6094 -0.5766 -0.5138
 1974SOL    HW217385   2.621   4.019  16.326 -0.7419  0.1216 -2.2523
 1975SOL     OW17386   1.150   0.841  13.325  0.4412  0.1073 -0.1829
 1975SOL    HW117387   1.220   0.822  13.262  0.3633 -0.9263  0.0518
 1975SOL    HW217388   1.134   0.749  13.343 -0.5971 -0.1652 -2.4764
 1976SOL     OW17389   0.190   1.700   6.728 -0.1984  0.3081 -0.1626
 1976SOL    HW117390   0.153   1.659   6.806 -0.0849  1.6668  0.6159
 1976SOL    HW217391   0.114   1.748   6.695 -0.1532  0.4040 -0.1272
 1977SOL     OW17392   2.213   3.307   8.081 -0.2670 -0.1752  0.1609
 1977SOL    HW117393   2.182   3.384   8.033 -1.9274  0.1311  1.7067
 1977SOL    HW217394   2.141   3.247   8.063 -0.4669  0.3461 -0.7653
 1978SOL     OW17395   0.248   3.863  13.491 -0.2901  0.8857  0.0645
 1978SOL    HW117396   0.246   3.937  13.553  1.3210  0.1432  1.0045
 1978SOL    HW217397   0.338   3.861  13.460 -0.2663  1.3759  0.0946
 1979SOL     OW17398   2.134   0.547   4.921 -0.3821  0.5726 -0.8917
 1979SOL    HW117399   2.062   0.585   4.871 -0.5265 -0.6414 -1.5993
 1979SOL    HW217400   2.119   0.453   4.907 -0.0129  0.6096 -1.5065
 1980SOL     OW17401   4.399   1.961   3.666 -0.2262 -0.4516 -0.0464
 1980SOL    HW117402   4.307   1.956   3.641 -0.2313  0.8649 -0.2862
 1980SOL    HW217403   4.441   1.942   3.582 -1.4133  0.6180 -0.8947
 1981SOL     OW17404   0.094   2.450   7.401 -0.1391 -0.1408  0.2780
 1981SOL    HW117405   0.109   2.515   7.332 -1.8431 -0.9426 -0.8334
 1981SOL    HW217406   0.134   2.500   7.473 -1.9947 -0.1231  1.2843
 1982SOL     OW17407   2.537   0.217  15.677 -0.0016  0.4965 -0.0201
 1982SOL    HW117408   2.504   0.195  15.764  1.5328 -2.6750 -0.2273
 1982SOL    HW217409   2.525   0.135  15.629  2.1545 -0.8641  1.7671
 1983SOL     OW17410   3.636   2.179   7.387  0.0547  0.4285  0.3493
 1983SOL    HW117411   3.584   2.253   7.356  1.0050 -0.3854 -3.1181
 1983SOL    HW217412   3.603   2.165   7.476  0.5283 -0.0337  0.4528
 1984SOL     OW17413   0.176   0.154  15.854  0.5088 -0.6464  0.1002
 1984SOL    HW117414   0.228   0.199  15.920  1.9267 -1.3931 -0.5172
 1984SOL    HW217415   0.165   0.069  15.898 -1.7471 -0.1532  0.4872
 1985SOL     OW17416   1.662   0.623  16.263  0.2907 -0.8269 -0.1113
 1985SOL    HW117417   1.610   0.704  16.262  0.1387 -0.9044  1.7648
 1985SOL    HW217418   1.694   0.626  16.172 -0.7485 -1.4609 -0.5025
 1986SOL     OW17419   3.116   2.109  10.215 -0.3704  0.5563 -0.4054
 1986SOL    HW117420   3.021   2.112  10.210 -0.5106 -2.1321  0.8358
 1986SOL    HW217421   3.143   2.060  10.137 -3.8196  0.1093 -1.2898
 1987SOL     OW17422   2.322   4.345   8.137  0.5131 -0.1513 -0.2248
 1987SOL    HW117423   2.340   4.422   8.191 -1.7174 -1.3476  2.2588
 1987SOL    HW217424   2.289   4.282   8.201  1.5661  1.1885  1.6290
 1988SOL     OW17425   0.950   1.274  13.860  0.5801 -0.2642 -0.9335
 1988SOL    HW117426   1.029   1.324  13.841  0.1116  0.0119 -2.1392
 1988SOL    HW217427   0.888   1.335  13.821  0.1563 -1.4555 -2.1458
 1989SOL     OW17428   1.041   1.526   8.252 -0.0088  0.0601 -1.1034
 1989SOL    HW117429   1.110   1.574   8.298 -0.7469  0.2245 -0.1635
 1989SOL    HW217430   0.961   1.575   8.271  0.4439 -0.6277  2.4721
 1990SOL     OW17431   3.791   1.191   2.916 -0.1215  0.2312 -0.0047
 1990SOL    HW117432   3.748   1.224   2.995 -0.5800 -0.6494  0.1170
 1990SOL    HW217433   3.733   1.118   2.895  0.0021 -0.2129  1.1663
 1991SOL     OW17434   3.383   1.983   2.135 -0.2694 -0.4786 -0.6460
 1991SOL    HW117435   3.416   2.065   2.098 -0.3217  0.3525  1.1787
 1991SOL    HW217436   3.360   2.008   2.224 -0.5777 -1.1875 -0.5260
 1992SOL     OW17437   2.849   4.052   0.774  0.8709  0.4085 -0.2852
 1992SOL    HW117438   2.848   4.090   0.686 -0.7110 -0.5615 -0.6991
 1992SOL    HW217439   2.875   3.961   0.756 -0.1448 -0.0185  0.4186
 1993SOL     OW17440   3.391   3.721   3.663  0.2149 -0.0930  0.3247
 1993SOL    HW117441   3.368   3.644   3.612 -0.0929 -1.0523  1.8990
 1993SOL    HW217442   3.468   3.698   3.716  0.1189 -1.2987 -0.0568
 1994SOL     OW17443   0.949   4.529   8.752 -0.4411  0.3596 -0.2467
 1994SOL    HW117444   0.936   4.441   8.718  0.9785 -0.0867  0.3713
 1994SOL    HW217445   1.036   4.517   8.789 -0.2184  2.1034 -0.2102
 1995SOL     OW17446   3.348   0.980  10.806  0.7719 -0.0942 -0.3206
 1995SOL    HW117447   3.367   0.929  10.727 -1.3046 -1.2194 -0.0923
 1995SOL    HW217448   3.299   1.058  10.781 -0.6736 -0.4080  1.4717
 1996SOL     OW17449   3.648   3.276   3.041  0.4763 -0.4090 -0.3481
 1996SOL    HW117450   3.629   3.196   2.992  0.5076 -0.8824  0.4137
 1996SOL    HW217451   3.558   3.306   3.052  1.3435  1.9180  0.3544
 1997SOL     OW17452   3.884   2.337  13.755  0.4983 -0.3413  0.2538
 1997SOL    HW117453   3.804   2.325  13.808  0.7636 -1.9469  0.3053
 1997SOL    HW217454   3.858   2.377  13.672  0.7657 -0.8536 -0.0761
 1998SOL     OW17455   4.102   1.062   6.786 -0.0445 -0.4047 -0.1094
 1998SOL    HW117456   4.149   0.981   6.767  1.4091  0.0920  1.4564
 1998SOL    HW217457   4.161   1.129   6.750 -0.8934  0.4181  0.0216
 1999SOL     OW17458   0.095   3.630   5.831  0.0045 -0.0660  0.0489
 1999SOL    HW117459   0.080   3.630   5.737  0.7801  5.3309 -0.0299
 1999SOL    HW217460   0.048   3.549   5.852 -0.8144  1.0297  2.4259
 2000SOL     OW17461   1.164   0.234   8.588 -0.6796  0.4980 -0.0290
 2000SOL    HW117462   1.219   0.163   8.620 -0.4546  0.9132  0.5109
 2000SOL    HW217463   1.078   0.194   8.602 -0.7440  0.7379  0.2697
 2001SOL     OW17464   1.600   4.179  11.655  0.5171  0.3247 -0.2132
 2001SOL    HW117465   1.568   4.103  11.606 -0.9032  0.0512  1.1374
 2001SOL    HW217466   1.604   4.143  11.744  1.0580  0.1107 -0.3226
 2002SOL     OW17467   3.682   0.669   6.579  0.1626 -0.0465 -0.1604
 2002SOL    HW117468   3.755   0.721   6.545  1.9477 -1.0865  2.0613
 2002SOL    HW217469   3.609   0.699   6.526  0.8072  0.4562 -0.7611
 2003SOL     OW17470   1.869   4.283   5.828  0.5519  1.1950 -0.2887
 2003SOL    HW117471   1.897   4.374   5.829  1.1060  1.0202 -0.0611
 2003SOL    HW217472   1.784   4.283   5.784  0.7313  1.8972 -0.6406
 2004SOL     OW17473   0.583   0.375   7.626  0.5079 -0.0902 -0.1642
 2004SOL    HW117474   0.575   0.470   7.612  2.4488 -0.0388 -0.9538
 2004SOL    HW217475   0.594   0.368   7.721  0.2164 -0.8865 -0.1923
 2005SOL     OW17476   4.193   2.112  15.923  0.2070  0.1160 -0.1692
 2005SOL    HW117477   4.244   2.063  15.858  1.8872  0.1421  1.1267
 2005SOL    HW217478   4.198   2.202  15.893 -0.0903  0.1306 -0.1732
 2006SOL     OW17479   2.452   1.987   4.169  0.2090  0.0687  0.7756
 2006SOL    HW117480   2.506   1.942   4.104  2.0509 -2.1885  3.8917
 2006SOL    HW217481   2.510   2.000   4.243  1.2724  1.4072 -0.3000
 2007SOL     OW17482   1.974   3.473  13.364  0.0641  0.4277  0.6257
 2007SOL    HW117483   1.952   3.518  13.282 -2.5184 -0.1855  0.9813
 2007SOL    HW217484   2.043   3.418  13.326 -1.2348  0.0941 -1.2638
 2008SOL     OW17485   1.046   3.495   3.964 -0.0062  0.2361 -0.2423
 2008SOL    HW117486   1.095   3.543   3.897 -0.5068 -0.1786 -0.9016
 2008SOL    HW217487   1.099   3.509   4.043 -1.8254  0.5603  0.9034
 2009SOL     OW17488   1.433   4.015   1.233 -0.1295 -0.3184  0.3055
 2009SOL    HW117489   1.339   4.027   1.216  0.0322  2.2834  1.3121
 2009SOL    HW217490   1.434   3.985   1.324  3.4895  1.5915  0.8776
 2010SOL     OW17491   1.336   1.021   2.391 -0.2961 -0.2099 -0.0441
 2010SOL    HW117492   1.426   0.998   2.368 -0.3054  0.1704 -0.4510
 2010SOL    HW217493   1.353   1.112   2.416 -0.8812 -0.2916  0.6578
 2011SOL     OW17494   0.659   0.473   3.180  0.0517 -0.2704  0.4936
 2011SOL    HW117495   0.702   0.391   3.206  0.4833  0.4051  1.9273
 2011SOL    HW217496   0.735   0.518   3.143  0.7663 -1.5072  0.4458
 2012SOL     OW17497   0.050   0.667  15.200  0.4375 -0.1295  0.6747
 2012SOL    HW117498   0.008   0.717  15.270  1.0395  3.2182 -1.3567
 2012SOL    HW217499   4.721   0.703  15.128 -0.7679 -1.6682  0.7933
 2013SOL     OW17500   0.353   3.416   7.594  0.1768  0.0292 -0.1183
 2013SOL    HW117501   0.398   3.486   7.641 -0.9512  1.8816 -1.8015
 2013SOL    HW217502   0.266   3.450   7.575  0.5264 -0.3578 -2.4574
 2014SOL     OW17503   1.972   1.093   6.735  0.0593  0.6748 -0.5839
 2014SOL    HW117504   1.906   1.078   6.667  0.0599 -0.3267 -0.3564
 2014SOL    HW217505   2.049   1.109   6.680  1.3146 -3.1475  0.1221
 2015SOL     OW17506   1.326   0.894   6.134 -0.0413 -0.1448 -0.3200
 2015SOL    HW117507   1.378   0.886   6.214  1.0514 -0.4581 -1.0587
 2015SOL    HW217508   1.396   0.931   6.080  0.3521  0.3803  0.5472
 2016SOL     OW17509   1.823   1.867  16.480  0.2135  0.4768 -0.0540
 2016SOL    HW117510   1.917   1.858  16.469  0.2084  1.7848 -1.1382
 2016SOL    HW217511   1.816   1.852  16.575  2.4948 -0.2413  0.0055
 2017SOL     OW17512   2.310   0.768   6.906 -0.3251 -0.4900  0.0529
 2017SOL    HW117513   2.328   0.818   6.986  0.7722 -0.6329 -0.0995
 2017SOL    HW217514   2.381   0.793   6.847 -0.8204  0.3490 -0.1845
 2018SOL     OW17515   1.971   3.191   8.023 -0.1822 -0.4421 -0.3627
 2018SOL    HW117516   1.892   3.190   8.077  0.5256  0.3314  0.6811
 2018SOL    HW217517   1.926   3.171   7.941 -2.5178 -0.1961  0.8550
 2019SOL     OW17518   0.142   0.845  14.074  0.0151  0.1626 -0.0005
 2019SOL    HW117519   0.081   0.793  14.022 -3.8153  1.8439  2.8086
 2019SOL    HW217520   0.219   0.788  14.067  1.2018  1.6411  0.8168
 2020SOL     OW17521   3.788   3.816   8.871  0.0723  0.0155  0.0103
 2020SOL    HW117522   3.697   3.799   8.895 -0.3163  0.0866 -1.4038
 2020SOL    HW217523   3.815   3.730   8.839 -2.0821 -1.1690  1.3964
 2021SOL     OW17524   4.252   0.628   2.421  0.1800  0.1193  0.6550
 2021SOL    HW117525   4.216   0.561   2.363 -1.2148  1.2201  0.2479
 2021SOL    HW217526   4.192   0.701   2.407  0.2841  0.1269  0.2515
 2022SOL     OW17527   1.519   3.943   4.778 -0.0614  0.4373 -0.0870
 2022SOL    HW117528   1.612   3.952   4.757  0.1302  0.0266  0.5764
 2022SOL    HW217529   1.504   4.030   4.816 -0.6840  0.7271 -1.0130
 2023SOL     OW17530   2.946   1.441   8.474  0.0968 -0.0171  0.5615
 2023SOL    HW117531   2.883   1.387   8.523  0.0403 -1.7939 -1.5160
 2023SOL    HW217532   3.023   1.386   8.482 -1.3493 -2.0540  0.5986
 2024SOL     OW17533   1.944   1.345   2.430  0.2683  0.0861  0.1892
 2024SOL    HW117534   1.930   1.387   2.515 -0.3132 -0.3637  0.3101
 2024SOL    HW217535   2.014   1.395   2.389  1.0421 -0.4413  0.8474
 2025SOL     OW17536   0.433   4.717   1.408 -0.4177  0.1647 -0.1835
 2025SOL    HW117537   0.375   4.642   1.392  1.7979 -1.0604 -2.3858
 2025SOL    HW217538   0.466   4.688   1.493 -2.4781  0.9811  0.9083
 2026SOL     OW17539   3.716   3.543   3.550 -0.1654 -0.0251 -0.3406
 2026SOL    HW117540   3.694   3.553   3.457  1.0566  1.3246 -0.5038
 2026SOL    HW217541   3.790   3.604   3.561 -2.0392  2.3645 -0.8452
 2027SOL     OW17542   3.595   3.553  11.356 -0.2922  0.5303 -0.3654
 2027SOL    HW117543   3.583   3.506  11.274 -2.2853  0.5139 -0.0620
 2027SOL    HW217544   3.566   3.480  11.410 -0.4146 -0.1907 -1.4063
 2028SOL     OW17545   3.525   3.808   8.962 -0.3164 -0.3706  0.1525
 2028SOL    HW117546   3.489   3.810   9.051 -1.2810  3.1245 -0.3333
 2028SOL    HW217547   3.484   3.727   8.929 -0.2862  0.5614 -2.1583
 2029SOL     OW17548   2.611   2.948  16.525 -0.1803 -0.0844 -0.3168
 2029SOL    HW117549   2.614   2.901  16.608  0.6281 -0.1346 -0.3807
 2029SOL    HW217550   2.543   3.014  16.536  1.1952  1.2787 -0.1387
 2030SOL     OW17551   2.373   3.944   2.490  0.0384  0.0666  0.6371
 2030SOL    HW117552   2.366   4.015   2.426  2.5303  1.4330  1.8634
 2030SOL    HW217553   2.300   3.970   2.546  0.2355  1.8063  0.0966
 2031SOL     OW17554   0.841   0.924  14.133 -0.1953  0.6405  0.2392
 2031SOL    HW117555   0.855   0.907  14.040  0.2195 -0.1225  0.4495
 2031SOL    HW217556   0.817   1.016  14.121  2.4314  1.1458 -1.0901
 2032SOL     OW17557   3.865   1.818   5.534 -0.5424 -0.0994 -0.1512
 2032SOL    HW117558   3.960   1.818   5.549 -0.5381  1.5146 -0.2531
 2032SOL    HW217559   3.857   1.857   5.447  1.9607  2.3285  0.6950
 2033SOL     OW17560   4.162   3.070   8.177 -0.5552  0.5966 -0.4564
 2033SOL    HW117561   4.081   3.057   8.128  0.2727  0.5708 -1.8243
 2033SOL    HW217562   4.219   3.075   8.100 -2.0486  1.3051 -1.5104
 2034SOL     OW17563   0.555   4.246   4.857 -0.4587  0.2861 -0.2733
 2034SOL    HW117564   0.616   4.205   4.795 -0.4895 -1.1882  0.6651
 2034SOL    HW217565   0.564   4.337   4.830 -0.9956  1.2645  2.8943
 2035SOL     OW17566   1.544   1.791   6.449 -0.3669 -0.2351 -0.5172
 2035SOL    HW117567   1.529   1.722   6.384 -0.8774 -2.0259  1.5066
 2035SOL    HW217568   1.524   1.873   6.404 -2.0004 -0.3907 -0.0826
 2036SOL     OW17569   4.486   2.185  15.385  0.3931  0.3024  0.4021
 2036SOL    HW117570   4.404   2.221  15.419 -0.1351 -1.0396  0.5658
 2036SOL    HW217571   4.539   2.257  15.420 -1.8293  1.5897  1.1011
 2037SOL     OW17572   2.198   0.410   4.672  0.4608 -0.1182 -0.3525
 2037SOL    HW117573   2.118   0.458   4.652 -0.7945 -3.1830 -2.7597
 2037SOL    HW217574   2.265   0.457   4.623  2.4531 -1.1554  1.3903
 2038SOL     OW17575   0.564   3.794  16.544  0.4463 -0.2397  0.2798
 2038SOL    HW117576   0.595   3.802  16.634 -0.5302  1.6357  0.4475
 2038SOL    HW217577   0.533   3.704  16.540 -1.6284  0.4643  0.5013
 2039SOL     OW17578   2.081   3.772  10.563  0.1839 -0.0938 -0.0585
 2039SOL    HW117579   2.068   3.690  10.517  0.4207  0.2772 -0.7900
 2039SOL    HW217580   2.054   3.752  10.653 -0.5557 -1.3720 -0.5827
 2040SOL     OW17581   4.006   2.667   5.703  0.4399  0.0868  0.7635
 2040SOL    HW117582   3.959   2.750   5.710  0.7662  0.4014 -0.7632
 2040SOL    HW217583   3.957   2.622   5.634  1.2872  0.1672  0.0962
 2041SOL     OW17584   0.089   0.230   3.095 -0.0262 -0.1919 -0.3120
 2041SOL    HW117585   0.140   0.256   3.171 -0.2300  1.0296 -0.6032
 2041SOL    HW217586   0.163   0.224   3.035  1.7367  0.8069  1.7734
 2042SOL     OW17587   3.268   3.802   7.977  0.5448 -0.2489  0.2061
 2042SOL    HW117588   3.316   3.884   7.968  1.2429 -0.8638 -1.7218
 2042SOL    HW217589   3.342   3.746   8.000 -0.0667 -0.4788  1.5792
 2043SOL     OW17590   1.404   4.446   3.024  0.2900 -0.0654  0.2597
 2043SOL    HW117591   1.333   4.418   3.081 -0.8316 -0.1095 -1.1792
 2043SOL    HW217592   1.353   4.464   2.945 -0.2078  0.5042  0.7093
 2044SOL     OW17593   0.108   3.180   7.811  0.1287 -0.7718  0.1490
 2044SOL    HW117594   0.105   3.274   7.792  0.1241 -0.4212  1.8255
 2044SOL    HW217595   0.046   3.177   7.884  1.3972  0.9240  1.3054
 2045SOL     OW17596   1.606   2.966  17.363 -0.2043 -0.1006  0.1310
 2045SOL    HW117597   1.695   2.987  17.393  0.4523 -1.4617 -0.8401
 2045SOL    HW217598   1.625   2.941  17.272 -1.1755 -0.4117  0.0117
 2046SOL     OW17599   0.193   1.303   6.410  0.3663  0.5300  0.2521
 2046SOL    HW117600   0.139   1.277   6.335 -0.2739  0.4354  0.7511
 2046SOL    HW217601   0.155   1.390   6.422 -2.3461 -0.9352  2.0347
 2047SOL     OW17602   2.141   0.558   3.639 -0.5807 -0.5305 -0.2660
 2047SOL    HW117603   2.118   0.479   3.687  1.4057 -3.0801 -3.4520
 2047SOL    HW217604   2.176   0.512   3.562 -2.2852 -1.4334 -0.4888
 2048SOL     OW17605   2.918   2.530   4.048 -0.0398 -1.0486 -0.2889
 2048SOL    HW117606   2.967   2.572   3.977 -1.9986 -1.0719 -1.6575
 2048SOL    HW217607   2.836   2.535   3.998  0.1640  1.7983 -0.3177
 2049SOL     OW17608   1.107   3.440  16.895 -0.4460  0.9769  0.2732
 2049SOL    HW117609   1.093   3.530  16.923  0.7039  0.5812  2.1610
 2049SOL    HW217610   1.046   3.405  16.961  1.4249 -4.0133 -0.6107
 2050SOL     OW17611   4.066   2.954   0.779  0.5678  0.2572 -0.4111
 2050SOL    HW117612   3.975   2.961   0.805 -0.1536 -1.0289 -2.6000
 2050SOL    HW217613   4.106   2.954   0.866  1.7757 -0.4742 -0.9490
 2051SOL     OW17614   1.520   3.534   9.347  0.1370 -0.1849 -0.1375
 2051SOL    HW117615   1.577   3.564   9.418  1.3457  4.2759 -2.9832
 2051SOL    HW217616   1.432   3.551   9.380 -0.6650 -2.1128 -1.2730
 2052SOL     OW17617   4.551   4.622  14.261 -0.6370  0.1361  0.0080
 2052SOL    HW117618   4.571   4.672  14.182  0.7640  0.7043  0.7121
 2052SOL    HW217619   4.557   4.535  14.223 -0.4396 -0.3672  1.2038
 2053SOL     OW17620   4.024   2.807   2.193  0.0612 -0.4069  0.0779
 2053SOL    HW117621   3.961   2.871   2.227  0.8749  0.3974  0.0876
 2053SOL    HW217622   3.956   2.744   2.171 -2.9118  2.7790 -0.0160
 2054SOL     OW17623   0.118   4.644   5.033 -0.1344  0.0573  0.3932
 2054SOL    HW117624   0.118   4.549   5.023  0.5376  0.3207 -1.9923
 2054SOL    HW217625   0.197   4.671   4.987  0.0137  0.7647  1.0735
 2055SOL     OW17626   1.562   0.656  10.686  0.2899  0.6175 -0.2770
 2055SOL    HW117627   1.638   0.657  10.743 -1.1709  1.2496  1.6593
 2055SOL    HW217628   1.536   0.748  10.687 -3.4931 -0.4217 -0.7741
 2056SOL     OW17629   2.139   0.739   3.098 -0.3813 -0.0368 -0.0669
 2056SOL    HW117630   2.121   0.803   3.029  1.1208 -0.7351 -1.1089
 2056SOL    HW217631   2.067   0.757   3.158  0.6814  2.5871  0.3878
 2057SOL     OW17632   1.548   2.056  11.771  0.3756 -0.4437  0.4830
 2057SOL    HW117633   1.454   2.041  11.778  0.2221  0.9621  1.3912
 2057SOL    HW217634   1.570   2.077  11.862  0.2668 -1.1447  0.6636
 2058SOL     OW17635   2.135   2.010   4.266 -0.7842  0.8172  0.2461
 2058SOL    HW117636   2.216   1.969   4.237 -0.7849 -1.1283  2.9638
 2058SOL    HW217637   2.069   1.950   4.230 -2.5223  1.4321  2.3463
 2059SOL     OW17638   4.187   3.608   5.703 -0.1862 -0.3487 -0.0903
 2059SOL    HW117639   4.194   3.626   5.796 -0.3494  1.1498 -0.3563
 2059SOL    HW217640   4.250   3.657   5.650 -0.0106  0.4981  0.9134
 2060SOL     OW17641   1.847   1.389  14.880  0.0091 -0.4125 -0.1587
 2060SOL    HW117642   1.915   1.429  14.935 -0.0015 -2.2903  1.2119
 2060SOL    HW217643   1.895   1.346  14.810  0.4017 -0.7266  0.3058
 2061SOL     OW17644   1.212   3.282   3.064 -0.7479 -0.6073 -0.1638
 2061SOL    HW117645   1.144   3.335   3.105 -0.6413 -0.1920 -0.5203
 2061SOL    HW217646   1.168   3.258   2.982  2.3436 -2.5113 -1.2892
 2062SOL     OW17647   2.326   4.184   7.355 -0.0045 -0.5740  0.0804
 2062SOL    HW117648   2.395   4.216   7.298 -0.2040 -1.5326 -0.6904
 2062SOL    HW217649   2.338   4.091   7.334 -1.5119 -0.9841  0.9580
 2063SOL     OW17650   2.100   4.455   7.933  0.3153  0.5028 -0.7479
 2063SOL    HW117651   2.173   4.410   7.976 -1.1478  0.1368  1.3470
 2063SOL    HW217652   2.027   4.401   7.964  0.6485  0.3795 -0.1800
 2064SOL     OW17653   1.260   2.038   0.891 -0.0189 -0.2412  0.5973
 2064SOL    HW117654   1.281   2.075   0.977 -1.6600  2.4191 -0.1589
 2064SOL    HW217655   1.173   2.077   0.880 -0.5568 -1.0654  1.8516
 2065SOL     OW17656   0.217   1.353   2.608  0.3938 -0.2650 -0.0096
 2065SOL    HW117657   0.264   1.372   2.689 -1.0879  2.1660  0.2691
 2065SOL    HW217658   0.264   1.402   2.541  0.3895 -2.3089 -1.5179
 2066SOL     OW17659   1.410   2.608   2.606  0.0217  0.0886  0.0810
 2066SOL    HW117660   1.492   2.621   2.653 -1.1660  1.5771  1.7621
 2066SOL    HW217661   1.446   2.576   2.524 -1.7443 -0.2668 -0.5697
 2067SOL     OW17662   0.048   1.211  14.342  0.4353 -0.1784  0.3036
 2067SOL    HW117663   0.066   1.301  14.368 -2.1708  0.9913 -1.9544
 2067SOL    HW217664   0.016   1.188  14.429 -1.5537 -2.0358 -0.9013
 2068SOL     OW17665   3.909   0.664   0.160  0.4611 -0.4060 -0.1978
 2068SOL    HW117666   3.967   0.637   0.231  0.1739  1.6161  0.8030
 2068SOL    HW217667   3.826   0.649   0.206 -0.1251  1.9923 -0.4638
 2069SOL     OW17668   0.909   1.633   5.236 -0.4165 -0.0366 -0.2906
 2069SOL    HW117669   0.944   1.722   5.238  1.3933 -0.7299 -0.6721
 2069SOL    HW217670   0.959   1.594   5.308 -0.5184  3.6592  1.7584
 2070SOL     OW17671   1.845   0.598   7.553 -0.3176  0.4783 -0.2865
 2070SOL    HW117672   1.843   0.550   7.635 -0.8282 -0.1699 -0.6778
 2070SOL    HW217673   1.845   0.528   7.487 -3.6802 -1.4249  1.7596
 2071SOL     OW17674   2.899   3.676  14.941  0.3330  0.2123  0.0187
 2071SOL    HW117675   2.878   3.588  14.974 -2.1047  0.0108 -2.0181
 2071SOL    HW217676   2.985   3.655  14.905  0.1886 -0.3272 -0.0151
 2072SOL     OW17677   1.341   3.389   4.078 -0.0455 -0.4699  0.3327
 2072SOL    HW117678   1.309   3.304   4.107  1.1893 -1.0326  0.0733
 2072SOL    HW217679   1.347   3.380   3.982  1.5122 -0.6603  0.4381
 2073SOL     OW17680   1.538   4.449   2.544 -0.3556 -0.3071 -0.0569
 2073SOL    HW117681   1.537   4.437   2.449  2.7938 -1.1312  0.0060
 2073SOL    HW217682   1.445   4.449   2.566 -0.6349 -1.7290 -1.1759
 2074SOL     OW17683   1.858   4.160   7.893 -0.0191 -0.2835  0.6968
 2074SOL    HW117684   1.815   4.107   7.827  0.7576 -0.6880  0.5099
 2074SOL    HW217685   1.790   4.224   7.911  1.1372  0.9111  0.8706
 2075SOL     OW17686   3.740   1.184   3.897  0.1078  0.1717  0.2405
 2075SOL    HW117687   3.657   1.140   3.914 -0.8258  1.1650 -1.7429
 2075SOL    HW217688   3.735   1.263   3.951 -1.6665  0.3785 -0.2202
 2076SOL     OW17689   1.154   4.335   9.328  0.1036  0.0890 -0.0580
 2076SOL    HW117690   1.175   4.420   9.369 -2.1854  0.9238 -0.6346
 2076SOL    HW217691   1.129   4.362   9.239  1.7203 -0.6819 -0.7469
 2077SOL     OW17692   1.672   4.342   7.307  0.5511 -0.0253  0.1019
 2077SOL    HW117693   1.609   4.394   7.256  0.4793  0.9200  1.1784
 2077SOL    HW217694   1.746   4.403   7.302 -1.5079  2.6058  1.7576
 2078SOL     OW17695   3.860   4.166   5.051  0.0454  0.1938  0.4521
 2078SOL    HW117696   3.934   4.215   5.088  0.2859 -0.0148  0.2475
 2078SOL    HW217697   3.829   4.118   5.127  0.4679  0.4486  0.7864
 2079SOL     OW17698   3.234   3.563  12.521  0.0783 -0.6042  0.2781
 2079SOL    HW117699   3.273   3.631  12.467 -0.4774 -1.8752 -1.7379
 2079SOL    HW217700   3.190   3.520  12.448 -0.4227 -0.4943  0.5142
 2080SOL     OW17701   3.726   3.695   1.455 -0.4169  0.1581  0.0903
 2080SOL    HW117702   3.723   3.791   1.461 -1.6362  0.0417  1.2633
 2080SOL    HW217703   3.704   3.679   1.363  1.2348 -0.5558 -0.1855
 2081SOL     OW17704   3.037   2.818   4.975 -0.2784  0.0467 -0.5902
 2081SOL    HW117705   3.098   2.890   4.985 -0.3944  0.1100 -0.3405
 2081SOL    HW217706   3.098   2.745   4.989  0.1185  0.1686 -1.6786
 2082SOL     OW17707   2.117   1.229   3.127  0.1686  0.2887  0.3084
 2082SOL    HW117708   2.111   1.186   3.212  0.8611 -0.6822 -0.1387
 2082SOL    HW217709   2.042   1.187   3.085 -0.8326  0.2388  2.1342
 2083SOL     OW17710   1.804   2.293   6.994 -0.3885  0.7520  0.8584
 2083SOL    HW117711   1.790   2.380   6.956 -1.2845  0.5672  0.7662
 2083SOL    HW217712   1.737   2.292   7.062  0.1022  2.7264  1.3749
 2084SOL     OW17713   1.055   0.063   5.789  0.3061 -0.3231  0.0252
 2084SOL    HW117714   0.998   4.715   5.818 -0.4853  0.6774  0.9657
 2084SOL    HW217715   1.061   0.117   5.868 -2.1052 -1.5637  1.0716
 2085SOL     OW17716   4.224   0.811   5.626  0.4104 -0.2208 -0.1790
 2085SOL    HW117717   4.281   0.840   5.698  0.2436 -0.4708  0.0539
 2085SOL    HW217718   4.161   0.760   5.676  0.4104  0.7186  0.7977
 2086SOL     OW17719   3.919   0.041   1.795  0.1300 -0.1131 -0.5873
 2086SOL    HW117720   3.939   0.014   1.705 -0.0624 -0.2820 -0.5794
 2086SOL    HW217721   4.003   0.019   1.837 -0.0920  1.1384  0.5227
 2087SOL     OW17722   2.269   2.412   7.297 -0.2615  0.1548  0.3073
 2087SOL    HW117723   2.235   2.497   7.323  0.4026  1.0497 -1.7148
 2087SOL    HW217724   2.194   2.352   7.296  0.5201 -0.8318  0.9115
 2088SOL     OW17725   3.453   2.111   4.689  0.0239  0.0452  0.0789
 2088SOL    HW117726   3.485   2.066   4.611  0.7563  0.0432  0.3830
 2088SOL    HW217727   3.452   2.196   4.646 -1.1418 -0.7795 -1.5428
 2089SOL     OW17728   0.612   3.666  13.140  0.8189  0.4795  0.1393
 2089SOL    HW117729   0.707   3.672  13.152  1.2617 -1.4489 -2.3739
 2089SOL    HW217730   0.594   3.756  13.112  0.5998  0.6534  0.8506
 2090SOL     OW17731   1.091   2.064   4.013  0.0357 -0.0000 -0.4784
 2090SOL    HW117732   1.081   2.121   3.937  2.4108  0.9197 -0.0992
 2090SOL    HW217733   1.168   2.018   3.980  0.7539  0.0816  1.0593
 2091SOL     OW17734   2.617   3.955   6.170 -0.4119  0.3061 -0.5655
 2091SOL    HW117735   2.704   3.976   6.138 -0.6258  1.4031 -0.4386
 2091SOL    HW217736   2.640   3.928   6.259 -0.4648 -1.1638 -1.0052
 2092SOL     OW17737   3.385   4.486  12.456  0.2331 -0.3118  0.2736
 2092SOL    HW117738   3.312   4.474  12.395 -0.5600  2.7304  0.5952
 2092SOL    HW217739   3.365   4.565  12.506  1.6377 -0.0699  0.4516
 2093SOL     OW17740   4.664   1.683   3.267  0.4819  0.6855  0.4036
 2093SOL    HW117741   4.640   1.626   3.194  0.6862 -1.4568  2.0070
 2093SOL    HW217742   4.639   1.766   3.225  0.3462 -0.1521 -1.1824
 2094SOL     OW17743   4.214   2.204   5.218  0.4800 -0.1962  0.0345
 2094SOL    HW117744   4.128   2.178   5.250  0.2365  0.3412 -0.1836
 2094SOL    HW217745   4.200   2.206   5.123 -2.4064  0.7734  0.4852
 2095SOL     OW17746   1.691   3.037   5.913 -0.0167 -0.5857  0.2071
 2095SOL    HW117747   1.635   3.082   5.850  0.3778  0.1001  0.3519
 2095SOL    HW217748   1.721   2.959   5.865  2.5151  0.7539 -0.3888
 2096SOL     OW17749   3.559   3.363   3.946 -0.3651 -0.3614  0.0469
 2096SOL    HW117750   3.566   3.338   3.853  0.5310 -0.2635  0.0970
 2096SOL    HW217751   3.598   3.449   3.932 -2.5651  0.5940 -0.2807
 2097SOL     OW17752   1.682   3.512  12.906  0.2151 -0.4064 -0.1500
 2097SOL    HW117753   1.706   3.573  12.976  3.0250 -0.2823 -1.2078
 2097SOL    HW217754   1.587   3.524  12.909  0.3246  0.8113 -1.0482
 2098SOL     OW17755   4.146   1.703   4.598  0.2213 -0.0084 -0.2997
 2098SOL    HW117756   4.058   1.729   4.570 -0.1734  0.7732  1.6437
 2098SOL    HW217757   4.200   1.778   4.576  1.0108  0.0897  1.9314
 2099SOL     OW17758   3.343   3.286   2.042 -0.5954  0.1375 -0.3008
 2099SOL    HW117759   3.341   3.208   1.987  1.3408 -0.8345  1.0312
 2099SOL    HW217760   3.361   3.351   1.974  1.6687 -1.0470 -0.8322
 2100SOL     OW17761   1.155   3.578   1.751  0.0101 -0.1013 -0.1785
 2100SOL    HW117762   1.096   3.648   1.779  0.1378  0.0235 -0.2208
 2100SOL    HW217763   1.130   3.584   1.659  0.9985  0.1155 -0.4421
 2101SOL     OW17764   0.644   3.258   5.944  0.0337  0.4058  0.2452
 2101SOL    HW117765   0.655   3.163   5.939  1.7900  0.8090 -3.3065
 2101SOL    HW217766   0.657   3.274   6.037  0.6161 -1.1925  0.4450
 2102SOL     OW17767   2.171   0.138  10.315  0.9587  0.1103  0.0285
 2102SOL    HW117768   2.149   0.054  10.274  1.1613 -0.1233  0.3957
 2102SOL    HW217769   2.198   0.101  10.399 -0.7262 -1.7695 -0.2631
 2103SOL     OW17770   3.364   2.269   6.302  0.2342 -0.3633  0.2496
 2103SOL    HW117771   3.379   2.349   6.251 -2.1269  0.6212  1.0827
 2103SOL    HW217772   3.440   2.253   6.357 -0.4153  0.1461  1.2960
 2104SOL     OW17773   2.598   0.692   2.362 -0.1113 -0.4137 -0.6664
 2104SOL    HW117774   2.549   0.648   2.431 -0.9740 -1.0682 -1.6855
 2104SOL    HW217775   2.656   0.625   2.326  2.2656 -0.8768  3.9632
 2105SOL     OW17776   0.542   4.718   3.570  0.4697  0.7452  0.1904
 2105SOL    HW117777   0.452   4.692   3.589  1.1562 -1.7852  0.0787
 2105SOL    HW217778   0.551   4.691   3.479  2.4338 -0.2654  0.6752
 2106SOL     OW17779   0.829   1.699   8.312 -0.5857  0.2023 -0.2274
 2106SOL    HW117780   0.809   1.755   8.388 -1.6771 -0.6488  0.1163
 2106SOL    HW217781   0.867   1.760   8.249  0.3108 -0.2362 -0.1157
 2107SOL     OW17782   1.719   2.231   5.624 -0.1363 -0.0611  0.5075
 2107SOL    HW117783   1.716   2.209   5.718 -2.5494 -2.6443 -0.1743
 2107SOL    HW217784   1.787   2.298   5.635  0.3500 -0.4401 -0.2414
 2108SOL     OW17785   2.099   2.000   5.405 -0.1558  0.4282  0.1116
 2108SOL    HW117786   2.087   1.913   5.444 -0.3165  0.5125  0.2485
 2108SOL    HW217787   2.031   2.043   5.457  2.0974  1.3756  2.2737
 2109SOL     OW17788   3.121   4.721   7.483  0.0816 -0.6158 -0.1096
 2109SOL    HW117789   3.188   0.024   7.546 -2.2666 -1.5837  2.8021
 2109SOL    HW217790   3.080   0.081   7.462  0.5482 -0.5487 -0.7610
 2110SOL     OW17791   4.127   0.224   0.953  0.1178 -0.0317  0.0280
 2110SOL    HW117792   4.055   0.200   1.010  0.4204 -1.1520 -0.0730
 2110SOL    HW217793   4.077   0.279   0.893  4.5969  2.4635 -1.4482
 2111SOL     OW17794   4.335   1.402   9.962  0.5585  0.5031  0.0014
 2111SOL    HW117795   4.263   1.358  10.007  0.6022  0.0670 -0.3546
 2111SOL    HW217796   4.309   1.386   9.871  3.1115  2.8873 -1.1210
 2112SOL     OW17797   2.400   1.280   1.478  0.1282  0.6553  0.0895
 2112SOL    HW117798   2.334   1.214   1.454  0.4405  0.9208 -1.4791
 2112SOL    HW217799   2.408   1.252   1.569 -1.4583  1.6965  0.5419
 2113SOL     OW17800   1.280   1.519   7.448  0.8988  0.1273  0.2948
 2113SOL    HW117801   1.240   1.486   7.367 -2.8366  2.4503  1.2413
 2113SOL    HW217802   1.205   1.556   7.494  0.5594  1.2488 -1.1752
 2114SOL     OW17803   3.339   1.314   4.020 -0.0861  0.2260  0.0661
 2114SOL    HW117804   3.251   1.296   4.054  0.4783 -1.0767  0.8171
 2114SOL    HW217805   3.361   1.397   4.062  1.8847  0.1699 -0.8505
 2115SOL     OW17806   1.266   2.676  16.625  0.0362  0.2637 -0.0681
 2115SOL    HW117807   1.245   2.736  16.697 -0.3801  0.0550 -0.0140
 2115SOL    HW217808   1.177   2.644  16.607  0.2177  0.1872 -0.8230
 2116SOL     OW17809   4.230   1.999  15.162  0.2638  0.8530 -0.4979
 2116SOL    HW117810   4.158   2.062  15.163 -0.6977 -0.2321 -1.3801
 2116SOL    HW217811   4.174   1.924  15.145  0.6051  0.9511 -2.0184
 2117SOL     OW17812   0.163   1.691   3.445 -0.2240 -0.9011  0.2205
 2117SOL    HW117813   0.077   1.688   3.402 -0.2388  2.1849  0.0468
 2117SOL    HW217814   0.187   1.598   3.444 -2.8324 -1.5767 -0.2759
 2118SOL     OW17815   2.751   0.766   5.146  0.3495  0.5760 -0.3086
 2118SOL    HW117816   2.664   0.803   5.158  0.9916  1.3884  1.7793
 2118SOL    HW217817   2.798   0.849   5.142 -0.2413  0.9427  0.3516
 2119SOL     OW17818   4.109   0.387  12.066  0.6334  0.0832  0.0879
 2119SOL    HW117819   4.159   0.457  12.024 -0.4445  0.0574 -1.2637
 2119SOL    HW217820   4.118   0.323  11.995 -0.3843  2.1724 -1.9440
 2120SOL     OW17821   0.134   1.281   2.085  0.8054 -0.6901  0.2769
 2120SOL    HW117822   0.200   1.337   2.045  0.6322 -0.9765 -0.4185
 2120SOL    HW217823   0.181   1.251   2.163 -0.1585 -2.9515 -0.0207
 2121SOL     OW17824   1.147   4.698   6.211 -0.6510  0.0975 -0.2211
 2121SOL    HW117825   1.207   0.049   6.204  0.7016 -0.9152  0.7298
 2121SOL    HW217826   1.215   4.634   6.191 -0.8437  0.4566 -1.9853
 2122SOL     OW17827   0.364   0.738   5.438 -0.3259 -0.0603 -0.3099
 2122SOL    HW117828   0.308   0.801   5.483  2.3275  2.1046 -0.0158
 2122SOL    HW217829   0.323   0.653   5.452 -0.1264 -0.5048 -2.4729
 2123SOL     OW17830   3.999   0.682   2.856  0.1799 -0.1053  0.0385
 2123SOL    HW117831   4.033   0.763   2.894  0.5698 -0.1590 -0.1984
 2123SOL    HW217832   4.062   0.656   2.789  1.7052  0.8633  1.0993
 2124SOL     OW17833   3.917   1.959   4.851  0.1539 -0.4416  0.1257
 2124SOL    HW117834   3.921   1.913   4.767 -0.5434 -1.7013  0.7789
 2124SOL    HW217835   3.970   1.898   4.903  1.4509  2.5870  2.3398
 2125SOL     OW17836   2.759   0.694   8.784 -0.4275 -0.3520 -0.5778
 2125SOL    HW117837   2.730   0.621   8.729  0.1653 -0.9624 -0.0918
 2125SOL    HW217838   2.848   0.662   8.799 -0.0757  0.5384 -0.7824
 2126SOL     OW17839   4.549   2.491   3.354  0.2144 -0.4653 -0.4615
 2126SOL    HW117840   4.506   2.538   3.282 -1.0112 -2.0668 -0.7794
 2126SOL    HW217841   4.522   2.399   3.346 -2.4472  0.4052 -1.3941
 2127SOL     OW17842   1.166   0.251   6.331  0.7749 -0.6896 -0.6313
 2127SOL    HW117843   1.083   0.288   6.361  0.0466 -2.9397  0.0991
 2127SOL    HW217844   1.228   0.283   6.397 -0.0549  0.5734 -0.4508
 2128SOL     OW17845   0.734   4.671   2.691 -0.4021  0.4015  0.0844
 2128SOL    HW117846   0.803   0.012   2.703 -1.6551  1.5569  1.0750
 2128SOL    HW217847   0.738   4.647   2.598  1.2833 -1.8074  0.7158
 2129SOL     OW17848   4.070   4.563  11.682  0.4748 -0.0555  0.2414
 2129SOL    HW117849   4.040   4.639  11.731 -0.1254 -0.5982  0.7314
 2129SOL    HW217850   4.141   4.605  11.633  0.4693 -0.1921  0.1177
 2130SOL     OW17851   0.649   3.354   3.594 -0.5565 -0.4676 -0.2588
 2130SOL    HW117852   0.684   3.442   3.582 -2.1587  0.1152 -0.6588
 2130SOL    HW217853   0.582   3.369   3.661  0.2027 -1.1118  0.6408
 2131SOL     OW17854   4.567   0.126   4.880  0.5375 -0.2401 -0.2046
 2131SOL    HW117855   4.528   0.152   4.797 -3.8133  2.4417  2.6867
 2131SOL    HW217856   4.505   0.162   4.942  1.6968  0.8754  0.3010
 2132SOL     OW17857   4.059   3.393   2.949  0.1251  0.1379  0.4020
 2132SOL    HW117858   4.046   3.461   2.882 -1.2672  0.4353  0.9714
 2132SOL    HW217859   4.091   3.321   2.895  0.4989  1.5091 -1.2450
 2133SOL     OW17860   1.656   2.265   3.985  0.6226 -0.0853  0.2648
 2133SOL    HW117861   1.650   2.289   3.893  0.0216  0.4324  0.4363
 2133SOL    HW217862   1.656   2.354   4.021 -0.0435 -0.1900  0.5112
 2134SOL     OW17863   1.582   0.864  16.331 -0.2088 -0.2979 -0.1326
 2134SOL    HW117864   1.505   0.919  16.348 -0.7008 -0.8224 -0.6453
 2134SOL    HW217865   1.579   0.852  16.236 -2.4016  2.1483 -0.3591
 2135SOL     OW17866   0.692   3.249  12.345  0.0149  0.2138 -0.1604
 2135SOL    HW117867   0.717   3.337  12.314 -0.4101  0.0269 -1.0321
 2135SOL    HW217868   0.696   3.246  12.441  1.0940 -1.6964 -0.2808
 2136SOL     OW17869   3.996   0.727   1.392  0.1556 -0.2842 -0.0633
 2136SOL    HW117870   4.040   0.757   1.312  0.0169  1.3716  0.5020
 2136SOL    HW217871   4.066   0.747   1.453  0.0290 -1.4054  0.4503
 2137SOL     OW17872   0.312   4.016   2.573  0.6934  0.1946  0.6387
 2137SOL    HW117873   0.225   3.995   2.539  0.6309  1.8397 -0.2352
 2137SOL    HW217874   0.363   4.015   2.492 -0.5622 -0.7377 -0.1479
 2138SOL     OW17875   4.451   3.950  13.198  0.6919 -0.2435 -0.0584
 2138SOL    HW117876   4.359   3.941  13.220  0.4224 -0.3492 -1.2354
 2138SOL    HW217877   4.477   3.975  13.287  1.8868 -2.4412  0.2216
 2139SOL     OW17878   0.080   1.590   4.639  0.2502  0.1361 -0.6088
 2139SOL    HW117879   0.089   1.498   4.616 -1.6630 -0.3110  0.3925
 2139SOL    HW217880   0.080   1.598   4.735 -1.5797 -0.6354 -0.5492
 2140SOL     OW17881   2.589   0.850   8.370 -0.7039 -0.0371 -0.4862
 2140SOL    HW117882   2.668   0.834   8.422 -0.0405  0.9286 -1.1828
 2140SOL    HW217883   2.534   0.864   8.447 -1.5480  2.1464 -1.4913
 2141SOL     OW17884   3.127   0.372   6.735  0.1808 -0.1819  0.1175
 2141SOL    HW117885   3.116   0.349   6.828 -0.4912 -1.4212 -0.2700
 2141SOL    HW217886   3.154   0.464   6.743 -0.4861  0.0431 -0.2033
 2142SOL     OW17887   0.533   4.446   4.425  0.5991 -0.3421  0.3080
 2142SOL    HW117888   0.526   4.457   4.330  1.0099  1.2126  0.4609
 2142SOL    HW217889   0.620   4.408   4.434  0.3658 -0.5181  1.9293
 2143SOL     OW17890   3.007   2.185   5.225  0.4522  0.0886 -0.3595
 2143SOL    HW117891   2.968   2.268   5.255  0.3039 -0.6431  1.4716
 2143SOL    HW217892   3.090   2.188   5.272 -0.1163 -0.6772  0.6903
 2144SOL     OW17893   1.929   2.405   2.242 -0.1593 -0.0278 -0.3950
 2144SOL    HW117894   1.887   2.439   2.321 -1.0999 -1.2838 -0.3572
 2144SOL    HW217895   1.982   2.481   2.219 -1.0692  0.1481 -1.9411
 2145SOL     OW17896   2.105   0.180   1.216 -0.0858  0.4213  0.4216
 2145SOL    HW117897   2.170   0.250   1.213 -0.5624  0.8145 -0.7068
 2145SOL    HW217898   2.150   0.117   1.159 -2.4921 -0.4929 -0.4762
 2146SOL     OW17899   0.584   1.944   8.853 -0.5250  0.0719  0.3679
 2146SOL    HW117900   0.502   1.923   8.898 -1.5020  1.8486 -0.5662
 2146SOL    HW217901   0.568   1.970   8.762  0.7740 -1.5786 -0.3264
 2147SOL     OW17902   0.738   3.282  10.167 -0.0915 -0.0337  0.6423
 2147SOL    HW117903   0.727   3.375  10.188  0.1052  0.4781 -1.5528
 2147SOL    HW217904   0.757   3.280  10.073 -2.1322 -0.7997  0.2456
 2148SOL     OW17905   0.654   0.186   1.337  0.2225 -0.0866 -0.0148
 2148SOL    HW117906   0.598   0.115   1.304  1.1906 -1.3416  1.0633
 2148SOL    HW217907   0.604   0.222   1.411  1.1573 -0.0289  0.5835
 2149SOL     OW17908   4.637   1.315   1.141  0.6113  0.0594 -0.0218
 2149SOL    HW117909   4.630   1.341   1.233  1.3335 -0.2430  0.1207
 2149SOL    HW217910   4.710   1.254   1.153 -0.2659 -0.6130  1.9332
 2150SOL     OW17911   2.217   0.675  11.936  0.3121 -0.1492  0.4350
 2150SOL    HW117912   2.168   0.750  11.903  0.3407  0.1445  1.0694
 2150SOL    HW217913   2.280   0.653  11.867  0.5657 -0.5412  0.7901
 2151SOL     OW17914   1.761   4.157   3.503  0.1917 -0.3225  0.1806
 2151SOL    HW117915   1.741   4.065   3.522 -1.4209 -0.4689 -2.1691
 2151SOL    HW217916   1.826   4.148   3.433 -1.2375 -0.8048 -1.0906
 2152SOL     OW17917   3.298   0.625   1.719  0.1910  0.1280  0.0858
 2152SOL    HW117918   3.318   0.558   1.653 -1.6788 -1.3627  1.0259
 2152SOL    HW217919   3.242   0.573   1.776 -3.6385  2.4700 -1.5456
 2153SOL     OW17920   4.068   0.796   0.797 -0.1503  0.8381  0.1487
 2153SOL    HW117921   4.093   0.708   0.826 -1.1431  1.2518  2.2773
 2153SOL    HW217922   4.013   0.810   0.874  0.4267  0.3393  0.6570
 2154SOL     OW17923   1.246   0.936   4.875 -0.2032  0.5787  0.2427
 2154SOL    HW117924   1.204   0.888   4.946 -1.0333  1.1366  0.1266
 2154SOL    HW217925   1.316   0.878   4.845 -0.4148 -0.2825  1.4296
 2155SOL     OW17926   2.562   0.668   6.516  0.1143 -0.5548  0.2938
 2155SOL    HW117927   2.578   0.691   6.424  0.3595  0.3028  0.5597
 2155SOL    HW217928   2.621   0.593   6.530 -0.5843 -0.8501  1.6266
 2156SOL     OW17929   2.207   2.071  16.363 -0.1550 -1.0932 -0.4294
 2156SOL    HW117930   2.262   2.102  16.291  0.5257 -1.8357 -0.2277
 2156SOL    HW217931   2.233   1.979  16.367  0.0711 -0.8441  3.9725
 2157SOL     OW17932   0.172   3.542   1.380 -0.3051  0.1475 -0.0274
 2157SOL    HW117933   0.113   3.617   1.369 -0.0885  0.3693  0.3515
 2157SOL    HW217934   0.123   3.479   1.327 -0.6661 -1.0319  1.7006
 2158SOL     OW17935   4.043   3.641   0.724  0.0279 -0.3451  0.2261
 2158SOL    HW117936   3.975   3.633   0.790 -0.9598  0.5121 -0.6889
 2158SOL    HW217937   4.013   3.725   0.690  2.0491  0.9591  1.6548
 2159SOL     OW17938   4.209   1.386   8.136 -0.5190  0.3188 -0.0969
 2159SOL    HW117939   4.269   1.438   8.084  1.6397 -1.0046  1.0756
 2159SOL    HW217940   4.158   1.324   8.083 -0.4600 -0.3126  0.5946
 2160SOL     OW17941   1.338   0.777   0.951 -0.4037 -0.0045  0.1692
 2160SOL    HW117942   1.427   0.799   0.926 -0.1709 -0.6718  0.4275
 2160SOL    HW217943   1.320   0.687   0.923 -1.1459 -0.5640  2.4222
 2161SOL     OW17944   4.611   3.130  16.924 -0.1990 -0.0913  0.4529
 2161SOL    HW117945   4.639   3.196  16.861  1.5064 -0.4291  0.8417
 2161SOL    HW217946   4.604   3.171  17.010 -3.9625 -0.2433  0.1875
 2162SOL     OW17947   1.048   1.335   9.263 -0.3504  0.0594  0.2055
 2162SOL    HW117948   0.974   1.368   9.315  0.3702  0.1000  1.2169
 2162SOL    HW217949   1.012   1.342   9.175  0.2621 -0.4241 -0.0820
 2163SOL     OW17950   3.494   0.231  10.177 -0.3024 -0.0423  0.0127
 2163SOL    HW117951   3.571   0.218  10.232 -0.0041 -0.8250 -0.5951
 2163SOL    HW217952   3.530   0.207  10.092 -1.5854 -0.2459 -0.4649
 2164SOL     OW17953   4.599   0.290   0.822 -0.2132 -0.3831  0.8459
 2164SOL    HW117954   4.689   0.315   0.799 -1.3121  0.0207 -3.0129
 2164SOL    HW217955   4.557   0.355   0.878 -0.6875  0.5974 -0.6345
 2165SOL     OW17956   1.384   2.965   2.778 -0.0983 -0.2458 -0.5200
 2165SOL    HW117957   1.343   2.983   2.863  0.9128 -1.5742  0.2345
 2165SOL    HW217958   1.474   2.951   2.805 -0.9397 -1.5346  1.6323
 2166SOL     OW17959   4.056   1.943  17.189 -0.0179 -0.2941 -0.2701
 2166SOL    HW117960   4.021   2.003  17.123 -1.6131  1.5044  2.2367
 2166SOL    HW217961   4.008   1.864  17.163  2.6159 -1.5355 -1.3051
 2167SOL     OW17962   0.792   3.303   7.742  0.3109 -0.3375  0.3535
 2167SOL    HW117963   0.847   3.255   7.804  2.0071 -0.4114 -1.1920
 2167SOL    HW217964   0.801   3.390   7.780 -2.0817  0.5698 -1.1474
 2168SOL     OW17965   3.644   2.909  16.346  0.0357  0.5299 -0.6658
 2168SOL    HW117966   3.572   2.916  16.285 -0.9311  1.2029  0.5519
 2168SOL    HW217967   3.589   2.895  16.423 -0.1238 -0.3113 -0.9277
 2169SOL     OW17968   1.664   2.540   4.010  0.2874 -0.8243  0.2364
 2169SOL    HW117969   1.735   2.580   4.060  1.1224 -0.7482 -1.0258
 2169SOL    HW217970   1.692   2.556   3.920 -2.7492 -0.0142 -0.5581
 2170SOL     OW17971   0.124   4.138   6.767  0.1614  0.2848 -0.4058
 2170SOL    HW117972   0.164   4.182   6.692  0.0067 -0.7576 -1.1032
 2170SOL    HW217973   0.031   4.130   6.746 -0.1449 -2.2835  1.8911
 2171SOL     OW17974   0.616   1.360  14.435  0.1098 -0.4897 -0.0873
 2171SOL    HW117975   0.679   1.304  14.391  0.9263  1.5500 -1.5427
 2171SOL    HW217976   0.563   1.298  14.485 -0.3057 -0.8744 -1.0025
 2172SOL     OW17977   0.655   3.055   5.588  0.4751 -0.0295  0.1421
 2172SOL    HW117978   0.705   3.058   5.670  1.3663 -0.4555 -0.3875
 2172SOL    HW217979   0.690   2.981   5.538 -0.2158  0.9060 -1.7028
 2173SOL     OW17980   3.153   4.179   0.153 -0.4169  0.3354 -0.5427
 2173SOL    HW117981   3.148   4.103   0.211  1.3190  0.5780 -0.0871
 2173SOL    HW217982   3.059   4.184   0.138 -0.2115  4.7550 -0.2318
 2174SOL     OW17983   1.655   4.017   0.268  0.0491 -0.0353 -0.2196
 2174SOL    HW117984   1.689   3.999   0.180  0.4822 -0.9013  0.1224
 2174SOL    HW217985   1.725   3.974   0.316  1.2029  2.1704  0.0749
 2175SOL     OW17986   0.819   1.177   4.093 -0.5695  0.5169 -0.1599
 2175SOL    HW117987   0.732   1.196   4.056 -1.1173  1.2578  1.5150
 2175SOL    HW217988   0.872   1.178   4.013 -2.3701 -0.8908 -1.3751
 2176SOL     OW17989   1.295   3.680   3.051 -0.3962  0.1367 -0.2082
 2176SOL    HW117990   1.250   3.715   2.975 -0.4437 -0.8437 -0.6292
 2176SOL    HW217991   1.221   3.683   3.111 -1.0236 -1.8139 -0.9095
 2177SOL     OW17992   3.851   4.192   0.630 -0.4677 -0.5711  0.1255
 2177SOL    HW117993   3.770   4.196   0.681 -1.2330  0.1345 -1.1607
 2177SOL    HW217994   3.863   4.283   0.602  2.1442 -1.6090 -2.1169
 2178SOL     OW17995   2.278   3.040   1.413 -0.1590 -0.6348 -0.6452
 2178SOL    HW117996   2.370   3.054   1.391 -0.0410  0.9502  0.7912
 2178SOL    HW217997   2.229   3.074   1.338 -0.5496 -0.5151 -0.3355
 2179SOL     OW17998   3.156   2.574   9.495 -0.2690  0.0695  0.1933
 2179SOL    HW117999   3.154   2.587   9.400 -0.0671  0.7028  0.2761
 2179SOL    HW218000   3.227   2.512   9.509  0.0610  0.0100 -1.7636
 2180SOL     OW18001   1.701   3.181   6.788  0.1412 -0.0158  0.1123
 2180SOL    HW118002   1.718   3.272   6.766 -0.4988  0.0095 -0.2729
 2180SOL    HW218003   1.759   3.148   6.719  0.3531  0.9921 -0.1921
 2181SOL     OW18004   0.614   2.696   6.689 -0.2796  0.2401  0.0471
 2181SOL    HW118005   0.526   2.733   6.686 -0.3812  0.0431  0.5939
 2181SOL    HW218006   0.655   2.752   6.755 -0.6899  1.7816 -1.0201
 2182SOL     OW18007   1.162   4.689   8.924  0.6189 -0.1648  0.1796
 2182SOL    HW118008   1.235   4.685   8.862 -0.1371 -0.3446 -0.6986
 2182SOL    HW218009   1.197   4.635   8.995  0.7975 -1.7213 -1.0665
 2183SOL     OW18010   2.256   1.666   5.754 -0.0180  0.4461  0.1441
 2183SOL    HW118011   2.175   1.633   5.793 -0.5792  0.2582 -1.1561
 2183SOL    HW218012   2.287   1.590   5.705 -3.1657  0.4119 -1.8059
 2184SOL     OW18013   1.665   4.215   6.941 -0.0468 -0.1483 -0.1287
 2184SOL    HW118014   1.669   4.282   6.873 -0.5085  0.8713  0.8519
 2184SOL    HW218015   1.696   4.258   7.021  0.0691 -1.4187  0.5148
 2185SOL     OW18016   0.692   0.375   4.658 -0.4250 -0.3634 -0.8436
 2185SOL    HW118017   0.680   0.400   4.566  1.3238  0.4282 -0.8433
 2185SOL    HW218018   0.634   0.299   4.666  1.4323 -1.8791 -1.9950
 2186SOL     OW18019   0.522   3.764  10.116 -0.1897  0.2577 -0.3388
 2186SOL    HW118020   0.493   3.721  10.036 -0.8913  2.3305 -1.1996
 2186SOL    HW218021   0.552   3.695  10.175  0.5927  0.8193 -0.0731
 2187SOL     OW18022   3.875   3.350  17.426 -0.1206  0.0769  0.4740
 2187SOL    HW118023   3.794   3.401  17.429 -0.1391  0.1602 -1.1860
 2187SOL    HW218024   3.903   3.351  17.517  0.8598  0.7410  0.1650
 2188SOL     OW18025   1.604   2.658   9.058 -0.1946 -0.3876  0.0413
 2188SOL    HW118026   1.665   2.727   9.031  0.0584 -1.1777 -1.3788
 2188SOL    HW218027   1.624   2.654   9.151 -1.1453 -2.2261  0.1501
 2189SOL     OW18028   4.232   3.886  11.336 -0.0038  0.5392  0.5367
 2189SOL    HW118029   4.208   3.890  11.429 -0.9809  1.0336  0.2570
 2189SOL    HW218030   4.148   3.907  11.297  0.6714  1.0339 -0.6671
 2190SOL     OW18031   1.823   0.180   5.448  0.4767 -0.2384  0.2411
 2190SOL    HW118032   1.769   0.101   5.441  3.1187 -1.9549 -0.6136
 2190SOL    HW218033   1.758   0.249   5.464 -1.9371 -2.9882  2.3079
 2191SOL     OW18034   1.601   2.689  16.954  0.3872  0.0431 -0.7181
 2191SOL    HW118035   1.630   2.716  16.867  1.2241  1.5307  0.0174
 2191SOL    HW218036   1.515   2.649  16.943  0.9551 -1.8537  1.6909
 2192SOL     OW18037   0.127   1.848   9.189 -0.0620  0.2127  0.0693
 2192SOL    HW118038   0.091   1.767   9.226  0.2875  0.4985  1.0442
 2192SOL    HW218039   0.106   1.917   9.253 -2.9256 -0.0792 -0.5203
 2193SOL     OW18040   2.545   1.261   4.877 -0.4374 -0.0472 -0.5965
 2193SOL    HW118041   2.573   1.273   4.786 -0.3071 -1.7850 -0.7783
 2193SOL    HW218042   2.621   1.298   4.922 -0.1116 -1.1074 -0.2847
 2194SOL     OW18043   4.210   3.447   0.884  0.0317  0.5195  0.1986
 2194SOL    HW118044   4.168   3.518   0.837  0.0148 -0.8759 -1.8814
 2194SOL    HW218045   4.290   3.491   0.913  1.5943 -1.7269 -0.6914
 2195SOL     OW18046   2.802   1.817  10.144  0.2415 -0.1092  0.0964
 2195SOL    HW118047   2.717   1.858  10.128  0.4081  0.0943 -0.2689
 2195SOL    HW218048   2.848   1.842  10.064 -1.0291  0.3473 -0.4962
 2196SOL     OW18049   2.788   0.439  13.945  0.8364  0.1324  0.2623
 2196SOL    HW118050   2.837   0.358  13.958 -0.0016 -0.3235  0.6393
 2196SOL    HW218051   2.703   0.406  13.916  1.8848 -1.5154 -0.9057
 2197SOL     OW18052   3.278   3.708   6.058 -0.0844 -0.1218  0.3694
 2197SOL    HW118053   3.370   3.694   6.079  0.0508  1.5140  0.9340
 2197SOL    HW218054   3.299   3.716   5.965 -2.0422  2.2863  0.1035
 2198SOL     OW18055   4.500   0.509   8.198  0.5127 -0.3313  0.0730
 2198SOL    HW118056   4.480   0.597   8.168 -0.9918 -0.7825 -0.2524
 2198SOL    HW218057   4.415   0.465   8.200  1.2492 -1.7985 -0.7188
 2199SOL     OW18058   0.309   4.030   8.401 -0.0187  0.5573 -0.5326
 2199SOL    HW118059   0.333   3.940   8.423 -1.8122  0.3439  0.5019
 2199SOL    HW218060   0.378   4.077   8.449  0.0361  1.7155 -1.7305
 2200SOL     OW18061   2.855   3.046   3.371 -0.2410  0.4142  0.2128
 2200SOL    HW118062   2.926   3.013   3.316  0.3960 -1.2647  2.0778
 2200SOL    HW218063   2.881   3.138   3.378 -1.9378  1.1550 -2.7627
 2201SOL     OW18064   3.990   1.005   8.078 -0.8075  0.0162  0.1176
 2201SOL    HW118065   3.924   0.961   8.024 -0.0929 -0.2352 -0.5683
 2201SOL    HW218066   4.004   1.070   8.009 -0.2795  1.0201  1.1813
 2202SOL     OW18067   1.947   1.551  16.391  0.2057  0.6050  0.3460
 2202SOL    HW118068   1.874   1.561  16.330  0.7221  0.0868 -0.3586
 2202SOL    HW218069   1.926   1.462  16.421  2.0874  0.1089  0.1465
 2203SOL     OW18070   4.315   4.064   4.087 -0.0246  0.1966 -0.3183
 2203SOL    HW118071   4.282   4.074   3.998  0.1343  1.5748 -0.2270
 2203SOL    HW218072   4.363   4.145   4.104 -0.0503  0.5091 -1.7247
 2204SOL     OW18073   1.773   2.492  15.293  0.3659  0.3016  0.0080
 2204SOL    HW118074   1.777   2.587  15.302 -1.1642  0.3651  0.0399
 2204SOL    HW218075   1.719   2.475  15.215 -0.7090 -0.5962  0.9530
 2205SOL     OW18076   3.530   1.406   6.539  0.1374 -0.2997 -0.2530
 2205SOL    HW118077   3.450   1.385   6.587  0.2532 -1.5004 -0.5779
 2205SOL    HW218078   3.597   1.373   6.598  0.6740  0.0371 -0.6744
 2206SOL     OW18079   0.982   0.148   8.916  0.1588  0.8584 -0.2611
 2206SOL    HW118080   0.950   0.138   8.826 -1.1604 -0.2904  0.3368
 2206SOL    HW218081   1.030   0.065   8.924 -1.7787 -0.4174 -1.8847
 2207SOL     OW18082   2.559   2.616   5.528  0.0741  0.5995 -0.0153
 2207SOL    HW118083   2.572   2.544   5.467 -0.8310 -0.1108  0.6368
 2207SOL    HW218084   2.486   2.572   5.572  1.4611 -0.3195  1.3377
 2208SOL     OW18085   3.490   4.033   7.997 -0.3574  0.0690  0.1394
 2208SOL    HW118086   3.559   3.983   7.953 -0.7432  0.1401 -0.5543
 2208SOL    HW218087   3.501   4.120   7.958  1.6170 -0.1777  0.1152
 2209SOL     OW18088   2.833   4.290   3.355 -0.4397 -0.3419  0.1241
 2209SOL    HW118089   2.831   4.306   3.261  0.5025 -0.5512  0.0714
 2209SOL    HW218090   2.808   4.198   3.357 -0.5729 -0.3086 -0.0051
 2210SOL     OW18091   2.151   3.748   8.123  0.0514 -0.4055 -0.0557
 2210SOL    HW118092   2.073   3.803   8.123  1.4384  1.5911 -2.3979
 2210SOL    HW218093   2.217   3.818   8.116 -0.7280  0.3367 -0.0479
 2211SOL     OW18094   2.982   0.206   7.365 -0.4151  0.3627  0.0051
 2211SOL    HW118095   2.991   0.286   7.417 -1.3537  2.3054 -2.7589
 2211SOL    HW218096   2.932   0.240   7.290  0.5648  0.9139 -0.3966
 2212SOL     OW18097   2.615   2.494   3.513  0.0513  0.0784 -0.2535
 2212SOL    HW118098   2.705   2.475   3.542  0.6240  0.5127 -1.7480
 2212SOL    HW218099   2.607   2.426   3.446 -0.5858  0.7454 -0.8459
 2213SOL     OW18100   2.268   4.150   3.834  0.3223 -0.4621  0.4242
 2213SOL    HW118101   2.239   4.168   3.744 -1.4475  3.0244  1.7101
 2213SOL    HW218102   2.296   4.239   3.857 -1.5108 -0.2637  1.8844
 2214SOL     OW18103   3.586   3.428  13.300 -0.6059  0.1521  0.5187
 2214SOL    HW118104   3.554   3.362  13.239  0.4965  0.2859 -0.2106
 2214SOL    HW218105   3.613   3.496  13.238  0.3231  0.6047  1.4318
 2215SOL     OW18106   3.554   4.402   9.241  0.2399 -0.3837  0.1881
 2215SOL    HW118107   3.592   4.315   9.224 -0.7203 -0.5325 -1.1427
 2215SOL    HW218108   3.590   4.444   9.164 -1.6142 -2.3514 -1.7521
 2216SOL     OW18109   0.171   2.323   4.327 -0.2094  0.4425  0.4520
 2216SOL    HW118110   0.087   2.276   4.325 -0.1098  0.2653  0.3752
 2216SOL    HW218111   0.232   2.265   4.281 -0.2156 -0.0070  1.0098
 2217SOL     OW18112   3.881   1.870   4.537 -0.3346  0.1383  0.3162
 2217SOL    HW118113   3.956   1.925   4.517  0.5418 -1.3733 -0.5801
 2217SOL    HW218114   3.883   1.833   4.449 -2.6525 -0.1837  0.4098
 2218SOL     OW18115   1.065   1.815   0.737  0.0328  0.2921  0.6232
 2218SOL    HW118116   0.997   1.786   0.676  1.1706  0.3929 -0.7071
 2218SOL    HW218117   1.058   1.910   0.742 -1.7493  0.0653  2.3016
 2219SOL     OW18118   0.204   2.855   5.819  0.3210  0.1248 -0.0481
 2219SOL    HW118119   0.291   2.888   5.838  0.9812 -2.6388  1.5996
 2219SOL    HW218120   0.215   2.782   5.757  0.4553  0.7384 -0.7448
 2220SOL     OW18121   0.598   0.740  16.058 -0.1522  0.2005 -0.2809
 2220SOL    HW118122   0.586   0.738  15.963  0.3155 -0.7300 -0.3220
 2220SOL    HW218123   0.519   0.694  16.087  0.6499  0.1946  1.8613
 2221SOL     OW18124   0.913   2.946   9.920  0.6469  0.2014  0.5816
 2221SOL    HW118125   0.922   2.985   9.833  0.6703 -0.5949  0.2320
 2221SOL    HW218126   0.903   2.855   9.892 -3.4752  0.3810  1.3904
 2222SOL     OW18127   2.343   1.257   9.983 -0.1874  0.0692 -0.4202
 2222SOL    HW118128   2.357   1.235  10.075  0.8439  1.5431 -0.2185
 2222SOL    HW218129   2.413   1.199   9.952  1.6412  1.5952  0.8427
 2223SOL     OW18130   2.354   1.080   6.853  0.0911  0.0930 -0.3570
 2223SOL    HW118131   2.344   1.061   6.946 -3.0635  1.8104 -0.3495
 2223SOL    HW218132   2.407   1.005   6.829 -0.0132  0.3542 -1.4088
 2224SOL     OW18133   4.507   0.428  14.241 -0.5582  0.4180  0.4681
 2224SOL    HW118134   4.469   0.376  14.312 -0.3239 -0.3896  0.0015
 2224SOL    HW218135   4.600   0.432  14.265 -0.6671  0.2408  0.9125
 2225SOL     OW18136   4.616   2.240   4.327  0.1321 -0.0019  0.4837
 2225SOL    HW118137   4.608   2.304   4.397  2.4703  0.5265  0.2810
 2225SOL    HW218138   4.560   2.178   4.375  1.4004 -1.1607  0.4839
 2226SOL     OW18139   0.254   3.905   7.184 -0.3169 -0.0444  0.4122
 2226SOL    HW118140   0.258   3.951   7.100  0.6350 -1.0697 -0.0949
 2226SOL    HW218141   0.294   3.823   7.154  1.4015  1.2465 -0.8581
 2227SOL     OW18142   3.127   1.042   7.059 -0.2712 -0.1578  0.3434
 2227SOL    HW118143   3.176   1.009   7.135 -0.7975 -0.3177  0.6139
 2227SOL    HW218144   3.134   0.966   7.001 -2.8604 -2.0601  2.5448
 2228SOL     OW18145   3.535   0.726  17.493 -0.0213 -0.2260  0.2230
 2228SOL    HW118146   3.483   0.780  17.553 -0.1943 -0.5696  0.3881
 2228SOL    HW218147   3.528   0.639  17.533  1.7404 -0.2016  0.5835
 2229SOL     OW18148   0.074   3.344  11.780  0.3366  0.0994 -0.0809
 2229SOL    HW118149   0.085   3.254  11.748  0.0214 -0.5167  1.5518
 2229SOL    HW218150   0.116   3.385  11.704 -0.8879  1.4979  0.0083
 2230SOL     OW18151   4.511   0.188   5.655  0.5654  0.1475 -0.3533
 2230SOL    HW118152   4.447   0.230   5.712  2.0568  1.1431  0.5873
 2230SOL    HW218153   4.472   0.101   5.647  0.3406  0.2072  0.1167
 2231SOL     OW18154   1.175   4.102   3.370 -0.1448  0.6791 -0.3710
 2231SOL    HW118155   1.220   4.023   3.399  0.7492  0.5455 -2.1608
 2231SOL    HW218156   1.219   4.114   3.287  1.6703  0.1993  0.5337
 2232SOL     OW18157   0.868   3.264   4.149  0.2748 -0.0852 -0.0902
 2232SOL    HW118158   0.866   3.172   4.123 -1.3971  0.6681 -2.5985
 2232SOL    HW218159   0.939   3.269   4.213  0.7391 -3.5299 -0.3210
 2233SOL     OW18160   0.612   3.034   8.253  0.7889  0.0533 -0.0045
 2233SOL    HW118161   0.631   3.054   8.345  0.6273  0.6587 -0.1083
 2233SOL    HW218162   0.554   3.107   8.234  0.9185  0.2470  0.3468
 2234SOL     OW18163   2.036   1.262   5.357  0.6971  0.1798  0.0674
 2234SOL    HW118164   2.037   1.200   5.430  2.2404  1.3114  1.0326
 2234SOL    HW218165   2.006   1.347   5.389  1.1264  0.3426  0.0366
 2235SOL     OW18166   3.892   4.426   3.354 -0.1558 -0.2007  0.3069
 2235SOL    HW118167   3.967   4.411   3.411  0.7941  0.9793 -0.6309
 2235SOL    HW218168   3.941   4.445   3.274  0.3692 -1.6529  0.2936
 2236SOL     OW18169   0.284   4.200   9.022  0.9182 -0.2249 -0.4725
 2236SOL    HW118170   0.244   4.163   9.100 -1.0257 -3.2358 -2.8631
 2236SOL    HW218171   0.370   4.157   9.021 -0.1811 -2.4259 -0.6433
 2237SOL     OW18172   1.388   3.018  10.047 -0.2333  0.2018 -0.1248
 2237SOL    HW118173   1.453   2.969  10.097  1.1888  1.3777 -0.8388
 2237SOL    HW218174   1.433   3.029   9.963 -2.6411 -0.7902 -1.5673
 2238SOL     OW18175   0.505   4.188  13.421 -0.3486  0.5004  0.7711
 2238SOL    HW118176   0.598   4.177  13.436 -0.7528 -2.0909  1.3909
 2238SOL    HW218177   0.497   4.225  13.333  2.8260 -0.1639  0.2060
 2239SOL     OW18178   1.617   1.023   8.863  0.1198 -0.0539 -0.1543
 2239SOL    HW118179   1.670   1.102   8.875 -1.7284  1.6958 -3.5459
 2239SOL    HW218180   1.541   1.060   8.817  1.2419  0.8326 -1.2979
 2240SOL     OW18181   2.771   3.564   6.951 -0.2771  0.0444  0.0687
 2240SOL    HW118182   2.720   3.595   7.025 -1.1913  0.9252 -0.9316
 2240SOL    HW218183   2.855   3.609   6.960 -0.8413  0.6212  2.2385
 2241SOL     OW18184   2.406   2.171   8.284 -0.2663  0.5504  0.3216
 2241SOL    HW118185   2.490   2.149   8.326 -0.9886  1.7626  2.4257
 2241SOL    HW218186   2.437   2.215   8.205 -1.1716  1.5081  0.4912
 2242SOL     OW18187   3.239   2.219  17.545  0.0955 -0.1708 -0.0322
 2242SOL    HW118188   3.270   2.179  17.464  0.0653  1.1017 -0.6740
 2242SOL    HW218189   3.315   2.202  17.600 -0.0016 -0.8042 -0.0928
 2243SOL     OW18190   2.443   3.417  14.067 -0.2047 -0.9092 -1.1772
 2243SOL    HW118191   2.517   3.477  14.074 -1.3132  0.3129  0.0226
 2243SOL    HW218192   2.447   3.368  14.149 -3.2091  1.7004  0.5384
 2244SOL     OW18193   0.283   0.375   9.894  0.1755  0.7392  0.0125
 2244SOL    HW118194   0.307   0.445   9.955 -1.0186  1.0140  0.1732
 2244SOL    HW218195   0.198   0.347   9.928 -0.0409  3.5001  1.7282
 2245SOL     OW18196   3.974   1.489   0.361  0.2179 -0.1674  0.2491
 2245SOL    HW118197   4.015   1.440   0.290  0.0085  1.9830 -1.3345
 2245SOL    HW218198   3.900   1.526   0.313  0.4352 -1.0477 -0.7747
 2246SOL     OW18199   1.714   1.425  13.074  0.6579 -0.3031 -0.0616
 2246SOL    HW118200   1.678   1.396  12.990 -2.4374  1.0616  0.7689
 2246SOL    HW218201   1.639   1.397  13.127  0.7723 -0.4016  0.0490
 2247SOL     OW18202   2.858   1.510   9.314  0.5136  0.5265  0.4662
 2247SOL    HW118203   2.865   1.604   9.294  1.7522  0.0626 -1.2642
 2247SOL    HW218204   2.849   1.476   9.225  1.7901  1.6996 -0.1135
 2248SOL     OW18205   2.028   1.308   9.002  0.2161  0.3488 -0.3997
 2248SOL    HW118206   2.062   1.366   9.070 -2.2977  0.2561  0.9720
 2248SOL    HW218207   2.102   1.249   8.988 -1.2787 -1.6652  0.2308
 2249SOL     OW18208   4.647   1.591  13.830  0.3804  0.0342 -0.2760
 2249SOL    HW118209   4.595   1.548  13.898  1.2344  0.8615  0.8982
 2249SOL    HW218210   4.707   1.517  13.816  0.7180  0.1698  0.4514
 2250SOL     OW18211   0.281   4.612   6.851  0.0139  0.0256  0.3255
 2250SOL    HW118212   0.299   4.566   6.933  2.2175 -2.4323 -1.5042
 2250SOL    HW218213   0.279   4.538   6.790 -1.4873  0.8129 -0.5855
 2251SOL     OW18214   1.004   1.364   8.018 -0.3061  0.7336 -0.0633
 2251SOL    HW118215   1.021   1.420   8.094 -0.9831  1.1433 -0.2208
 2251SOL    HW218216   0.941   1.422   7.975 -0.3844  0.8332  0.1843
 2252SOL     OW18217   1.350   1.976   5.689 -0.0748 -0.3885 -0.1591
 2252SOL    HW118218   1.290   1.980   5.614 -0.6610 -0.6757  0.2997
 2252SOL    HW218219   1.421   1.926   5.650 -1.4754 -1.8879 -0.7584
 2253SOL     OW18220   4.249   4.002   5.190 -0.2502  0.5205 -0.1391
 2253SOL    HW118221   4.282   3.998   5.100 -2.0045 -1.7280 -0.6870
 2253SOL    HW218222   4.177   4.066   5.189  1.2113  2.1396 -1.2244
 2254SOL     OW18223   3.850   1.914  10.049  0.1272  0.3813 -0.9316
 2254SOL    HW118224   3.805   1.998  10.052 -0.2916  0.1650 -1.1230
 2254SOL    HW218225   3.944   1.930  10.058  0.0715 -0.5455  1.4985
 2255SOL     OW18226   0.299   1.030  14.917 -0.7450 -0.6916 -0.0704
 2255SOL    HW118227   0.273   0.950  14.871 -0.8201 -1.5177  1.3966
 2255SOL    HW218228   0.304   1.002  15.008 -1.8773 -1.3437 -0.2093
 2256SOL     OW18229   1.736   3.035  13.389 -0.4422  0.1410  0.2063
 2256SOL    HW118230   1.670   3.103  13.372 -0.8495 -0.6075 -1.1588
 2256SOL    HW218231   1.722   3.008  13.480 -1.1242 -0.5089 -0.0930
 2257SOL     OW18232   3.011   0.606   2.614  0.1769  0.8312 -0.5090
 2257SOL    HW118233   2.966   0.690   2.609 -1.4990 -0.1703 -2.1927
 2257SOL    HW218234   3.083   0.620   2.553 -0.2485  2.0077 -0.7473
 2258SOL     OW18235   0.693   4.315  17.398  0.7454  0.4821 -0.7888
 2258SOL    HW118236   0.785   4.304  17.421  0.5453 -0.0334 -0.2532
 2258SOL    HW218237   0.688   4.255  17.323  1.9224 -0.3969 -0.1614
 2259SOL     OW18238   4.026   0.336   2.208  0.4717  0.1753  0.8034
 2259SOL    HW118239   4.033   0.266   2.273  0.1717  0.2357  0.9042
 2259SOL    HW218240   4.086   0.312   2.138 -0.1176  1.0923 -0.0228
 2260SOL     OW18241   2.129   3.294  16.064 -0.1918 -0.2159  0.3316
 2260SOL    HW118242   2.146   3.259  16.152  0.2783  2.8520  1.4737
 2260SOL    HW218243   2.035   3.305  16.078 -0.2688  0.3800 -0.6757
 2261SOL     OW18244   0.516   1.292  11.234 -0.0136  0.1598  0.4627
 2261SOL    HW118245   0.481   1.275  11.146 -0.8673 -1.1897  1.0649
 2261SOL    HW218246   0.429   1.305  11.272  0.3816  2.2978  0.6153
 2262SOL     OW18247   0.913   3.677   2.469  0.1416 -0.5547  0.0142
 2262SOL    HW118248   0.901   3.582   2.467  1.7978 -0.7008 -2.3402
 2262SOL    HW218249   0.927   3.697   2.377 -0.1526 -0.4675 -0.0117
 2263SOL     OW18250   1.901   1.348   9.915  0.2337  0.1134  0.4594
 2263SOL    HW118251   1.922   1.352  10.008  0.4951  1.2097  0.3470
 2263SOL    HW218252   1.833   1.281   9.917 -0.5221  0.8167 -1.4282
 2264SOL     OW18253   2.936   2.039   6.170  0.1504  0.4104  0.3417
 2264SOL    HW118254   3.024   2.015   6.200  0.1852  1.2911  0.9504
 2264SOL    HW218255   2.918   2.130   6.197 -1.3160 -0.4102  2.1221
 2265SOL     OW18256   4.475   0.217   3.891 -0.9520 -0.4129  0.5342
 2265SOL    HW118257   4.412   0.188   3.825 -0.7916 -0.0533  0.2256
 2265SOL    HW218258   4.451   0.158   3.963 -1.8736  0.8000  1.2251
 2266SOL     OW18259   2.765   0.334  17.695  0.2123  0.7141  0.0681
 2266SOL    HW118260   2.714   0.395  17.643 -0.9431  0.5033  0.9591
 2266SOL    HW218261   2.803   0.278  17.628  0.0240  2.2076 -1.2824
 2267SOL     OW18262   2.785   2.139   0.598  0.0302 -0.4414 -0.2655
 2267SOL    HW118263   2.734   2.066   0.633  2.2122 -1.9055 -0.1409
 2267SOL    HW218264   2.877   2.113   0.606 -0.3598 -1.5129  0.8126
 2268SOL     OW18265   0.926   3.955   0.571  0.2962  0.1816 -0.4955
 2268SOL    HW118266   0.898   3.899   0.644  0.5533 -1.1832 -1.4535
 2268SOL    HW218267   1.020   3.958   0.589 -0.1940 -1.4631  2.3894
 2269SOL     OW18268   4.356   3.233   3.167  0.4829 -0.2847  0.5626
 2269SOL    HW118269   4.275   3.198   3.204  0.5757 -0.9564  0.1427
 2269SOL    HW218270   4.429   3.194   3.215  1.2071 -1.1850 -1.2364
 2270SOL     OW18271   0.919   2.109   1.668  0.3956  0.1572 -0.1396
 2270SOL    HW118272   0.947   2.104   1.759  1.4521  1.7182 -0.3737
 2270SOL    HW218273   0.925   2.021   1.630  1.0825  0.0267  0.2859
 2271SOL     OW18274   1.938   4.206  15.934  0.8014  0.3071  0.2188
 2271SOL    HW118275   1.967   4.214  15.844 -0.5026  2.5703 -0.0134
 2271SOL    HW218276   1.866   4.269  15.934  1.4346  1.0154 -1.5798
 2272SOL     OW18277   3.930   3.373   7.170 -0.1875  0.4401  0.1250
 2272SOL    HW118278   3.931   3.280   7.193  2.6480  0.2996 -0.4803
 2272SOL    HW218279   3.870   3.361   7.096  0.6686  1.4451 -0.7343
 2273SOL     OW18280   2.833   0.406   3.916 -0.1381  0.3615  0.4702
 2273SOL    HW118281   2.844   0.498   3.891  2.7722 -0.4099 -1.0311
 2273SOL    HW218282   2.876   0.402   4.002  3.1025 -0.4896 -1.2047
 2274SOL     OW18283   4.196   1.967   1.813 -0.0723  0.0460 -0.0119
 2274SOL    HW118284   4.169   1.965   1.721 -0.4136  0.1131  0.0871
 2274SOL    HW218285   4.275   2.021   1.815  1.4563 -2.2287  1.5351
 2275SOL     OW18286   3.522   4.035   3.145 -0.0315  0.2001  0.1790
 2275SOL    HW118287   3.616   4.023   3.131 -0.1093  0.5442 -0.6016
 2275SOL    HW218288   3.508   4.125   3.118 -2.5848 -0.0783  0.5750
 2276SOL     OW18289   2.155   2.328  17.096 -0.1939 -0.1516  0.0446
 2276SOL    HW118290   2.214   2.332  17.171 -1.9435  2.9660  1.2916
 2276SOL    HW218291   2.118   2.417  17.097  1.6589  0.6376 -1.9138
 2277SOL     OW18292   1.166   2.910   4.789 -0.7466  0.2965 -0.0623
 2277SOL    HW118293   1.236   2.880   4.731 -0.4047 -2.1160  1.5864
 2277SOL    HW218294   1.101   2.841   4.780 -1.9438  1.4675 -0.4183
 2278SOL     OW18295   3.778   1.540  15.503 -0.3134  0.1093  0.3148
 2278SOL    HW118296   3.718   1.583  15.442  0.6795 -1.0193 -1.4609
 2278SOL    HW218297   3.759   1.447  15.497 -0.5992  0.2248 -0.5745
 2279SOL     OW18298   3.024   1.786   1.319 -0.3637  0.4735  0.5617
 2279SOL    HW118299   2.932   1.812   1.325 -0.6300 -0.4871  0.7271
 2279SOL    HW218300   3.058   1.795   1.408  0.0649  0.8058  0.3623
 2280SOL     OW18301   3.753   1.790   2.696  0.4899 -0.1169 -0.0130
 2280SOL    HW118302   3.816   1.740   2.748  0.0796 -0.9871 -0.3500
 2280SOL    HW218303   3.803   1.871   2.688  0.8217 -0.5092 -2.0107
 2281SOL     OW18304   0.934   4.261  14.789  0.8860 -0.9352 -0.2502
 2281SOL    HW118305   0.911   4.264  14.882 -0.3142 -0.8918 -0.5489
 2281SOL    HW218306   0.855   4.287  14.741  0.5532  0.7367  1.1982
 2282SOL     OW18307   4.002   0.849   1.720  0.2900 -0.2438 -0.1755
 2282SOL    HW118308   4.014   0.904   1.798 -0.6578 -1.2309  0.6667
 2282SOL    HW218309   4.087   0.863   1.678 -0.1207 -0.0586 -0.9317
 2283SOL     OW18310   0.128   2.625  10.641  0.2699  0.8549  0.4821
 2283SOL    HW118311   0.066   2.698  10.643 -0.2690  0.3947  0.6250
 2283SOL    HW218312   0.070   2.555  10.611  0.5747  1.0481 -0.5486
 2284SOL     OW18313   3.511   1.682   0.390  0.3050 -0.8843 -0.2046
 2284SOL    HW118314   3.606   1.695   0.400  0.3086 -0.2596 -0.9917
 2284SOL    HW218315   3.513   1.705   0.297 -2.5383  2.8057  0.6242
 2285SOL     OW18316   0.384   0.911   4.451 -0.2653 -0.1498  0.5469
 2285SOL    HW118317   0.332   0.866   4.517 -0.5836 -1.2529 -0.4731
 2285SOL    HW218318   0.364   0.852   4.379  0.4003 -0.0889  0.3161
 2286SOL     OW18319   1.301   4.713   4.438  0.2170  0.5052 -0.1785
 2286SOL    HW118320   1.250   4.646   4.484  1.8197 -0.9809 -0.5820
 2286SOL    HW218321   1.383   4.705   4.486 -0.0760  1.9759  0.5699
 2287SOL     OW18322   4.038   2.013   7.575  0.0919  0.2249 -0.1101
 2287SOL    HW118323   3.969   1.969   7.625 -0.4571 -0.2679 -1.3128
 2287SOL    HW218324   4.104   2.024   7.644  1.4618 -0.7541 -1.2656
 2288SOL     OW18325   3.057   4.292   6.091 -0.1817 -0.1013 -0.3138
 2288SOL    HW118326   3.055   4.372   6.143 -0.2895  0.1515 -0.7131
 2288SOL    HW218327   3.149   4.284   6.117 -0.2344 -1.7721 -0.6385
 2289SOL     OW18328   0.826   1.033   9.773  0.4645  0.3431  0.1019
 2289SOL    HW118329   0.895   1.099   9.773  1.0794 -0.3096 -0.6926
 2289SOL    HW218330   0.746   1.078   9.801 -0.0154  0.1252 -0.9452
 2290SOL     OW18331   2.802   2.075   3.989  0.0896  0.2490  0.1428
 2290SOL    HW118332   2.748   2.012   3.940  2.0048 -3.4617  2.7676
 2290SOL    HW218333   2.894   2.058   3.967  0.8296  0.6862  2.8527
 2291SOL     OW18334   2.370   0.429   8.791  0.0662 -0.1603 -0.5268
 2291SOL    HW118335   2.336   0.415   8.702 -0.5689  0.2682 -0.3483
 2291SOL    HW218336   2.296   0.462   8.840  0.6454  1.9954 -1.0982
 2292SOL     OW18337   0.618   3.452   0.394 -0.2080 -0.3000  0.2741
 2292SOL    HW118338   0.694   3.434   0.339 -0.1211  0.6624  0.0878
 2292SOL    HW218339   0.558   3.387   0.356 -0.8566  0.5896 -0.2073
 2293SOL     OW18340   2.836   1.727   3.241 -0.0271  0.5760  0.2131
 2293SOL    HW118341   2.858   1.649   3.292 -0.4864  0.7021  0.5944
 2293SOL    HW218342   2.899   1.718   3.169  1.0687  0.2406  1.2026
 2294SOL     OW18343   4.292   1.503   6.978 -0.8905 -0.3197 -0.7035
 2294SOL    HW118344   4.383   1.504   6.948 -1.2204  0.9319 -1.6789
 2294SOL    HW218345   4.299   1.416   7.018  2.5447  0.8435  1.2309
 2295SOL     OW18346   4.557   2.228  16.917 -0.4283 -0.7509 -0.3584
 2295SOL    HW118347   4.515   2.311  16.895 -0.5712 -0.5572  0.6423
 2295SOL    HW218348   4.559   2.201  16.825  0.5065  2.1040 -1.1795
 2296SOL     OW18349   0.553   1.183   7.210 -0.4830 -0.4546  0.1257
 2296SOL    HW118350   0.607   1.170   7.288  1.0288 -1.1524 -1.0449
 2296SOL    HW218351   0.512   1.269   7.221  2.1097  0.9305 -1.2580
 2297SOL     OW18352   3.935   3.699   3.491  0.1119 -1.1006 -0.6698
 2297SOL    HW118353   3.873   3.771   3.496  0.1125 -1.0368 -1.5654
 2297SOL    HW218354   4.022   3.738   3.488 -0.0091 -0.9691 -2.4571
 2298SOL     OW18355   3.160   3.392  14.812  0.4212  0.4203  0.5819
 2298SOL    HW118356   3.087   3.342  14.776  2.1459 -1.4415 -0.3659
 2298SOL    HW218357   3.167   3.346  14.895 -0.3547  1.8783  1.4464
 2299SOL     OW18358   4.595   1.674   2.554  0.0515  0.5257 -0.8162
 2299SOL    HW118359   4.676   1.654   2.602 -0.3984  0.5137 -0.0584
 2299SOL    HW218360   4.555   1.743   2.607 -1.0964 -0.0402 -0.9587
 2300SOL     OW18361   0.240   3.361   5.813 -0.1781 -0.6070  0.4602
 2300SOL    HW118362   0.257   3.301   5.740  2.5930  1.3180 -0.4628
 2300SOL    HW218363   0.149   3.385   5.798 -0.1472 -1.4480 -1.0920
 2301SOL     OW18364   3.697   0.153   0.927 -0.4451  0.0536 -0.1885
 2301SOL    HW118365   3.687   0.064   0.893 -0.0704 -0.3169  0.6668
 2301SOL    HW218366   3.752   0.193   0.860 -0.4179  1.2244  0.5302
 2302SOL     OW18367   1.977   2.499  11.384 -0.0912  0.0917 -0.0908
 2302SOL    HW118368   1.924   2.565  11.428 -1.1822 -0.6917 -0.2219
 2302SOL    HW218369   2.039   2.553  11.335  0.7420 -1.8737 -1.2013
 2303SOL     OW18370   1.423   2.087  16.166 -0.5453 -0.3620  1.0067
 2303SOL    HW118371   1.399   2.179  16.155 -1.9772 -0.9337 -0.7209
 2303SOL    HW218372   1.455   2.063  16.079 -3.2401  1.2399 -0.4272
 2304SOL     OW18373   4.484   0.871   8.295 -0.0137 -0.3809 -1.1336
 2304SOL    HW118374   4.546   0.890   8.225  0.9197 -0.8572 -0.4266
 2304SOL    HW218375   4.430   0.948   8.311 -0.0896 -0.3776 -1.4098
 2305SOL     OW18376   4.316   0.299   6.249  0.2828 -0.6170  0.3420
 2305SOL    HW118377   4.262   0.231   6.208 -0.7232  1.6541 -2.0605
 2305SOL    HW218378   4.381   0.248   6.297  2.3786 -0.8630 -2.7886
 2306SOL     OW18379   0.992   0.645   7.422  0.1928 -0.3825  0.0012
 2306SOL    HW118380   0.913   0.695   7.401  1.5025  1.7345  0.1354
 2306SOL    HW218381   1.061   0.696   7.379 -2.6664  2.3242 -1.3927
 2307SOL     OW18382   0.209   3.114  17.493  0.5718 -0.1120  0.3675
 2307SOL    HW118383   0.215   3.023  17.464  0.9382  0.2797 -0.7815
 2307SOL    HW218384   0.183   3.098  17.584 -0.2345  1.2984  0.3876
 2308SOL     OW18385   2.790   0.856   3.252 -0.6971 -0.3425  0.5008
 2308SOL    HW118386   2.817   0.948   3.250 -2.0659  0.0779  1.0511
 2308SOL    HW218387   2.712   0.861   3.198  2.1924  0.1736 -3.6072
 2309SOL     OW18388   0.977   1.532  17.139  0.0716  0.5501 -0.4437
 2309SOL    HW118389   0.930   1.615  17.126  0.9650  1.1114 -0.1214
 2309SOL    HW218390   0.941   1.479  17.068  2.3516 -1.8261  0.1858
 2310SOL     OW18391   2.271   0.990  15.792 -0.2779 -0.1969  0.4949
 2310SOL    HW118392   2.239   1.081  15.793  0.4491  0.0965 -3.5754
 2310SOL    HW218393   2.198   0.951  15.841 -1.6778  3.2695  1.2181
 2311SOL     OW18394   2.629   3.849   2.442  0.0314 -0.1471  0.5456
 2311SOL    HW118395   2.547   3.876   2.482 -0.7603 -1.2346 -0.3421
 2311SOL    HW218396   2.609   3.768   2.395  1.6927 -0.8523  1.0268
 2312SOL     OW18397   2.694   1.525  10.656 -0.1556 -0.1792 -0.2844
 2312SOL    HW118398   2.768   1.464  10.660 -0.6498 -0.7484  0.1557
 2312SOL    HW218399   2.696   1.551  10.749 -2.2323 -0.5188 -0.1489
 2313SOL     OW18400   2.503   3.602   9.191 -0.2234  0.1325  0.0731
 2313SOL    HW118401   2.498   3.578   9.284  0.1467  0.0559  0.0734
 2313SOL    HW218402   2.433   3.666   9.203 -0.4591 -0.1352  0.1573
 2314SOL     OW18403   2.010   1.659   4.584 -0.1977 -0.1747 -0.1533
 2314SOL    HW118404   2.019   1.741   4.536 -1.4893 -0.0815 -0.2178
 2314SOL    HW218405   2.022   1.692   4.673  1.0116 -3.0050  0.7320
 2315SOL     OW18406   0.313   4.657   3.113  0.2306  0.1345 -0.2299
 2315SOL    HW118407   0.227   4.616   3.121  0.4384  0.4962  3.7260
 2315SOL    HW218408   0.371   4.584   3.132 -2.3516 -2.2088 -1.3833
 2316SOL     OW18409   0.263   3.103  16.862 -0.0665 -0.1119 -0.1144
 2316SOL    HW118410   0.227   3.031  16.811 -1.0661 -0.4845  1.1263
 2316SOL    HW218411   0.294   3.158  16.790  0.0039  1.0657  0.8002
 2317SOL     OW18412   0.295   1.467   9.615 -0.6173 -0.1973  0.3565
 2317SOL    HW118413   0.368   1.404   9.615  0.7514  1.3763 -1.4056
 2317SOL    HW218414   0.232   1.413   9.662  0.8771 -1.8832  0.4567
 2318SOL     OW18415   1.214   2.161  15.829  0.3549  0.6281 -0.1593
 2318SOL    HW118416   1.300   2.129  15.857 -0.6598 -0.7422  1.3789
 2318SOL    HW218417   1.215   2.255  15.847 -1.8734  0.2271  2.0986
 2319SOL     OW18418   1.456   3.916   9.003  0.1541 -0.0658  0.8356
 2319SOL    HW118419   1.471   3.971   9.079 -3.1312  1.6715  0.2117
 2319SOL    HW218420   1.486   3.836   9.047 -0.4453 -1.4982 -1.3584
 2320SOL     OW18421   1.923   1.013   5.509 -0.2957 -0.1439  0.0560
 2320SOL    HW118422   1.860   0.957   5.464  0.0458  2.0728 -3.1397
 2320SOL    HW218423   1.862   1.063   5.563  0.6602 -0.1688  1.1721
 2321SOL     OW18424   4.653   4.444   6.599  0.5624  0.4200  0.3441
 2321SOL    HW118425   4.609   4.472   6.679  1.4871 -1.4983  1.5177
 2321SOL    HW218426   4.590   4.380   6.569 -0.7615  1.6699  0.4656
 2322SOL     OW18427   3.334   3.256   3.366 -0.3981  0.4621  0.4717
 2322SOL    HW118428   3.346   3.293   3.279 -0.3702  0.5004  0.4917
 2322SOL    HW218429   3.241   3.237   3.362 -0.2596 -0.0252 -0.4842
 2323SOL     OW18430   2.760   1.211   8.216 -0.3945  0.0189 -0.0037
 2323SOL    HW118431   2.814   1.201   8.294 -1.0707  2.5950  0.7780
 2323SOL    HW218432   2.775   1.121   8.187  0.3562 -0.4907  1.9345
 2324SOL     OW18433   2.294   3.700  15.790  0.1627 -0.7888 -0.2154
 2324SOL    HW118434   2.274   3.740  15.706  0.3127 -2.8798 -1.2485
 2324SOL    HW218435   2.388   3.685  15.778  0.4118 -0.1288  0.8420
 2325SOL     OW18436   3.687   0.814   5.903  0.8654 -0.2891 -0.4152
 2325SOL    HW118437   3.768   0.782   5.943 -0.5622  0.0408  2.6832
 2325SOL    HW218438   3.712   0.905   5.887  2.8387 -0.9346 -1.0493
 2326SOL     OW18439   1.052   3.680   3.490 -0.4005  0.3999  0.3047
 2326SOL    HW118440   1.072   3.772   3.505 -0.7208  0.7545 -1.4564
 2326SOL    HW218441   1.137   3.638   3.479 -1.2912 -2.1388  2.9472
 2327SOL     OW18442   0.514   3.147  16.094  0.6608 -0.4136  0.1300
 2327SOL    HW118443   0.511   3.068  16.039 -0.8575  0.4149 -0.9968
 2327SOL    HW218444   0.575   3.199  16.042 -0.0452  1.2881  0.9835
 2328SOL     OW18445   0.548   4.617   9.032 -0.7021  0.1101  0.0626
 2328SOL    HW118446   0.622   4.580   9.080  0.3596 -0.9735 -2.4120
 2328SOL    HW218447   0.475   4.559   9.052 -3.2487  2.8589 -1.3405
 2329SOL     OW18448   0.098   0.338   1.076  0.1047  0.2870  0.3915
 2329SOL    HW118449   0.026   0.281   1.105 -0.8634  1.0261 -0.5298
 2329SOL    HW218450   0.110   0.407   1.142  1.2909 -0.3687  0.8442
 2330SOL     OW18451   2.289   0.786   3.315 -0.0600 -0.1496  0.0885
 2330SOL    HW118452   2.211   0.795   3.261 -0.4598 -0.9846  0.5238
 2330SOL    HW218453   2.271   0.703   3.360  1.2464  0.4876  1.8160
 2331SOL     OW18454   1.298   3.964   2.686 -0.5308 -0.1736 -0.0510
 2331SOL    HW118455   1.318   3.986   2.595 -0.9300 -0.8592 -0.3038
 2331SOL    HW218456   1.378   3.931   2.728  0.1001  1.1127 -0.2289
 2332SOL     OW18457   0.452   3.613   9.635 -0.8618  0.5683  0.4664
 2332SOL    HW118458   0.523   3.669   9.604 -1.6172  3.1760  3.3691
 2332SOL    HW218459   0.416   3.587   9.550  2.0267  0.5575 -0.7419
 2333SOL     OW18460   0.113   1.584  15.983  0.0274 -0.4066 -0.3994
 2333SOL    HW118461   0.112   1.667  15.936 -0.8724  0.3290  0.9210
 2333SOL    HW218462   0.137   1.610  16.071 -1.0232  1.2205 -0.5879
 2334SOL     OW18463   3.198   1.036   2.665  0.1538  0.1613 -0.4535
 2334SOL    HW118464   3.210   0.945   2.694 -0.0675  0.7953  1.6473
 2334SOL    HW218465   3.105   1.042   2.686  0.3427  0.3276  0.3522
 2335SOL     OW18466   1.008   0.819   3.027 -0.1892 -0.1442  0.3670
 2335SOL    HW118467   1.087   0.872   3.031 -0.1268 -0.1978 -0.1097
 2335SOL    HW218468   0.947   0.865   2.969  0.1920 -0.9917 -0.7014
 2336SOL     OW18469   4.497   1.955   3.384 -0.3730  0.0180 -0.0167
 2336SOL    HW118470   4.573   1.946   3.441 -0.9368 -0.0693  0.7201
 2336SOL    HW218471   4.532   1.939   3.296  0.9752  1.2059  0.2973
 2337SOL     OW18472   3.808   1.573   6.957  0.2151 -0.7008  0.5894
 2337SOL    HW118473   3.898   1.560   6.926 -0.4501  0.6249 -1.8312
 2337SOL    HW218474   3.820   1.615   7.042 -0.9785 -1.9006  1.3455
 2338SOL     OW18475   1.861   1.034  10.710 -0.0909 -0.4044 -0.1440
 2338SOL    HW118476   1.893   1.105  10.766 -1.1149  0.6446 -0.8958
 2338SOL    HW218477   1.917   1.037  10.633 -0.8290 -1.4393 -0.7326
 2339SOL     OW18478   2.925   1.626   4.447 -0.1739 -0.0966  0.1898
 2339SOL    HW118479   3.014   1.590   4.446 -0.2302 -0.2627  1.1086
 2339SOL    HW218480   2.881   1.575   4.379  0.1146  0.3329 -0.3201
 2340SOL     OW18481   3.787   4.163   1.173 -0.6210  0.2716  0.3972
 2340SOL    HW118482   3.799   4.156   1.268 -1.5691  0.3233  0.5196
 2340SOL    HW218483   3.698   4.127   1.172 -1.8985  3.4795 -0.6337
 2341SOL     OW18484   2.577   3.568  15.956  0.4806  0.6635  0.3397
 2341SOL    HW118485   2.658   3.518  15.955  1.4381  2.2292  0.4504
 2341SOL    HW218486   2.572   3.608  15.870 -0.8831  1.4253  0.7682
 2342SOL     OW18487   1.139   0.142   3.984 -0.2795 -0.1148  0.2568
 2342SOL    HW118488   1.113   0.232   4.000  0.7241  0.1774  0.2389
 2342SOL    HW218489   1.187   0.122   4.064 -2.4156 -1.2873  1.2337
 2343SOL     OW18490   1.368   3.313  15.099  0.0439 -0.1813  0.7746
 2343SOL    HW118491   1.324   3.382  15.149 -0.0451 -0.7995  1.5499
 2343SOL    HW218492   1.451   3.358  15.082 -0.2752  0.5938  1.2683
 2344SOL     OW18493   1.079   3.169  10.913 -0.1785 -0.4399 -0.0837
 2344SOL    HW118494   1.096   3.243  10.855  0.8329 -0.2201  0.4951
 2344SOL    HW218495   1.160   3.124  10.890  1.0608  1.4629  0.6012
 2345SOL     OW18496   3.915   0.291   0.753  0.6126  0.2464  0.3509
 2345SOL    HW118497   3.988   0.291   0.691 -0.3754 -3.2659 -0.8174
 2345SOL    HW218498   3.837   0.290   0.698 -0.1694  1.7105  1.4394
 2346SOL     OW18499   4.026   2.113   4.427 -0.1185 -0.0560 -0.0498
 2346SOL    HW118500   4.016   2.198   4.469 -0.3887 -0.9872  1.7568
 2346SOL    HW218501   3.985   2.135   4.344 -0.1193  0.9416  0.2222
 2347SOL     OW18502   3.548   0.929   6.517 -0.8328 -0.7253  0.4461
 2347SOL    HW118503   3.536   0.959   6.607 -2.1720  0.1796 -0.0343
 2347SOL    HW218504   3.597   0.998   6.472 -2.3326  0.6213  0.8972
 2348SOL     OW18505   0.067   4.467  13.831  0.0639 -0.3835  0.7156
 2348SOL    HW118506   0.081   4.545  13.885 -3.6504  0.6420  0.2651
 2348SOL    HW218507   4.696   4.478  13.817  0.0723 -0.3167  0.7082
 2349SOL     OW18508   1.110   4.225  13.380 -0.3944  0.2216 -0.5196
 2349SOL    HW118509   1.162   4.272  13.315  0.7588  0.3958  0.5342
 2349SOL    HW218510   1.091   4.288  13.449  0.7767 -0.4259  0.3951
 2350SOL     OW18511   0.578   3.265  12.757 -0.4444  0.5881 -0.7802
 2350SOL    HW118512   0.668   3.266  12.725 -0.0802 -0.3877  0.1881
 2350SOL    HW218513   0.566   3.173  12.781 -1.8894  0.8618 -0.4450
 2351SOL     OW18514   2.631   0.718   4.332 -0.6850  0.3739  0.4513
 2351SOL    HW118515   2.697   0.731   4.400 -1.3427  0.0801  1.1364
 2351SOL    HW218516   2.626   0.624   4.345 -0.3192  0.1642 -0.8743
 2352SOL     OW18517   1.769   1.551   4.672 -0.1309  0.2643 -0.3329
 2352SOL    HW118518   1.844   1.559   4.614  0.4068  1.4111  0.5213
 2352SOL    HW218519   1.724   1.477   4.631  0.5899  0.5723 -1.6883
 2353SOL     OW18520   0.867   2.836   6.716 -0.2371  0.2187 -0.3127
 2353SOL    HW118521   0.810   2.835   6.793  1.4658  1.1041  0.9286
 2353SOL    HW218522   0.815   2.879   6.648  2.1133  2.4865 -0.6598
 2354SOL     OW18523   4.489   3.797   5.299  0.0579 -0.2792 -0.1442
 2354SOL    HW118524   4.415   3.844   5.340  0.4443  0.0451  0.1807
 2354SOL    HW218525   4.559   3.805   5.364 -1.4257  1.9585  1.2272
 2355SOL     OW18526   3.471   1.455   1.447  0.1279 -0.5636  0.3809
 2355SOL    HW118527   3.421   1.374   1.437  0.1843 -0.5159 -0.3279
 2355SOL    HW218528   3.424   1.523   1.398 -0.2000 -0.1032  1.3470
 2356SOL     OW18529   0.597   4.586   2.939 -0.0964  1.0023  0.0764
 2356SOL    HW118530   0.601   4.680   2.956 -0.9777  1.2343 -1.0258
 2356SOL    HW218531   0.637   4.579   2.853 -1.1246  1.2539 -0.4183
 2357SOL     OW18532   1.934   2.896   1.786  0.0179 -0.0730 -0.3022
 2357SOL    HW118533   1.890   2.811   1.786  0.3193 -0.2276 -0.1637
 2357SOL    HW218534   2.020   2.867   1.814  0.7123  0.9665 -1.3694
 2358SOL     OW18535   3.536   3.653   7.544  0.6322  0.5773 -0.1697
 2358SOL    HW118536   3.567   3.568   7.512  2.4128  0.9838  0.4697
 2358SOL    HW218537   3.619   3.683   7.582  0.6551 -0.3626  0.5181
 2359SOL     OW18538   1.366   1.415   3.636  0.1639  0.9767  0.2407
 2359SOL    HW118539   1.376   1.445   3.726  2.0466 -0.8226  0.6411
 2359SOL    HW218540   1.394   1.493   3.589 -0.4985  0.3939 -1.1444
 2360SOL     OW18541   3.106   3.017  11.262  0.2092  0.6555 -0.0405
 2360SOL    HW118542   3.166   2.980  11.197 -0.0429  1.8496 -0.9566
 2360SOL    HW218543   3.027   2.964  11.249  0.3543  1.5115 -4.4687
 2361SOL     OW18544   4.112   3.116   2.274 -0.4188  0.4331  0.7423
 2361SOL    HW118545   4.097   3.071   2.191  0.5057 -0.8043  1.2359
 2361SOL    HW218546   4.202   3.090   2.295 -0.4080 -2.1037 -2.4693
 2362SOL     OW18547   3.367   2.157  15.568  0.3019 -0.0928 -0.2063
 2362SOL    HW118548   3.357   2.213  15.491  2.0807 -1.4667 -1.4414
 2362SOL    HW218549   3.355   2.072  15.527  0.6354 -0.9488  1.4629
 2363SOL     OW18550   4.062   0.132  16.686 -0.1443 -0.1155  0.0058
 2363SOL    HW118551   4.074   0.139  16.781  1.5045  1.0312 -0.2769
 2363SOL    HW218552   3.979   0.176  16.667  0.0540  0.2908  0.0697
 2364SOL     OW18553   1.188   0.058   4.730  0.4650  0.5073 -0.0798
 2364SOL    HW118554   1.123   0.126   4.747 -1.4933 -0.9874 -1.5977
 2364SOL    HW218555   1.234   0.086   4.651  1.4077 -1.0454 -0.0929
 2365SOL     OW18556   1.661   2.954   2.767 -0.2230  0.2154  0.1331
 2365SOL    HW118557   1.716   2.904   2.827 -0.3493 -0.0725  0.0094
 2365SOL    HW218558   1.700   3.041   2.781 -0.1437 -0.0004  1.3104
 2366SOL     OW18559   3.129   0.460   9.585  0.2606 -0.0909 -0.2372
 2366SOL    HW118560   3.067   0.432   9.652 -0.3978 -0.1387 -0.8779
 2366SOL    HW218561   3.153   0.551   9.605  1.0441 -0.0422 -1.4585
 2367SOL     OW18562   3.519   1.195   8.848 -0.5097 -0.5594  0.2943
 2367SOL    HW118563   3.556   1.200   8.937  1.8707  0.9300 -0.7834
 2367SOL    HW218564   3.442   1.142   8.866 -1.0277 -0.2734 -1.0932
 2368SOL     OW18565   0.803   2.810   9.034 -0.0616  0.5204  0.4455
 2368SOL    HW118566   0.878   2.833   8.980  0.9607  0.6787  1.9279
 2368SOL    HW218567   0.793   2.718   9.013  1.2259  0.3713  0.4991
 2369SOL     OW18568   2.328   4.413  11.302  0.1231  0.2498  0.5002
 2369SOL    HW118569   2.345   4.319  11.304 -0.1900  0.0930 -3.2111
 2369SOL    HW218570   2.249   4.415  11.355  0.5599 -0.7780  1.1781
 2370SOL     OW18571   4.252   0.568   6.238 -0.0210 -0.8702 -0.1540
 2370SOL    HW118572   4.234   0.475   6.246 -1.9237 -0.6005 -1.2937
 2370SOL    HW218573   4.238   0.607   6.325  1.1032  1.0655 -0.8314
 2371SOL     OW18574   3.781   1.727   7.924  0.1732  0.1398  0.1853
 2371SOL    HW118575   3.780   1.782   8.002 -0.9017  0.8400 -0.3237
 2371SOL    HW218576   3.874   1.706   7.921 -0.2751 -2.0155  1.2305
 2372SOL     OW18577   4.639   2.421   4.512 -0.1806  0.1556  0.1312
 2372SOL    HW118578   4.649   2.403   4.606 -0.3237 -0.7985 -0.0412
 2372SOL    HW218579   4.682   2.505   4.497  0.4705 -0.4080 -1.1404
 2373SOL     OW18580   2.417   0.081  16.917  0.1256 -0.2244  0.2349
 2373SOL    HW118581   2.423   0.051  16.826 -3.1929  1.2450 -0.4566
 2373SOL    HW218582   2.430   0.000  16.967  1.0811 -1.4077 -1.9226
 2374SOL     OW18583   0.067   3.355  10.742  0.0024 -0.2998 -0.0323
 2374SOL    HW118584   0.049   3.365  10.648  2.8543  0.2268 -0.5175
 2374SOL    HW218585   4.701   3.336  10.769 -1.0447  0.7748 -2.6816
 2375SOL     OW18586   4.071   4.689   2.104  0.5507 -0.1036 -0.3033
 2375SOL    HW118587   4.095   4.704   2.013  0.5789  0.4848 -0.2047
 2375SOL    HW218588   4.078   4.594   2.110 -1.5369 -0.1524  1.5153
 2376SOL     OW18589   2.155   0.816   4.549 -0.6072  0.4334  0.3583
 2376SOL    HW118590   2.200   0.864   4.619 -1.3045 -0.7915  1.6544
 2376SOL    HW218591   2.218   0.811   4.478 -1.0970  2.2541 -0.2125
 2377SOL     OW18592   2.645   4.637  16.050  0.0904  0.0325  0.1104
 2377SOL    HW118593   2.557   4.610  16.076 -0.0015  1.2192  1.0367
 2377SOL    HW218594   2.644   0.009  16.051  0.9852  0.0356  0.3948
 2378SOL     OW18595   3.267   2.259   7.663  0.3405 -0.3874  0.1284
 2378SOL    HW118596   3.303   2.181   7.705  0.3527 -1.1904 -1.3618
 2378SOL    HW218597   3.319   2.325   7.708  0.5897 -1.0963  0.8672
 2379SOL     OW18598   4.519   0.760   7.557 -0.0891 -0.4405  0.2936
 2379SOL    HW118599   4.516   0.737   7.465  1.4301  1.1759 -0.1659
 2379SOL    HW218600   4.525   0.674   7.599  2.0676 -0.9261 -1.0375
 2380SOL     OW18601   1.187   3.177   6.127  0.0305  0.6979  0.2547
 2380SOL    HW118602   1.273   3.202   6.161  0.5330 -0.2630 -0.3146
 2380SOL    HW218603   1.209   3.088   6.099  0.2395 -0.0049  2.6267
 2381SOL     OW18604   0.850   4.093   6.189 -0.2359 -0.3696  0.2046
 2381SOL    HW118605   0.942   4.099   6.214 -0.2971  2.3239 -0.1858
 2381SOL    HW218606   0.849   4.094   6.093 -1.0911  0.6008  0.2262
 2382SOL     OW18607   0.218   3.860   8.927  0.5190  0.0076 -1.3982
 2382SOL    HW118608   0.126   3.885   8.936  0.8564  0.4590  0.8152
 2382SOL    HW218609   0.255   3.899   9.007  0.8732 -0.4137 -1.3547
 2383SOL     OW18610   1.781   3.238   4.882 -0.4484  0.1584  0.1565
 2383SOL    HW118611   1.737   3.320   4.903  1.6123  0.7474  2.2601
 2383SOL    HW218612   1.873   3.264   4.892 -0.5969  0.9146 -0.4561
 2384SOL     OW18613   0.712   3.679   4.779 -0.4957  0.6884  0.6718
 2384SOL    HW118614   0.714   3.744   4.849 -1.5979  2.5582 -1.0584
 2384SOL    HW218615   0.619   3.674   4.759 -0.2163 -0.9655 -0.2274
 2385SOL     OW18616   0.601   2.804   0.884  0.3778  0.5236 -0.0435
 2385SOL    HW118617   0.539   2.733   0.901  0.7492 -0.0004 -0.8815
 2385SOL    HW218618   0.688   2.773   0.910 -1.1057 -2.9961  0.7499
 2386SOL     OW18619   1.336   1.710  12.077 -0.2046  0.2548 -0.5570
 2386SOL    HW118620   1.403   1.767  12.115 -0.5232  1.0342 -1.1566
 2386SOL    HW218621   1.342   1.648  12.150 -0.6660  0.8637 -0.0019
 2387SOL     OW18622   4.338   1.965   0.343 -0.6404 -0.1848  0.6533
 2387SOL    HW118623   4.320   1.901   0.274  0.3841 -0.0262  0.2428
 2387SOL    HW218624   4.268   2.029   0.331 -1.4542 -1.2061 -0.0576
 2388SOL     OW18625   1.851   0.468   6.588  0.2454  0.1873 -0.6111
 2388SOL    HW118626   1.905   0.543   6.614 -0.6723  0.7026 -0.2054
 2388SOL    HW218627   1.913   0.408   6.548  0.9108 -0.2457  1.0681
 2389SOL     OW18628   3.156   0.661   3.790  0.7069  0.0807  0.1445
 2389SOL    HW118629   3.076   0.668   3.843  0.8850  1.4693  0.2164
 2389SOL    HW218630   3.197   0.592   3.842  0.8041  1.0978  1.4261
 2390SOL     OW18631   4.296   3.146   8.738 -0.0534  1.0134 -0.5542
 2390SOL    HW118632   4.375   3.127   8.789 -1.8503 -2.5279  0.8817
 2390SOL    HW218633   4.285   3.241   8.747  0.1590  1.2034 -2.3936
 2391SOL     OW18634   1.563   1.765   0.938 -0.7955 -0.1026 -0.2896
 2391SOL    HW118635   1.602   1.852   0.928 -0.5477  0.1438  2.8520
 2391SOL    HW218636   1.498   1.774   0.869 -0.8052  1.2378 -0.1092
 2392SOL     OW18637   2.130   4.096  14.989  0.4170  0.4573 -0.1147
 2392SOL    HW118638   2.106   4.008  15.019 -1.5302  0.0217 -2.9677
 2392SOL    HW218639   2.127   4.078  14.895 -3.4627 -1.1526  0.3010
 2393SOL     OW18640   0.186   3.025  10.525 -0.5981  0.3357  0.1280
 2393SOL    HW118641   0.193   3.012  10.430 -0.9161 -0.5667  0.2279
 2393SOL    HW218642   0.279   3.021  10.546 -0.5246 -1.8181 -0.5433
 2394SOL     OW18643   3.229   2.770   8.425  0.3701 -0.3022 -0.0211
 2394SOL    HW118644   3.203   2.820   8.503 -2.4788 -0.0237 -1.1610
 2394SOL    HW218645   3.206   2.677   8.438  1.8492 -0.9696 -2.2784
 2395SOL     OW18646   4.108   3.395  13.366 -0.0993  0.6981 -0.3622
 2395SOL    HW118647   4.108   3.450  13.288 -3.1823  1.4950  0.2151
 2395SOL    HW218648   4.111   3.308  13.326 -3.2752  1.1559 -1.5365
 2396SOL     OW18649   2.672   0.456   7.449  0.6436 -0.0653  0.1287
 2396SOL    HW118650   2.576   0.450   7.447  0.7151 -1.4142  0.6896
 2396SOL    HW218651   2.694   0.512   7.375 -0.6342 -0.1523 -0.3184
 2397SOL     OW18652   1.048   3.833   5.696 -0.0631  0.2356  0.0927
 2397SOL    HW118653   0.991   3.797   5.628  0.5812 -0.5049 -0.0640
 2397SOL    HW218654   1.098   3.760   5.733 -2.8048 -0.4729  2.3455
 2398SOL     OW18655   0.951   4.558   2.141  0.4018 -0.2748  0.0086
 2398SOL    HW118656   0.939   4.643   2.185 -0.7399 -0.1897 -0.4542
 2398SOL    HW218657   0.869   4.550   2.092 -0.0120 -1.2468  0.8587
 2399SOL     OW18658   3.330   3.980   5.724  0.6483  0.5460 -0.1392
 2399SOL    HW118659   3.273   4.034   5.780  3.7080  2.0994  1.5187
 2399SOL    HW218660   3.265   3.920   5.690  1.9924  0.0418 -1.8364
 2400SOL     OW18661   2.983   3.486   3.916  0.0025 -0.1572  0.8016
 2400SOL    HW118662   2.975   3.417   3.982  0.2128 -0.5531  0.4132
 2400SOL    HW218663   3.018   3.433   3.845 -1.1037 -0.3032  0.3664
 2401SOL     OW18664   1.244   1.095   6.402 -0.2484 -0.1540 -0.6380
 2401SOL    HW118665   1.165   1.045   6.384 -1.6330  1.0220  2.2047
 2401SOL    HW218666   1.241   1.105   6.498  2.0981  0.2967 -0.6103
 2402SOL     OW18667   3.071   0.078   5.845  0.0173 -0.2846 -0.7406
 2402SOL    HW118668   3.107   0.122   5.768  0.3890 -0.3004 -0.5709
 2402SOL    HW218669   3.043   0.150   5.901 -0.6053  0.0376 -1.4508
 2403SOL     OW18670   3.795   4.442   7.298  0.6562  0.3971 -0.1782
 2403SOL    HW118671   3.872   4.497   7.291  2.2913 -1.9003 -0.1464
 2403SOL    HW218672   3.726   4.508   7.286  1.4580  0.5714 -3.9956
 2404SOL     OW18673   1.067   1.138   5.140 -0.1222  0.1133  0.4100
 2404SOL    HW118674   1.017   1.167   5.217 -1.1412  1.0653 -0.6193
 2404SOL    HW218675   1.026   1.187   5.069  0.3768 -0.3093 -0.1702
 2405SOL     OW18676   3.977   1.190   1.006  0.5729  0.3008 -0.2125
 2405SOL    HW118677   3.989   1.109   1.056  0.3669  0.1558 -0.3934
 2405SOL    HW218678   3.942   1.252   1.070  1.3771 -0.1983  0.7041
 2406SOL     OW18679   3.404   2.372   5.608  0.3603 -0.4714 -0.1602
 2406SOL    HW118680   3.478   2.352   5.665  0.0223  1.5590  1.0088
 2406SOL    HW218681   3.357   2.289   5.613  2.5918 -1.6613  1.0713
 2407SOL     OW18682   4.269   0.735  14.283 -0.4366 -0.3929 -0.4506
 2407SOL    HW118683   4.261   0.792  14.207 -0.7713  0.5336  0.2724
 2407SOL    HW218684   4.262   0.803  14.349  0.8822  0.6605 -1.4016
 2408SOL     OW18685   4.562   0.337   3.182 -0.1455 -0.0163 -0.1504
 2408SOL    HW118686   4.642   0.321   3.132  1.2759 -0.2313  2.1710
 2408SOL    HW218687   4.519   0.406   3.130  0.9975 -1.2054 -2.6785
 2409SOL     OW18688   0.524   0.123  17.675  0.0049  0.2475  0.1894
 2409SOL    HW118689   0.618   0.140  17.674  0.0419  0.1160  0.8134
 2409SOL    HW218690   0.526   0.034  17.639  0.5060  0.0123  0.7801
 2410SOL     OW18691   2.312   2.538   1.856 -0.2643  0.0718 -1.0807
 2410SOL    HW118692   2.391   2.494   1.824 -0.5157  0.2259 -1.9104
 2410SOL    HW218693   2.256   2.466   1.884 -0.0421 -0.0992 -1.0753
 2411SOL     OW18694   3.345   0.503  16.209  0.4870  0.5124 -0.3655
 2411SOL    HW118695   3.330   0.582  16.156  4.4359  1.9329  0.6460
 2411SOL    HW218696   3.431   0.518  16.248 -0.0543  0.6139  0.8001
 2412SOL     OW18697   4.568   3.096  11.283  0.5799 -0.1249 -0.2746
 2412SOL    HW118698   4.538   3.184  11.305 -0.4630 -0.2574 -1.1529
 2412SOL    HW218699   4.659   3.096  11.311  0.3522 -0.8018  0.4436
 2413SOL     OW18700   4.437   2.226   6.817 -0.9362 -0.1005  0.4685
 2413SOL    HW118701   4.508   2.205   6.756 -1.2095 -1.6218  0.6668
 2413SOL    HW218702   4.431   2.321   6.819 -1.0570 -0.1033  0.2669
 2414SOL     OW18703   1.335   0.707   5.759 -0.5677 -1.0390  0.6005
 2414SOL    HW118704   1.374   0.684   5.843  3.0333  1.2687 -0.4510
 2414SOL    HW218705   1.276   0.782   5.768 -0.7412 -0.7515 -2.7800
 2415SOL     OW18706   0.764   1.166   2.312  0.4236  0.8368 -0.0738
 2415SOL    HW118707   0.825   1.111   2.265  0.3779  1.0564 -0.3932
 2415SOL    HW218708   0.808   1.251   2.301 -0.4034  1.5420  1.9807
 2416SOL     OW18709   1.987   2.133   3.535 -0.1594  0.1344 -0.2072
 2416SOL    HW118710   1.915   2.140   3.598  0.4225 -0.1520  0.4838
 2416SOL    HW218711   1.976   2.214   3.484 -0.6757 -0.8209 -1.6209
 2417SOL     OW18712   2.448   2.446   4.528  0.3112 -0.0888 -0.1301
 2417SOL    HW118713   2.525   2.454   4.472  1.8792  2.2663  2.4276
 2417SOL    HW218714   2.486   2.386   4.592 -1.0976 -1.7752 -0.8562
 2418SOL     OW18715   4.060   4.617   9.805  0.0388 -0.0708  0.1814
 2418SOL    HW118716   4.082   4.709   9.818 -0.0290 -0.3126  1.9733
 2418SOL    HW218717   3.975   4.608   9.848 -0.0444  0.7998  0.1999
 2419SOL     OW18718   2.387   2.729   2.041  0.0580  0.1770 -0.0927
 2419SOL    HW118719   2.360   2.645   2.005 -0.0808  0.0116  0.3966
 2419SOL    HW218720   2.321   2.777   1.991 -0.1331  2.3497  2.2159
 2420SOL     OW18721   0.192   0.964   3.071  0.5882  0.6677 -0.4517
 2420SOL    HW118722   0.213   0.924   2.986 -1.3891 -0.7559 -0.2649
 2420SOL    HW218723   0.153   1.049   3.048 -1.8053 -0.6313 -1.2425
 2421SOL     OW18724   1.336   4.407   6.926  0.2451  0.9448  0.2676
 2421SOL    HW118725   1.252   4.452   6.935  1.7759  3.4869  2.0333
 2421SOL    HW218726   1.329   4.377   6.835 -0.6828  3.2087 -0.4148
 2422SOL     OW18727   3.081   3.530   5.736 -0.2130 -0.5559 -0.4788
 2422SOL    HW118728   3.023   3.523   5.659  0.1651 -0.1774 -0.8020
 2422SOL    HW218729   3.142   3.596   5.703  0.3384 -1.1758 -0.6825
 2423SOL     OW18730   3.926   2.466   8.028  0.0694 -0.2352 -0.6166
 2423SOL    HW118731   3.998   2.518   8.064  0.0613 -0.4996 -0.2058
 2423SOL    HW218732   3.859   2.531   8.049 -1.4803 -2.3763  1.1443
 2424SOL     OW18733   0.866   3.667   7.549  0.6531 -0.1919 -0.2202
 2424SOL    HW118734   0.939   3.656   7.610  1.3117  0.7120 -0.8455
 2424SOL    HW218735   0.793   3.681   7.609 -0.8913 -1.1810 -1.8690
 2425SOL     OW18736   3.767   1.544  14.693 -0.2261  0.1418 -0.0817
 2425SOL    HW118737   3.693   1.584  14.647  0.1682 -0.4880 -1.2711
 2425SOL    HW218738   3.831   1.537  14.622  1.5568  1.2073  1.4196
 2426SOL     OW18739   0.884   3.086  16.032  0.1724 -0.2662 -0.3791
 2426SOL    HW118740   0.971   3.127  16.032  0.3198 -0.5660 -1.5902
 2426SOL    HW218741   0.825   3.157  16.008  0.6217  0.6360  1.2044
 2427SOL     OW18742   0.050   4.621  15.026 -0.5385 -0.2994 -0.0239
 2427SOL    HW118743   0.018   4.700  15.069  1.3140  0.6082 -0.3046
 2427SOL    HW218744   4.719   4.634  14.949 -1.7369  1.6993  1.1654
 2428SOL     OW18745   0.664   4.582   5.765 -0.7022 -0.0282 -0.2633
 2428SOL    HW118746   0.586   4.547   5.721 -0.8752  0.2818 -0.2039
 2428SOL    HW218747   0.634   4.667   5.795 -1.5734 -0.8767  1.2707
 2429SOL     OW18748   3.757   0.505   7.884  0.3257  0.4002 -0.7059
 2429SOL    HW118749   3.758   0.409   7.890  2.1076  0.3063 -2.3778
 2429SOL    HW218750   3.805   0.523   7.965  0.4412 -0.2164 -0.6358
 2430SOL     OW18751   4.482   2.956  16.534  0.2146 -0.0976  0.4331
 2430SOL    HW118752   4.541   3.016  16.488 -0.1322 -0.8288 -0.9484
 2430SOL    HW218753   4.512   2.957  16.625 -0.9300  0.1592  0.8028
 2431SOL     OW18754   3.328   0.325   8.854 -0.3511  0.7388  0.3451
 2431SOL    HW118755   3.307   0.367   8.937  0.0716  0.6927  0.4743
 2431SOL    HW218756   3.410   0.282   8.878 -0.5069 -0.5954 -1.5640
 2432SOL     OW18757   0.119   3.696   2.411 -0.9673  0.1452  0.6766
 2432SOL    HW118758   0.085   3.756   2.478 -1.0836  0.4479  0.3478
 2432SOL    HW218759   0.054   3.626   2.416  2.5161 -3.0304  1.3599
 2433SOL     OW18760   4.243   1.880   4.429 -0.2258 -0.5464 -0.3870
 2433SOL    HW118761   4.242   1.964   4.384 -0.9542 -1.1989 -1.5946
 2433SOL    HW218762   4.313   1.836   4.381  0.0323  0.5894 -1.0440
 2434SOL     OW18763   2.273   4.342   4.895  0.0660  0.1820 -0.0477
 2434SOL    HW118764   2.230   4.424   4.870  0.7213  0.6970  0.5282
 2434SOL    HW218765   2.362   4.365   4.920 -0.1669  0.5573  0.4168
 2435SOL     OW18766   1.877   0.774   8.817 -0.6308 -0.4355 -0.1614
 2435SOL    HW118767   1.943   0.711   8.789 -0.4438  0.2972 -1.4227
 2435SOL    HW218768   1.818   0.781   8.741 -0.6069 -3.0036 -0.4210
 2436SOL     OW18769   2.441   2.082  10.884  0.4509 -0.0980 -0.4082
 2436SOL    HW118770   2.532   2.088  10.854  0.0609  1.1735 -1.3434
 2436SOL    HW218771   2.429   1.987  10.893 -1.5009  0.2062  0.1363
 2437SOL     OW18772   4.347   1.944   5.255  0.1103 -0.6594 -0.0045
 2437SOL    HW118773   4.409   1.987   5.314  0.3045 -0.2686 -0.4979
 2437SOL    HW218774   4.312   2.021   5.211 -0.8372  0.1767  2.2097
 2438SOL     OW18775   2.599   4.438   8.057 -0.3040  0.8205 -0.5406
 2438SOL    HW118776   2.518   4.428   8.106  0.6909 -2.3964  0.4452
 2438SOL    HW218777   2.630   4.347   8.059  1.8882  1.5602 -0.0194
 2439SOL     OW18778   4.610   0.457  17.681  0.4581  0.0712  0.0062
 2439SOL    HW118779   4.679   0.488  17.623  1.7028  1.4711  2.2599
 2439SOL    HW218780   4.574   0.387  17.627  0.7736  0.8847 -1.2668
 2440SOL     OW18781   2.916   2.109  10.608  0.8581 -0.3812  0.3182
 2440SOL    HW118782   2.954   2.197  10.598  0.1828 -0.1397 -0.2115
 2440SOL    HW218783   2.991   2.055  10.631  0.6957 -0.4831  0.6096
 2441SOL     OW18784   2.063   2.783   6.204 -0.3403 -0.3354 -0.5063
 2441SOL    HW118785   2.022   2.862   6.169 -0.1215  0.3003  0.6536
 2441SOL    HW218786   2.061   2.802   6.298  1.6257 -0.7690 -0.3696
 2442SOL     OW18787   3.217   2.884  11.045 -0.1185  0.0168  0.1206
 2442SOL    HW118788   3.181   2.952  10.988  1.2968  1.2231  0.6637
 2442SOL    HW218789   3.306   2.874  11.011 -0.9629 -2.9560 -1.2313
 2443SOL     OW18790   2.394   1.427  12.854 -0.7554 -0.0278 -0.5213
 2443SOL    HW118791   2.403   1.469  12.939  2.6425 -0.8347 -0.5047
 2443SOL    HW218792   2.425   1.502  12.804  1.6284  0.5759  1.8779
 2444SOL     OW18793   1.752   3.842  14.206  0.0949 -0.4375  0.0911
 2444SOL    HW118794   1.720   3.932  14.194  0.6008 -0.7741 -3.8416
 2444SOL    HW218795   1.712   3.822  14.290 -0.2162  1.9093  0.5159
 2445SOL     OW18796   4.098   4.346   7.442  0.5294  0.1287  0.5852
 2445SOL    HW118797   4.185   4.308   7.428  0.5689 -0.2416  1.9071
 2445SOL    HW218798   4.082   4.304   7.526 -0.1269 -1.0763 -0.1362
 2446SOL     OW18799   0.251   2.115   4.026  0.4705  0.0040  0.5907
 2446SOL    HW118800   0.193   2.048   3.990  0.2233  1.3262 -1.4844
 2446SOL    HW218801   0.229   2.197   3.982  0.7549 -0.3611 -0.2224
 2447SOL     OW18802   0.701   2.393   2.474  0.3436 -0.1219 -0.1646
 2447SOL    HW118803   0.768   2.454   2.505 -0.1898  0.5062 -0.2559
 2447SOL    HW218804   0.653   2.437   2.404 -2.5684 -2.2449  0.4963
 2448SOL     OW18805   1.581   4.240   0.614 -0.0150  0.0545  0.1471
 2448SOL    HW118806   1.612   4.155   0.583  0.1222  0.1116  0.1289
 2448SOL    HW218807   1.642   4.298   0.568  1.3242  1.0088  3.1654
 2449SOL     OW18808   2.578   2.335  13.918  0.3973  0.2588  0.2508
 2449SOL    HW118809   2.530   2.352  13.837 -0.4330 -2.4082  0.1652
 2449SOL    HW218810   2.632   2.413  13.932  0.7063  0.0966 -0.0382
 2450SOL     OW18811   1.357   3.408   4.760 -0.1006  0.1985  0.2605
 2450SOL    HW118812   1.297   3.435   4.691  0.3721  5.3627  1.9133
 2450SOL    HW218813   1.428   3.354   4.724 -0.9490  0.4552 -1.8344
 2451SOL     OW18814   3.713   2.024   7.003  0.2199  0.2864 -0.0177
 2451SOL    HW118815   3.764   2.105   6.995  0.3277  0.3278  1.1868
 2451SOL    HW218816   3.622   2.054   6.992  0.8140  1.6285 -1.3529
 2452SOL     OW18817   1.781   0.697  15.847  0.3877 -0.1840 -0.2307
 2452SOL    HW118818   1.816   0.644  15.919  0.4391 -0.5483 -0.5178
 2452SOL    HW218819   1.723   0.630  15.811 -0.2210 -0.2581  0.8955
 2453SOL     OW18820   0.236   4.539   5.449  0.4875  0.4151 -0.8546
 2453SOL    HW118821   0.175   4.467   5.431  0.2746  1.0023 -2.5593
 2453SOL    HW218822   0.179   4.613   5.428  1.2441  0.8630 -1.3409
 2454SOL     OW18823   3.045   1.193  10.378 -0.1510 -0.4844  0.5593
 2454SOL    HW118824   3.057   1.105  10.413  1.7582 -0.6696 -0.5600
 2454SOL    HW218825   2.989   1.231  10.446 -2.1959 -1.3371 -0.6373
 2455SOL     OW18826   4.013   3.357  17.639  0.5910 -0.1029  0.3879
 2455SOL    HW118827   4.004   3.392   0.031 -3.5107  1.8208 -0.7859
 2455SOL    HW218828   4.108   3.365  17.626  0.4320  0.0418 -0.6538
 2456SOL     OW18829   4.245   4.644   0.341 -0.7699  0.3522  0.1571
 2456SOL    HW118830   4.173   4.644   0.405 -1.7497 -1.0215 -0.9637
 2456SOL    HW218831   4.186   4.625   0.268  0.2564  1.8531 -1.0730
 2457SOL     OW18832   3.300   1.897   7.518 -0.2789 -0.0934 -0.0958
 2457SOL    HW118833   3.282   1.979   7.565 -0.8763  0.3868 -1.1585
 2457SOL    HW218834   3.210   1.880   7.490 -0.1186  0.2517 -0.8052
 2458SOL     OW18835   2.050   2.426   5.094  0.0672 -0.4195 -0.2975
 2458SOL    HW118836   2.136   2.449   5.128  0.6195  0.3490 -2.2044
 2458SOL    HW218837   2.058   2.334   5.069  0.9480 -0.4690  0.1546
 2459SOL     OW18838   4.607   1.001   4.986 -0.2085  0.1049  0.1010
 2459SOL    HW118839   4.594   0.987   4.892 -2.0694  0.2074  0.3505
 2459SOL    HW218840   4.551   0.935   5.026 -0.5667  0.4681  0.2075
 2460SOL     OW18841   0.043   4.614   6.035 -0.3300  0.3516  0.2068
 2460SOL    HW118842   0.118   4.596   6.091 -1.4067  0.5504  1.6990
 2460SOL    HW218843   0.066   4.579   5.949  0.5417  1.5438 -0.0485
 2461SOL     OW18844   1.701   2.018   3.150  0.1587  0.1544 -0.2454
 2461SOL    HW118845   1.768   2.038   3.085 -0.5196  2.3893 -0.2644
 2461SOL    HW218846   1.695   1.927   3.122  3.6468 -0.5737  1.3744
 2462SOL     OW18847   2.841   2.808   3.721  0.1665  0.4253  0.5704
 2462SOL    HW118848   2.785   2.867   3.671 -0.2775 -1.9539 -1.8058
 2462SOL    HW218849   2.905   2.805   3.649 -1.5623 -0.0365 -0.9635
 2463SOL     OW18850   1.162   3.954   2.382 -0.8991  0.1075  0.6417
 2463SOL    HW118851   1.067   3.957   2.374 -0.9345  2.3894  1.9316
 2463SOL    HW218852   1.187   3.931   2.292 -3.3877  0.3870 -0.1137
 2464SOL     OW18853   4.489   2.804   6.940  0.4819  0.0726  0.5291
 2464SOL    HW118854   4.509   2.855   6.862  2.1542 -0.1513  0.8112
 2464SOL    HW218855   4.522   2.722   6.904 -0.6851  0.1220 -0.6736
 2465SOL     OW18856   3.560   0.500   1.991  0.2699  0.5497 -0.4821
 2465SOL    HW118857   3.480   0.468   1.950  0.4107 -0.4699  0.0256
 2465SOL    HW218858   3.613   0.493   1.911  0.8362  2.5908 -0.2970
 2466SOL     OW18859   3.980   0.905   4.513 -0.2029  0.0793 -0.0336
 2466SOL    HW118860   3.944   0.981   4.558  0.9224 -0.2483  1.4213
 2466SOL    HW218861   3.982   0.851   4.593 -3.4063 -0.4760 -0.3205
 2467SOL     OW18862   4.662   3.556   8.475  0.6084  0.5687 -0.1567
 2467SOL    HW118863   4.581   3.596   8.507  0.9041  1.2082 -0.2272
 2467SOL    HW218864   4.691   3.624   8.415 -0.4788  2.7999  1.8518
 2468SOL     OW18865   3.177   0.645   1.284 -0.1410 -0.4177  0.0419
 2468SOL    HW118866   3.090   0.653   1.244 -0.4055  1.7306  1.0834
 2468SOL    HW218867   3.179   0.733   1.319  2.5321 -0.5664  0.2429
 2469SOL     OW18868   2.209   1.076  10.692 -0.3550  0.3758  0.2244
 2469SOL    HW118869   2.298   1.047  10.671 -0.0616  2.7375 -1.7200
 2469SOL    HW218870   2.235   1.148  10.750 -0.3679  0.1168  0.5526
 2470SOL     OW18871   3.223   2.491   8.405  0.2011 -0.2140 -0.2896
 2470SOL    HW118872   3.139   2.455   8.379  0.0706  1.5593 -2.3140
 2470SOL    HW218873   3.219   2.477   8.499 -2.8812  0.8020 -0.2565
 2471SOL     OW18874   0.975   4.466   7.726  0.0774  0.6712  0.3688
 2471SOL    HW118875   1.052   4.437   7.776  1.1026  1.5362 -0.6968
 2471SOL    HW218876   0.924   4.385   7.725 -0.4062  1.0037 -1.3455
 2472SOL     OW18877   2.951   3.548   5.478 -0.5307  0.4407  0.0620
 2472SOL    HW118878   2.883   3.550   5.411 -1.8907 -1.5334  1.3697
 2472SOL    HW218879   2.982   3.637   5.469  1.5349 -0.2826  0.1268
 2473SOL     OW18880   2.408   3.747  16.947  0.8384 -0.6478  0.5909
 2473SOL    HW118881   2.365   3.667  16.979 -0.5234  0.4202  1.4061
 2473SOL    HW218882   2.408   3.793  17.030 -3.4937 -0.1550  0.3217
 2474SOL     OW18883   2.334   3.866   6.525  0.1608 -0.2022  0.1319
 2474SOL    HW118884   2.392   3.812   6.473 -0.9167 -0.3408 -0.9040
 2474SOL    HW218885   2.251   3.868   6.479 -0.2177 -1.0580  0.7840
 2475SOL     OW18886   1.088   1.996  16.245  0.6520  0.2479 -0.1838
 2475SOL    HW118887   1.019   1.936  16.272 -0.2671  0.8320 -1.2616
 2475SOL    HW218888   1.081   1.982  16.151 -2.8309  0.0089  0.1037
 2476SOL     OW18889   1.233   3.544  15.190  0.2290  0.1071  0.5567
 2476SOL    HW118890   1.150   3.549  15.238 -0.5336 -1.8464 -0.5709
 2476SOL    HW218891   1.199   3.533  15.101  0.4367  0.5563  0.4203
 2477SOL     OW18892   1.396   3.584   4.318 -0.0071 -1.0408 -0.5548
 2477SOL    HW118893   1.383   3.565   4.225  0.1805  0.5011 -0.9014
 2477SOL    HW218894   1.416   3.678   4.321 -1.9921 -0.5756 -1.9888
 2478SOL     OW18895   1.742   2.722   6.015 -0.1132 -0.3118  0.0700
 2478SOL    HW118896   1.671   2.696   6.074  0.5094 -0.3354  0.7992
 2478SOL    HW218897   1.779   2.800   6.056 -1.8033  0.2735  0.5152
 2479SOL     OW18898   4.274   0.389   9.072  0.5865 -0.0230  0.5488
 2479SOL    HW118899   4.221   0.402   9.150 -0.3212  3.2101 -0.6035
 2479SOL    HW218900   4.303   0.299   9.086 -1.8431 -1.0603 -0.9465
 2480SOL     OW18901   4.620   1.807   0.351 -0.0950  1.0679 -0.1860
 2480SOL    HW118902   4.594   1.719   0.322 -0.4266  1.6036 -1.5049
 2480SOL    HW218903   4.644   1.847   0.268 -0.2142  1.9631  0.2077
 2481SOL     OW18904   0.776   0.908  11.330 -0.0376 -0.5788 -0.6296
 2481SOL    HW118905   0.852   0.883  11.278  1.3092  0.6078  0.7640
 2481SOL    HW218906   0.762   0.833  11.387  2.6218 -0.8472 -0.3332
 2482SOL     OW18907   1.025   0.544   0.781 -0.1650 -0.2256  0.3928
 2482SOL    HW118908   0.942   0.537   0.734  2.6873 -1.1728 -4.5719
 2482SOL    HW218909   0.994   0.580   0.865  2.2726  0.4200  1.0069
 2483SOL     OW18910   1.829   2.506   1.515  0.0481  0.6767 -0.5108
 2483SOL    HW118911   1.825   2.465   1.428 -2.1964 -1.7786  0.7211
 2483SOL    HW218912   1.743   2.481   1.548 -0.6847  4.8642  0.7523
 2484SOL     OW18913   4.703   3.936   6.364  0.5813 -0.9037 -0.6035
 2484SOL    HW118914   0.051   3.959   6.306  3.7387 -0.9501  3.3186
 2484SOL    HW218915   0.018   3.863   6.412  1.0061 -0.4677 -0.2942
 2485SOL     OW18916   1.068   4.281  10.657  0.4110 -0.2531 -0.1706
 2485SOL    HW118917   1.130   4.261  10.587  1.0533 -0.3337  0.4253
 2485SOL    HW218918   1.124   4.330  10.716  1.8771 -2.2320  0.0973
 2486SOL     OW18919   3.321   1.320  11.916  0.3321 -0.0590 -0.1945
 2486SOL    HW118920   3.342   1.295  12.005  0.4636 -0.0809 -0.2319
 2486SOL    HW218921   3.261   1.391  11.940  1.1239  0.2906  0.6913
 2487SOL     OW18922   1.082   0.582   3.590  0.2625 -0.0810  0.2636
 2487SOL    HW118923   1.089   0.664   3.541 -2.8943  0.4321  0.6719
 2487SOL    HW218924   1.167   0.577   3.633  0.1950  1.9538  0.6617
 2488SOL     OW18925   3.690   1.917   4.070 -1.0348 -0.1484  0.3038
 2488SOL    HW118926   3.635   1.994   4.083  1.0182  1.3956 -0.1680
 2488SOL    HW218927   3.718   1.927   3.979  1.1774  2.2456  1.2522
 2489SOL     OW18928   2.386   2.066   6.814 -0.0131 -0.0440  0.3789
 2489SOL    HW118929   2.453   2.067   6.883 -2.7613  0.4632  3.0191
 2489SOL    HW218930   2.314   2.042   6.871  0.5213  0.7198  1.3739
 2490SOL     OW18931   3.679   4.341   4.939 -0.1730 -0.1982 -0.1840
 2490SOL    HW118932   3.610   4.346   5.004  1.2940 -1.7323  1.4752
 2490SOL    HW218933   3.727   4.267   4.975  0.2493  0.0224 -0.2909
 2491SOL     OW18934   2.358   3.677   4.413  0.4114  0.2595  0.4860
 2491SOL    HW118935   2.416   3.725   4.354 -2.1072  0.9287 -1.4438
 2491SOL    HW218936   2.304   3.639   4.343  0.0444  2.8943 -0.6563
 2492SOL     OW18937   3.864   0.876  17.422  0.6442 -0.3026  0.4885
 2492SOL    HW118938   3.898   0.922  17.499 -2.0376 -1.3848  2.3001
 2492SOL    HW218939   3.874   0.786  17.451  1.2446 -0.0591  1.0472
 2493SOL     OW18940   2.938   0.537   6.020  0.3335 -0.0046 -0.9398
 2493SOL    HW118941   2.849   0.571   6.008  0.4142 -0.3251 -2.4831
 2493SOL    HW218942   2.985   0.586   5.952  0.9981  0.5278 -0.0893
 2494SOL     OW18943   0.063   0.677   7.748 -0.0883  0.0239  0.5034
 2494SOL    HW118944   0.059   0.685   7.843 -2.0563 -2.1775  0.6156
 2494SOL    HW218945   0.047   0.583   7.739  2.6069 -0.5686  1.9029
 2495SOL     OW18946   4.597   3.504  11.836 -0.2852  0.1826  0.3295
 2495SOL    HW118947   4.681   3.467  11.808 -1.5114 -2.3549 -0.0064
 2495SOL    HW218948   4.547   3.471  11.761  0.5560  2.2909 -1.1494
 2496SOL     OW18949   0.287   3.952   6.907  0.6049 -0.1928  0.7924
 2496SOL    HW118950   0.319   3.868   6.876  1.5376  0.6033 -0.4280
 2496SOL    HW218951   0.204   3.963   6.860  0.1538 -0.4512  1.5248
 2497SOL     OW18952   2.513   3.450   4.479  0.0689 -0.0066  0.3063
 2497SOL    HW118953   2.455   3.522   4.505 -1.4785 -0.6933 -1.2696
 2497SOL    HW218954   2.600   3.469   4.515 -0.0653  1.7623 -0.2565
 2498SOL     OW18955   4.493   1.948   0.568 -0.1640 -0.3372  0.3255
 2498SOL    HW118956   4.559   1.927   0.502 -0.6592 -2.3968  0.4684
 2498SOL    HW218957   4.431   1.987   0.506 -1.4690  1.0620  2.5183
 2499SOL     OW18958   1.962   1.140   6.233 -0.0604 -0.3189  0.0567
 2499SOL    HW118959   1.937   1.161   6.143 -1.3789  1.8274  0.9291
 2499SOL    HW218960   1.896   1.078   6.262 -0.2393 -1.4174 -2.6765
 2500SOL     OW18961   4.601   1.907   6.794  0.2202 -0.5403 -0.2517
 2500SOL    HW118962   4.510   1.888   6.817  0.6730  1.1278  2.9719
 2500SOL    HW218963   4.594   1.994   6.755  1.4432 -0.9981 -1.4725
 2501SOL     OW18964   3.910   2.679   6.314  0.9246 -0.3774 -0.0235
 2501SOL    HW118965   3.990   2.713   6.272  0.2349  0.1050 -0.9399
 2501SOL    HW218966   3.844   2.731   6.269  0.4519  1.1813  2.4605
 2502SOL     OW18967   0.690   1.926   0.102  0.1682 -0.2584 -0.5448
 2502SOL    HW118968   0.656   1.982   0.033  0.1027  2.2119  1.4940
 2502SOL    HW218969   0.763   1.977   0.137  0.4923 -0.7967 -0.4284
 2503SOL     OW18970   3.261   1.829   4.921  0.5421  0.7402 -0.5654
 2503SOL    HW118971   3.173   1.795   4.939  0.6144  1.2903  0.8375
 2503SOL    HW218972   3.241   1.893   4.853 -1.1095 -0.2414 -0.9969
 2504SOL     OW18973   1.533   4.522  15.407  0.3989 -0.0146 -0.2362
 2504SOL    HW118974   1.473   4.534  15.334 -0.8314 -1.2678  0.5675
 2504SOL    HW218975   1.482   4.545  15.486  2.3808  1.7556  0.5291
 2505SOL     OW18976   0.506   3.878  13.356 -0.2696 -0.3475  0.1509
 2505SOL    HW118977   0.486   3.877  13.262 -1.3868  2.3579  0.3530
 2505SOL    HW218978   0.503   3.969  13.385  0.9275 -0.7050  1.4002
 2506SOL     OW18979   3.251   3.509   0.995  0.3605  0.2162 -0.3413
 2506SOL    HW118980   3.321   3.563   0.959  0.4229  0.7153  0.5323
 2506SOL    HW218981   3.180   3.573   1.001  1.1944  0.8996  2.3134
 2507SOL     OW18982   4.490   1.217   3.872 -0.2820 -0.7157 -0.8343
 2507SOL    HW118983   4.537   1.163   3.936  0.1716 -0.3881 -0.8941
 2507SOL    HW218984   4.488   1.162   3.794  2.7930  0.4408 -1.7055
 2508SOL     OW18985   2.518   2.749  11.464  0.2300 -0.4812  0.4186
 2508SOL    HW118986   2.565   2.667  11.478  2.4868  0.4446 -1.8642
 2508SOL    HW218987   2.438   2.734  11.515  1.1687 -2.4838  1.3102
 2509SOL     OW18988   4.018   2.342   1.892 -0.4676  0.2326  0.0615
 2509SOL    HW118989   3.931   2.323   1.857 -0.1058 -2.3465  0.5836
 2509SOL    HW218990   4.057   2.378   1.812  0.5815 -1.0176  0.0148
 2510SOL     OW18991   0.149   2.429   4.780 -0.2309  0.4229 -0.2783
 2510SOL    HW118992   0.136   2.334   4.779  1.8226  0.1275  1.0085
 2510SOL    HW218993   0.069   2.466   4.818  1.0342  0.5612  2.2476
 2511SOL     OW18994   2.059   3.736   4.175 -0.5546 -0.3752 -0.3218
 2511SOL    HW118995   1.995   3.751   4.244  0.7915  0.5056  0.7267
 2511SOL    HW218996   2.074   3.830   4.163  1.4414 -0.9215 -2.1196
 2512SOL     OW18997   3.446   0.609   3.059 -0.3507 -0.1281  0.1868
 2512SOL    HW118998   3.403   0.695   3.059 -0.2756 -0.0918 -0.0797
 2512SOL    HW218999   3.424   0.580   2.971 -2.0021 -0.3447  0.6651
 2513SOL     OW19000   2.213   2.783   1.551 -0.2728  0.8687 -0.0784
 2513SOL    HW119001   2.183   2.760   1.463 -1.2551 -1.0063  0.7433
 2513SOL    HW219002   2.247   2.871   1.537  1.8265  0.1874  0.8085
 2514SOL     OW19003   0.192   0.517   5.550  0.3000  0.0933  0.2049
 2514SOL    HW119004   0.221   0.529   5.640  3.0571  0.3805 -0.7249
 2514SOL    HW219005   0.103   0.484   5.561  0.0515  0.3565 -1.0480
 2515SOL     OW19006   0.389   4.052   4.918 -0.0985  1.0613  0.1635
 2515SOL    HW119007   0.419   4.139   4.893  1.3500  0.6968  0.6161
 2515SOL    HW219008   0.297   4.077   4.924 -0.8099 -1.4640  0.0079
 2516SOL     OW19009   3.574   4.182   6.011  0.1345 -0.2124  0.2843
 2516SOL    HW119010   3.652   4.228   6.042 -0.6979  0.2227  1.7134
 2516SOL    HW219011   3.525   4.248   5.962 -0.9975  0.0350  1.7725
 2517SOL     OW19012   3.606   3.075   8.698 -0.1572 -0.9147  0.4076
 2517SOL    HW119013   3.573   3.083   8.787 -0.0183  2.2441  0.1864
 2517SOL    HW219014   3.591   2.983   8.679 -0.7138 -0.7821  0.1936
 2518SOL     OW19015   1.326   2.682   9.090 -0.7107  0.2366 -0.1869
 2518SOL    HW119016   1.419   2.662   9.081 -0.9131 -0.1355 -1.4041
 2518SOL    HW219017   1.331   2.690   9.185  0.5019 -3.0944  0.0118
 2519SOL     OW19018   2.259   4.198   3.408 -0.1511  0.1451  0.0596
 2519SOL    HW119019   2.346   4.183   3.443  0.0180  0.2260 -0.3203
 2519SOL    HW219020   2.211   4.178   3.489 -0.6374  0.3337 -0.1780
 2520SOL     OW19021   2.201   1.958   6.981 -0.0219 -0.4590  0.4625
 2520SOL    HW119022   2.187   1.869   7.014 -1.5339  0.2690  1.7774
 2520SOL    HW219023   2.112   1.990   6.991  0.5365  1.0908  0.4375
 2521SOL     OW19024   2.702   2.975  17.091  0.0857  0.0290 -0.5558
 2521SOL    HW119025   2.679   3.050  17.035 -0.5127  1.0211  1.0149
 2521SOL    HW219026   2.631   2.967  17.155 -0.4021  0.2296 -1.0603
 2522SOL     OW19027   3.817   1.758   3.538 -0.0213 -0.2583  0.5884
 2522SOL    HW119028   3.907   1.729   3.522 -0.7564 -1.3717 -1.5584
 2522SOL    HW219029   3.769   1.675   3.535 -0.7559  0.1913 -0.4038
 2523SOL     OW19030   4.258   2.134   1.002  0.2260 -0.3503  0.0955
 2523SOL    HW119031   4.163   2.142   1.009  0.3582  0.1540  1.3869
 2523SOL    HW219032   4.267   2.058   0.945 -0.6394 -1.1764  1.0597
 2524SOL     OW19033   0.369   3.673   6.832 -0.4403  0.4338  0.4150
 2524SOL    HW119034   0.428   3.599   6.819  1.6636  1.4569  4.2881
 2524SOL    HW219035   0.351   3.657   6.925 -1.1531  1.4426  0.4552
 2525SOL     OW19036   3.006   0.576  13.202  0.1959 -0.2738  0.2113
 2525SOL    HW119037   3.047   0.515  13.264  1.7360  1.3261  0.7468
 2525SOL    HW219038   2.966   0.504  13.152 -0.7333  0.5666 -0.2469
 2526SOL     OW19039   0.413   2.411   7.129  0.7187  0.7975  0.0793
 2526SOL    HW119040   0.410   2.422   7.224  0.7773  0.3944  0.1289
 2526SOL    HW219041   0.503   2.388   7.105 -0.1246 -3.1832  0.7672
 2527SOL     OW19042   4.718   0.497  17.241  0.0964  0.4284 -0.3183
 2527SOL    HW119043   4.645   0.435  17.249 -0.1122  0.8254  0.8683
 2527SOL    HW219044   0.047   0.478  17.318 -1.1277  0.2198  0.4713
 2528SOL     OW19045   4.357   3.637   8.490  0.4994 -0.6863  0.4699
 2528SOL    HW119046   4.361   3.619   8.396 -0.1364 -0.2977  0.3714
 2528SOL    HW219047   4.384   3.728   8.492 -1.1197 -0.1994  0.2974
 2529SOL     OW19048   1.789   2.184   8.025  0.2391  0.0401 -0.1605
 2529SOL    HW119049   1.784   2.219   8.114  0.2361 -0.8103  0.1778
 2529SOL    HW219050   1.868   2.131   8.031  0.6446  0.6635 -0.0948
 2530SOL     OW19051   3.924   4.604   2.431  0.7794  0.1035 -0.5254
 2530SOL    HW119052   3.851   4.568   2.381 -1.7374  4.3308  0.0667
 2530SOL    HW219053   3.913   4.561   2.515  1.7216 -1.7969 -1.3734
 2531SOL     OW19054   1.754   1.294   2.884 -0.4867 -0.2641  0.1342
 2531SOL    HW119055   1.804   1.335   2.813  0.2499 -0.0634  0.7649
 2531SOL    HW219056   1.722   1.371   2.930  0.6043 -1.6044  3.1314
 2532SOL     OW19057   0.864   3.890   3.294 -0.0852 -0.2934  0.8389
 2532SOL    HW119058   0.806   3.881   3.369 -1.8249  1.0749 -0.3290
 2532SOL    HW219059   0.810   3.852   3.225  0.6614 -0.4085  0.3120
 2533SOL     OW19060   0.873   3.504  11.123  0.4492 -0.7638  0.0147
 2533SOL    HW119061   0.794   3.540  11.082 -0.5272 -1.0441  1.6414
 2533SOL    HW219062   0.834   3.424  11.158  3.4458 -2.4087 -0.4338
 2534SOL     OW19063   3.840   2.334   8.925 -0.2921  0.1704  0.0952
 2534SOL    HW119064   3.876   2.329   9.014 -1.6906 -1.4061  0.5649
 2534SOL    HW219065   3.807   2.247   8.903  1.0026 -0.0430 -0.9807
 2535SOL     OW19066   3.939   0.121  11.600  0.3231  0.8228  0.2651
 2535SOL    HW119067   3.937   0.082  11.688  1.3756  1.5379  0.6060
 2535SOL    HW219068   3.853   0.163  11.611 -0.5811 -1.0520  0.3294
 2536SOL     OW19069   2.526   2.253  10.062  0.2915  0.0414 -0.4361
 2536SOL    HW119070   2.548   2.242   9.970 -1.2463 -0.2721 -0.7674
 2536SOL    HW219071   2.457   2.319  10.054  2.1020  1.7242 -2.0577
 2537SOL     OW19072   3.756   1.565   6.507  0.3504  0.0255 -0.2388
 2537SOL    HW119073   3.731   1.656   6.496 -1.2776 -0.0603  2.6868
 2537SOL    HW219074   3.675   1.515   6.511 -0.2616  1.0384 -0.0962
 2538SOL     OW19075   3.966   4.240   3.877  0.2585 -0.1249  0.3905
 2538SOL    HW119076   3.965   4.307   3.946  0.6219 -0.6507  0.9059
 2538SOL    HW219077   3.915   4.166   3.909  0.4238 -0.3264  0.1885
 2539SOL     OW19078   4.643   1.256  12.336  0.0455 -0.4476  0.3692
 2539SOL    HW119079   4.567   1.314  12.333  1.2084  1.0600 -0.2708
 2539SOL    HW219080   4.649   1.246  12.431 -1.0786  1.1306  0.6204
 2540SOL     OW19081   3.743   0.344   6.659  0.2930  0.6164  0.4229
 2540SOL    HW119082   3.818   0.286   6.673  0.4849  0.5739 -0.8152
 2540SOL    HW219083   3.779   0.432   6.648 -0.4965  1.0195  1.0358
 2541SOL     OW19084   4.289   1.735   1.219  0.5035  1.0388 -0.4837
 2541SOL    HW119085   4.359   1.696   1.168 -0.7817 -1.4761 -0.2886
 2541SOL    HW219086   4.262   1.657   1.266  0.3009  0.7613 -1.0663
 2542SOL     OW19087   0.614   0.002   2.241 -0.2380 -0.7178 -0.6224
 2542SOL    HW119088   0.680   4.672   2.284 -0.1636  0.2452  0.4840
 2542SOL    HW219089   0.566   4.660   2.191 -1.5254  0.6511 -1.2132
 2543SOL     OW19090   0.114   1.436   3.067  0.3511 -0.5265  0.4537
 2543SOL    HW119091   0.041   1.488   3.034 -0.1209 -0.4812  1.5821
 2543SOL    HW219092   0.116   1.449   3.161  0.5336  0.6116  0.2885
 2544SOL     OW19093   4.617   2.101  16.679  0.6820  0.0595 -0.1883
 2544SOL    HW119094   4.630   2.053  16.598 -4.1144  2.4371 -2.3822
 2544SOL    HW219095   4.675   2.053  16.737  0.6513 -1.0667 -1.1030
 2545SOL     OW19096   3.277   0.639  11.017 -0.6275 -0.3695  0.0235
 2545SOL    HW119097   3.263   0.628  10.922 -1.5023 -0.0945  0.1159
 2545SOL    HW219098   3.333   0.564  11.037 -2.6042 -1.9975 -0.4768
 2546SOL     OW19099   0.185   2.911   8.643 -0.3993  0.1231  0.4361
 2546SOL    HW119100   0.154   2.885   8.730  2.1284 -2.6420  0.5011
 2546SOL    HW219101   0.139   2.856   8.580  2.2703 -0.8394 -0.6502
 2547SOL     OW19102   1.320   0.725  15.004 -0.0966 -0.1664 -0.5442
 2547SOL    HW119103   1.358   0.691  14.924 -2.1194  0.7178 -1.8858
 2547SOL    HW219104   1.390   0.768  15.052 -1.9707  1.2531  0.9401
 2548SOL     OW19105   3.276   3.598   3.111  0.1692 -0.0681  0.1550
 2548SOL    HW119106   3.213   3.588   3.182  1.1900 -1.9849  0.8176
 2548SOL    HW219107   3.287   3.693   3.112 -0.1772 -0.0189 -1.3394
 2549SOL     OW19108   4.315   1.714   7.168  0.3324  0.7143 -0.0482
 2549SOL    HW119109   4.346   1.626   7.191 -0.2729  0.3512 -0.6523
 2549SOL    HW219110   4.269   1.697   7.086 -0.5192  0.8651  0.3970
 2550SOL     OW19111   2.220   3.059   1.992 -0.1473  0.4162 -0.4822
 2550SOL    HW119112   2.187   3.136   1.946 -0.5578  1.1901  1.1025
 2550SOL    HW219113   2.221   2.989   1.927 -1.0163 -1.2791  1.3199
 2551SOL     OW19114   0.287   2.002   2.218 -0.3080 -0.7371  0.1789
 2551SOL    HW119115   0.340   1.968   2.146  0.3771  1.6580 -0.4576
 2551SOL    HW219116   0.303   2.096   2.216  1.4264 -1.0588 -1.0137
 2552SOL     OW19117   0.503   4.043   3.591  0.2209  0.4479 -0.7998
 2552SOL    HW119118   0.498   4.040   3.687  0.5738 -0.6043 -0.8127
 2552SOL    HW219119   0.522   4.134   3.571 -0.4825  0.6615 -0.5062
 2553SOL     OW19120   3.126   4.487   8.424  0.1967  0.1329  0.1431
 2553SOL    HW119121   3.142   4.399   8.457 -0.7362 -0.6087 -1.3671
 2553SOL    HW219122   3.187   4.541   8.474  0.8277 -0.2486 -0.2244
 2554SOL     OW19123   0.811   2.256  10.219  0.0618 -0.0167  0.0286
 2554SOL    HW119124   0.782   2.249  10.310  1.9866 -1.0139  0.5814
 2554SOL    HW219125   0.907   2.248  10.223 -0.2310 -2.7830  1.1855
 2555SOL     OW19126   3.264   4.410   6.800 -0.0161  0.0468 -0.1911
 2555SOL    HW119127   3.256   4.316   6.786  0.2557  0.0391 -0.2963
 2555SOL    HW219128   3.317   4.445   6.728  1.0067 -1.4483 -0.1663
 2556SOL     OW19129   0.316   3.416  14.610  0.0968 -0.0365 -0.1327
 2556SOL    HW119130   0.237   3.440  14.561 -1.4625 -2.5770  1.1622
 2556SOL    HW219131   0.296   3.324  14.620  0.8509 -0.2844 -0.8494
 2557SOL     OW19132   2.836   0.176   6.743 -0.6915 -0.1797  0.4818
 2557SOL    HW119133   2.923   0.161   6.779  0.6177  0.4463 -2.3664
 2557SOL    HW219134   2.788   0.125   6.808 -2.2830 -0.7766 -1.1451
 2558SOL     OW19135   1.259   2.681   3.931  0.1674 -0.1739  0.1832
 2558SOL    HW119136   1.253   2.587   3.917  1.2852  0.1175 -2.3205
 2558SOL    HW219137   1.336   2.697   3.985  0.0054 -2.0908  0.9854
 2559SOL     OW19138   3.457   2.732   4.374  0.6199 -0.1419 -0.3359
 2559SOL    HW119139   3.514   2.662   4.343 -0.0719 -0.7611 -0.2102
 2559SOL    HW219140   3.481   2.801   4.312 -3.2726  2.0342  0.5852
 2560SOL     OW19141   2.130   3.254   3.287  0.0223  0.1990 -0.3270
 2560SOL    HW119142   2.090   3.168   3.286 -0.2698  0.3314  0.6770
 2560SOL    HW219143   2.197   3.227   3.223  0.3068 -0.1830  0.1368
 2561SOL     OW19144   3.564   1.633   6.879  0.5346  0.1555 -0.0129
 2561SOL    HW119145   3.652   1.613   6.909  1.0461  1.1744 -0.7994
 2561SOL    HW219146   3.503   1.568   6.913 -1.1630  1.4547 -0.4998
 2562SOL     OW19147   0.551   4.386   2.426  0.1786 -0.1545  0.1764
 2562SOL    HW119148   0.567   4.335   2.506  0.8384 -0.3174 -0.0621
 2562SOL    HW219149   0.534   4.474   2.461  1.3870 -0.2359  0.9918
 2563SOL     OW19150   2.551   1.604   3.057  0.2773 -0.4287  0.4328
 2563SOL    HW119151   2.643   1.594   3.035 -0.1558 -2.3632 -0.4912
 2563SOL    HW219152   2.519   1.516   3.037 -2.3530  0.2819  1.4664
 2564SOL     OW19153   1.338   2.395  16.415 -0.0008 -0.0007 -0.4404
 2564SOL    HW119154   1.281   2.471  16.419  0.4508  0.3555 -0.7827
 2564SOL    HW219155   1.305   2.347  16.491  0.4071 -1.1439 -0.9859
 2565SOL     OW19156   3.661   3.721   2.797  0.0506 -0.6066 -0.0279
 2565SOL    HW119157   3.651   3.626   2.789  0.2318 -0.4735 -1.7247
 2565SOL    HW219158   3.748   3.741   2.763  0.1156 -1.1098 -0.1517
 2566SOL     OW19159   3.139   1.515  11.972  0.0973 -0.2678  0.1722
 2566SOL    HW119160   3.068   1.578  11.957  1.1340 -0.0310 -3.9798
 2566SOL    HW219161   3.130   1.534  12.065 -1.7931 -0.7970  0.1075
 2567SOL     OW19162   3.124   3.892   2.303 -0.0603 -0.2189  0.4110
 2567SOL    HW119163   3.190   3.905   2.371 -0.7584 -1.5017  1.3289
 2567SOL    HW219164   3.149   3.961   2.242  0.2337  0.6462  1.4999
 2568SOL     OW19165   3.267   1.389  12.353 -0.2677 -0.7567  0.1234
 2568SOL    HW119166   3.201   1.397  12.422  0.9520  0.1265  1.1719
 2568SOL    HW219167   3.306   1.476  12.347  0.0187 -0.7746  1.8525
 2569SOL     OW19168   1.772   1.484   6.006  0.1038 -0.0015 -0.1349
 2569SOL    HW119169   1.710   1.494   6.077  1.3890 -0.2249  1.0151
 2569SOL    HW219170   1.720   1.534   5.942  2.8421 -0.2885 -2.6271
 2570SOL     OW19171   2.954   3.965   8.407  0.9410  0.8231 -0.0387
 2570SOL    HW119172   2.997   3.929   8.329  0.0826  0.7656 -0.4878
 2570SOL    HW219173   2.869   3.922   8.401  0.9903  1.3135 -4.3420
 2571SOL     OW19174   2.133   4.723   5.968  0.1817  0.5524 -0.3683
 2571SOL    HW119175   2.136   4.634   6.003 -1.1152  0.5386 -0.3125
 2571SOL    HW219176   2.040   0.017   5.979  0.0639 -0.0522 -0.3946
 2572SOL     OW19177   0.597   4.719   7.164 -0.2220  0.3751  0.2172
 2572SOL    HW119178   0.579   0.089   7.171 -2.6014  0.0687 -1.6853
 2572SOL    HW219179   0.584   4.707   7.070 -2.2590  0.6395  0.4741
 2573SOL     OW19180   1.010   1.680  13.687  0.6118  0.0400 -0.1485
 2573SOL    HW119181   0.955   1.636  13.752 -0.1373  2.9071  1.1659
 2573SOL    HW219182   1.100   1.670  13.718  0.1226 -0.0446  1.2620
 2574SOL     OW19183   1.163   3.277   8.014  0.2999 -0.5657  0.1191
 2574SOL    HW119184   1.218   3.201   8.033  2.3906  1.0265  0.3432
 2574SOL    HW219185   1.076   3.239   8.028 -0.1749  0.6053  0.3264
 2575SOL     OW19186   3.920   4.593   4.395  0.1181  0.4276 -0.0082
 2575SOL    HW119187   3.983   4.521   4.402 -0.6346 -0.3935 -1.7932
 2575SOL    HW219188   3.855   4.559   4.456  0.5130  2.1583  1.3650
 2576SOL     OW19189   0.224   2.950   0.007  0.0699 -0.3973  0.4892
 2576SOL    HW119190   0.185   2.905   0.083 -1.1424  0.2032  0.2168
 2576SOL    HW219191   0.219   2.881  17.638 -2.5910  1.3604 -1.1434
 2577SOL     OW19192   4.316   2.728   3.605 -0.5741  0.4617  0.6420
 2577SOL    HW119193   4.296   2.805   3.657 -0.9685  0.4447  0.5187
 2577SOL    HW219194   4.362   2.677   3.672 -0.0756 -1.4136 -1.1328
 2578SOL     OW19195   4.518   0.661   0.454 -0.1493 -0.6357 -0.3160
 2578SOL    HW119196   4.498   0.601   0.383 -2.6255  0.3592 -0.4481
 2578SOL    HW219197   4.596   0.621   0.493  0.4546 -0.7396 -1.6228
 2579SOL     OW19198   0.482   0.447   4.185 -0.6279 -0.0597  0.1359
 2579SOL    HW119199   0.439   0.495   4.114  0.3224 -0.4043 -0.6818
 2579SOL    HW219200   0.547   0.410   4.125 -0.7096  1.5559 -0.9386
 2580SOL     OW19201   2.301   2.886   4.787 -0.4056  0.5880 -0.5886
 2580SOL    HW119202   2.338   2.935   4.860 -0.5261  1.6640 -1.2540
 2580SOL    HW219203   2.345   2.934   4.716  0.7614  0.0971 -0.2028
 2581SOL     OW19204   1.020   3.630   8.402 -1.1764  0.1269  0.1760
 2581SOL    HW119205   1.046   3.539   8.384 -1.1879  0.2076 -0.2403
 2581SOL    HW219206   0.956   3.632   8.331  0.0649 -0.0586 -0.9730
 2582SOL     OW19207   4.338   3.962   9.772 -0.2873 -0.1789 -0.3516
 2582SOL    HW119208   4.300   4.022   9.837 -1.7062  0.9849 -2.2494
 2582SOL    HW219209   4.292   3.882   9.798  1.4937 -0.9249  0.5081
 2583SOL     OW19210   1.938   1.175   8.118 -0.0125  0.3550 -0.0210
 2583SOL    HW119211   2.001   1.124   8.169  1.1209 -2.4594 -4.2724
 2583SOL    HW219212   1.949   1.151   8.026  1.0678 -0.1414  0.2433
 2584SOL     OW19213   0.059   1.673  17.184 -0.2354  0.6020 -0.1729
 2584SOL    HW119214   0.016   1.728  17.118  1.8973  1.0090 -1.2264
 2584SOL    HW219215   0.069   1.741  17.252  0.7633 -0.9826  1.2607
 2585SOL     OW19216   0.404   4.714  14.962  0.0359  0.3561 -0.0608
 2585SOL    HW119217   0.453   4.657  15.022  0.2627  0.5439 -0.0698
 2585SOL    HW219218   0.425   0.079  14.989 -0.2553  0.9804 -1.8891
 2586SOL     OW19219   2.823   1.767   5.553 -0.3116  0.5071  0.2460
 2586SOL    HW119220   2.800   1.775   5.646  2.4178  2.0126  0.7914
 2586SOL    HW219221   2.838   1.672   5.550  0.8668  0.7591 -1.5124
 2587SOL     OW19222   3.111   2.957   4.533  0.3016  0.5090  0.0432
 2587SOL    HW119223   3.205   2.977   4.535  0.6539 -0.9626 -2.4038
 2587SOL    HW219224   3.112   2.862   4.546 -0.1511  0.6071  0.8017
 2588SOL     OW19225   3.700   1.794  11.183 -0.2888  0.7795 -0.0691
 2588SOL    HW119226   3.764   1.724  11.176 -0.1152  0.9484 -0.1752
 2588SOL    HW219227   3.630   1.745  11.225  0.5677 -0.6186 -0.2765
 2589SOL     OW19228   2.173   0.378  14.242  0.1007  0.0521  0.3563
 2589SOL    HW119229   2.101   0.342  14.191  2.8229 -2.8993 -1.3628
 2589SOL    HW219230   2.128   0.391  14.325 -0.1386 -1.0353  0.3949
 2590SOL     OW19231   3.776   3.092   7.825 -0.3755 -0.0549  0.5933
 2590SOL    HW119232   3.787   3.125   7.915  1.3141 -1.3486  0.8707
 2590SOL    HW219233   3.683   3.078   7.808 -0.0384  1.5156 -2.5063
 2591SOL     OW19234   4.341   2.699  16.082  0.9609  0.4100  0.3052
 2591SOL    HW119235   4.332   2.744  16.166  2.0773  0.5401  0.3586
 2591SOL    HW219236   4.289   2.621  16.102 -0.5343  1.5670  0.9156
 2592SOL     OW19237   3.671   0.482   7.572 -0.6350  0.6174  0.8558
 2592SOL    HW119238   3.712   0.477   7.658  1.1663 -0.5767 -0.0824
 2592SOL    HW219239   3.725   0.419   7.525 -2.7286 -1.2012  0.9064
 2593SOL     OW19240   4.612   0.579   2.389  0.2829 -0.1036  0.1774
 2593SOL    HW119241   4.672   0.506   2.406 -0.5046 -0.3584  1.9596
 2593SOL    HW219242   4.674   0.626   2.334 -0.8805  2.0241  0.7058
 2594SOL     OW19243   3.722   1.516   3.466 -0.0246  0.0063  0.3168
 2594SOL    HW119244   3.737   1.427   3.497 -2.4528 -0.8708 -1.0343
 2594SOL    HW219245   3.725   1.503   3.371 -0.9692 -0.5796  0.3640
 2595SOL     OW19246   1.651   1.691  11.037 -0.0677  0.3719 -0.4438
 2595SOL    HW119247   1.591   1.676  11.110  0.7210 -1.0459 -0.0743
 2595SOL    HW219248   1.733   1.712  11.081 -0.4804 -1.2548  1.1090
 2596SOL     OW19249   1.768   3.413   9.524 -0.2162  0.2356  0.3296
 2596SOL    HW119250   1.859   3.431   9.504 -0.8523  1.5255 -1.3686
 2596SOL    HW219251   1.733   3.501   9.540  0.0426  0.2018  1.0975
 2597SOL     OW19252   4.654   2.874   4.628 -0.2714  0.4908  0.0137
 2597SOL    HW119253   4.651   2.944   4.694  1.4504 -0.8138  1.5100
 2597SOL    HW219254   4.571   2.829   4.643  0.4995 -1.1986 -0.8040
 2598SOL     OW19255   2.764   2.342   3.198  0.0805 -0.3820  0.2674
 2598SOL    HW119256   2.809   2.257   3.200 -1.1899 -1.1114 -2.6509
 2598SOL    HW219257   2.801   2.381   3.277 -0.3834  2.6243 -1.0254
 2599SOL     OW19258   2.495   4.498   2.936 -0.2368  0.5166  0.2621
 2599SOL    HW119259   2.431   4.453   2.880  0.4044 -0.7724  0.5708
 2599SOL    HW219260   2.579   4.462   2.906 -0.4840  0.2961 -0.1674
 2600SOL     OW19261   3.426   1.736  15.977 -0.4672 -0.8173 -0.2269
 2600SOL    HW119262   3.470   1.739  16.062  0.3716  0.1705 -0.7024
 2600SOL    HW219263   3.430   1.821  15.933  0.9617 -0.6561  0.2008
 2601SOL     OW19264   2.609   4.521   4.024 -0.0057  0.4086  0.4986
 2601SOL    HW119265   2.611   4.598   4.081  0.6268  0.4931  0.3687
 2601SOL    HW219266   2.687   4.475   4.056  0.4269  1.3167  0.7382
 2602SOL     OW19267   2.290   1.353  16.709  0.6263  0.0724 -0.3268
 2602SOL    HW119268   2.207   1.384  16.743  0.9798  0.3347  0.2981
 2602SOL    HW219269   2.300   1.407  16.631  2.7904 -0.4363 -0.4178
 2603SOL     OW19270   4.636   2.984   8.343  0.2822  1.1266  0.1216
 2603SOL    HW119271   4.687   2.932   8.404 -0.2828 -0.2161 -0.5488
 2603SOL    HW219272   4.580   3.042   8.394 -0.9662 -0.4254  0.4782
 2604SOL     OW19273   3.646   0.763  11.381  0.3683 -0.0352 -0.8443
 2604SOL    HW119274   3.668   0.756  11.288  1.0388  1.6652 -0.8238
 2604SOL    HW219275   3.569   0.820  11.384  0.0042 -0.6044  0.6311
 2605SOL     OW19276   1.494   2.399  13.415 -1.2208 -0.0783  0.4506
 2605SOL    HW119277   1.496   2.456  13.338 -0.1751 -0.5321  0.1439
 2605SOL    HW219278   1.445   2.456  13.475  0.2503 -0.9131  2.4341
 2606SOL     OW19279   4.302   2.374  10.460 -0.1022 -0.4569  0.3468
 2606SOL    HW119280   4.254   2.295  10.484  0.4055 -1.2755 -1.3603
 2606SOL    HW219281   4.389   2.338  10.445 -0.8598 -1.1057 -2.5546
 2607SOL     OW19282   4.593   1.544  16.278 -0.1573  0.6336  0.2864
 2607SOL    HW119283   4.682   1.547  16.313  0.4060 -2.1598 -0.9432
 2607SOL    HW219284   4.588   1.463  16.228 -1.0084 -0.2621  1.8138
 2608SOL     OW19285   2.008   3.510   7.341 -0.2221 -0.1137 -0.0592
 2608SOL    HW119286   2.056   3.590   7.323 -0.4141 -0.5426 -2.4744
 2608SOL    HW219287   1.921   3.546   7.360  0.2661  0.4344  1.1603
 2609SOL     OW19288   2.896   3.810  13.960  0.1515 -0.8356  0.4386
 2609SOL    HW119289   2.859   3.846  14.041  0.9848  1.7906 -0.3415
 2609SOL    HW219290   2.983   3.781  13.988  0.9510 -1.2153 -2.4373
 2610SOL     OW19291   0.056   1.845   5.476 -0.1669  0.3102  0.3470
 2610SOL    HW119292   0.151   1.859   5.478  0.1848 -1.9110 -0.7782
 2610SOL    HW219293   0.018   1.933   5.473 -0.1274  0.3300  0.4197
 2611SOL     OW19294   3.184   1.470   5.394  0.1347 -0.2770  0.1157
 2611SOL    HW119295   3.239   1.531   5.345  0.4059 -1.9004 -1.5648
 2611SOL    HW219296   3.244   1.402   5.424 -0.7590 -0.2360  1.9994
 2612SOL     OW19297   1.398   0.543   5.194  0.6280  0.1042  0.3948
 2612SOL    HW119298   1.473   0.496   5.231 -1.1477 -2.2887  0.9452
 2612SOL    HW219299   1.448   0.624   5.207  0.4727  0.6333 -2.3588
 2613SOL     OW19300   2.134   1.878   0.530  0.1728  0.3696  0.2330
 2613SOL    HW119301   2.041   1.870   0.508  0.2984  1.3224 -0.6419
 2613SOL    HW219302   2.158   1.942   0.463  0.2880  0.8304  0.7111
 2614SOL     OW19303   4.144   0.685   5.994  0.7056 -0.3169  0.6636
 2614SOL    HW119304   4.156   0.606   5.940 -0.4536  0.8992 -1.3805
 2614SOL    HW219305   4.191   0.666   6.075 -1.5389 -0.1549  1.9970
 2615SOL     OW19306   2.414   2.593  11.891 -0.7426 -0.2967  0.1503
 2615SOL    HW119307   2.448   2.661  11.949  0.0351  0.2325 -0.9114
 2615SOL    HW219308   2.428   2.510  11.935 -1.3689 -0.1887  0.5562
 2616SOL     OW19309   0.778   3.422   6.225  0.1914  0.4095 -0.0280
 2616SOL    HW119310   0.835   3.345   6.233  0.7868  0.7684 -0.8352
 2616SOL    HW219311   0.790   3.471   6.306  1.1312 -0.2354  0.2252
 2617SOL     OW19312   3.553   1.709  10.634  0.2810 -0.0585 -0.1470
 2617SOL    HW119313   3.614   1.763  10.684 -1.2547  1.0313  0.5447
 2617SOL    HW219314   3.502   1.670  10.704  2.3391  0.1434  1.4725
 2618SOL     OW19315   0.139   0.480  11.735 -0.1235  0.4801 -0.2840
 2618SOL    HW119316   0.059   0.437  11.706  1.9589 -2.1317 -2.1763
 2618SOL    HW219317   0.147   0.436  11.821 -1.7685 -0.3706 -0.5671
 2619SOL     OW19318   3.529   2.990   7.840 -0.1874 -0.4036  0.4416
 2619SOL    HW119319   3.450   2.951   7.803  0.4488 -0.9054 -0.4053
 2619SOL    HW219320   3.548   2.921   7.904 -1.7514 -0.9876  0.2634
 2620SOL     OW19321   4.037   3.150   6.495  0.4689 -0.1080  0.6776
 2620SOL    HW119322   4.120   3.105   6.479  0.4116  0.0379  0.0011
 2620SOL    HW219323   3.993   3.151   6.410 -0.4602  0.7249  1.1640
 2621SOL     OW19324   3.748   3.178   0.251  0.5824 -0.5860  0.3058
 2621SOL    HW119325   3.733   3.114   0.320  1.5998 -1.2138 -0.0480
 2621SOL    HW219326   3.839   3.199   0.274  0.4054  1.2733 -0.6657
 2622SOL     OW19327   1.113   3.134   6.500 -0.8277 -0.2232 -0.3980
 2622SOL    HW119328   1.185   3.197   6.494 -0.4066 -0.6848 -0.1133
 2622SOL    HW219329   1.104   3.146   6.595 -0.8024 -0.3295 -0.3826
 2623SOL     OW19330   4.327   3.886  14.173  0.5105 -0.2917  0.2217
 2623SOL    HW119331   4.243   3.850  14.201 -0.2254  2.1567  1.1259
 2623SOL    HW219332   4.301   3.977  14.161  1.1515 -0.1778 -0.3490
 2624SOL     OW19333   3.134   3.508  13.283  0.4645  0.8975  0.1333
 2624SOL    HW119334   3.207   3.568  13.268  1.7158  0.1906  3.3083
 2624SOL    HW219335   3.081   3.541  13.211  2.1534 -1.8902 -2.3585
 2625SOL     OW19336   1.118   0.375   7.201 -0.6961  0.4768  0.2619
 2625SOL    HW119337   1.023   0.369   7.216 -0.6677  0.6306  0.4947
 2625SOL    HW219338   1.156   0.370   7.288  0.7036 -0.3001 -0.3989
 2626SOL     OW19339   1.318   2.307  16.077  0.5056 -0.2315  0.1197
 2626SOL    HW119340   1.282   2.367  16.011  0.9291 -0.5039 -0.3585
 2626SOL    HW219341   1.246   2.313  16.140 -0.6224 -1.2558 -1.0838
 2627SOL     OW19342   1.797   2.017   5.471  0.3899  0.5101 -0.2580
 2627SOL    HW119343   1.757   2.041   5.387  1.4756  1.0748 -0.6210
 2627SOL    HW219344   1.771   2.092   5.525 -0.5431  0.2448 -0.3410
 2628SOL     OW19345   1.989   3.924   3.538 -0.1638 -0.0492  0.3784
 2628SOL    HW119346   2.081   3.907   3.556  0.3365  1.9463 -0.3500
 2628SOL    HW219347   1.949   3.847   3.580 -0.2199  0.7067  1.7034
 2629SOL     OW19348   1.541   3.704   9.141 -0.0931 -0.2699  0.1102
 2629SOL    HW119349   1.509   3.688   9.230 -1.4266 -0.7998 -0.4630
 2629SOL    HW219350   1.634   3.684   9.152  0.7153  2.3491 -1.8694
 2630SOL     OW19351   2.865   2.213   8.298  0.1366  0.2031 -0.0351
 2630SOL    HW119352   2.899   2.295   8.336  2.0100 -0.7423  0.3340
 2630SOL    HW219353   2.884   2.154   8.371 -0.4897  0.6229  0.4697
 2631SOL     OW19354   1.224   3.591   9.239 -0.5821 -0.2628  0.2501
 2631SOL    HW119355   1.223   3.687   9.246 -0.4905 -0.1845 -0.8455
 2631SOL    HW219356   1.193   3.567   9.326  0.1274 -0.0174  0.5740
 2632SOL     OW19357   3.839   3.010  10.134 -0.2262 -0.2134  0.0553
 2632SOL    HW119358   3.874   3.026  10.046 -2.6197  1.8951 -0.4811
 2632SOL    HW219359   3.906   3.064  10.178 -0.1440 -0.0776 -0.2384
 2633SOL     OW19360   2.364   3.796   8.683  0.0448 -0.1464 -0.1162
 2633SOL    HW119361   2.289   3.852   8.663  0.9000  0.2057 -2.3961
 2633SOL    HW219362   2.336   3.779   8.773 -0.4418 -1.0852 -0.4372
 2634SOL     OW19363   1.565   4.322   3.376 -1.2155  0.7966 -0.0164
 2634SOL    HW119364   1.641   4.278   3.414 -2.0397 -1.6789 -1.2184
 2634SOL    HW219365   1.541   4.267   3.302 -0.0548  2.7353 -1.7997
 2635SOL     OW19366   0.611   4.384   5.943  0.1756  0.6860  0.3344
 2635SOL    HW119367   0.627   4.458   5.885 -0.3954  1.4088  1.0976
 2635SOL    HW219368   0.517   4.366   5.941  0.5339 -0.8389 -1.8037
 2636SOL     OW19369   2.628   3.910  12.870 -0.5385  0.0986  0.3779
 2636SOL    HW119370   2.619   3.819  12.900  0.6179 -0.6263 -1.4367
 2636SOL    HW219371   2.649   3.967  12.944  0.6920  0.7769 -0.5123
 2637SOL     OW19372   0.186   1.561   8.105 -0.3550  0.2223  0.0176
 2637SOL    HW119373   0.190   1.493   8.172  0.2756 -2.2714 -2.5833
 2637SOL    HW219374   0.246   1.531   8.036 -0.2553  2.4688 -0.8760
 2638SOL     OW19375   2.816   1.092   2.527  0.0420 -1.1139  0.5400
 2638SOL    HW119376   2.722   1.077   2.524 -0.7057  3.4429  1.2441
 2638SOL    HW219377   2.808   1.174   2.575  0.3221 -1.5390  1.3117
 2639SOL     OW19378   3.908   2.942  15.962  0.1611  0.0078 -0.3396
 2639SOL    HW119379   3.932   3.032  15.940 -2.4396  0.6839 -0.4978
 2639SOL    HW219380   3.912   2.947  16.057  0.7431  1.6585 -0.4516
 2640SOL     OW19381   3.411   0.792  15.597 -0.0455  0.0254  0.3302
 2640SOL    HW119382   3.367   0.740  15.530  0.5830  0.2575 -0.2599
 2640SOL    HW219383   3.479   0.836  15.546  0.0880  0.6760  1.0676
 2641SOL     OW19384   4.280   1.562   3.093  0.4369 -0.2169 -0.2028
 2641SOL    HW119385   4.326   1.536   3.173 -0.4333 -0.9193  0.0668
 2641SOL    HW219386   4.321   1.512   3.022  1.3954 -1.9049  1.5309
 2642SOL     OW19387   0.528   0.894   9.920 -0.7476  0.0671  0.8435
 2642SOL    HW119388   0.595   0.857   9.864 -0.2340  1.9726  0.1974
 2642SOL    HW219389   0.584   0.947   9.977  0.0546  1.1154 -0.9298
 2643SOL     OW19390   4.163   4.308   7.053  0.3587 -0.1924 -0.4317
 2643SOL    HW119391   4.123   4.229   7.016 -1.0248 -1.0749  2.8738
 2643SOL    HW219392   4.143   4.369   6.983  0.8677 -0.6038 -0.9313
 2644SOL     OW19393   3.030   3.963   7.559  0.0528  0.2288 -0.9186
 2644SOL    HW119394   2.953   3.996   7.606  0.8956 -0.4789  0.9388
 2644SOL    HW219395   3.026   3.870   7.579  1.2872  0.0758 -1.3805
 2645SOL     OW19396   4.022   1.651   5.243 -0.3432 -0.2821  0.5632
 2645SOL    HW119397   4.080   1.575   5.242 -0.4580 -0.3797  1.3451
 2645SOL    HW219398   4.009   1.659   5.337 -0.7112 -3.3867  0.7891
 2646SOL     OW19399   0.426   1.725   7.268 -0.7626 -0.0550 -0.5580
 2646SOL    HW119400   0.359   1.692   7.208 -0.2103 -1.3821 -0.4509
 2646SOL    HW219401   0.392   1.812   7.288 -0.3872  0.5229 -2.4222
 2647SOL     OW19402   0.720   0.235   2.360  0.0997  0.3694 -0.2324
 2647SOL    HW119403   0.675   0.153   2.340 -0.5569 -0.0671  2.9360
 2647SOL    HW219404   0.714   0.261   2.269  2.5767  3.4149  0.4604
 2648SOL     OW19405   2.349   3.159   2.441  0.0853 -0.5579  0.1207
 2648SOL    HW119406   2.338   3.064   2.436 -0.4238 -0.5713  1.4041
 2648SOL    HW219407   2.288   3.186   2.372 -0.2524  0.3976  0.7816
 2649SOL     OW19408   3.487   2.794  10.976 -0.2239 -0.1334 -0.6230
 2649SOL    HW119409   3.460   2.788  11.067 -1.8101 -0.6155 -1.1239
 2649SOL    HW219410   3.508   2.704  10.949  4.0522  0.7367 -0.1922
 2650SOL     OW19411   1.223   4.341   7.828  0.0247  0.1683  0.4363
 2650SOL    HW119412   1.257   4.320   7.915 -0.7705 -0.9003  0.4867
 2650SOL    HW219413   1.210   4.252   7.798  1.1443  0.3927 -0.6860
 2651SOL     OW19414   3.312   0.645   5.802  0.0945 -0.2198 -0.2986
 2651SOL    HW119415   3.339   0.604   5.884 -1.3133 -0.1317  0.2157
 2651SOL    HW219416   3.244   0.583   5.774 -0.3277  0.3835 -0.6284
 2652SOL     OW19417   2.847   4.283   9.020  0.8117 -0.2976  0.1371
 2652SOL    HW119418   2.843   4.210   9.081 -0.8755  0.2970  0.7351
 2652SOL    HW219419   2.932   4.323   9.039  0.3340  1.0363 -0.5216
 2653SOL     OW19420   1.805   0.588   7.889 -0.1492  0.1025  0.1266
 2653SOL    HW119421   1.844   0.514   7.843  2.7289  1.5452  0.2169
 2653SOL    HW219422   1.717   0.599   7.852  1.9953 -1.0346 -5.3119
 2654SOL     OW19423   4.176   2.634  16.762  0.6199  0.5745 -0.0827
 2654SOL    HW119424   4.232   2.595  16.829  0.1039 -1.3311 -0.7596
 2654SOL    HW219425   4.167   2.726  16.787  1.3511  0.0051  2.2690
 2655SOL     OW19426   2.967   0.087   2.575 -0.2448 -0.3072 -0.2435
 2655SOL    HW119427   3.025   0.086   2.651  0.0869 -1.2827 -0.5069
 2655SOL    HW219428   2.881   0.096   2.616 -0.5410  1.1633 -1.1684
 2656SOL     OW19429   0.475   2.362   6.664 -0.8758  0.3440  0.2234
 2656SOL    HW119430   0.472   2.336   6.572  1.6401  1.5611 -0.2003
 2656SOL    HW219431   0.422   2.300   6.714 -3.4229  3.7275  1.6035
 2657SOL     OW19432   2.220   3.213   5.273 -0.2322 -0.4678  0.8711
 2657SOL    HW119433   2.258   3.184   5.355 -0.9376 -0.9075  1.0468
 2657SOL    HW219434   2.295   3.202   5.215 -1.3844  0.9234 -0.8930
 2658SOL     OW19435   3.094   2.281   3.830  0.3460  0.1947 -0.5756
 2658SOL    HW119436   3.009   2.324   3.844  0.9696  1.6572 -1.2685
 2658SOL    HW219437   3.106   2.314   3.741  0.2867  0.9531 -0.3047
 2659SOL     OW19438   3.730   3.439   0.163  0.4651  0.1094 -0.1758
 2659SOL    HW119439   3.766   3.358   0.198 -0.4348  0.3863  1.4036
 2659SOL    HW219440   3.765   3.504   0.225 -0.2957  1.5401 -1.2431
 2660SOL     OW19441   2.994   4.129   9.309 -0.6338 -0.0263  0.1754
 2660SOL    HW119442   3.050   4.203   9.330  0.2614 -1.0701  1.5019
 2660SOL    HW219443   2.924   4.159   9.367  0.1755  1.1907  0.5194
 2661SOL     OW19444   0.478   4.536  11.596 -0.4689  0.0296  0.6709
 2661SOL    HW119445   0.389   4.571  11.603 -0.5950 -0.1644  0.0931
 2661SOL    HW219446   0.485   4.482  11.675  1.5300  0.6387  0.9028
 2662SOL     OW19447   1.635   2.942  17.108  0.3509 -0.2833 -0.8749
 2662SOL    HW119448   1.573   2.869  17.113  0.7217 -0.6994 -2.3745
 2662SOL    HW219449   1.616   2.968  17.018 -0.2139  1.8902 -0.1369
 2663SOL     OW19450   4.062   1.741   7.031  0.0626  0.0751 -0.3914
 2663SOL    HW119451   4.055   1.772   6.941 -0.0393  0.6767 -0.1778
 2663SOL    HW219452   4.014   1.808   7.080 -0.2606 -1.4188  1.3321
 2664SOL     OW19453   4.308   1.339   4.979  0.1451  0.2666  0.5723
 2664SOL    HW119454   4.372   1.351   4.909 -0.0322  0.3735  0.4279
 2664SOL    HW219455   4.334   1.255   5.017 -0.9994 -1.3686 -2.2573
 2665SOL     OW19456   3.400   2.800   2.136 -0.4863 -0.3740  0.3195
 2665SOL    HW119457   3.440   2.715   2.119 -0.9675 -0.4100 -0.6366
 2665SOL    HW219458   3.433   2.845   2.058  0.2727 -1.0216  0.2689
 2666SOL     OW19459   3.944   3.824   3.876  0.5563  0.4438 -0.0146
 2666SOL    HW119460   3.993   3.806   3.957 -0.9146 -2.0513  0.3455
 2666SOL    HW219461   3.886   3.890   3.912 -1.2252 -0.4728 -1.2137
 2667SOL     OW19462   0.403   3.112   2.538 -0.0715 -0.7113  0.2070
 2667SOL    HW119463   0.421   3.023   2.507  0.4811 -0.4330 -0.2727
 2667SOL    HW219464   0.491   3.146   2.526 -0.8502  1.1374 -0.2206
 2668SOL     OW19465   3.618   1.808   8.271  0.4204  0.2857 -0.2679
 2668SOL    HW119466   3.616   1.902   8.288  0.6701  0.5514 -1.6924
 2668SOL    HW219467   3.677   1.775   8.338 -0.1775 -2.6647 -1.2166
 2669SOL     OW19468   4.526   1.803  14.545 -0.5290 -0.3343  0.3677
 2669SOL    HW119469   4.597   1.856  14.508 -1.4702 -0.0745 -1.0502
 2669SOL    HW219470   4.565   1.742  14.607 -2.4947 -0.2474  1.6866
 2670SOL     OW19471   4.484   4.381   9.803 -0.1071  0.4078  0.4168
 2670SOL    HW119472   4.568   4.379   9.756 -0.6603 -1.2813 -0.4594
 2670SOL    HW219473   4.510   4.341   9.887 -2.3379  0.3310  1.0527
 2671SOL     OW19474   2.150   4.428   4.196 -0.1833  0.6984 -0.0607
 2671SOL    HW119475   2.058   4.439   4.220 -0.4297 -1.2337 -0.0832
 2671SOL    HW219476   2.199   4.505   4.225  1.8507 -0.7217  0.2601
 2672SOL     OW19477   3.996   4.504   8.064  0.4975  0.3182  0.5997
 2672SOL    HW119478   4.071   4.449   8.038 -0.2180 -1.1744  1.6914
 2672SOL    HW219479   3.965   4.434   8.121 -1.8594 -0.2173 -1.3709
 2673SOL     OW19480   3.655   3.847   1.048  0.7101  0.2187  0.1687
 2673SOL    HW119481   3.721   3.897   1.000 -0.0007  0.2866 -0.7332
 2673SOL    HW219482   3.622   3.914   1.107 -0.2013  0.6791 -0.8667
 2674SOL     OW19483   1.890   4.310   2.862  0.0413  0.3354 -0.1357
 2674SOL    HW119484   1.891   4.371   2.788  1.8317  1.2192  0.6077
 2674SOL    HW219485   1.805   4.327   2.902 -1.3397  0.0326 -2.9930
 2675SOL     OW19486   1.910   3.415   5.437  0.6415 -0.0023  0.1110
 2675SOL    HW119487   1.912   3.410   5.341 -2.2186  1.7470 -0.0295
 2675SOL    HW219488   1.937   3.326   5.461 -1.2411 -1.2499 -2.3984
 2676SOL     OW19489   3.049   3.573   6.016 -0.2046 -0.0877  0.5855
 2676SOL    HW119490   3.122   3.624   6.051 -0.2136  0.1047  0.3233
 2676SOL    HW219491   3.094   3.546   5.936 -2.2952  3.1103 -1.6340
 2677SOL     OW19492   0.541   1.290   4.278 -0.3224  0.3858  0.1482
 2677SOL    HW119493   0.537   1.241   4.196 -2.0095  2.9634 -1.3201
 2677SOL    HW219494   0.453   1.271   4.311 -0.4815 -1.9654 -1.6134
 2678SOL     OW19495   0.408   0.942  13.847 -0.2038 -0.0340 -0.0718
 2678SOL    HW119496   0.475   1.010  13.844 -0.3515  0.0214 -1.9983
 2678SOL    HW219497   0.396   0.925  13.754 -1.3482  1.3817 -0.1856
 2679SOL     OW19498   4.033   0.854   3.277  0.5269 -0.1953 -0.2619
 2679SOL    HW119499   4.071   0.784   3.330 -1.1865 -1.2614 -0.4340
 2679SOL    HW219500   3.940   0.830   3.277  0.4339  0.1637  0.5113
 2680SOL     OW19501   0.524   3.227   3.284  0.0173 -0.3669  0.3153
 2680SOL    HW119502   0.576   3.174   3.345  1.4929  0.3649 -0.2921
 2680SOL    HW219503   0.590   3.236   3.215  0.1693  0.8180  0.6083
 2681SOL     OW19504   3.146   3.752  14.836 -0.3217 -0.2855 -0.0835
 2681SOL    HW119505   3.193   3.770  14.918  3.9498  2.8148 -3.2040
 2681SOL    HW219506   3.074   3.813  14.826 -1.7515 -1.4470  3.1979
 2682SOL     OW19507   0.825   3.701  16.737 -0.3979 -0.2668 -0.3201
 2682SOL    HW119508   0.836   3.782  16.788  3.2369 -1.9756  1.5879
 2682SOL    HW219509   0.752   3.657  16.781  0.7767  0.0062  1.9280
 2683SOL     OW19510   2.863   0.545   4.234 -0.7001  0.5277  0.1286
 2683SOL    HW119511   2.872   0.553   4.329 -0.5992  1.7527  0.0219
 2683SOL    HW219512   2.897   0.629   4.204 -0.2572 -0.5284 -2.3446
 2684SOL     OW19513   0.827   0.334   0.910  0.4885  0.1529 -0.0723
 2684SOL    HW119514   0.916   0.369   0.901  0.5118 -0.4679 -2.1170
 2684SOL    HW219515   0.769   0.408   0.929 -1.0300 -1.0019 -0.2505
 2685SOL     OW19516   1.039   1.577  11.297  0.0390 -0.6307 -0.0812
 2685SOL    HW119517   0.990   1.631  11.359 -0.0208 -1.1588  0.3287
 2685SOL    HW219518   1.130   1.602  11.312 -0.2231 -0.9693  2.0901
 2686SOL     OW19519   3.326   4.265   6.189 -0.4541  0.0986  0.4176
 2686SOL    HW119520   3.297   4.327   6.255 -1.5456  0.0184  0.0118
 2686SOL    HW219521   3.409   4.308   6.165 -0.2916 -0.4590 -0.0271
 2687SOL     OW19522   0.145   4.220   6.512  0.6374 -0.7559 -0.2915
 2687SOL    HW119523   0.178   4.202   6.424  1.2337  0.6735 -0.3581
 2687SOL    HW219524   0.060   4.176   6.517  1.0695 -1.4547  0.8694
 2688SOL     OW19525   2.301   3.046   7.519  0.8463 -0.6349 -0.3644
 2688SOL    HW119526   2.343   3.115   7.571 -0.1521 -0.4697  0.2153
 2688SOL    HW219527   2.220   3.030   7.567 -0.9538 -0.3362 -3.3446
 2689SOL     OW19528   3.436   3.477  10.413 -0.1801 -0.0639  0.1717
 2689SOL    HW119529   3.507   3.419  10.386  0.2480  0.7270 -0.3986
 2689SOL    HW219530   3.415   3.438  10.498 -0.1318 -1.7713 -0.6011
 2690SOL     OW19531   0.927   4.525  10.622 -0.8880  0.6130  0.3731
 2690SOL    HW119532   0.897   4.513  10.532 -0.0302 -3.6391  0.6635
 2690SOL    HW219533   0.974   4.442  10.627 -1.0998  0.4969  0.4626
 2691SOL     OW19534   0.424   2.521   5.074  0.0439  0.1958  0.0467
 2691SOL    HW119535   0.517   2.547   5.071  0.5113 -1.4624  0.2144
 2691SOL    HW219536   0.386   2.593   5.024  1.2841  0.6303 -0.2845
 2692SOL     OW19537   0.326   0.136   2.965 -0.0078  0.0527 -0.0794
 2692SOL    HW119538   0.310   0.050   3.003  2.3239  0.3983  1.6637
 2692SOL    HW219539   0.420   0.143   2.984  0.0623 -0.8099 -0.1258
 2693SOL     OW19540   0.861   0.112   3.896  0.0953  0.5472  0.1871
 2693SOL    HW119541   0.941   0.161   3.915 -0.9579  1.3278  2.7121
 2693SOL    HW219542   0.786   0.172   3.893 -0.5789 -0.4046 -1.6357
 2694SOL     OW19543   1.937   3.050  17.373 -0.3192 -0.0656  0.0339
 2694SOL    HW119544   1.937   3.144  17.394 -1.6536  0.6047 -2.9563
 2694SOL    HW219545   2.030   3.030  17.362 -0.7123 -0.1911 -3.0768
 2695SOL     OW19546   3.084   3.046   3.561  0.5716  0.1305 -0.0264
 2695SOL    HW119547   3.139   2.973   3.589  2.1829  0.7150 -1.6811
 2695SOL    HW219548   3.030   3.061   3.638 -0.6878  0.9004 -1.0561
 2696SOL     OW19549   4.665   4.707   6.821 -0.2230  0.3796 -0.1598
 2696SOL    HW119550   0.021   4.657   6.838 -1.5295 -2.5548 -2.5342
 2696SOL    HW219551   4.708   0.059   6.783 -0.6044  0.5856 -0.1848
 2697SOL     OW19552   2.337   3.530   3.300  0.3300 -0.5749  0.3458
 2697SOL    HW119553   2.257   3.487   3.331  0.4228 -0.3916  0.8448
 2697SOL    HW219554   2.319   3.548   3.208 -1.0579  0.1990  0.7751
 2698SOL     OW19555   0.833   0.282   4.173 -0.2007 -0.5686  0.7394
 2698SOL    HW119556   0.811   0.368   4.208  3.5106  0.6823  0.0176
 2698SOL    HW219557   0.775   0.283   4.097  0.5775 -2.4057  0.1069
 2699SOL     OW19558   1.115   3.984   8.592 -0.6708 -0.2905  0.2767
 2699SOL    HW119559   1.130   3.889   8.598 -2.0221 -0.4643  0.8419
 2699SOL    HW219560   1.166   4.016   8.667 -0.9342 -0.8693  0.7058
 2700SOL     OW19561   1.546   4.548   6.227 -0.1379 -0.1041  0.0396
 2700SOL    HW119562   1.546   4.548   6.323 -3.1342  4.0071  0.0003
 2700SOL    HW219563   1.608   4.615   6.199 -0.5476 -0.1621 -1.0093
 2701SOL     OW19564   3.527   1.613  16.926 -0.5099 -1.0025 -0.4925
 2701SOL    HW119565   3.594   1.661  16.975 -1.5580 -2.1029  2.0269
 2701SOL    HW219566   3.541   1.522  16.952 -0.0754 -1.0896 -1.0423
 2702SOL     OW19567   4.476   3.332  11.325 -0.4905  0.4012 -0.0099
 2702SOL    HW119568   4.462   3.396  11.395  0.2676  0.6530 -0.0862
 2702SOL    HW219569   4.443   3.374  11.246 -1.3789  0.1024  0.2026
 2703SOL     OW19570   2.260   2.254   4.981 -0.3554  0.1420  0.5896
 2703SOL    HW119571   2.171   2.220   4.992  0.4515 -1.3660  2.4443
 2703SOL    HW219572   2.312   2.175   4.973 -3.4560 -1.9681  1.4415
 2704SOL     OW19573   0.679   1.844   9.155  0.1817 -0.1719  0.1295
 2704SOL    HW119574   0.693   1.936   9.176  1.5757 -0.3113 -0.1532
 2704SOL    HW219575   0.596   1.828   9.200  0.2045  0.2822  0.3323
 2705SOL     OW19576   1.289   2.762   5.764  0.5818 -0.4222 -0.2962
 2705SOL    HW119577   1.365   2.713   5.733 -0.1062 -1.2004 -0.7566
 2705SOL    HW219578   1.298   2.751   5.859 -3.1556 -2.7329 -0.2038
 2706SOL     OW19579   1.950   2.522  16.756  0.5198  0.2945  0.5067
 2706SOL    HW119580   1.906   2.486  16.679 -1.9822  0.2454  1.9413
 2706SOL    HW219581   1.886   2.509  16.826  0.0547 -2.4762 -0.4327
 2707SOL     OW19582   4.511   3.569  15.006  0.1032  0.0805  0.1595
 2707SOL    HW119583   4.550   3.636  15.063 -1.4965  2.6026 -1.6930
 2707SOL    HW219584   4.585   3.510  15.017  0.0997  0.0132 -0.1805
 2708SOL     OW19585   2.465   2.762   7.134  0.4320  0.1423 -0.0545
 2708SOL    HW119586   2.518   2.800   7.063  2.4325 -2.7113 -0.0868
 2708SOL    HW219587   2.474   2.669   7.117 -3.6198  0.0671 -1.8416
 2709SOL     OW19588   2.317   1.549   9.730  0.5408  0.2721  0.5657
 2709SOL    HW119589   2.409   1.528   9.745  0.0337 -2.9398 -0.7366
 2709SOL    HW219590   2.267   1.476   9.768  3.1951 -1.6192  0.4519
 2710SOL     OW19591   0.443   1.110   3.577  0.7214  0.1655  0.3750
 2710SOL    HW119592   0.489   1.131   3.496  0.8391  1.8457  0.8820
 2710SOL    HW219593   0.432   1.015   3.575 -2.0088  0.4423  1.9564
 2711SOL     OW19594   2.577   3.825   9.492 -0.1827  0.5465 -0.8120
 2711SOL    HW119595   2.644   3.825   9.560 -0.9831 -0.1368 -0.0263
 2711SOL    HW219596   2.545   3.735   9.485  2.1796 -0.1648 -2.3670
 2712SOL     OW19597   1.896   1.894   8.615 -0.2444  0.6009 -0.2770
 2712SOL    HW119598   1.944   1.864   8.538 -1.0036  1.2980 -1.0215
 2712SOL    HW219599   1.809   1.910   8.580  0.1546  1.2633 -0.9642
 2713SOL     OW19600   1.562   1.998  16.599 -0.2988  0.2136 -0.3530
 2713SOL    HW119601   1.490   1.971  16.542 -0.1386 -0.8409 -0.0653
 2713SOL    HW219602   1.616   2.046  16.536  1.0553  0.2043  0.7904
 2714SOL     OW19603   2.983   1.477  14.006  0.3099 -0.3953  0.3955
 2714SOL    HW119604   3.058   1.435  14.047  0.7768  0.0922  0.0458
 2714SOL    HW219605   2.971   1.412  13.938 -1.2407 -0.4542  0.7145
 2715SOL     OW19606   2.983   3.945  13.037  0.3366 -0.2788  0.3086
 2715SOL    HW119607   2.994   4.004  13.112  1.1755 -0.8755  0.6466
 2715SOL    HW219608   2.892   3.965  13.015  0.7061  0.6644 -0.3636
 2716SOL     OW19609   0.054   1.488  14.433  0.3854  0.1378  0.3799
 2716SOL    HW119610   0.094   1.466  14.517 -0.1964 -1.7636  0.1682
 2716SOL    HW219611   0.114   1.557  14.406 -0.2624  1.1871  1.6066
 2717SOL     OW19612   1.946   0.578   6.221  0.0891 -0.1365 -0.2671
 2717SOL    HW119613   1.969   0.668   6.243 -0.6787 -0.3540  1.3925
 2717SOL    HW219614   1.952   0.576   6.125 -2.7588 -0.8702 -0.4234
 2718SOL     OW19615   4.473   2.963   7.166  0.1783  0.4851 -0.1187
 2718SOL    HW119616   4.388   2.993   7.135  0.4329 -0.3636 -1.6557
 2718SOL    HW219617   4.493   2.903   7.094  1.3687 -0.1522  0.7387
 2719SOL     OW19618   1.674   2.217   4.461  0.7327 -0.4000  0.4207
 2719SOL    HW119619   1.585   2.201   4.490  0.9430 -0.2846  1.1288
 2719SOL    HW219620   1.716   2.234   4.546 -0.4821 -0.7214  1.0764
 2720SOL     OW19621   1.707   2.257  16.782  0.4841  0.7066  0.0444
 2720SOL    HW119622   1.737   2.304  16.704  0.7372 -0.4117 -0.5197
 2720SOL    HW219623   1.724   2.335  16.835  3.7378  0.5988 -0.8244
 2721SOL     OW19624   4.437   0.915   4.231  0.6079 -0.1150 -0.2250
 2721SOL    HW119625   4.456   0.848   4.166 -2.0249 -1.0477 -0.0297
 2721SOL    HW219626   4.463   0.995   4.186  0.3679  0.8096  1.2650
 2722SOL     OW19627   2.258   0.881  15.092  0.4043 -0.7707  0.3209
 2722SOL    HW119628   2.202   0.952  15.059 -0.2917 -1.2275  0.5187
 2722SOL    HW219629   2.289   0.917  15.175  1.8800  1.1958 -1.0944
 2723SOL     OW19630   4.353   3.210   5.956 -0.2486 -0.4565 -0.0285
 2723SOL    HW119631   4.421   3.162   6.003  2.1119  0.4586 -2.4639
 2723SOL    HW219632   4.301   3.131   5.943  1.5248 -1.1626 -2.7620
 2724SOL     OW19633   4.641   1.473   2.339 -0.2628 -0.1416  0.3365
 2724SOL    HW119634   4.641   1.388   2.382  0.5157 -1.2030 -1.8032
 2724SOL    HW219635   4.635   1.529   2.417  1.3793 -0.5856  0.7895
 2725SOL     OW19636   3.466   1.674   3.828 -0.2711 -0.4702  0.3447
 2725SOL    HW119637   3.543   1.682   3.884 -2.3938 -0.6835  3.2744
 2725SOL    HW219638   3.402   1.736   3.863  1.0710  1.0063  0.1483
 2726SOL     OW19639   4.092   2.635   7.527 -0.2205 -0.3456  0.4794
 2726SOL    HW119640   4.092   2.609   7.619  1.2014  0.0664  0.6040
 2726SOL    HW219641   4.163   2.699   7.528  1.1227 -1.8223  0.3498
 2727SOL     OW19642   2.663   1.288  15.865  0.0371 -0.1120  0.0542
 2727SOL    HW119643   2.756   1.268  15.857  0.4764  1.7076  0.5970
 2727SOL    HW219644   2.625   1.202  15.849  1.0848 -0.7276  0.9071
 2728SOL     OW19645   1.017   2.032  10.218 -0.1479 -0.6354 -0.1404
 2728SOL    HW119646   1.081   2.088  10.260  0.3879  0.5227 -2.4836
 2728SOL    HW219647   0.998   2.085  10.140  0.5426  1.3363  1.0552
 2729SOL     OW19648   3.392   3.481   7.293 -0.4129  0.0360  0.4260
 2729SOL    HW119649   3.481   3.488   7.329 -0.4425 -0.9597  0.6887
 2729SOL    HW219650   3.408   3.492   7.199  1.3645  0.3813  0.7596
 2730SOL     OW19651   2.267   1.297  14.297 -0.9062  0.2572 -0.6253
 2730SOL    HW119652   2.341   1.352  14.272  1.7985 -2.3903  1.5603
 2730SOL    HW219653   2.278   1.220  14.241 -0.3909  1.2224 -1.8697
 2731SOL     OW19654   1.571   4.579   0.534 -0.2111 -0.1817 -0.3149
 2731SOL    HW119655   1.614   4.554   0.452  0.9155  1.4495 -0.2354
 2731SOL    HW219656   1.647   4.612   0.581  0.7114 -2.5759 -0.1530
 2732SOL     OW19657   3.586   2.522  17.659  0.1901  0.0316  0.0646
 2732SOL    HW119658   3.505   2.516   0.012 -0.3690  0.2254 -0.8114
 2732SOL    HW219659   3.634   2.593   0.005 -0.5680  0.8994 -0.5222
 2733SOL     OW19660   0.337   0.625  16.887  0.0942 -0.5544  0.4741
 2733SOL    HW119661   0.323   0.572  16.965 -1.5640  0.5539  0.9302
 2733SOL    HW219662   0.393   0.696  16.918  0.7003  0.9893 -4.1014
 2734SOL     OW19663   1.154   0.740   2.771  0.5971  0.4229  0.5962
 2734SOL    HW119664   1.145   0.766   2.863  3.0270  1.6497  0.5048
 2734SOL    HW219665   1.237   0.783   2.749  1.1780 -1.6507 -1.3147
 2735SOL     OW19666   0.915   0.941   7.276 -0.1914 -0.1194  0.8027
 2735SOL    HW119667   0.998   0.902   7.250  1.0147  1.5893  2.0140
 2735SOL    HW219668   0.852   0.886   7.230  0.6494 -0.7833  0.4506
 2736SOL     OW19669   1.826   3.648   8.655  0.3530 -0.3907 -0.6133
 2736SOL    HW119670   1.862   3.729   8.691  0.2512  0.2648 -1.9773
 2736SOL    HW219671   1.761   3.693   8.601 -1.4975 -1.7215  0.5105
 2737SOL     OW19672   1.050   3.007   7.323  0.2083  0.1560 -0.3831
 2737SOL    HW119673   1.128   3.030   7.374  0.8297  2.0917 -2.1837
 2737SOL    HW219674   1.014   2.938   7.379 -0.7425  0.4565 -0.6225
 2738SOL     OW19675   4.362   0.329   7.893 -0.2200 -0.1536 -0.2356
 2738SOL    HW119676   4.363   0.305   7.985 -1.7828 -1.4951 -0.5669
 2738SOL    HW219677   4.270   0.312   7.874 -0.1317 -1.7222  0.7650
 2739SOL     OW19678   0.994   2.358   7.734 -0.3413 -0.2926 -0.1653
 2739SOL    HW119679   1.003   2.281   7.678  2.7169 -0.0051 -0.0902
 2739SOL    HW219680   0.972   2.310   7.815  1.0730  0.9469  0.9580
 2740SOL     OW19681   1.753   0.620   4.309  0.2101  0.0600 -0.5438
 2740SOL    HW119682   1.660   0.638   4.322  0.6100  1.9361 -0.2951
 2740SOL    HW219683   1.788   0.694   4.259  2.5713 -0.5623  0.1936
 2741SOL     OW19684   0.053   0.808   1.944  0.3645 -0.0138  0.3448
 2741SOL    HW119685   0.033   0.900   1.928  1.1816  0.0351 -0.3908
 2741SOL    HW219686   0.085   0.768   1.863 -2.0965  0.8096 -1.0258
 2742SOL     OW19687   3.369   0.319   1.834 -0.3162 -0.4171  0.6889
 2742SOL    HW119688   3.274   0.327   1.842 -0.3660 -0.6233  0.3060
 2742SOL    HW219689   3.384   0.350   1.744  0.9510 -1.0029  0.7080
 2743SOL     OW19690   1.890   3.120   2.719 -0.4629 -0.4960  0.0878
 2743SOL    HW119691   1.959   3.186   2.718 -0.1186 -0.8609 -1.4367
 2743SOL    HW219692   1.925   3.059   2.784 -1.8440 -1.0203  0.3366
 2744SOL     OW19693   1.839   3.334   1.485 -0.9995  0.4373 -0.3446
 2744SOL    HW119694   1.871   3.282   1.559 -2.2839 -1.0325 -0.8227
 2744SOL    HW219695   1.862   3.423   1.511  0.7389 -0.0705 -0.1546
 2745SOL     OW19696   3.671   0.385  14.031  0.1970  0.1625 -0.4504
 2745SOL    HW119697   3.744   0.326  14.010  1.5473  2.0255 -0.9944
 2745SOL    HW219698   3.714   0.470  14.038  0.3868  0.2035 -2.2060
 2746SOL     OW19699   2.106   3.697   6.150 -0.0363  0.1557 -0.1375
 2746SOL    HW119700   2.188   3.733   6.114  0.1503 -1.9745 -1.8679
 2746SOL    HW219701   2.071   3.639   6.083  0.6649  0.2980 -0.6290
 2747SOL     OW19702   3.744   0.420  15.371  0.0730  0.4011 -0.5918
 2747SOL    HW119703   3.719   0.513  15.369 -0.4710  0.2554 -0.7390
 2747SOL    HW219704   3.740   0.394  15.279 -0.7910  1.7983 -0.9567
 2748SOL     OW19705   0.310   1.692   4.558 -0.5109  0.4292 -0.8271
 2748SOL    HW119706   0.222   1.662   4.581  0.7862 -3.6343 -1.1924
 2748SOL    HW219707   0.360   1.624   4.603  0.5169  0.7617 -1.4653
 2749SOL     OW19708   4.251   1.982  15.698 -0.1914  0.3740  0.3182
 2749SOL    HW119709   4.210   2.053  15.649  0.2700 -0.8213 -1.7971
 2749SOL    HW219710   4.290   1.926  15.630  0.8728  0.4835  0.8427
 2750SOL     OW19711   4.520   1.578  10.707 -0.1091 -0.2071 -0.5516
 2750SOL    HW119712   4.574   1.649  10.671  1.0341 -1.0455 -0.4970
 2750SOL    HW219713   4.508   1.514  10.637  2.8433 -1.8810  0.4823
 2751SOL     OW19714   3.367   3.304   5.634 -0.2702 -0.0285  0.1330
 2751SOL    HW119715   3.295   3.334   5.579 -1.5543  0.8312  2.3169
 2751SOL    HW219716   3.442   3.359   5.609 -1.3113  0.8187 -1.1192
 2752SOL     OW19717   0.004   0.898  17.669 -0.8580 -0.3925 -0.1059
 2752SOL    HW119718   0.024   0.831   0.038 -2.2752  0.7001  1.4311
 2752SOL    HW219719   0.024   0.847  17.590 -1.6329 -0.6875 -0.1089
 2753SOL     OW19720   1.567   0.605   5.469  0.1870  0.5089 -0.3076
 2753SOL    HW119721   1.596   0.571   5.385 -0.5010  0.8327 -0.6764
 2753SOL    HW219722   1.594   0.535   5.528  1.1886  0.0287 -1.3331
 2754SOL     OW19723   1.634   3.934  14.479  0.1817 -0.2648 -0.3849
 2754SOL    HW119724   1.610   3.844  14.458  0.5304 -0.4152 -0.1288
 2754SOL    HW219725   1.550   3.978  14.496 -0.2702 -0.1600 -2.9018
 2755SOL     OW19726   4.583   3.619   4.200  0.1457 -0.2908 -0.0408
 2755SOL    HW119727   4.599   3.614   4.105 -1.8409 -1.1360 -0.3400
 2755SOL    HW219728   4.673   3.621   4.231 -0.5638 -1.0490  2.0388
 2756SOL     OW19729   4.195   2.064   9.047  0.1340  0.0193 -0.0907
 2756SOL    HW119730   4.279   2.104   9.025  0.4082  0.5558  1.9772
 2756SOL    HW219731   4.155   2.091   8.964  2.2042 -0.4822 -1.2713
 2757SOL     OW19732   3.139   2.996   7.563  0.0128 -0.3680  0.2559
 2757SOL    HW119733   3.048   3.014   7.541  0.4024  0.8218 -0.3609
 2757SOL    HW219734   3.177   3.082   7.546  0.3733 -0.1643  2.0288
 2758SOL     OW19735   0.895   0.548  13.274  0.3091 -0.1771  0.3508
 2758SOL    HW119736   0.838   0.613  13.315 -0.1328 -0.6329  0.4700
 2758SOL    HW219737   0.976   0.568  13.321 -0.2608 -0.8899  1.6348
 2759SOL     OW19738   1.259   1.584   4.233 -0.1750  0.2094 -0.0549
 2759SOL    HW119739   1.266   1.490   4.217 -0.5264 -0.2789  2.7365
 2759SOL    HW219740   1.353   1.602   4.229 -0.1639  0.2471  0.3483
 2760SOL     OW19741   2.705   2.373  15.072 -0.1384 -0.0330 -0.7965
 2760SOL    HW119742   2.704   2.462  15.105  0.5820 -1.2950  2.5882
 2760SOL    HW219743   2.745   2.378  14.985  0.6735  1.5231 -0.3186
 2761SOL     OW19744   3.450   1.749  11.514  0.1212 -0.5462 -0.0603
 2761SOL    HW119745   3.360   1.720  11.527 -1.1000  2.8721 -1.1374
 2761SOL    HW219746   3.461   1.741  11.420  0.2048 -0.4779 -0.0562
 2762SOL     OW19747   0.964   2.110   2.103  0.5250  0.1761  0.3389
 2762SOL    HW119748   0.958   2.171   2.176 -2.8786  2.0009 -1.4673
 2762SOL    HW219749   0.872   2.097   2.081  0.5523  0.5519  0.0012
 2763SOL     OW19750   3.961   2.241   5.727  0.4594  0.3402 -0.5644
 2763SOL    HW119751   4.048   2.278   5.713  1.4072 -0.6144  2.7958
 2763SOL    HW219752   3.924   2.297   5.658 -2.4918 -3.3049 -1.9920
 2764SOL     OW19753   4.073   3.934   1.997 -0.0548 -0.1866 -0.4620
 2764SOL    HW119754   4.091   4.008   1.938 -0.1516  0.6989  0.6167
 2764SOL    HW219755   4.018   3.882   1.939 -0.2417 -1.9184  1.2934
 2765SOL     OW19756   0.665   0.618   7.608 -0.1908 -0.0023  0.0966
 2765SOL    HW119757   0.609   0.695   7.609  0.3206  0.3886 -1.8256
 2765SOL    HW219758   0.694   0.622   7.517 -2.2817 -4.5890 -0.7672
 2766SOL     OW19759   2.649   1.814   6.403 -0.2908 -0.4299 -0.3603
 2766SOL    HW119760   2.563   1.798   6.365  0.6227  0.0355 -2.6099
 2766SOL    HW219761   2.706   1.819   6.327 -1.3788  1.0649 -1.0823
 2767SOL     OW19762   3.882   3.842   2.704  0.5266  0.3067  0.0822
 2767SOL    HW119763   3.975   3.820   2.702  0.5341  0.2294  1.1959
 2767SOL    HW219764   3.876   3.932   2.737  0.4061  1.0239 -1.9400
 2768SOL     OW19765   1.567   3.286   1.440 -0.1437 -0.4613  0.1852
 2768SOL    HW119766   1.660   3.295   1.460 -0.0351 -1.5939  0.2104
 2768SOL    HW219767   1.571   3.221   1.370 -2.0636 -1.4193  0.9578
 2769SOL     OW19768   3.722   1.166  10.730 -0.1171 -0.8149  0.1622
 2769SOL    HW119769   3.736   1.123  10.814 -0.3251 -2.0273 -0.4253
 2769SOL    HW219770   3.788   1.123  10.675  0.6516  1.5042 -0.7366
 2770SOL     OW19771   1.993   3.711  17.035  0.6013 -0.1077  0.7757
 2770SOL    HW119772   1.945   3.668  16.964 -1.0027  1.7032  0.7757
 2770SOL    HW219773   1.988   3.800  16.999  0.5349  0.1138  1.3412
 2771SOL     OW19774   0.278   0.231   6.008 -0.2581  0.0187 -0.0062
 2771SOL    HW119775   0.212   0.225   5.939 -0.3689  0.2111  0.0841
 2771SOL    HW219776   0.232   0.257   6.088  1.2134  0.7559  0.5904
 2772SOL     OW19777   3.464   1.044   4.712 -0.5566  0.1695  0.0656
 2772SOL    HW119778   3.461   1.110   4.643  0.9967 -0.5673 -0.7067
 2772SOL    HW219779   3.559   1.040   4.719 -0.4649  1.5722 -0.3929
 2773SOL     OW19780   2.205   0.764   6.050 -0.2758  0.0942 -0.4376
 2773SOL    HW119781   2.222   0.718   5.968 -0.3859 -0.1575 -0.3170
 2773SOL    HW219782   2.274   0.724   6.103  2.0095  0.2690 -3.2717
 2774SOL     OW19783   2.102   1.385   5.119  0.1356  0.4662  0.1865
 2774SOL    HW119784   2.071   1.321   5.184 -0.8718  0.2572 -0.5170
 2774SOL    HW219785   2.054   1.465   5.142 -0.7179  0.0550 -0.1679
 2775SOL     OW19786   2.278   1.932   2.174 -0.1062  0.0695 -0.2056
 2775SOL    HW119787   2.233   2.016   2.182  1.4034  0.9379 -0.7615
 2775SOL    HW219788   2.318   1.947   2.088  0.3813  0.5189  0.0984
 2776SOL     OW19789   1.395   3.815  17.435  0.1209  0.4358 -0.2483
 2776SOL    HW119790   1.389   3.729  17.392 -0.1485 -0.1714  0.9827
 2776SOL    HW219791   1.303   3.842  17.429 -0.3655 -1.1093  0.0754
 2777SOL     OW19792   3.301   2.158   3.913 -0.1509 -0.3017  0.2727
 2777SOL    HW119793   3.214   2.188   3.887  0.2196 -0.3571 -1.0266
 2777SOL    HW219794   3.278   2.137   4.003 -4.0016 -0.8401 -0.8498
 2778SOL     OW19795   0.178   4.372  14.308  0.7726 -0.2504 -0.1371
 2778SOL    HW119796   0.230   4.401  14.233  1.4435 -1.2173 -0.0514
 2778SOL    HW219797   0.123   4.300  14.276  1.2786 -1.1211  0.9540
 2779SOL     OW19798   2.446   0.285   2.959  0.1850 -0.0568  0.4172
 2779SOL    HW119799   2.476   0.203   2.921 -2.2916 -0.5146 -0.5510
 2779SOL    HW219800   2.522   0.318   3.006 -1.4699  0.4611  2.7555
 2780SOL     OW19801   0.923   1.245   5.350 -0.3073 -0.3965  0.3420
 2780SOL    HW119802   0.876   1.228   5.432  0.9661 -0.0009  1.1438
 2780SOL    HW219803   0.981   1.315   5.377  0.7179 -1.0675 -0.1388
 2781SOL     OW19804   3.002   3.277   3.490  0.4438 -0.3692 -0.0923
 2781SOL    HW119805   3.053   3.196   3.493  1.7154  0.4013 -0.7635
 2781SOL    HW219806   2.964   3.284   3.578  0.5120  1.3728 -0.1903
 2782SOL     OW19807   0.669   3.310   4.559  0.0426 -0.0209  0.6477
 2782SOL    HW119808   0.757   3.273   4.561  0.0453 -0.1038 -1.4244
 2782SOL    HW219809   0.627   3.244   4.614  0.5962 -1.4479 -0.6422
 2783SOL     OW19810   4.603   2.419  15.524 -0.1197 -0.2367 -0.2821
 2783SOL    HW119811   4.541   2.401  15.595  1.8085 -0.9086  1.2485
 2783SOL    HW219812   4.674   2.465  15.570 -0.6310 -0.3449  0.6107
 2784SOL     OW19813   2.219   4.183   4.177  0.0252 -0.5804 -0.8617
 2784SOL    HW119814   2.140   4.165   4.127  0.4816 -0.7897 -1.4999
 2784SOL    HW219815   2.222   4.277   4.192 -0.6812 -0.5224 -1.1065
 2785SOL     OW19816   3.231   0.444   8.179 -0.6417 -0.1731  0.1306
 2785SOL    HW119817   3.295   0.502   8.136  0.2228 -0.7718  0.6057
 2785SOL    HW219818   3.226   0.369   8.120 -1.5738  1.1357 -1.4533
 2786SOL     OW19819   3.126   3.159   4.335 -0.7021  0.0646 -0.6382
 2786SOL    HW119820   3.096   3.094   4.398 -0.3134  0.5187  0.0155
 2786SOL    HW219821   3.198   3.190   4.391 -1.9551  0.8134  0.5759
 2787SOL     OW19822   2.248   0.278  16.344  0.4575 -0.7667  0.1114
 2787SOL    HW119823   2.228   0.186  16.358 -2.8281 -0.1843 -0.6684
 2787SOL    HW219824   2.281   0.303  16.430  0.6207  0.4077 -0.2850
 2788SOL     OW19825   2.217   2.101   6.352  0.3386  0.3245  0.4129
 2788SOL    HW119826   2.210   2.167   6.420 -0.9169 -0.0868  0.6765
 2788SOL    HW219827   2.270   2.033   6.394  0.8403 -0.6872 -1.8460
 2789SOL     OW19828   4.188   0.058   6.157  0.0155 -0.0693 -0.2583
 2789SOL    HW119829   4.231   4.697   6.158  1.6059  0.7135 -1.5874
 2789SOL    HW219830   4.107   0.043   6.206 -0.4587 -1.0567 -1.3651
 2790SOL     OW19831   4.311   1.102   1.179 -0.1005  0.0776  0.4147
 2790SOL    HW119832   4.300   1.042   1.105  0.0637  3.1942 -2.1920
 2790SOL    HW219833   4.297   1.184   1.130  1.5656  1.0903  1.6400
 2791SOL     OW19834   1.127   3.730   7.911 -0.2200  0.1001  0.2066
 2791SOL    HW119835   1.140   3.701   7.820  1.9404  1.6759  0.0332
 2791SOL    HW219836   1.180   3.665   7.958  0.3133  2.8611  3.3991
 2792SOL     OW19837   2.701   4.509   1.274  0.1934  0.5542  0.5268
 2792SOL    HW119838   2.641   4.442   1.242 -1.0093  0.6819  2.5012
 2792SOL    HW219839   2.681   4.579   1.212  0.3758 -0.2645 -0.4549
 2793SOL     OW19840   3.969   0.312   6.171  0.0834  0.2842 -0.2809
 2793SOL    HW119841   3.910   0.241   6.145  0.5686 -0.2786  0.1469
 2793SOL    HW219842   4.021   0.325   6.092 -0.4029 -1.9279 -0.9793
 2794SOL     OW19843   0.776   3.728  10.739 -0.1399 -0.1220 -0.1466
 2794SOL    HW119844   0.737   3.801  10.787 -0.2374 -0.6592  0.6046
 2794SOL    HW219845   0.753   3.663  10.806 -2.2001 -0.2086 -0.9423
 2795SOL     OW19846   3.766   1.151   5.328  0.3089  0.2847 -0.3784
 2795SOL    HW119847   3.806   1.174   5.244 -0.1654 -0.7912 -0.9035
 2795SOL    HW219848   3.717   1.070   5.312 -0.1112  0.0107  2.2648
 2796SOL     OW19849   0.019   3.065   5.588  0.2191  0.1783  0.2807
 2796SOL    HW119850   4.685   3.079   5.664  0.0575  0.4210  0.1144
 2796SOL    HW219851   0.010   2.974   5.563 -1.5062  0.5115 -0.3731
 2797SOL     OW19852   3.131   0.776   1.907 -0.1890  0.3971 -0.6569
 2797SOL    HW119853   3.143   0.690   1.867  2.1166 -0.7137  2.3826
 2797SOL    HW219854   3.096   0.746   1.991  1.2600  3.0372  0.8760
 2798SOL     OW19855   2.526   1.013   2.730  0.6914  0.5300  0.1731
 2798SOL    HW119856   2.492   1.041   2.645 -0.7788 -2.1528 -0.1048
 2798SOL    HW219857   2.591   0.951   2.699  3.1930  2.4577  1.5013
 2799SOL     OW19858   2.686   0.088   4.519  0.4635  0.0116  0.1133
 2799SOL    HW119859   2.618   0.117   4.581  1.3727  0.9760  0.6423
 2799SOL    HW219860   2.675   0.149   4.447 -0.0793  0.9496  0.9852
 2800SOL     OW19861   3.196   3.534   2.769 -0.2290 -0.1550 -0.1020
 2800SOL    HW119862   3.121   3.543   2.710  0.5451 -0.5639 -1.1422
 2800SOL    HW219863   3.227   3.623   2.782  1.9802 -0.5107 -2.8648
 2801SOL     OW19864   0.872   4.008   9.542  0.0176  0.2037  0.3029
 2801SOL    HW119865   0.941   3.950   9.510 -1.4683 -0.4483 -1.7247
 2801SOL    HW219866   0.917   4.053   9.613 -0.1159  0.5622  0.1596
 2802SOL     OW19867   2.815   2.635   5.658  0.3946  0.1867  0.1810
 2802SOL    HW119868   2.772   2.684   5.728 -0.1043  1.5242 -1.0726
 2802SOL    HW219869   2.762   2.559   5.634 -3.4995  2.8321  0.4845
 2803SOL     OW19870   3.000   3.403   4.459  0.7667  0.3258 -0.4403
 2803SOL    HW119871   3.033   3.432   4.374 -0.6266  1.5249 -0.5511
 2803SOL    HW219872   2.958   3.319   4.440  0.9319  0.8127 -2.8769
 2804SOL     OW19873   0.023   2.788   2.814 -0.3412  0.3455 -0.4778
 2804SOL    HW119874   0.020   2.870   2.864  0.8892 -0.9713  1.7623
 2804SOL    HW219875   0.095   2.801   2.753  0.4330  1.0137  0.5806
 2805SOL     OW19876   0.689   3.942   0.440 -0.7160 -0.4387  0.7548
 2805SOL    HW119877   0.704   4.015   0.380  1.4488 -0.7022  0.9909
 2805SOL    HW219878   0.746   3.958   0.515 -1.0620 -0.2463  0.9762
 2806SOL     OW19879   0.857   2.269   9.782 -0.1290 -0.1334  0.4346
 2806SOL    HW119880   0.832   2.324   9.856  0.2266  0.2423  0.2745
 2806SOL    HW219881   0.782   2.211   9.766 -0.7254  0.2330  1.9036
 2807SOL     OW19882   3.517   2.330   3.020 -0.2411 -0.0647  0.5968
 2807SOL    HW119883   3.596   2.309   2.970  0.4401 -2.1564  2.5668
 2807SOL    HW219884   3.528   2.271   3.094  0.2089  1.7804  2.0196
 2808SOL     OW19885   3.167   2.663  11.923 -0.1567 -0.7091  0.3176
 2808SOL    HW119886   3.209   2.731  11.869  0.7122 -1.1848  0.3887
 2808SOL    HW219887   3.157   2.589  11.863  2.1881  0.6976 -1.8246
 2809SOL     OW19888   3.552   1.356   4.662 -0.0414 -0.3334  0.1451
 2809SOL    HW119889   3.505   1.345   4.744  0.8008 -1.2853  0.4944
 2809SOL    HW219890   3.642   1.348   4.692  0.6627  0.8077 -1.6227
 2810SOL     OW19891   4.389   3.767   5.586  0.6498  0.3459  0.3936
 2810SOL    HW119892   4.362   3.858   5.574  2.2482  0.7684  0.1036
 2810SOL    HW219893   4.483   3.764   5.568  0.0143 -0.0224 -2.7338
 2811SOL     OW19894   4.285   1.239   7.048 -0.0457 -0.3725 -0.4015
 2811SOL    HW119895   4.313   1.215   7.136  0.6353  1.0813 -0.2405
 2811SOL    HW219896   4.342   1.181   6.997  1.3857  0.0466  0.7315
 2812SOL     OW19897   0.875   2.920   6.178 -0.6371  0.8582 -0.3266
 2812SOL    HW119898   0.796   2.883   6.216  0.8561 -0.2361  1.7290
 2812SOL    HW219899   0.865   2.889   6.088 -1.0494 -0.7383  0.2749
 2813SOL     OW19900   4.487   2.095   4.859 -0.0992 -0.0341  0.0769
 2813SOL    HW119901   4.533   2.146   4.925 -1.5720  2.1134 -0.5556
 2813SOL    HW219902   4.399   2.088   4.897 -0.3248  0.2291 -0.3853
 2814SOL     OW19903   1.350   2.899   3.354 -0.1878  0.7733 -0.0509
 2814SOL    HW119904   1.275   2.955   3.372 -0.6066  0.0630  0.4332
 2814SOL    HW219905   1.333   2.814   3.395 -1.6031  1.5259  0.8862
 2815SOL     OW19906   0.421   1.497  15.875 -0.2438  0.3135  0.0396
 2815SOL    HW119907   0.503   1.539  15.849  2.1053 -3.3284  1.5546
 2815SOL    HW219908   0.365   1.531  15.806  0.7472  1.1701 -0.3366
 2816SOL     OW19909   3.716   2.997   9.008  0.9443 -0.2825  0.6572
 2816SOL    HW119910   3.741   2.952   9.088 -1.1561 -1.7758  0.4600
 2816SOL    HW219911   3.626   2.967   8.993  1.6483 -0.8587 -2.3795
 2817SOL     OW19912   0.508   4.066   1.575 -0.1460  0.1200 -0.4709
 2817SOL    HW119913   0.480   4.084   1.485 -3.1982  0.8252  0.6344
 2817SOL    HW219914   0.569   4.136   1.598 -0.0778 -0.3665  0.8407
 2818SOL     OW19915   3.809   1.720  15.232 -0.2550 -0.4400  0.2694
 2818SOL    HW119916   3.883   1.738  15.174  0.3030 -1.4672  0.6614
 2818SOL    HW219917   3.858   1.724  15.315  1.2936 -0.1744 -0.6538
 2819SOL     OW19918   1.972   2.236   3.164  0.0481 -0.3936  0.3689
 2819SOL    HW119919   2.068   2.242   3.162 -0.0198  0.6384  0.3792
 2819SOL    HW219920   1.953   2.218   3.072  0.8679  2.0691 -0.2829
 2820SOL     OW19921   0.712   0.582   3.868  0.2178 -0.3687  0.3246
 2820SOL    HW119922   0.692   0.533   3.788  1.8656 -1.8497  0.8409
 2820SOL    HW219923   0.806   0.596   3.859 -0.1306  1.4971 -0.4826
 2821SOL     OW19924   0.605   0.271   8.884  0.3904  0.2433  0.1479
 2821SOL    HW119925   0.513   0.285   8.862  0.7889  3.2608  0.4022
 2821SOL    HW219926   0.620   0.177   8.874 -1.0312 -0.3150  3.3191
 2822SOL     OW19927   2.617   4.224   2.152 -0.2352  0.5966  0.7988
 2822SOL    HW119928   2.547   4.226   2.217  0.0725  1.6090  1.0908
 2822SOL    HW219929   2.581   4.154   2.097  1.5823 -0.1801  0.5804
 2823SOL     OW19930   0.066   4.118   3.575 -0.3946 -0.2175  0.4581
 2823SOL    HW119931   0.072   4.078   3.488 -1.7876  2.3373 -0.8067
 2823SOL    HW219932   4.711   4.077   3.609 -0.3620 -0.9660 -0.3656
 2824SOL     OW19933   4.204   1.886   6.008 -0.0177 -0.7262 -0.1516
 2824SOL    HW119934   4.274   1.950   6.016  0.9381 -1.5992 -1.4721
 2824SOL    HW219935   4.241   1.820   6.067  0.4475 -1.4221 -1.2172
 2825SOL     OW19936   0.677   0.932   4.901  0.3076 -1.0051 -0.3664
 2825SOL    HW119937   0.668   0.904   4.810  1.4335 -2.1881 -0.1281
 2825SOL    HW219938   0.696   1.025   4.893 -0.8717 -0.7442 -0.0545
 2826SOL     OW19939   4.557   4.627   0.404 -0.0963 -0.4581  0.6958
 2826SOL    HW119940   4.599   4.556   0.357  0.5161  0.9715 -0.9203
 2826SOL    HW219941   4.463   4.621   0.387 -0.0161  1.0246 -0.2912
 2827SOL     OW19942   1.591   4.025  13.253 -0.0183 -0.1416 -0.2086
 2827SOL    HW119943   1.678   4.063  13.239 -0.6408  1.3613 -0.0578
 2827SOL    HW219944   1.609   3.934  13.275 -4.0616 -1.3226 -1.6800
 2828SOL     OW19945   4.639   1.159   2.343  0.2670 -0.0346  0.6701
 2828SOL    HW119946   4.714   1.120   2.299 -0.1258 -0.9540  0.8200
 2828SOL    HW219947   4.564   1.133   2.289 -0.4258 -0.4781  1.8577
 2829SOL     OW19948   4.375   3.986  12.434  0.4554 -0.1100 -0.4246
 2829SOL    HW119949   4.404   4.071  12.464 -1.5053  0.2049  0.6160
 2829SOL    HW219950   4.391   3.995  12.340  1.9090 -0.0377 -0.1547
 2830SOL     OW19951   2.327   0.106  11.289 -0.8499 -0.0209 -0.0347
 2830SOL    HW119952   2.369   0.044  11.348 -1.5612  2.0786  2.6556
 2830SOL    HW219953   2.368   0.086  11.205  2.0278 -0.2848  1.4479
 2831SOL     OW19954   2.802   1.053   7.655 -0.9298 -0.2815  0.5367
 2831SOL    HW119955   2.825   1.116   7.723  0.0310  1.4405 -1.3673
 2831SOL    HW219956   2.869   0.986   7.660 -0.0118  0.5076 -1.1971
 2832SOL     OW19957   1.703   4.590   0.289 -0.1365 -0.1827 -0.5954
 2832SOL    HW119958   1.795   4.581   0.266  0.1044  0.4916  0.1080
 2832SOL    HW219959   1.664   4.543   0.215  1.0741 -2.4201  0.1632
 2833SOL     OW19960   3.588   2.426   9.725  0.1893  0.1738  0.2715
 2833SOL    HW119961   3.659   2.456   9.668 -0.9897  1.6960 -0.4197
 2833SOL    HW219962   3.641   2.411   9.804  0.8354  1.3486  0.0659
 2834SOL     OW19963   0.852   2.966  13.688 -0.5050  0.0349 -0.4730
 2834SOL    HW119964   0.793   3.017  13.632 -0.3254  0.3267 -0.3967
 2834SOL    HW219965   0.793   2.937  13.758 -0.5878 -0.7783 -0.8911
 2835SOL     OW19966   4.387   3.270   9.225  0.2409  0.6524  0.1744
 2835SOL    HW119967   4.463   3.215   9.205  0.5788  0.5606  1.6972
 2835SOL    HW219968   4.318   3.206   9.211  0.2381  0.3824  1.4116
 2836SOL     OW19969   4.245   1.569   1.938  0.1853  0.1338  0.5943
 2836SOL    HW119970   4.267   1.503   2.003 -2.3954 -0.4894  0.8401
 2836SOL    HW219971   4.215   1.529   1.857  2.4206 -0.0361 -0.1357
 2837SOL     OW19972   1.630   4.300   8.990 -0.3597  0.0982 -0.5786
 2837SOL    HW119973   1.593   4.335   8.909  0.7869 -0.5658 -1.3940
 2837SOL    HW219974   1.552   4.264   9.032 -0.4516  0.9733 -0.0089
 2838SOL     OW19975   1.413   3.303   7.035  0.0354 -0.3931  0.2313
 2838SOL    HW119976   1.385   3.385   7.078  2.9092  0.2529  0.8506
 2838SOL    HW219977   1.476   3.337   6.972  1.3888 -0.9216  1.2967
 2839SOL     OW19978   4.123   1.118   1.821 -0.0207  0.0771 -0.0020
 2839SOL    HW119979   4.089   1.153   1.739 -2.3385 -0.5715  0.6975
 2839SOL    HW219980   4.039   1.087   1.853 -1.1557  1.0689 -2.0164
 2840SOL     OW19981   3.056   3.316   2.266  0.2246  0.3962  0.4917
 2840SOL    HW119982   2.961   3.318   2.254  0.1724 -1.8006  0.6029
 2840SOL    HW219983   3.066   3.411   2.279 -0.8661  0.4522  0.9681
 2841SOL     OW19984   4.196   4.527   3.831 -0.1583 -0.2980 -0.2440
 2841SOL    HW119985   4.121   4.495   3.881  1.5859 -2.3486  1.1004
 2841SOL    HW219986   4.215   4.440   3.794  0.1990 -1.0914  1.8181
 2842SOL     OW19987   2.004   3.698   9.661 -0.1961 -0.2642  0.5745
 2842SOL    HW119988   2.072   3.759   9.690  1.3354 -1.6247 -0.1612
 2842SOL    HW219989   1.929   3.752   9.638 -0.7629 -0.8914  0.9394
 2843SOL     OW19990   0.993   3.593   7.234 -0.6571  0.2580  0.2660
 2843SOL    HW119991   0.972   3.645   7.157 -0.7027 -1.8686 -1.1490
 2843SOL    HW219992   0.907   3.551   7.241  0.4561 -1.9724  0.5808
 2844SOL     OW19993   4.100   0.629   7.520 -0.2155 -0.0309 -0.0573
 2844SOL    HW119994   4.046   0.703   7.549 -1.2888 -0.5188 -0.8115
 2844SOL    HW219995   4.095   0.566   7.592 -1.7897 -1.4217 -1.3626
 2845SOL     OW19996   0.631   2.899   6.022  0.1354 -0.4982  0.9423
 2845SOL    HW119997   0.688   2.924   5.949 -0.3857  1.3210  1.1613
 2845SOL    HW219998   0.551   2.948   6.004 -0.8072 -3.4078 -2.8445
 2846SOL     OW19999   3.644   3.101   2.062  0.7929  0.1815  0.1873
 2846SOL    HW120000   3.662   3.053   2.143 -0.2762 -0.3392  0.1258
 2846SOL    HW220001   3.609   3.184   2.092  1.1821  0.7042 -0.8217
 2847SOL     OW20002   3.932   0.419   4.123  0.4222  0.7398  0.6804
 2847SOL    HW120003   3.858   0.381   4.171 -0.3930  0.5658 -0.7090
 2847SOL    HW220004   4.004   0.372   4.165  0.2686  0.7494  0.9571
 2848SOL     OW20005   0.128   3.638   8.755 -0.1877  0.6286 -0.1061
 2848SOL    HW120006   0.171   3.705   8.808  0.2347 -0.7987  1.3868
 2848SOL    HW220007   0.037   3.666   8.767 -0.1172  1.0261 -0.5087
 2849SOL     OW20008   3.694   0.836   4.446 -0.0099  0.6658 -0.0390
 2849SOL    HW120009   3.706   0.923   4.408  0.6206  0.6415  0.1065
 2849SOL    HW220010   3.628   0.800   4.386  0.4330  2.8637 -1.8576
 2850SOL     OW20011   2.313   0.598   6.578 -0.7875 -0.2132 -0.4842
 2850SOL    HW120012   2.279   0.658   6.511  0.1924 -0.6694 -1.3903
 2850SOL    HW220013   2.406   0.621   6.583 -0.0237 -3.5127  0.4404
 2851SOL     OW20014   3.881   0.057  15.439  0.6374 -0.0787  0.2394
 2851SOL    HW120015   3.821   4.707  15.425  0.0939  1.0630 -3.5425
 2851SOL    HW220016   3.915   0.082  15.353 -1.0962 -0.4508 -0.5610
 2852SOL     OW20017   4.433   1.074  12.771  0.1983 -0.2801  0.2173
 2852SOL    HW120018   4.493   1.035  12.834 -1.8126 -0.6813  1.8890
 2852SOL    HW220019   4.483   1.141  12.724 -0.2886 -0.6591 -0.8542
 2853SOL     OW20020   2.272   1.921  10.139  0.6066 -0.3673 -0.1526
 2853SOL    HW120021   2.291   1.969  10.059 -0.2802  1.5024  0.7752
 2853SOL    HW220022   2.354   1.871  10.141 -1.0268 -3.1410 -1.2260
 2854SOL     OW20023   4.539   3.259   7.708 -0.4826  0.2804 -0.0298
 2854SOL    HW120024   4.488   3.183   7.683  0.0636  0.2035 -0.9052
 2854SOL    HW220025   4.581   3.224   7.787 -1.0494 -0.0058  0.1440
 2855SOL     OW20026   4.350   1.453   5.919  0.2073  0.0567  0.6439
 2855SOL    HW120027   4.302   1.484   5.996 -1.4647  1.2503 -0.8856
 2855SOL    HW220028   4.308   1.367   5.912  2.0639 -0.7430 -0.6438
 2856SOL     OW20029   2.043   4.116   7.343 -0.3380 -0.3982 -0.1069
 2856SOL    HW120030   2.135   4.138   7.325 -0.1807  1.7341  3.1483
 2856SOL    HW220031   2.042   4.140   7.436  1.2964  0.2214 -0.2437
 2857SOL     OW20032   2.005   1.474   6.850 -0.2009 -0.2147  0.1577
 2857SOL    HW120033   2.071   1.442   6.912  1.3571  1.9389 -0.3678
 2857SOL    HW220034   1.943   1.524   6.903  0.3034  1.0993 -0.4953
 2858SOL     OW20035   2.232   2.031  12.600  0.2782 -0.1387 -0.1255
 2858SOL    HW120036   2.314   2.068  12.632 -0.0440  0.1903  0.3173
 2858SOL    HW220037   2.173   2.077  12.659  0.6217 -3.0046  2.4427
 2859SOL     OW20038   2.467   3.341  13.089  0.0829 -0.2403  0.6982
 2859SOL    HW120039   2.373   3.355  13.100  0.1673  1.1414 -0.2728
 2859SOL    HW220040   2.482   3.391  13.008 -1.0755  0.7182  1.0636
 2860SOL     OW20041   4.655   0.233   5.390  0.0459  0.0439 -0.2094
 2860SOL    HW120042   4.616   0.232   5.478 -0.6354 -0.6618 -0.5270
 2860SOL    HW220043   4.594   0.290   5.343  0.4243 -0.0584 -0.8235
 2861SOL     OW20044   1.523   2.137   2.133  0.6312 -0.1103 -0.7578
 2861SOL    HW120045   1.509   2.043   2.123  1.4674 -0.4570  1.1972
 2861SOL    HW220046   1.619   2.142   2.129  0.7009 -1.9812 -1.2702
 2862SOL     OW20047   1.089   2.571  16.376  0.1312  0.1353  0.0206
 2862SOL    HW120048   1.054   2.498  16.427  0.7853 -1.0892 -1.2732
 2862SOL    HW220049   1.027   2.643  16.384  1.0595  0.7097  1.9765
 2863SOL     OW20050   4.316   2.631   7.226 -0.4921 -0.0231 -0.4000
 2863SOL    HW120051   4.262   2.558   7.256  0.8081 -0.0066  1.9612
 2863SOL    HW220052   4.404   2.594   7.225 -0.0996  0.8456  1.6124
 2864SOL     OW20053   0.232   3.968   2.105  0.2527  0.0912 -0.3340
 2864SOL    HW120054   0.254   3.940   2.017  0.1946  1.2544 -0.7209
 2864SOL    HW220055   0.163   4.033   2.088  0.3685  0.3714  0.2573
 2865SOL     OW20056   3.313   4.398  12.191  0.2154 -0.3440 -0.2425
 2865SOL    HW120057   3.356   4.481  12.172  0.7759 -1.0508 -2.0901
 2865SOL    HW220058   3.385   4.341  12.219 -0.2786 -2.2052 -2.7600
 2866SOL     OW20059   1.186   3.268  11.383 -0.4129 -0.0671  0.1134
 2866SOL    HW120060   1.148   3.180  11.386 -0.3083 -0.0680  1.2307
 2866SOL    HW220061   1.159   3.293  11.294  1.4339 -0.2542 -0.4863
 2867SOL     OW20062   0.839   3.124   8.830 -0.7690  0.8384  0.1138
 2867SOL    HW120063   0.762   3.176   8.809  0.4873  2.5287 -0.2935
 2867SOL    HW220064   0.904   3.189   8.855 -1.8348  1.3828  1.3940
 2868SOL     OW20065   0.728   2.242   5.750 -0.3489  0.4408  0.2845
 2868SOL    HW120066   0.707   2.234   5.657  1.3913  0.5107 -0.1101
 2868SOL    HW220067   0.819   2.272   5.745  0.2716 -1.1225  2.1115
 2869SOL     OW20068   3.053   3.858   9.773 -0.3133  0.0162  0.1940
 2869SOL    HW120069   3.043   3.953   9.767 -2.4522 -0.2765 -0.7889
 2869SOL    HW220070   3.129   3.854   9.831 -0.4319  0.9054  0.4111
 2870SOL     OW20071   0.573   0.456   1.251  0.0626  0.1764 -0.2820
 2870SOL    HW120072   0.592   0.362   1.251  1.2055  0.4070 -0.4338
 2870SOL    HW220073   0.665   0.477   1.231  0.8257 -2.5765  0.3896
 2871SOL     OW20074   0.584   2.598   8.814 -0.4153  0.3188 -0.5337
 2871SOL    HW120075   0.588   2.693   8.803  2.8897  0.3926  1.4263
 2871SOL    HW220076   0.495   2.582   8.782 -0.8491  3.6784 -1.0228
 2872SOL     OW20077   1.653   4.692   0.976  0.8467 -0.3270 -0.1605
 2872SOL    HW120078   1.676   4.605   0.945  1.8481 -0.3338  0.6116
 2872SOL    HW220079   1.695   0.024   0.910  1.1890  1.3522  1.4929
 2873SOL     OW20080   4.080   1.845  14.873 -0.2925  0.3762  0.3723
 2873SOL    HW120081   4.030   1.764  14.883  0.3056  0.4560  3.8995
 2873SOL    HW220082   4.126   1.824  14.792  1.7126 -0.9038  1.8296
 2874SOL     OW20083   3.934   0.144   2.419  0.0166 -0.0766 -0.2838
 2874SOL    HW120084   3.956   0.183   2.504  0.0745  1.8268 -1.1816
 2874SOL    HW220085   3.945   0.050   2.433  0.9170  0.2989  1.5671
 2875SOL     OW20086   2.038   3.471  10.599  0.7397  0.0999 -0.1878
 2875SOL    HW120087   1.991   3.429  10.527 -1.9496  1.3376  0.8342
 2875SOL    HW220088   1.984   3.451  10.675  2.4937 -0.3218  0.9382
 2876SOL     OW20089   3.976   3.311   4.351  0.1041  0.7211  0.2624
 2876SOL    HW120090   3.953   3.404   4.352 -1.2694  0.3430  2.5423
 2876SOL    HW220091   4.060   3.321   4.395 -0.3893  0.3224  1.2800
 2877SOL     OW20092   2.015   2.372   2.889  0.3959  0.1674 -1.0307
 2877SOL    HW120093   1.963   2.336   2.817 -1.1040  0.6447 -0.2016
 2877SOL    HW220094   2.089   2.397   2.835  0.2894  1.8441 -0.3834
 2878SOL     OW20095   3.177   1.223  12.814 -0.4733 -0.5724  0.2219
 2878SOL    HW120096   3.256   1.271  12.836  0.3560 -1.7050 -0.2771
 2878SOL    HW220097   3.116   1.290  12.843  0.3002 -0.5845  1.8688
 2879SOL     OW20098   1.151   1.741   0.318  0.3438 -0.1127  0.5589
 2879SOL    HW120099   1.126   1.817   0.371  0.7869 -0.4095  1.2059
 2879SOL    HW220100   1.119   1.765   0.232 -2.3646 -1.0731  1.2939
 2880SOL     OW20101   4.003   0.329   6.425 -0.0769 -0.3278 -0.2415
 2880SOL    HW120102   4.062   0.254   6.428  1.0906  0.5333 -1.7215
 2880SOL    HW220103   3.993   0.343   6.331  1.9717  3.2512  0.0876
 2881SOL     OW20104   0.754   1.199   3.542  0.0633 -0.1985  0.1804
 2881SOL    HW120105   0.751   1.272   3.604  0.8177  0.4394 -0.5302
 2881SOL    HW220106   0.765   1.247   3.459 -0.5253  1.1210  0.8678
 2882SOL     OW20107   1.208   3.721   4.116 -0.3078  0.2974  0.3467
 2882SOL    HW120108   1.174   3.731   4.205  0.9906  4.6264  0.3217
 2882SOL    HW220109   1.185   3.805   4.077 -0.1711 -0.2344 -0.8860
 2883SOL     OW20110   1.080   4.448   0.427 -0.2060  0.5139 -0.9337
 2883SOL    HW120111   1.084   4.534   0.468  2.9310  0.2191 -0.6224
 2883SOL    HW220112   1.172   4.424   0.436 -0.9711 -2.1806 -0.1654
 2884SOL     OW20113   2.248   0.864  15.555 -0.0757  0.3362  0.1324
 2884SOL    HW120114   2.158   0.892  15.569  0.2147  1.1303  0.4032
 2884SOL    HW220115   2.284   0.897  15.637  0.6609 -0.1511  0.0057
 2885SOL     OW20116   4.202   3.029   1.675 -0.1892 -0.0932 -0.5620
 2885SOL    HW120117   4.114   3.031   1.639 -1.2352 -1.7929  1.9361
 2885SOL    HW220118   4.233   2.941   1.656  0.3838 -0.5778  2.5575
 2886SOL     OW20119   1.340   0.115   3.359  0.4235 -0.2062  0.3645
 2886SOL    HW120120   1.355   0.057   3.434  1.2097  0.2678  0.5839
 2886SOL    HW220121   1.426   0.130   3.320 -0.5622  0.2133 -1.6180
 2887SOL     OW20122   4.654   0.555   3.543 -0.1114  0.0744  0.5474
 2887SOL    HW120123   4.577   0.575   3.490  0.9965  1.7629 -0.4369
 2887SOL    HW220124   4.652   0.459   3.538  1.3827  0.1354 -1.5002
 2888SOL     OW20125   4.092   1.653   5.850 -0.4209  0.1550  0.2906
 2888SOL    HW120126   4.126   1.728   5.898 -1.6195  1.0479 -0.2652
 2888SOL    HW220127   4.144   1.655   5.769 -1.1673  0.5295 -0.1807
 2889SOL     OW20128   1.220   2.287   7.934  0.6347  0.0540  0.1236
 2889SOL    HW120129   1.171   2.368   7.942 -0.2963 -0.3785 -1.1398
 2889SOL    HW220130   1.180   2.235   8.004 -0.8537  0.5927 -0.3290
 2890SOL     OW20131   1.166   4.490   2.326  0.5373  0.2722  0.3065
 2890SOL    HW120132   1.106   4.416   2.320  1.4745 -0.3457 -1.6568
 2890SOL    HW220133   1.109   4.562   2.354  0.9710  1.1645 -1.1206
 2891SOL     OW20134   4.318   1.598   7.969  0.0094 -0.1748  0.3158
 2891SOL    HW120135   4.334   1.690   7.945 -1.2419  0.1957  0.9022
 2891SOL    HW220136   4.327   1.557   7.883  2.2627 -0.0534  0.4941
 2892SOL     OW20137   0.000   3.454   2.816 -0.2459  0.0142 -0.3197
 2892SOL    HW120138   4.701   3.451   2.723  0.2302  1.4621 -0.4867
 2892SOL    HW220139   0.051   3.373   2.824 -1.3149 -0.7203 -0.8268
 2893SOL     OW20140   0.552   3.636   2.223  0.4515 -0.2862 -0.1840
 2893SOL    HW120141   0.480   3.697   2.242  0.1265 -0.7053 -0.0677
 2893SOL    HW220142   0.518   3.568   2.165  1.1221 -1.2544  0.5647
 2894SOL     OW20143   4.038   4.613   0.135  0.1333  0.5446 -0.5647
 2894SOL    HW120144   4.096   4.614   0.059  1.5958  2.2443  0.5595
 2894SOL    HW220145   3.992   4.698   0.132 -1.0141 -0.0575 -0.2315
 2895SOL     OW20146   0.690   0.711  14.250  0.0830  0.1358  0.0533
 2895SOL    HW120147   0.667   0.676  14.164 -1.5715  1.3334  0.0112
 2895SOL    HW220148   0.754   0.779  14.226  0.4271 -1.0326 -2.3760
 2896SOL     OW20149   4.276   1.046   4.998  0.0134 -0.3905  0.0419
 2896SOL    HW120150   4.189   1.027   5.035 -0.6516  1.1136 -0.7199
 2896SOL    HW220151   4.291   0.991   4.921  2.5691 -0.4546  0.6134
 2897SOL     OW20152   3.921   4.280  16.504  0.0123  0.2309  0.0793
 2897SOL    HW120153   3.999   4.271  16.559 -0.8619  2.0669  1.6145
 2897SOL    HW220154   3.876   4.195  16.508  1.1232 -0.4111 -1.0904
 2898SOL     OW20155   1.588   2.662  14.270  0.0746  0.2262  0.3723
 2898SOL    HW120156   1.634   2.706  14.341 -1.1659  0.4054  1.0527
 2898SOL    HW220157   1.565   2.731  14.208 -0.1459  0.6227  0.8994
 2899SOL     OW20158   3.384   2.739   4.866 -0.7346  0.3122 -0.5698
 2899SOL    HW120159   3.437   2.722   4.787  0.9365  2.8936 -0.0132
 2899SOL    HW220160   3.366   2.651   4.898  0.6937  0.2015 -0.0736
 2900SOL     OW20161   4.342   3.844  12.007  0.1817  0.0418  0.0786
 2900SOL    HW120162   4.310   3.924  12.048 -0.5532 -0.6955  0.9426
 2900SOL    HW220163   4.396   3.798  12.071  1.6840 -1.6076 -2.3662
 2901SOL     OW20164   0.541   4.242  15.509 -0.8224  0.1136 -0.7449
 2901SOL    HW120165   0.611   4.303  15.533  0.2754 -1.3476 -0.2814
 2901SOL    HW220166   0.472   4.309  15.505 -1.5343 -0.5871 -0.3080
 2902SOL     OW20167   2.963   1.504  11.598 -0.7314 -0.0229 -0.2891
 2902SOL    HW120168   2.942   1.516  11.691 -2.4123  1.7856 -0.9004
 2902SOL    HW220169   2.878   1.494  11.555 -1.3212  1.0681  0.6185
 2903SOL     OW20170   3.694   4.559   2.842 -0.5617 -0.5263 -0.5374
 2903SOL    HW120171   3.734   4.615   2.910 -2.0222 -0.6010  0.3777
 2903SOL    HW220172   3.664   4.617   2.772 -0.7159  0.1108  0.0482
 2904SOL     OW20173   1.822   1.148   3.435  0.3760  0.3457 -0.1513
 2904SOL    HW120174   1.740   1.182   3.471  0.0908 -1.0065  0.4763
 2904SOL    HW220175   1.788   1.087   3.369  0.2330 -0.7281  0.9147
 2905SOL     OW20176   0.756   4.207  17.001  0.7009  0.9422 -0.3397
 2905SOL    HW120177   0.666   4.229  16.979  1.4626  2.3115 -2.1208
 2905SOL    HW220178   0.742   4.181  17.092  0.7456 -0.4169 -0.7161
 2906SOL     OW20179   3.287   0.480   7.906 -0.1293  0.4306 -0.4446
 2906SOL    HW120180   3.261   0.540   7.837 -2.5542 -0.1677 -0.0459
 2906SOL    HW220181   3.372   0.518   7.930 -0.6902 -0.2282  2.6896
 2907SOL     OW20182   0.870   2.566   4.012  0.8174  0.2491 -0.1152
 2907SOL    HW120183   0.800   2.524   4.063  1.8742 -1.0434  0.2747
 2907SOL    HW220184   0.934   2.596   4.076  0.3954 -0.8188  0.8080
 2908SOL     OW20185   1.177   2.850   2.646  0.6155  0.4563  0.2730
 2908SOL    HW120186   1.240   2.808   2.587  0.5850  1.1377 -0.2552
 2908SOL    HW220187   1.244   2.902   2.691  1.8866 -2.0859  1.2816
 2909SOL     OW20188   0.709   2.142   6.653  0.1714  0.4934 -0.3784
 2909SOL    HW120189   0.732   2.228   6.689  1.5263 -0.6194  1.4749
 2909SOL    HW220190   0.771   2.073   6.680 -1.2325 -0.8149 -0.4781
 2910SOL     OW20191   0.976   0.801   4.125 -0.3235  0.3163 -0.3646
 2910SOL    HW120192   0.950   0.833   4.038 -0.3173 -0.6382 -0.7152
 2910SOL    HW220193   0.915   0.847   4.183  0.4221 -2.4352  2.5862
 2911SOL     OW20194   1.342   4.051  14.252  0.0582 -0.8441 -0.2325
 2911SOL    HW120195   1.299   4.011  14.176  0.0923  1.2009 -1.3252
 2911SOL    HW220196   1.433   4.055  14.221  0.2039  1.5684  0.5761
 2912SOL     OW20197   2.400   4.154   6.312  0.1943  0.1785 -0.8544
 2912SOL    HW120198   2.344   4.145   6.389 -2.1426 -1.6951 -2.7512
 2912SOL    HW220199   2.482   4.171   6.357 -0.8284  0.5186  0.8801
 2913SOL     OW20200   3.176   1.467   2.987  0.3384  0.3264  0.1117
 2913SOL    HW120201   3.253   1.411   2.987  0.1188  0.0274 -1.6739
 2913SOL    HW220202   3.143   1.453   2.898 -0.1171 -1.3252  0.5371
 2914SOL     OW20203   4.376   2.448   5.457 -0.2975  0.5510 -0.0856
 2914SOL    HW120204   4.359   2.526   5.509 -3.9152  0.3418 -0.9424
 2914SOL    HW220205   4.348   2.491   5.376 -2.9192 -4.5545 -1.9015
 2915SOL     OW20206   2.265   3.312  11.552 -0.0992 -0.3628 -0.3040
 2915SOL    HW120207   2.261   3.241  11.616  1.4980  1.3459  1.6798
 2915SOL    HW220208   2.351   3.350  11.568  0.0001 -0.5759 -0.3323
 2916SOL     OW20209   3.410   4.404   8.176  0.1778  0.4399 -0.3489
 2916SOL    HW120210   3.487   4.350   8.158 -0.5060  0.1540 -2.3472
 2916SOL    HW220211   3.427   4.423   8.269  4.0005 -0.2245 -0.9266
 2917SOL     OW20212   3.749   3.507   5.927 -0.7360 -0.4651  0.7787
 2917SOL    HW120213   3.803   3.575   5.968 -2.3241  0.9980  0.4611
 2917SOL    HW220214   3.769   3.520   5.834 -0.8497  2.7059  1.1783
 2918SOL     OW20215   2.302   1.372   7.421 -0.4878  0.3501 -0.4965
 2918SOL    HW120216   2.238   1.374   7.350 -1.3793 -2.2783  0.2135
 2918SOL    HW220217   2.263   1.306   7.479 -0.0096  1.1974  0.8074
 2919SOL     OW20218   1.846   0.491   8.716 -0.1230  0.0817 -0.6736
 2919SOL    HW120219   1.904   0.448   8.653  1.7653 -0.2274  1.2811
 2919SOL    HW220220   1.760   0.469   8.680  0.3127  1.6787 -2.7085
 2920SOL     OW20221   3.477   2.845   1.852 -0.4122 -0.3907 -0.6373
 2920SOL    HW120222   3.569   2.865   1.834 -0.4287  1.0187  0.8171
 2920SOL    HW220223   3.498   2.752   1.853 -1.8240 -0.7098  0.1430
 2921SOL     OW20224   4.415   3.766   8.076 -0.1071 -0.2937 -0.6051
 2921SOL    HW120225   4.424   3.856   8.108  1.2228 -0.5274 -0.3680
 2921SOL    HW220226   4.502   3.743   8.045 -0.2970 -2.1087  0.1913
 2922SOL     OW20227   0.408   2.233  16.054 -0.6117  0.2608  0.0746
 2922SOL    HW120228   0.405   2.233  16.150  0.6402 -3.3512  0.0880
 2922SOL    HW220229   0.319   2.269  16.047 -0.3996  1.4302  3.2674
 2923SOL     OW20230   3.747   2.735   2.090  0.1807  0.8835 -0.3880
 2923SOL    HW120231   3.760   2.725   1.996 -0.3983 -0.5307 -0.3209
 2923SOL    HW220232   3.693   2.660   2.114 -0.4950  1.2706 -0.6926
 2924SOL     OW20233   3.593   2.441   2.655 -0.0823  0.4048 -1.0168
 2924SOL    HW120234   3.582   2.363   2.600  1.3895 -1.6682  1.6004
 2924SOL    HW220235   3.507   2.443   2.697 -1.0769  0.0374 -3.0482
 2925SOL     OW20236   1.303   4.089   7.711 -0.1364 -0.5823 -0.8158
 2925SOL    HW120237   1.341   4.072   7.797  0.2161 -0.6786 -0.9935
 2925SOL    HW220238   1.349   4.016   7.669  1.5890  0.2698 -0.4115
 2926SOL     OW20239   1.171   3.347   1.900  0.4378 -0.2488 -0.0732
 2926SOL    HW120240   1.137   3.400   1.972  0.0068  1.4423 -1.5303
 2926SOL    HW220241   1.174   3.417   1.835 -0.0126  0.1986  0.3907
 2927SOL     OW20242   4.372   0.450  16.629 -0.5340 -0.3540  0.5419
 2927SOL    HW120243   4.467   0.451  16.644 -0.4797  1.5705  0.1244
 2927SOL    HW220244   4.336   0.446  16.718  0.7585  1.6506  1.1629
 2928SOL     OW20245   4.582   1.029  15.169 -0.1019 -0.2129  0.4111
 2928SOL    HW120246   4.662   0.980  15.150 -1.2253 -1.0849 -2.0604
 2928SOL    HW220247   4.561   0.981  15.249 -0.3806 -1.4430 -0.4131
 2929SOL     OW20248   2.739   0.360   8.380 -0.5437  0.4097 -0.0079
 2929SOL    HW120249   2.779   0.435   8.336 -0.0833  0.6731  0.8636
 2929SOL    HW220250   2.711   0.407   8.458  0.3253 -1.4052  1.3922
 2930SOL     OW20251   0.900   0.111   0.716 -0.4323 -0.2445 -0.1581
 2930SOL    HW120252   0.869   0.090   0.804 -0.8718 -2.4680 -0.8570
 2930SOL    HW220253   0.978   0.161   0.742 -0.6741  0.8313 -1.5138
 2931SOL     OW20254   3.089   0.597  10.819 -0.0226 -0.7398  0.1586
 2931SOL    HW120255   3.012   0.654  10.827  0.0768 -0.7757  1.3721
 2931SOL    HW220256   3.064   0.516  10.864  0.2719  0.4492  2.4363
 2932SOL     OW20257   3.493   2.493   8.348  0.4485  0.2141 -0.3397
 2932SOL    HW120258   3.514   2.498   8.441  4.1783 -0.3959 -1.1651
 2932SOL    HW220259   3.397   2.499   8.344  0.5121  2.0425  0.7455
 2933SOL     OW20260   4.065   0.446   0.349  0.1278  0.4837  0.1226
 2933SOL    HW120261   4.079   0.536   0.380 -0.1656 -0.1835  2.1790
 2933SOL    HW220262   4.147   0.441   0.299 -0.0265  0.1761 -0.0994
 2934SOL     OW20263   3.756   3.917   2.018  0.0022 -0.4684  0.2227
 2934SOL    HW120264   3.807   3.842   1.988 -0.0203 -0.5162  0.3029
 2934SOL    HW220265   3.750   3.970   1.939  1.3459 -1.6206 -0.6499
 2935SOL     OW20266   4.136   2.719   8.440 -0.4518  0.0503  0.1090
 2935SOL    HW120267   4.168   2.685   8.524 -1.3049 -0.1582  0.3546
 2935SOL    HW220268   4.216   2.762   8.411 -0.9037  1.0360  0.3034
 2936SOL     OW20269   0.049   2.445   3.568 -0.3748 -0.4423 -0.2388
 2936SOL    HW120270   4.699   2.457   3.509  1.2619  0.2552 -2.1242
 2936SOL    HW220271   0.015   2.442   3.658 -1.8815  0.8167 -0.7620
 2937SOL     OW20272   4.471   3.467  14.759 -0.4178 -0.0029 -0.2000
 2937SOL    HW120273   4.477   3.495  14.851  2.0386  0.0258 -0.3496
 2937SOL    HW220274   4.453   3.551  14.717  1.9649  0.1642 -0.8786
 2938SOL     OW20275   1.517   1.383   3.167 -0.3210  0.0121 -1.0342
 2938SOL    HW120276   1.533   1.421   3.253 -2.7949 -0.8756 -0.1691
 2938SOL    HW220277   1.572   1.440   3.114  3.0566 -1.8207  0.4451
 2939SOL     OW20278   0.606   0.573   2.041  0.8728  0.1330 -0.7652
 2939SOL    HW120279   0.621   0.658   2.081  0.9677  0.1866 -0.9129
 2939SOL    HW220280   0.512   0.555   2.042  0.7005  1.0898 -0.3680
 2940SOL     OW20281   0.836   4.566   8.001  0.5734  0.3350 -0.5879
 2940SOL    HW120282   0.859   4.481   8.039  0.9449  0.7094  0.0248
 2940SOL    HW220283   0.923   4.604   7.990 -0.9611  3.6785 -1.1009
 2941SOL     OW20284   3.684   4.105   7.177  0.2163 -0.5154  0.0912
 2941SOL    HW120285   3.655   4.016   7.199 -1.9490  0.3941  0.8636
 2941SOL    HW220286   3.637   4.159   7.241  0.0461 -1.5181  0.8213
 2942SOL     OW20287   0.246   3.457   1.885  0.5359  0.2370 -0.9930
 2942SOL    HW120288   0.177   3.515   1.919 -0.4306 -0.1603 -2.2878
 2942SOL    HW220289   0.244   3.467   1.790 -0.4272 -0.1262 -1.0135
 2943SOL     OW20290   1.923   2.017   3.844  0.1501 -0.6605 -0.0969
 2943SOL    HW120291   1.917   1.928   3.879  0.7104 -0.1795  1.2332
 2943SOL    HW220292   1.926   2.085   3.912  0.6283 -1.2775  0.4990
 2944SOL     OW20293   2.675   0.029   5.176  0.3218 -0.9429 -0.2914
 2944SOL    HW120294   2.696   0.122   5.167 -1.5147 -0.5534 -0.4859
 2944SOL    HW220295   2.594   0.027   5.126  0.3401 -0.6987 -0.3335
 2945SOL     OW20296   4.325   3.869  10.923 -0.1641 -0.5158  0.5666
 2945SOL    HW120297   4.282   3.943  10.880  1.9988  0.4610  0.0591
 2945SOL    HW220298   4.251   3.829  10.968  0.7009 -0.8399  1.7061
 2946SOL     OW20299   2.031   2.469   8.632 -0.1525 -0.1755 -0.2629
 2946SOL    HW120300   2.083   2.394   8.659  1.0466  0.6913 -0.1518
 2946SOL    HW220301   2.037   2.526   8.708  1.8867 -0.4453 -0.2168
 2947SOL     OW20302   3.392   4.375   2.103  0.3498 -0.2466 -0.0567
 2947SOL    HW120303   3.300   4.375   2.076  0.3525  1.0776 -0.0697
 2947SOL    HW220304   3.430   4.432   2.036 -0.6789 -3.1263 -3.0542
 2948SOL     OW20305   3.018   0.829   7.642  0.2171 -0.0038 -0.0454
 2948SOL    HW120306   3.097   0.810   7.591  2.0756 -1.6001  3.4398
 2948SOL    HW220307   3.057   0.844   7.728  0.8800 -1.3000 -0.1185
 2949SOL     OW20308   0.110   1.023  15.991 -0.2213  0.4705 -0.5051
 2949SOL    HW120309   0.106   0.967  16.069  0.9226 -1.0037 -1.5121
 2949SOL    HW220310   0.022   1.060  15.986  0.7229  2.5069 -2.0247
 2950SOL     OW20311   1.107   1.878   3.010 -0.1589 -0.1626 -0.1552
 2950SOL    HW120312   1.084   1.966   2.980  3.7545  0.6358 -0.8216
 2950SOL    HW220313   1.081   1.824   2.935  1.2338 -0.2013 -0.6136
 2951SOL     OW20314   2.552   4.094  10.457  0.1759  0.0126  0.0808
 2951SOL    HW120315   2.623   4.153  10.482  0.0574  0.9795 -1.8907
 2951SOL    HW220316   2.580   4.035  10.387 -1.1303 -1.0176  0.4153
 2952SOL     OW20317   2.653   1.299  10.314 -0.0787 -0.1956  0.1591
 2952SOL    HW120318   2.718   1.282  10.383 -0.0153 -1.9964 -0.3595
 2952SOL    HW220319   2.664   1.237  10.242  0.5846  0.2480 -0.1233
 2953SOL     OW20320   3.489   2.838  12.733  0.5260 -0.2206  0.0306
 2953SOL    HW120321   3.461   2.845  12.824  0.7952  1.2437 -0.0125
 2953SOL    HW220322   3.445   2.914  12.696 -1.3878 -1.5085 -0.3573
 2954SOL     OW20323   4.032   2.308  14.601  0.0540  0.1554  0.3190
 2954SOL    HW120324   4.044   2.221  14.639 -3.8164 -0.2529  0.5705
 2954SOL    HW220325   4.051   2.366  14.675 -1.9694 -0.7598  1.5459
 2955SOL     OW20326   0.781   4.172   7.171  0.4386  0.0920 -0.7887
 2955SOL    HW120327   0.789   4.150   7.079 -2.0023  0.1039 -0.9966
 2955SOL    HW220328   0.694   4.211   7.179  0.0234 -0.8305 -0.7560
 2956SOL     OW20329   1.946   3.936   9.422  0.1580 -0.4053 -0.0792
 2956SOL    HW120330   1.901   3.903   9.500  2.1318  1.0524  1.6705
 2956SOL    HW220331   2.017   3.872   9.420 -0.0407 -0.6507  1.0937
 2957SOL     OW20332   0.066   1.165   5.111  0.2096 -0.2053 -0.0917
 2957SOL    HW120333   0.014   1.106   5.056 -0.7620  1.0651 -0.5636
 2957SOL    HW220334   4.722   1.189   5.175  0.7730 -2.2571  1.2546
 2958SOL     OW20335   4.188   3.109   9.181  0.2206 -0.3228  0.0865
 2958SOL    HW120336   4.164   3.088   9.271  1.2142 -1.5441  0.0639
 2958SOL    HW220337   4.102   3.130   9.145 -0.8040  0.6890  3.0872
 2959SOL     OW20338   3.130   4.386   8.099  0.0837  0.2340 -0.4733
 2959SOL    HW120339   3.161   4.321   8.035  0.0972  2.5835 -2.8616
 2959SOL    HW220340   3.204   4.403   8.157 -2.0816  0.1568  2.2882
 2960SOL     OW20341   0.068   2.475  12.185  0.2135  0.3018 -0.2961
 2960SOL    HW120342   0.062   2.399  12.128  0.3079  1.4959 -1.8879
 2960SOL    HW220343   0.032   2.548  12.134  0.7536  0.9833  0.2840
 2961SOL     OW20344   3.970   3.633   8.342  0.4563  0.3721  0.5100
 2961SOL    HW120345   3.903   3.701   8.341  1.0920  0.9958 -0.1390
 2961SOL    HW220346   3.977   3.608   8.434 -0.1249 -1.0726  0.1714
 2962SOL     OW20347   0.157   1.771  14.604  0.4786  0.2380 -0.2145
 2962SOL    HW120348   0.177   1.731  14.519 -2.4176 -0.1107 -0.7215
 2962SOL    HW220349   0.233   1.828  14.599  0.1748  0.5697 -0.9580
 2963SOL     OW20350   4.219   1.085   3.269 -0.4365 -0.3779 -0.1511
 2963SOL    HW120351   4.282   1.019   3.300 -0.8706 -1.0306 -0.6487
 2963SOL    HW220352   4.147   1.024   3.255 -0.8427  0.2289 -0.6826
 2964SOL     OW20353   4.112   0.350  17.525 -0.3989 -0.4784 -0.1905
 2964SOL    HW120354   4.083   0.429  17.478 -0.3142  0.8052  1.9186
 2964SOL    HW220355   4.201   0.379  17.545  0.3741 -1.0320 -2.8029
 2965SOL     OW20356   2.710   1.812   5.841  0.2474  0.7548  0.2874
 2965SOL    HW120357   2.622   1.777   5.859  0.5720 -0.9126 -1.4323
 2965SOL    HW220358   2.709   1.904   5.868  0.2002  0.5079  1.1441
 2966SOL     OW20359   4.701   0.029   6.367  0.5391 -0.6477 -0.5985
 2966SOL    HW120360   0.068   0.046   6.393  0.1567 -1.6969  1.4402
 2966SOL    HW220361   4.705   4.658   6.359  0.5837 -0.7865  1.1268
 2967SOL     OW20362   1.613   2.726   3.233 -0.1008  0.0954  0.2918
 2967SOL    HW120363   1.539   2.741   3.174 -0.6391 -0.2835  0.8593
 2967SOL    HW220364   1.625   2.818   3.256  1.7896  0.4805 -2.3112
 2968SOL     OW20365   3.114   0.103   4.995 -0.9475 -0.0357 -0.0768
 2968SOL    HW120366   3.173   0.111   4.920 -3.8547 -0.3428 -2.4395
 2968SOL    HW220367   3.119   0.190   5.035  1.4823 -0.3133  0.2057
 2969SOL     OW20368   3.911   3.361  13.151 -0.0265 -0.3589 -0.5664
 2969SOL    HW120369   3.986   3.413  13.125 -0.4432  0.1598 -0.7286
 2969SOL    HW220370   3.951   3.275  13.166 -0.1686 -0.0732  1.4435
 2970SOL     OW20371   4.697   0.825   8.470 -0.1118  0.2611  0.6388
 2970SOL    HW120372   4.660   0.787   8.550  0.4341 -1.0208  0.2832
 2970SOL    HW220373   4.619   0.811   8.416 -0.2555  1.0868  0.6366
 2971SOL     OW20374   0.476   1.191   7.555  0.0968  0.2476 -0.3184
 2971SOL    HW120375   0.555   1.169   7.506  1.3500 -1.6826  2.5492
 2971SOL    HW220376   0.477   1.123   7.623 -2.9618  0.2493 -0.2568
 2972SOL     OW20377   2.187   1.012   5.691 -0.0380  0.4888 -0.2488
 2972SOL    HW120378   2.128   1.045   5.759  0.8499  0.2119  0.6564
 2972SOL    HW220379   2.118   0.979   5.634  0.3168 -1.2380  0.3052
 2973SOL     OW20380   4.067   4.517   1.260 -0.2696  0.4441 -0.0905
 2973SOL    HW120381   4.133   4.558   1.316  0.2115 -1.1945  0.5177
 2973SOL    HW220382   3.994   4.579   1.267 -2.7542 -2.4809 -0.1848
 2974SOL     OW20383   0.142   2.501   8.556 -0.1457  0.2246  0.7352
 2974SOL    HW120384   0.180   2.444   8.489 -1.8117  1.6140 -1.3968
 2974SOL    HW220385   0.100   2.435   8.611  0.1385 -1.8476 -1.5622
 2975SOL     OW20386   4.340   0.964   2.549 -0.5198  0.1529 -0.5365
 2975SOL    HW120387   4.335   1.033   2.482 -1.1639  1.8774  1.2893
 2975SOL    HW220388   4.248   0.961   2.575  0.0956 -0.9126  1.4445
 2976SOL     OW20389   4.355   0.321  12.393 -0.0588  0.3040  0.1547
 2976SOL    HW120390   4.388   0.257  12.330  1.7407 -0.6481  2.0753
 2976SOL    HW220391   4.409   0.396  12.369 -2.9163  1.6581 -1.9762
 2977SOL     OW20392   0.340   0.512   9.374  0.3062  0.2927 -0.4306
 2977SOL    HW120393   0.316   0.430   9.417  0.1128  0.5829  0.0213
 2977SOL    HW220394   0.417   0.482   9.324  2.5206  2.7307  1.4825
 2978SOL     OW20395   1.787   2.462  16.981  0.3725 -0.7407  0.2052
 2978SOL    HW120396   1.844   2.479  17.056  0.8919 -3.1168  0.3376
 2978SOL    HW220397   1.719   2.527  17.000  1.8835  0.9034 -0.0824
 2979SOL     OW20398   3.935   1.842   8.760  0.1707  0.1275 -0.1412
 2979SOL    HW120399   3.917   1.748   8.770  0.4138 -0.0281 -1.1565
 2979SOL    HW220400   4.031   1.849   8.760  0.2493 -1.1193  1.4953
 2980SOL     OW20401   3.274   0.676   9.282  0.2351  0.2080 -0.5518
 2980SOL    HW120402   3.289   0.633   9.197 -0.8759  1.6671 -1.4846
 2980SOL    HW220403   3.181   0.697   9.279  0.5136  1.6963  1.0797
 2981SOL     OW20404   3.361   1.591   7.539  0.0473 -0.2598  0.4324
 2981SOL    HW120405   3.331   1.519   7.595  1.9258 -2.1842 -1.0510
 2981SOL    HW220406   3.333   1.671   7.583 -1.3482 -0.5034  0.0116
 2982SOL     OW20407   2.571   1.604   4.865 -0.0099  0.3055  0.5816
 2982SOL    HW120408   2.564   1.567   4.777  1.4998  1.1774  0.1091
 2982SOL    HW220409   2.554   1.534   4.928  0.4695  0.5593  0.9944
 2983SOL     OW20410   3.767   2.849   4.575 -0.2473 -0.4963 -0.2613
 2983SOL    HW120411   3.802   2.761   4.556  0.6596  0.2662 -2.1772
 2983SOL    HW220412   3.802   2.891   4.496 -0.7033 -0.2883 -0.3485
 2984SOL     OW20413   3.285   2.904   7.762  0.0727 -0.3085 -0.3851
 2984SOL    HW120414   3.240   2.934   7.683  1.8485 -1.0854 -1.6740
 2984SOL    HW220415   3.205   2.889   7.813 -0.7707  1.0884 -1.3032
 2985SOL     OW20416   3.683   4.202   8.484  0.0813  0.4178 -0.3113
 2985SOL    HW120417   3.675   4.274   8.546  0.9102  0.4159 -0.2014
 2985SOL    HW220418   3.650   4.235   8.401  0.1053  0.0108 -0.4833
 2986SOL     OW20419   3.621   4.170  17.207 -0.1369  0.2547  0.1905
 2986SOL    HW120420   3.604   4.086  17.166 -2.6822  1.4599 -1.2447
 2986SOL    HW220421   3.558   4.167  17.279  1.6553  1.3468  1.8051
 2987SOL     OW20422   2.186   4.406  12.720 -0.1325  0.1433  0.0456
 2987SOL    HW120423   2.244   4.335  12.694  0.0128  0.4038 -0.3475
 2987SOL    HW220424   2.232   4.481  12.683 -0.2460 -0.3251 -1.0375
 2988SOL     OW20425   2.585   0.969   2.440 -0.7873  0.1872 -0.1673
 2988SOL    HW120426   2.597   0.880   2.408 -1.6511  0.2621 -0.6935
 2988SOL    HW220427   2.556   1.016   2.362 -0.5553  1.5006  0.5372
 2989SOL     OW20428   2.624   3.926   7.281 -0.6660 -0.1100 -0.2410
 2989SOL    HW120429   2.531   3.901   7.290 -0.3218 -0.9669  1.0404
 2989SOL    HW220430   2.663   3.854   7.231 -0.8805  0.6468 -1.5005
 2990SOL     OW20431   2.726   4.536   3.443  0.1243  0.3040 -0.5281
 2990SOL    HW120432   2.661   4.557   3.376 -1.6377 -1.5956  0.5813
 2990SOL    HW220433   2.755   4.450   3.412 -2.0281 -1.3138  2.0326
 2991SOL     OW20434   1.437   1.955   1.420 -0.1858 -0.2192 -0.0814
 2991SOL    HW120435   1.407   1.893   1.354  0.7864 -0.4740 -0.2932
 2991SOL    HW220436   1.517   1.988   1.378  0.0988  0.7242  1.2037
 2992SOL     OW20437   0.248   0.749   8.453 -0.5123  0.5301  0.5460
 2992SOL    HW120438   0.221   0.690   8.383 -0.9225 -0.6213  1.6724
 2992SOL    HW220439   0.164   0.789   8.476 -0.1156  0.8568  1.4491
 2993SOL     OW20440   3.857   2.468   5.533 -0.3561  0.1945  0.4257
 2993SOL    HW120441   3.797   2.398   5.506 -0.0669  1.0024 -2.2420
 2993SOL    HW220442   3.792   2.534   5.558  2.1382  2.0168  1.9834
 2994SOL     OW20443   3.082   1.074  11.569 -0.2375  0.2946 -0.0009
 2994SOL    HW120444   3.090   1.145  11.633  0.0220  2.0401 -1.9662
 2994SOL    HW220445   3.093   0.991  11.616  1.8957  0.8031  0.4229
 2995SOL     OW20446   2.807   2.509  11.711 -0.4782 -0.1751 -0.1886
 2995SOL    HW120447   2.719   2.484  11.684 -0.7542 -3.9154  4.3264
 2995SOL    HW220448   2.862   2.465  11.646 -0.1259 -0.1531  0.0931
 2996SOL     OW20449   2.075   2.884   8.816  0.0684  0.1151 -0.4059
 2996SOL    HW120450   2.142   2.916   8.876  1.0801  2.8157 -2.9341
 2996SOL    HW220451   2.079   2.925   8.729  0.5101  0.7907 -0.0606
 2997SOL     OW20452   3.188   1.622  14.318  0.1100  0.9919  0.3112
 2997SOL    HW120453   3.172   1.537  14.277  2.1883  0.1353  1.2813
 2997SOL    HW220454   3.235   1.588  14.394 -1.7608  0.1861  1.1257
 2998SOL     OW20455   4.704   0.071  10.924  0.4144 -0.1420 -0.1737
 2998SOL    HW120456   0.018   0.057  11.011 -0.4489 -1.3406  0.0093
 2998SOL    HW220457   0.054   0.105  10.873  0.9379  1.2140  1.4994
 2999SOL     OW20458   0.492   2.683   8.302 -0.5209 -0.0487 -0.3227
 2999SOL    HW120459   0.564   2.698   8.363 -0.6757  0.1494 -0.1877
 2999SOL    HW220460   0.460   2.773   8.294 -1.2021 -0.4726 -2.2820
 3000SOL     OW20461   3.187   2.741   5.970  0.1238 -0.5724 -0.0170
 3000SOL    HW120462   3.113   2.798   5.990 -0.1005 -0.1455 -2.1702
 3000SOL    HW220463   3.162   2.696   5.890 -0.4299  2.4367 -1.5300
 3001SOL     OW20464   0.409   1.380   7.119  0.2158  0.1833  0.0786
 3001SOL    HW120465   0.435   1.358   7.029 -0.0613  0.5703 -0.0960
 3001SOL    HW220466   0.361   1.462   7.109  1.5308  0.7836 -1.2895
 3002SOL     OW20467   3.912   4.376   9.901 -0.1922 -0.2615 -0.7383
 3002SOL    HW120468   4.002   4.343   9.908 -1.9364 -4.4573  2.1618
 3002SOL    HW220469   3.882   4.368   9.811 -0.1333 -0.3681 -0.7491
 3003SOL     OW20470   4.326   4.438   8.994 -0.2846  0.1861 -0.4564
 3003SOL    HW120471   4.311   4.343   8.990 -2.0829  0.5296 -2.2875
 3003SOL    HW220472   4.403   4.434   9.050 -0.4623 -1.1461 -0.3107
 3004SOL     OW20473   1.736   3.178   8.200 -0.3071 -0.2270  0.4134
 3004SOL    HW120474   1.732   3.083   8.201 -0.5322 -0.2219  0.0462
 3004SOL    HW220475   1.652   3.196   8.241  0.1552  2.0725  0.3722
 3005SOL     OW20476   0.354   0.911   9.053 -0.2707 -0.4174 -0.6017
 3005SOL    HW120477   0.300   0.879   9.125 -1.7550 -0.2310 -1.6135
 3005SOL    HW220478   0.316   0.858   8.983 -1.3481 -1.2291  0.5815
 3006SOL     OW20479   1.196   3.823   5.237  0.2202 -0.0541 -0.2907
 3006SOL    HW120480   1.210   3.894   5.301  1.3671 -0.7808  0.2704
 3006SOL    HW220481   1.233   3.856   5.156 -1.2172 -0.0509 -0.9508
 3007SOL     OW20482   0.406   2.064   3.143  0.8254  0.0701 -0.4715
 3007SOL    HW120483   0.417   2.024   3.057  0.1184  0.0858 -0.5646
 3007SOL    HW220484   0.316   2.051   3.173  1.0372 -0.7994 -0.1984
 3008SOL     OW20485   2.619   2.426   5.327 -0.2322  0.3353 -0.4130
 3008SOL    HW120486   2.660   2.341   5.311  0.0237 -0.2888  3.5092
 3008SOL    HW220487   2.636   2.479   5.250 -0.1823 -2.0775 -2.0657
 3009SOL     OW20488   4.618   2.292   7.196 -0.1976  0.3286  0.0826
 3009SOL    HW120489   4.606   2.261   7.285 -0.4599 -0.5893 -0.2730
 3009SOL    HW220490   4.681   2.230   7.160 -1.0416  0.4151 -1.5710
 3010SOL     OW20491   2.282   0.363  11.757 -0.0499 -0.0119 -0.0234
 3010SOL    HW120492   2.314   0.453  11.769  2.0502 -0.4892 -2.0674
 3010SOL    HW220493   2.366   0.317  11.753 -1.0932 -1.8058 -1.1073
 3011SOL     OW20494   4.069   0.237   7.566 -0.1185 -0.4398  0.2367
 3011SOL    HW120495   4.080   0.250   7.660  0.4745 -0.6691  0.1990
 3011SOL    HW220496   4.063   0.142   7.559  1.0181 -0.4507 -0.5956
 3012SOL     OW20497   3.042   3.675   1.537 -0.0625  0.2980 -0.9123
 3012SOL    HW120498   3.064   3.767   1.523 -0.1987  0.2094 -1.7153
 3012SOL    HW220499   3.128   3.643   1.565 -0.2993  0.1009 -0.4047
 3013SOL     OW20500   0.344   0.231   1.333 -0.5406 -0.0072  0.4179
 3013SOL    HW120501   0.386   0.157   1.376 -0.7013  1.8001  3.6534
 3013SOL    HW220502   0.272   0.188   1.287 -2.1341  0.1834  2.7277
 3014SOL     OW20503   3.718   2.847   6.217 -0.4657  0.4962 -0.1854
 3014SOL    HW120504   3.735   2.928   6.265  1.4567  1.4247 -2.4042
 3014SOL    HW220505   3.716   2.892   6.132  0.6326  2.8130  1.0298
 3015SOL     OW20506   2.918   2.646   6.437  0.2069  0.2916  0.0689
 3015SOL    HW120507   2.929   2.739   6.417 -0.1810  0.7607  2.0153
 3015SOL    HW220508   2.828   2.635   6.405  0.8698 -0.8624 -1.4095
 3016SOL     OW20509   1.303   4.136   8.037 -0.2308  0.2316 -0.4145
 3016SOL    HW120510   1.277   4.180   8.118  0.6445  0.7002 -0.3775
 3016SOL    HW220511   1.247   4.061   8.053 -0.5244  0.4945 -0.2037
 3017SOL     OW20512   4.486   3.770  11.344  0.4519  0.1599  0.2562
 3017SOL    HW120513   4.531   3.805  11.421 -1.6306  1.3740  0.9383
 3017SOL    HW220514   4.411   3.829  11.333  0.4214  0.4325  1.8604
 3018SOL     OW20515   0.192   3.809   4.091  0.7110  0.0506  0.3955
 3018SOL    HW120516   0.199   3.776   4.181  2.0652 -1.9359 -0.4537
 3018SOL    HW220517   0.209   3.730   4.041 -0.4766 -1.0100  1.6654
 3019SOL     OW20518   1.304   0.434   5.740 -0.6711  0.8648  0.7916
 3019SOL    HW120519   1.318   0.528   5.725 -0.4207  0.4277 -1.5994
 3019SOL    HW220520   1.343   0.423   5.827 -0.1505  2.4111  0.7590
 3020SOL     OW20521   4.223   3.722   6.256 -0.1463  0.1766  0.2195
 3020SOL    HW120522   4.258   3.633   6.249 -0.0709  0.2971 -0.8021
 3020SOL    HW220523   4.149   3.713   6.317 -1.7203  0.4381 -1.6537
 3021SOL     OW20524   2.306   0.364  16.596  0.1921  1.1109  0.6776
 3021SOL    HW120525   2.256   0.445  16.592 -1.1597  0.2908  0.8138
 3021SOL    HW220526   2.277   0.339  16.683  0.6231 -1.2701  0.1440
 3022SOL     OW20527   4.301   1.207   3.497  0.4997 -0.0011 -0.3474
 3022SOL    HW120528   4.236   1.155   3.544  0.1456  1.3724  0.6948
 3022SOL    HW220529   4.284   1.181   3.407 -0.7820  4.3336 -1.3418
 3023SOL     OW20530   0.582   3.621  16.826 -0.1963 -0.1789  0.1624
 3023SOL    HW120531   0.535   3.543  16.794 -1.6857  0.1740  1.4919
 3023SOL    HW220532   0.515   3.668  16.876 -0.7258 -0.6606 -0.0932
 3024SOL     OW20533   0.527   3.996   8.982 -0.5719  0.0420 -0.0391
 3024SOL    HW120534   0.542   3.925   8.919  0.3162  0.7673 -0.6466
 3024SOL    HW220535   0.481   3.948   9.051  1.6473 -0.8360  0.8401
 3025SOL     OW20536   3.764   1.558   0.837 -0.0600 -0.1608 -0.0910
 3025SOL    HW120537   3.826   1.630   0.830 -2.0348  1.4390 -1.0029
 3025SOL    HW220538   3.762   1.545   0.932 -0.5948 -0.9362 -0.2052
 3026SOL     OW20539   2.105   3.681   5.749  0.2803  0.4733 -0.5392
 3026SOL    HW120540   2.144   3.719   5.671  1.3437  0.9818  0.2316
 3026SOL    HW220541   2.177   3.635   5.791 -1.2205 -2.1019 -0.7851
 3027SOL     OW20542   2.433   3.261  17.659  0.3478 -0.0781 -0.3050
 3027SOL    HW120543   2.382   3.328   0.009 -1.1462 -1.0467 -0.5186
 3027SOL    HW220544   2.394   3.177  17.684  0.6922  0.5332  2.2452
 3028SOL     OW20545   0.523   2.389   8.326 -0.3812  0.3354 -0.8308
 3028SOL    HW120546   0.591   2.350   8.271 -0.1770  1.1033 -1.1286
 3028SOL    HW220547   0.514   2.477   8.288  0.9951  0.7588 -0.1588
 3029SOL     OW20548   2.143   1.341   9.788  0.4972 -0.0896 -0.1600
 3029SOL    HW120549   2.208   1.302   9.846 -1.9964 -0.7659  2.1943
 3029SOL    HW220550   2.077   1.373   9.850  0.1732 -0.1156 -0.4930
 3030SOL     OW20551   2.892   3.776   9.069 -0.2607  0.0825  0.2729
 3030SOL    HW120552   2.840   3.832   9.126 -0.6582 -0.8149  0.7850
 3030SOL    HW220553   2.836   3.762   8.993 -1.2495  1.8403  0.6976
 3031SOL     OW20554   2.537   0.309   7.047 -0.3051  0.5356  0.2092
 3031SOL    HW120555   2.496   0.380   7.097 -0.3891 -0.5774  1.7159
 3031SOL    HW220556   2.492   0.237   7.092 -0.4603 -0.0536 -0.8981
 3032SOL     OW20557   3.141   3.686   4.598  0.0131 -0.4359 -0.4205
 3032SOL    HW120558   3.149   3.593   4.615 -0.4184 -0.1908  1.1838
 3032SOL    HW220559   3.050   3.698   4.573  0.2937  0.8889 -0.8015
 3033SOL     OW20560   2.042   1.962  10.968 -0.0720  0.0660 -0.2947
 3033SOL    HW120561   1.980   1.954  10.896 -0.4786 -0.9949  0.1739
 3033SOL    HW220562   1.990   1.918  11.035  1.4023 -0.1036  0.7296
 3034SOL     OW20563   0.737   3.650   2.037 -0.4401 -0.2161 -0.1070
 3034SOL    HW120564   0.703   3.668   2.125 -2.1402  0.0118 -0.7997
 3034SOL    HW220565   0.684   3.574   2.012 -1.0801  0.0921  0.3212
 3035SOL     OW20566   3.489   2.342   6.007 -0.2381 -0.0532  0.0162
 3035SOL    HW120567   3.563   2.323   6.064  0.7187 -0.1860 -1.2603
 3035SOL    HW220568   3.487   2.436   6.022 -0.0218 -0.1236  0.4901
 3036SOL     OW20569   3.926   3.582   4.742  0.6105 -0.0457 -0.1112
 3036SOL    HW120570   4.003   3.557   4.794 -0.4767 -0.3237  1.3834
 3036SOL    HW220571   3.934   3.677   4.751 -1.3709  0.0862  0.1133
 3037SOL     OW20572   3.409   2.365  12.104 -0.4647 -0.1445 -0.1128
 3037SOL    HW120573   3.442   2.291  12.156  0.0024 -0.9036 -1.4951
 3037SOL    HW220574   3.458   2.440  12.137  0.9418 -0.2480 -1.9275
 3038SOL     OW20575   2.786   0.823   3.690  0.0179  0.6440  0.1052
 3038SOL    HW120576   2.691   0.823   3.701  0.0442 -2.7403  0.2935
 3038SOL    HW220577   2.814   0.905   3.730  0.0973  0.4633  0.4162
 3039SOL     OW20578   3.054   2.700  10.934  0.2332  0.4771 -0.2282
 3039SOL    HW120579   3.097   2.761  10.994 -0.7643 -0.2542  1.2354
 3039SOL    HW220580   3.033   2.627  10.992  1.3961  0.7829  0.5963
 3040SOL     OW20581   0.802   2.419  12.432 -0.7471  0.1134 -0.3105
 3040SOL    HW120582   0.741   2.482  12.393 -0.2305  0.0346 -1.2591
 3040SOL    HW220583   0.750   2.343  12.459  2.3487 -1.8494  0.0947
 3041SOL     OW20584   2.117   3.781   7.374  0.1592 -0.0134 -0.1312
 3041SOL    HW120585   2.048   3.810   7.315 -0.1995  1.6459  1.1006
 3041SOL    HW220586   2.099   3.835   7.452 -0.2982 -0.7705  0.2880
 3042SOL     OW20587   0.267   1.573  17.050  0.2333 -0.5390 -0.5441
 3042SOL    HW120588   0.186   1.606  17.091  0.3132  0.2377 -1.0172
 3042SOL    HW220589   0.272   1.480  17.071  3.0118 -1.0465 -3.4307
 3043SOL     OW20590   0.154   1.437   6.865  0.1315  0.2194 -0.5565
 3043SOL    HW120591   0.238   1.417   6.824  0.6239  0.7392  0.1932
 3043SOL    HW220592   0.155   1.392   6.949 -1.3726  0.7839 -0.2251
 3044SOL     OW20593   3.473   1.983  12.533  0.0575 -0.7193  0.0966
 3044SOL    HW120594   3.532   1.915  12.566  1.0067  1.3989  2.7353
 3044SOL    HW220595   3.504   1.999  12.444 -1.2075 -1.2382 -0.4436
 3045SOL     OW20596   1.840   0.784   2.277  0.2558  0.3326  0.5598
 3045SOL    HW120597   1.877   0.870   2.297  2.8341 -0.2686 -1.4707
 3045SOL    HW220598   1.914   0.735   2.240 -1.9589 -1.4645 -1.5041
 3046SOL     OW20599   3.885   2.604   4.587 -0.2653 -0.1183 -0.1861
 3046SOL    HW120600   3.911   2.525   4.540  2.3041  1.0097 -0.6613
 3046SOL    HW220601   3.956   2.611   4.651  0.0240  1.9141 -0.7199
 3047SOL     OW20602   2.517   0.802   8.696 -0.2169  0.2430 -0.0019
 3047SOL    HW120603   2.473   0.782   8.779 -2.6054  3.3219 -0.5303
 3047SOL    HW220604   2.606   0.781   8.725 -0.2885  1.6364  1.2233
 3048SOL     OW20605   2.335   2.536  11.628  0.6901  0.4309  0.1764
 3048SOL    HW120606   2.294   2.622  11.624 -1.7441 -0.6100  2.6322
 3048SOL    HW220607   2.366   2.553  11.717 -0.1782  2.0909  0.1504
 3049SOL     OW20608   4.631   1.244  16.275  0.8342 -0.2258  0.0918
 3049SOL    HW120609   4.633   1.188  16.198  1.1181 -0.2365  0.1083
 3049SOL    HW220610   4.629   1.180  16.346 -2.1497  0.6087  0.7436
 3050SOL     OW20611   0.042   0.628   3.156 -0.1368  0.3954  0.2101
 3050SOL    HW120612   0.013   0.705   3.108 -2.7889 -0.7397  0.0221
 3050SOL    HW220613   0.025   0.549   3.106  2.1098 -0.5193  0.8705
 3051SOL     OW20614   2.117   3.581   3.721  0.1740 -0.5998 -0.8883
 3051SOL    HW120615   2.092   3.514   3.657  3.9534 -1.4599 -1.4242
 3051SOL    HW220616   2.072   3.660   3.688 -0.8822 -1.1210 -0.7021
 3052SOL     OW20617   0.122   0.479   6.886 -0.4538  0.1239  0.7116
 3052SOL    HW120618   0.180   0.528   6.946  1.1077 -1.5973  0.6078
 3052SOL    HW220619   0.069   0.547   6.845  1.1226  0.6797 -0.3921
 3053SOL     OW20620   2.915   1.917   4.425  0.0566  0.0091  0.1306
 3053SOL    HW120621   2.901   1.940   4.517 -2.1584  1.5824 -0.5953
 3053SOL    HW220622   2.921   1.822   4.430  1.9804  0.2390  2.0472
 3054SOL     OW20623   1.606   3.400   0.055  0.6360 -0.3557 -0.1320
 3054SOL    HW120624   1.556   3.481   0.054 -0.7150 -1.1702  1.2601
 3054SOL    HW220625   1.629   3.390  17.659  3.7569 -0.5063  0.6832
 3055SOL     OW20626   0.744   4.434  13.722  0.2029 -0.4519 -0.0371
 3055SOL    HW120627   0.785   4.500  13.665  2.3225 -1.0782  0.7613
 3055SOL    HW220628   0.662   4.430  13.672 -0.4872  1.0931  0.9988
 3056SOL     OW20629   3.868   1.376   7.823 -0.6733 -0.1149 -0.5142
 3056SOL    HW120630   3.802   1.400   7.889 -0.2387  1.3431 -0.6059
 3056SOL    HW220631   3.886   1.460   7.780 -1.8538  0.6910  0.5668
 3057SOL     OW20632   4.148   0.639  12.198  0.4517  0.0132  0.7004
 3057SOL    HW120633   4.143   0.547  12.173  1.2699 -0.0430  0.7397
 3057SOL    HW220634   4.055   0.649  12.220  0.2282 -0.8361  0.1344
 3058SOL     OW20635   4.462   0.164   0.383 -0.3456  0.2435  0.3181
 3058SOL    HW120636   4.497   0.076   0.374  2.7229  1.4025  0.7264
 3058SOL    HW220637   4.541   0.217   0.371 -0.2262  0.4910  2.1960
 3059SOL     OW20638   3.268   2.128   4.166  0.4331 -0.0841  0.1464
 3059SOL    HW120639   3.245   2.095   4.253 -2.6470 -0.9349 -1.0049
 3059SOL    HW220640   3.209   2.204   4.171  0.4990  0.0195 -0.5533
 3060SOL     OW20641   4.236   3.697  12.715  0.3279 -0.3662  0.0968
 3060SOL    HW120642   4.185   3.635  12.767 -1.7898  1.6188  0.3767
 3060SOL    HW220643   4.276   3.755  12.781  3.2105 -1.4502 -0.7208
 3061SOL     OW20644   3.592   1.981   7.622 -0.1391 -0.3809  0.3375
 3061SOL    HW120645   3.573   1.982   7.716 -1.5219 -1.7712  0.0770
 3061SOL    HW220646   3.508   1.953   7.585  0.4901 -0.1119 -1.3257
 3062SOL     OW20647   2.384   4.264   9.965 -0.2712  1.0072 -0.7250
 3062SOL    HW120648   2.469   4.264  10.009 -0.5016 -0.2355 -0.2928
 3062SOL    HW220649   2.401   4.194   9.903 -1.5377  0.6800 -0.6875
 3063SOL     OW20650   4.376   3.275   1.208  0.5823 -0.1032 -0.3131
 3063SOL    HW120651   4.385   3.366   1.237  1.4012 -0.3608  0.2270
 3063SOL    HW220652   4.286   3.283   1.177 -0.6293 -2.3937  2.6177
 3064SOL     OW20653   4.055   3.524   1.937  0.1888  0.0536  0.0187
 3064SOL    HW120654   4.087   3.487   2.020  0.0836  1.2866  0.6123
 3064SOL    HW220655   4.031   3.451   1.881 -0.5442  0.7264 -0.5510
 3065SOL     OW20656   3.931   3.942   7.405  0.7306 -0.4128  0.3904
 3065SOL    HW120657   3.872   3.908   7.472 -1.1403 -0.4386 -1.2362
 3065SOL    HW220658   4.016   3.931   7.446 -0.8145 -0.9330  3.4335
 3066SOL     OW20659   4.139   3.973   4.266  0.0359 -0.0830  0.2581
 3066SOL    HW120660   4.193   4.015   4.200 -0.1144  2.0335  1.4897
 3066SOL    HW220661   4.057   4.022   4.277  0.5084 -0.0040  3.5333
 3067SOL     OW20662   3.775   3.682   2.492 -0.0630  0.1873  0.1795
 3067SOL    HW120663   3.769   3.743   2.418  3.1540  1.0934  0.6398
 3067SOL    HW220664   3.798   3.743   2.562  1.7404 -0.7249  0.3833
 3068SOL     OW20665   1.803   1.076   5.245  0.3344  0.0775 -0.0221
 3068SOL    HW120666   1.795   1.130   5.167 -1.0332 -1.6674 -1.0662
 3068SOL    HW220667   1.789   1.147   5.308 -0.9431 -0.2964  0.1139
 3069SOL     OW20668   2.697   2.958   4.755 -0.1883  0.1358  0.1361
 3069SOL    HW120669   2.764   2.969   4.687  0.4221  3.4352  1.2602
 3069SOL    HW220670   2.622   2.992   4.706  0.6227 -0.8792 -1.8467
 3070SOL     OW20671   1.450   3.650  13.092 -0.3133 -0.0267 -0.1847
 3070SOL    HW120672   1.375   3.594  13.116  1.2794 -3.1850 -2.5419
 3070SOL    HW220673   1.402   3.717  13.042 -1.1532  0.0669  0.7496
 3071SOL     OW20674   1.344   4.395   0.866  0.0376  0.1270 -0.0953
 3071SOL    HW120675   1.339   4.348   0.783 -3.2037 -0.7661  0.6353
 3071SOL    HW220676   1.421   4.348   0.899 -0.8736 -1.8481 -0.8168
 3072SOL     OW20677   0.251   0.479  14.974  0.3513  0.6008  0.4266
 3072SOL    HW120678   0.309   0.479  15.050  1.2771  0.2615 -0.2722
 3072SOL    HW220679   0.261   0.386  14.952 -2.0746  0.6487 -0.8148
 3073SOL     OW20680   3.488   3.086   7.375 -0.3954  0.6672  0.0244
 3073SOL    HW120681   3.569   3.091   7.425  0.1021  1.3674 -0.8370
 3073SOL    HW220682   3.428   3.139   7.428 -2.1809 -1.3585  0.0379
 3074SOL     OW20683   0.187   3.470  17.632  0.1633 -0.5520 -0.0611
 3074SOL    HW120684   0.128   3.508  17.567  1.9193  0.5737 -1.0058
 3074SOL    HW220685   0.198   3.554  17.679  0.1683  0.3645 -1.7108
 3075SOL     OW20686   3.311   4.389   0.208  0.3224 -0.0116  0.3300
 3075SOL    HW120687   3.393   4.342   0.193 -0.2507 -0.8318 -0.2583
 3075SOL    HW220688   3.252   4.323   0.170 -1.5525  0.6056  2.1811
 3076SOL     OW20689   3.801   4.259  15.383 -0.2701 -0.0153  0.0099
 3076SOL    HW120690   3.836   4.302  15.305  1.5584  1.3818  1.5757
 3076SOL    HW220691   3.713   4.296  15.381  0.2142  1.2344  0.8819
 3077SOL     OW20692   1.400   4.690   3.955  0.0923  0.3382  0.0088
 3077SOL    HW120693   1.397   4.605   3.999 -2.6776  0.2970 -0.2932
 3077SOL    HW220694   1.320   0.004   3.992 -0.4901 -1.2330  0.3490
 3078SOL     OW20695   3.619   1.762  16.193 -0.7242  0.5100  0.2250
 3078SOL    HW120696   3.682   1.759  16.122  0.7527 -0.5477  1.5863
 3078SOL    HW220697   3.678   1.754  16.268 -2.2618 -0.3418  1.3706
 3079SOL     OW20698   3.092   4.606   3.977  0.7733 -0.3022 -0.6117
 3079SOL    HW120699   3.033   4.531   3.989 -0.2511  0.3950 -1.3290
 3079SOL    HW220700   3.127   4.588   3.889  0.9983 -1.0135 -0.3846
 3080SOL     OW20701   1.223   1.116  12.322  0.2208 -0.1583  0.4263
 3080SOL    HW120702   1.267   1.117  12.237 -0.9112 -1.7536 -0.1861
 3080SOL    HW220703   1.138   1.079  12.297 -0.6397  2.2378 -0.1998
 3081SOL     OW20704   1.290   4.700   0.339  0.2196  0.5732  0.4144
 3081SOL    HW120705   1.256   4.709   0.428  0.5255 -1.2018  0.7201
 3081SOL    HW220706   1.334   4.616   0.351  1.5959  1.3164  0.5367
 3082SOL     OW20707   0.012   3.564  13.217 -0.3807 -0.2350  0.2947
 3082SOL    HW120708   0.084   3.505  13.236  0.0972 -0.3707 -1.8898
 3082SOL    HW220709   0.009   3.618  13.296 -1.9832 -0.0832  0.1357
 3083SOL     OW20710   4.271   0.233   8.552 -0.0082  0.1878  0.1843
 3083SOL    HW120711   4.304   0.143   8.551 -2.8359 -0.8609  1.3581
 3083SOL    HW220712   4.217   0.226   8.630 -1.0820 -2.7533 -0.8219
 3084SOL     OW20713   1.820   3.667   2.632 -0.0025 -0.0866  0.0473
 3084SOL    HW120714   1.767   3.593   2.662 -0.5944  0.1316 -0.4596
 3084SOL    HW220715   1.797   3.731   2.699 -1.3252 -0.7023  0.1714
 3085SOL     OW20716   1.077   4.507   4.349 -0.2835  0.3406  0.0658
 3085SOL    HW120717   1.131   4.441   4.306  0.8552  1.2588  0.0749
 3085SOL    HW220718   1.123   4.516   4.432 -1.8882  1.0543  0.8799
 3086SOL     OW20719   3.132   0.821   3.574  0.5027 -0.5864 -0.2056
 3086SOL    HW120720   3.095   0.766   3.505  1.0075 -1.5562  0.2956
 3086SOL    HW220721   3.130   0.761   3.648 -1.0908 -2.1237 -1.4890
 3087SOL     OW20722   2.680   1.844   3.885  0.5910 -0.2978  0.1695
 3087SOL    HW120723   2.638   1.821   3.802  0.3538  4.4555 -1.0633
 3087SOL    HW220724   2.762   1.804   3.857  0.1884  0.1546 -1.6840
 3088SOL     OW20725   4.070   0.201   5.209 -0.7189  0.4431 -0.0108
 3088SOL    HW120726   3.984   0.216   5.170 -0.0508  0.4784 -1.4633
 3088SOL    HW220727   4.117   0.222   5.128 -1.3569  0.5051 -0.3637
 3089SOL     OW20728   0.576   2.611   3.292  0.8022 -0.0933  0.4906
 3089SOL    HW120729   0.580   2.648   3.380  1.5297  3.4735 -1.0631
 3089SOL    HW220730   0.634   2.671   3.246 -1.5133  1.6579 -0.1477
 3090SOL     OW20731   3.852   3.530   1.231  0.0627 -0.1355 -0.3578
 3090SOL    HW120732   3.888   3.616   1.209  1.7834 -1.2106 -1.6404
 3090SOL    HW220733   3.760   3.545   1.206  0.1726  0.8075 -0.1889
 3091SOL     OW20734   4.199   3.727  15.952  0.3153 -0.3712 -0.5638
 3091SOL    HW120735   4.153   3.747  16.034 -1.0313  1.2224 -1.7105
 3091SOL    HW220736   4.168   3.785  15.882  0.0739 -2.2208 -1.9622
 3092SOL     OW20737   1.706   1.598  13.292 -0.3926 -0.8373  0.7259
 3092SOL    HW120738   1.789   1.641  13.270 -1.4232  0.4243 -0.6584
 3092SOL    HW220739   1.707   1.519  13.238  1.0665 -1.2528  1.3528
 3093SOL     OW20740   0.989   4.719  15.977 -0.1549  0.1800  0.7044
 3093SOL    HW120741   0.949   4.661  16.041  1.5342 -2.9586 -1.1182
 3093SOL    HW220742   1.070   0.020  16.021  1.1674  1.3067 -2.3241
 3094SOL     OW20743   2.051   0.947  12.700 -0.1276 -0.2199  0.4258
 3094SOL    HW120744   2.074   0.940  12.792  1.1884 -1.0452  0.0367
 3094SOL    HW220745   1.966   0.903  12.689 -1.1484  2.1579 -1.3443
 3095SOL     OW20746   4.592   4.640   2.715 -0.3856  0.6094  0.5375
 3095SOL    HW120747   4.609   4.648   2.809 -0.9680 -1.2585  0.8139
 3095SOL    HW220748   4.636   4.557   2.694 -1.5616  0.2070 -0.3815
 3096SOL     OW20749   0.947   3.750   1.848  0.3003  0.0147 -0.1913
 3096SOL    HW120750   0.904   3.671   1.881  0.4827  0.2439  0.5962
 3096SOL    HW220751   0.903   3.821   1.896 -3.4206 -0.5068 -2.7792
 3097SOL     OW20752   3.819   3.365   2.071  0.8736  0.1284  0.4162
 3097SOL    HW120753   3.853   3.283   2.035 -0.7631  0.4144 -1.7337
 3097SOL    HW220754   3.889   3.379   2.135  3.0589  1.2901 -2.2269
 3098SOL     OW20755   2.050   2.892   5.387  0.7375 -0.5490 -0.4509
 3098SOL    HW120756   1.975   2.850   5.430  0.4235 -0.0860 -0.5363
 3098SOL    HW220757   2.044   2.857   5.299 -0.0089 -1.4725 -0.0329
 3099SOL     OW20758   2.393   3.086   8.201 -0.2561  0.1027  0.4707
 3099SOL    HW120759   2.340   3.129   8.134 -0.4087  0.2908  0.7145
 3099SOL    HW220760   2.404   3.157   8.265  3.4978 -1.7313  1.8783
 3100SOL     OW20761   4.030   4.277  15.507  0.9043  0.3699  1.0421
 3100SOL    HW120762   3.991   4.331  15.576 -1.5938  1.4257 -1.2195
 3100SOL    HW220763   3.949   4.247  15.466  0.8285  0.7050  0.9464
 3101SOL     OW20764   1.602   1.935   9.200  0.1849  0.5722 -0.1214
 3101SOL    HW120765   1.524   1.901   9.155 -1.3890  2.2358  1.3910
 3101SOL    HW220766   1.575   1.961   9.288 -0.1112 -1.6751  0.4451
 3102SOL     OW20767   3.446   2.133   6.958 -0.1573 -0.4710  0.0776
 3102SOL    HW120768   3.385   2.158   7.028 -0.8773  1.0251 -1.0905
 3102SOL    HW220769   3.476   2.221   6.937 -1.3330 -0.4572 -1.5404
 3103SOL     OW20770   2.046   1.168   4.661  0.2228  0.1505  0.7067
 3103SOL    HW120771   2.130   1.176   4.707  0.7222 -1.7901  0.1385
 3103SOL    HW220772   2.056   1.236   4.595 -1.4472 -1.3276 -1.0502
 3104SOL     OW20773   0.350   1.229  14.464  0.3110 -0.0428  0.3145
 3104SOL    HW120774   0.341   1.141  14.500 -0.8540 -0.1156 -0.1430
 3104SOL    HW220775   0.291   1.277  14.522  0.1726 -2.1969  1.9292
 3105SOL     OW20776   2.782   3.656  12.975  0.2052  0.4226 -0.7266
 3105SOL    HW120777   2.724   3.587  12.943  1.0993 -0.7089  0.0978
 3105SOL    HW220778   2.719   3.687  13.040 -1.3019  1.7570 -2.8304
 3106SOL     OW20779   2.909   1.552   1.334 -0.2489 -0.1385 -0.0686
 3106SOL    HW120780   2.956   1.635   1.322 -0.4796  0.0653  0.4194
 3106SOL    HW220781   2.946   1.519   1.416  2.1098 -1.7825 -1.8080
 3107SOL     OW20782   2.312   1.585   7.006  0.3598 -0.4007 -0.5044
 3107SOL    HW120783   2.350   1.561   7.091  0.4538  0.9801 -0.1714
 3107SOL    HW220784   2.296   1.496   6.974 -0.6374 -0.1839 -0.5857
 3108SOL     OW20785   0.618   3.682   7.024  0.1728 -0.9248 -0.0255
 3108SOL    HW120786   0.625   3.631   7.104 -0.5097  1.1055  1.3105
 3108SOL    HW220787   0.626   3.770   7.060 -1.1562 -0.4593 -0.8646
 3109SOL     OW20788   0.434   0.258   1.735 -0.4501 -0.7342 -0.3912
 3109SOL    HW120789   0.464   0.349   1.745  0.6474 -1.3911  2.0605
 3109SOL    HW220790   0.486   0.218   1.805 -1.0205  0.6431  0.8249
 3110SOL     OW20791   2.796   3.827  15.228 -0.2609 -0.2603 -0.2871
 3110SOL    HW120792   2.846   3.796  15.152  0.9631 -0.0608  0.4353
 3110SOL    HW220793   2.752   3.905  15.196 -0.8705 -0.3645  0.3069
 3111SOL     OW20794   2.876   1.583   7.123 -0.1174  0.7476  0.4923
 3111SOL    HW120795   2.814   1.597   7.051  1.3518 -0.5985 -1.0464
 3111SOL    HW220796   2.817   1.543   7.188 -1.5659 -0.7858 -1.7497
 3112SOL     OW20797   2.222   1.977   3.074 -0.1544 -0.0798  0.3669
 3112SOL    HW120798   2.179   1.983   2.989  0.7152  0.7044 -0.0136
 3112SOL    HW220799   2.301   1.928   3.051 -1.0987 -0.4547 -2.0089
 3113SOL     OW20800   1.436   4.339   1.290 -0.1195 -0.4651 -0.1116
 3113SOL    HW120801   1.500   4.396   1.334  0.2493 -0.2153 -0.9661
 3113SOL    HW220802   1.412   4.281   1.362 -1.3653  0.0743 -0.0972
 3114SOL     OW20803   4.444   2.335   6.383 -0.5132 -0.0803 -0.2313
 3114SOL    HW120804   4.435   2.248   6.422 -1.7712  0.0017 -0.3460
 3114SOL    HW220805   4.535   2.331   6.354 -0.0359 -1.0161  1.3896
 3115SOL     OW20806   0.194   0.694   9.223 -0.3696  0.2196 -0.1592
 3115SOL    HW120807   0.122   0.638   9.193  0.1075 -0.5574  0.1216
 3115SOL    HW220808   0.231   0.650   9.300 -0.1717  1.5988  0.5295
 3116SOL     OW20809   0.560   3.329   5.492  0.1988  0.8242 -0.0320
 3116SOL    HW120810   0.647   3.368   5.486  0.3845  0.3022 -0.6561
 3116SOL    HW220811   0.574   3.239   5.461 -1.1137  0.5323  0.2177
 3117SOL     OW20812   4.531   2.290  15.769  0.6204 -0.3218  0.4946
 3117SOL    HW120813   4.439   2.298  15.794  1.3248  1.6975  2.3294
 3117SOL    HW220814   4.572   2.318  15.851  2.7173 -0.6839 -0.4230
 3118SOL     OW20815   1.083   4.702   0.999 -0.0640 -0.1789 -0.1573
 3118SOL    HW120816   1.002   0.029   0.993 -0.9745 -1.4442  1.1807
 3118SOL    HW220817   1.138   0.052   1.025 -0.6428  0.2891 -0.2638
 3119SOL     OW20818   0.051   4.528  15.765 -0.1365  0.1368  0.1761
 3119SOL    HW120819   0.040   4.568  15.679 -1.0687 -2.2168 -0.7853
 3119SOL    HW220820   4.710   4.459  15.777  0.8770 -0.8403 -0.0197
 3120SOL     OW20821   1.661   0.019   6.032 -0.1356 -0.2618  0.2285
 3120SOL    HW120822   1.673   0.025   5.937  1.0467  1.7134  0.5000
 3120SOL    HW220823   1.713   0.091   6.067  0.1243 -1.1256  1.6218
 3121SOL     OW20824   0.143   4.437   0.946 -0.4549 -0.0644 -0.4777
 3121SOL    HW120825   0.145   4.341   0.939 -2.4351 -0.0813 -0.7907
 3121SOL    HW220826   0.136   4.462   0.854  0.5594  2.1405  0.0525
 3122SOL     OW20827   4.160   3.340  10.692  0.4302  0.5128  0.5345
 3122SOL    HW120828   4.116   3.264  10.731 -0.6641  0.5128 -0.7094
 3122SOL    HW220829   4.113   3.351  10.610  1.4435  0.6888 -0.0208
 3123SOL     OW20830   1.522   0.665   8.175  0.3013 -0.0881  0.1921
 3123SOL    HW120831   1.476   0.696   8.254  0.6124 -2.0543  1.1381
 3123SOL    HW220832   1.537   0.755   8.147  0.8250 -0.4842 -0.8051
 3124SOL     OW20833   2.997   2.325   6.805  0.0233 -0.5065  0.3738
 3124SOL    HW120834   2.902   2.334   6.816 -0.1061 -1.1531 -0.2006
 3124SOL    HW220835   3.014   2.285   6.719  2.1496 -0.3413  0.7309
 3125SOL     OW20836   1.406   3.225   2.711 -0.1225 -0.1921  0.0233
 3125SOL    HW120837   1.404   3.130   2.718  0.5203 -0.3357 -1.7502
 3125SOL    HW220838   1.359   3.236   2.628 -2.3753  0.5435  1.3914
 3126SOL     OW20839   1.403   3.022  13.729 -0.1611  0.0185 -0.5210
 3126SOL    HW120840   1.362   2.937  13.710  1.2079 -0.4314 -1.4783
 3126SOL    HW220841   1.326   3.078  13.734  1.3355  2.0039  0.1798
 3127SOL     OW20842   2.619   1.821   8.166  0.2086  0.4513 -0.3114
 3127SOL    HW120843   2.657   1.905   8.143  0.3991  0.7686  1.1758
 3127SOL    HW220844   2.627   1.768   8.087  1.0067 -0.7376  0.5637
 3128SOL     OW20845   3.729   1.983   5.350  0.0064  0.6983  0.3696
 3128SOL    HW120846   3.705   2.074   5.334  1.5656  0.8067 -1.2747
 3128SOL    HW220847   3.648   1.947   5.388  0.4298  1.5279  2.0655
 3129SOL     OW20848   3.085   3.262   5.884 -0.1872 -0.0029 -0.6376
 3129SOL    HW120849   3.043   3.328   5.829  0.5971 -0.0839 -1.3430
 3129SOL    HW220850   3.017   3.201   5.910  1.8056 -1.1626  1.7899
 3130SOL     OW20851   1.245   4.166   2.839  0.0590 -0.1398  0.1321
 3130SOL    HW120852   1.332   4.175   2.800  0.4348  0.7311  1.1795
 3130SOL    HW220853   1.238   4.071   2.844  0.5076 -0.1798 -0.0071
 3131SOL     OW20854   4.431   0.798   5.825  0.6610 -0.7068  0.3011
 3131SOL    HW120855   4.502   0.859   5.807 -0.1119  0.3456  0.8267
 3131SOL    HW220856   4.448   0.781   5.917 -1.4137 -0.1546  0.7844
 3132SOL     OW20857   1.582   0.106   7.672 -0.4028  0.9987  0.1479
 3132SOL    HW120858   1.675   0.093   7.655 -0.4400  1.0879 -0.1404
 3132SOL    HW220859   1.581   0.201   7.685 -0.1455  1.2507 -1.5877
 3133SOL     OW20860   1.911   3.173   9.141  0.3104 -0.2719 -0.2898
 3133SOL    HW120861   1.889   3.251   9.191  1.8943 -0.2960  0.4679
 3133SOL    HW220862   2.001   3.151   9.167  0.1499 -0.3543  0.1935
 3134SOL     OW20863   1.549   2.468  15.129 -0.6376 -0.2355  0.3136
 3134SOL    HW120864   1.579   2.532  15.064 -1.5473 -1.3663 -1.2092
 3134SOL    HW220865   1.468   2.431  15.095 -2.2054  2.2863  1.2713
 3135SOL     OW20866   2.163   4.321   6.802 -0.4550  0.3176  0.1130
 3135SOL    HW120867   2.089   4.264   6.782 -0.2138 -1.0761  3.1950
 3135SOL    HW220868   2.125   4.406   6.823 -1.3264  0.3445 -1.6308
 3136SOL     OW20869   2.816   3.784   9.638 -0.3438  0.1218  0.1190
 3136SOL    HW120870   2.881   3.807   9.705  0.7504 -2.7502  0.0312
 3136SOL    HW220871   2.799   3.694   9.664 -0.3057  1.2566  4.0189
 3137SOL     OW20872   4.034   1.815   8.316 -0.3083  0.8093  0.2547
 3137SOL    HW120873   4.059   1.824   8.224 -1.1416 -0.5567 -0.1087
 3137SOL    HW220874   3.955   1.762   8.310 -0.8486  1.4233  2.2045
 3138SOL     OW20875   3.405   0.787   3.522  0.0773  0.2067  0.6430
 3138SOL    HW120876   3.312   0.810   3.521 -0.8300 -3.6796 -0.9569
 3138SOL    HW220877   3.432   0.829   3.441 -2.2977  0.9781  0.2631
 3139SOL     OW20878   0.370   4.548  11.991  0.4222 -0.3193 -0.1724
 3139SOL    HW120879   0.288   4.545  12.041  0.3136 -1.4284 -0.4196
 3139SOL    HW220880   0.405   4.635  12.009  0.9158 -0.1630 -1.9722
 3140SOL     OW20881   1.162   4.179   2.547 -0.2761 -0.2600  0.0946
 3140SOL    HW120882   1.194   4.134   2.625  1.0992  0.6149  0.0460
 3140SOL    HW220883   1.167   4.110   2.482  0.1201  0.8841 -1.0980
 3141SOL     OW20884   0.795   4.181   6.852 -0.1299  0.1813 -0.4115
 3141SOL    HW120885   0.833   4.132   6.779  0.4640  0.6466 -0.4064
 3141SOL    HW220886   0.714   4.130   6.862 -0.1254  0.6147  1.8729
 3142SOL     OW20887   4.118   3.851   2.943 -0.2611 -0.0316  0.1705
 3142SOL    HW120888   4.044   3.838   3.003 -1.6929 -0.7630 -1.7439
 3142SOL    HW220889   4.183   3.791   2.978 -1.7431 -1.7137  0.0442
 3143SOL     OW20890   0.827   0.486   9.245  0.6966  0.3916  1.0289
 3143SOL    HW120891   0.871   0.415   9.199 -0.3081 -0.4837  1.4280
 3143SOL    HW220892   0.880   0.565   9.235 -0.2930  0.9582  0.1387
 3144SOL     OW20893   0.291   0.662   2.016 -0.1840 -0.2754  0.0034
 3144SOL    HW120894   0.332   0.741   2.050 -0.0866  0.5271 -2.0156
 3144SOL    HW220895   0.249   0.690   1.935  0.7962 -1.2237 -0.8292
 3145SOL     OW20896   3.722   1.409   9.239  0.6807  0.0257  0.2635
 3145SOL    HW120897   3.735   1.408   9.144  1.8343  0.3873  0.4182
 3145SOL    HW220898   3.627   1.408   9.250  0.9710 -1.2500  2.6249
 3146SOL     OW20899   2.092   2.014  12.243 -0.6658  0.6909 -0.6298
 3146SOL    HW120900   2.045   2.080  12.295 -0.5534 -0.3857  0.8180
 3146SOL    HW220901   2.021   1.949  12.241 -1.0047  1.0298  0.1642
 3147SOL     OW20902   0.800   3.146   7.273 -0.2560 -0.0840  0.0575
 3147SOL    HW120903   0.761   3.201   7.340 -4.1219 -2.2597 -0.4308
 3147SOL    HW220904   0.885   3.124   7.311 -0.0142  0.2285 -0.3060
 3148SOL     OW20905   3.310   4.629   8.567 -0.1109  0.2444  0.0743
 3148SOL    HW120906   3.235   4.688   8.578 -0.0035  0.3239  0.4027
 3148SOL    HW220907   3.349   4.648   8.653  2.0519  0.9817 -1.0710
 3149SOL     OW20908   1.427   4.166  14.519  0.0419 -0.3528 -0.8333
 3149SOL    HW120909   1.469   4.209  14.445  0.0496 -1.1710 -1.3014
 3149SOL    HW220910   1.464   4.214  14.594  2.3582 -1.3346 -1.3453
 3150SOL     OW20911   2.884   0.069   3.845  0.2011  0.1750  0.1180
 3150SOL    HW120912   2.880   0.154   3.890 -0.8053  1.2742 -2.0418
 3150SOL    HW220913   2.961   0.084   3.790  0.3163 -2.1020 -0.3190
 3151SOL     OW20914   0.005   4.273   7.673  0.4814 -0.2362  0.5291
 3151SOL    HW120915   4.712   4.276   7.767 -1.7800  0.6254  0.1126
 3151SOL    HW220916   4.649   4.226   7.648 -1.0924  2.3579  0.7088
 3152SOL     OW20917   3.229   4.228   3.699 -0.1906  0.0198 -0.3385
 3152SOL    HW120918   3.237   4.137   3.671  1.7402  0.0422  0.1182
 3152SOL    HW220919   3.143   4.261   3.672  0.0179  1.5153  0.8554
 3153SOL     OW20920   3.147   4.659  11.131  0.2665 -0.3061  0.8666
 3153SOL    HW120921   3.166   4.709  11.052  3.6174 -1.7062  0.7761
 3153SOL    HW220922   3.228   4.672  11.181  0.4680 -2.3198  1.0816
 3154SOL     OW20923   0.793   4.182  13.485  0.3013 -0.1624  0.1144
 3154SOL    HW120924   0.875   4.223  13.512 -0.7458  1.8700  0.2283
 3154SOL    HW220925   0.810   4.088  13.483  0.6609 -0.0946  0.1795
 3155SOL     OW20926   4.188   3.962   7.499  0.3892 -0.3878 -0.3682
 3155SOL    HW120927   4.204   3.977   7.406 -0.6417 -3.4978 -1.0404
 3155SOL    HW220928   4.273   3.954   7.542  0.9038 -2.1273 -1.7218
 3156SOL     OW20929   1.820   4.673   3.446 -0.5060  0.2987 -0.2619
 3156SOL    HW120930   1.735   4.663   3.402 -0.4498  1.2645 -0.5813
 3156SOL    HW220931   1.790   0.002   3.520 -0.7160 -0.5043  0.2290
 3157SOL     OW20932   3.957   0.560   6.658  0.0485  0.0012  0.6278
 3157SOL    HW120933   4.020   0.530   6.591 -1.1941 -0.4672 -0.3376
 3157SOL    HW220934   3.882   0.586   6.604 -1.4205 -1.2093  2.1097
 3158SOL     OW20935   0.593   3.582  16.009  0.5888 -0.1838 -0.3268
 3158SOL    HW120936   0.503   3.597  16.038  1.5416  2.6200  1.2159
 3158SOL    HW220937   0.643   3.577  16.091 -0.4495  1.0446  0.3823
 3159SOL     OW20938   0.246   3.355   3.756  0.4160  0.5232  0.3131
 3159SOL    HW120939   0.180   3.298   3.716 -0.3700  0.9540  0.9950
 3159SOL    HW220940   0.183   3.420   3.788 -0.9966 -1.6060  1.7909
 3160SOL     OW20941   0.339   0.254   2.399  0.4442  0.7195 -0.2097
 3160SOL    HW120942   0.321   0.251   2.305  2.5965  2.2336 -0.6759
 3160SOL    HW220943   0.344   0.159   2.411 -1.8312  0.6335 -0.0250
 3161SOL     OW20944   3.760   3.232   5.066  0.4482 -0.4147  0.1269
 3161SOL    HW120945   3.834   3.280   5.030 -0.1371 -0.1106 -0.6669
 3161SOL    HW220946   3.795   3.204   5.151 -1.7864 -1.4956  0.6871
 3162SOL     OW20947   2.656   4.469  10.974  0.5514  0.4434  0.0042
 3162SOL    HW120948   2.751   4.479  10.967  0.4452  1.6827  0.2284
 3162SOL    HW220949   2.625   4.437  10.889  3.2334 -1.6212 -0.2028
 3163SOL     OW20950   3.738   2.503  12.494  0.2688 -0.1658 -0.0658
 3163SOL    HW120951   3.766   2.414  12.516 -0.0621 -0.7911 -2.1249
 3163SOL    HW220952   3.824   2.543  12.476  0.3776 -1.2381 -1.8790
 3164SOL     OW20953   4.017   4.481   4.033  0.7582 -0.2901 -0.1845
 3164SOL    HW120954   4.091   4.461   4.090 -0.2711  2.7314  2.2052
 3164SOL    HW220955   4.005   4.574   4.053 -0.9947 -0.5568  0.0519
 3165SOL     OW20956   2.541   4.674  13.233 -0.4033  0.5077 -0.6235
 3165SOL    HW120957   2.503   4.587  13.217 -0.3860  0.3121  0.4231
 3165SOL    HW220958   2.537   4.673  13.329 -1.3311  4.2700 -0.6006
 3166SOL     OW20959   0.335   1.047   6.251 -0.2888  0.4981 -0.4540
 3166SOL    HW120960   0.258   1.100   6.233 -0.2748  0.3499 -0.9522
 3166SOL    HW220961   0.398   1.104   6.207 -0.6543  0.4425 -1.0550
 3167SOL     OW20962   0.187   0.654   5.127 -0.4331  0.3633 -0.4487
 3167SOL    HW120963   0.250   0.666   5.199 -1.0536 -0.8170  0.2871
 3167SOL    HW220964   0.217   0.576   5.081  4.0680  1.9735 -0.2916
 3168SOL     OW20965   1.991   2.207   4.375 -0.0682  0.1887 -0.6709
 3168SOL    HW120966   2.036   2.145   4.318  2.0215  1.5863 -0.5743
 3168SOL    HW220967   2.069   2.260   4.394 -0.0172 -1.2734  3.2146
 3169SOL     OW20968   3.445   1.093   3.869 -0.0845  0.0434  0.0600
 3169SOL    HW120969   3.388   1.016   3.873 -1.9846  1.4712  0.4832
 3169SOL    HW220970   3.394   1.150   3.926 -1.7641 -1.0879 -0.3069
 3170SOL     OW20971   1.904   2.190   1.721  0.1652 -0.6753 -0.6801
 3170SOL    HW120972   1.990   2.151   1.704  0.6760 -1.1104  2.8874
 3170SOL    HW220973   1.935   2.270   1.680 -1.0195  1.4998  2.7201
 3171SOL     OW20974   1.720   2.476   3.249 -0.0006 -0.1751 -0.0318
 3171SOL    HW120975   1.663   2.552   3.243  0.6415  0.5785  3.2737
 3171SOL    HW220976   1.669   2.401   3.220 -1.1003  0.0237  1.3976
 3172SOL     OW20977   1.973   3.290   6.158  0.6038  0.0212  0.7187
 3172SOL    HW120978   1.922   3.319   6.083 -0.4522 -2.6009  0.4217
 3172SOL    HW220979   2.063   3.285   6.127  0.6272  2.3516  0.4169
 3173SOL     OW20980   0.357   3.800   4.995  0.3575  0.7902 -0.2980
 3173SOL    HW120981   0.426   3.785   5.059  2.4673 -1.6103 -3.1682
 3173SOL    HW220982   0.377   3.885   4.955 -0.8413  1.1063 -0.2379
 3174SOL     OW20983   0.611   0.108   5.904 -0.2612 -0.8700 -0.7786
 3174SOL    HW120984   0.673   0.158   5.851  1.2458 -1.3266  0.5360
 3174SOL    HW220985   0.529   0.156   5.900 -0.9969 -1.9751  1.2515
 3175SOL     OW20986   4.644   2.144   3.021 -0.6001 -0.1007 -0.0860
 3175SOL    HW120987   4.668   2.201   3.094 -1.2962 -0.1336  0.1597
 3175SOL    HW220988   4.687   2.169   2.939 -1.9293 -0.3729 -0.8707
 3176SOL     OW20989   1.034   0.425   4.469 -0.1578  0.0332  0.4938
 3176SOL    HW120990   1.072   0.477   4.398  1.8464 -1.9494  0.0978
 3176SOL    HW220991   0.956   0.391   4.426 -1.3205  0.5201  2.2661
 3177SOL     OW20992   3.642   2.234   6.221 -0.2592 -0.4229 -0.0252
 3177SOL    HW120993   3.707   2.165   6.238  1.8266  1.8143  1.1992
 3177SOL    HW220994   3.707   2.303   6.237  0.3589 -0.9211 -0.3486
 3178SOL     OW20995   2.043   2.142   2.434 -0.5191  0.3752 -0.2148
 3178SOL    HW120996   2.030   2.114   2.343  2.5531 -1.1495 -0.1745
 3178SOL    HW220997   2.114   2.080   2.449  0.1469  1.1141 -0.3215
 3179SOL     OW20998   0.624   2.135  11.795  0.7846 -0.2471 -0.1092
 3179SOL    HW120999   0.615   2.077  11.720  1.6741 -1.0495  0.3996
 3179SOL    HW221000   0.630   2.220  11.752 -0.6481 -0.2606 -0.3518
 3180SOL     OW21001   0.858   0.293   3.189  0.2560  0.0712  0.4666
 3180SOL    HW121002   0.952   0.275   3.199  0.2137 -0.5929 -0.3916
 3180SOL    HW221003   0.831   0.204   3.209  1.1983  0.0372  1.5959
 3181SOL     OW21004   3.649   2.424   3.436  0.6143  0.3478  0.1613
 3181SOL    HW121005   3.732   2.379   3.448 -0.0831 -0.4441  2.0642
 3181SOL    HW221006   3.666   2.487   3.367 -4.7364  0.7081 -0.8334
 3182SOL     OW21007   0.708   3.691   7.782  0.0959 -0.7731  0.2747
 3182SOL    HW121008   0.667   3.716   7.865  1.4895  2.9170 -0.1568
 3182SOL    HW221009   0.779   3.639   7.820 -0.2399 -0.8968  0.7339
 3183SOL     OW21010   0.237   2.313   5.110 -0.0485  0.2702  0.7638
 3183SOL    HW121011   0.190   2.373   5.052 -1.2882  0.6143  2.1156
 3183SOL    HW221012   0.307   2.375   5.132  0.4114 -0.1911  0.5733
 3184SOL     OW21013   4.703   0.717   5.484  0.1150 -0.0400 -0.1231
 3184SOL    HW121014   0.016   0.766   5.557  0.0500 -1.5268  0.9202
 3184SOL    HW221015   4.623   0.767   5.469 -0.6963 -0.9589  1.0764
 3185SOL     OW21016   2.425   0.055   3.665  0.1950  0.8610 -0.2031
 3185SOL    HW121017   2.438   4.715   3.595  0.1547 -0.5969  1.1170
 3185SOL    HW221018   2.330   0.064   3.657  0.1536 -2.1653 -2.9551
 3186SOL     OW21019   1.154   1.835   6.186 -0.2233 -0.0568 -0.3323
 3186SOL    HW121020   1.142   1.928   6.202 -2.5174 -0.6165  1.3558
 3186SOL    HW221021   1.150   1.838   6.090  1.2652  0.9109 -0.3497
 3187SOL     OW21022   0.013   1.081   1.918  0.6799 -0.1583 -0.1270
 3187SOL    HW121023   4.684   1.140   1.865 -1.2036 -0.5164  1.3577
 3187SOL    HW221024   0.046   1.147   1.979 -0.7407  1.3879 -1.0491
 3188SOL     OW21025   4.277   4.445  13.917  0.1215  0.8576 -0.0120
 3188SOL    HW121026   4.226   4.512  13.871  0.7921  1.1965 -0.2629
 3188SOL    HW221027   4.218   4.421  13.988 -1.3826 -0.9654 -1.8815
 3189SOL     OW21028   1.242   3.003   9.578 -0.1927  0.2224  0.7922
 3189SOL    HW121029   1.329   3.000   9.538  0.1518 -3.0514  1.8264
 3189SOL    HW221030   1.260   2.955   9.658 -0.4365  2.5601  2.2330
 3190SOL     OW21031   3.871   0.064   6.102 -0.6365 -0.4577 -0.0376
 3190SOL    HW121032   3.863   0.020   6.187  0.8392 -2.2712 -0.8449
 3190SOL    HW221033   3.897   4.711   6.052 -0.1715 -0.4262  0.1590
 3191SOL     OW21034   3.373   2.716  10.620 -0.7161 -0.3421  0.0358
 3191SOL    HW121035   3.365   2.809  10.641 -1.5521 -0.2140 -0.8426
 3191SOL    HW221036   3.282   2.689  10.606 -1.3908  1.7541  0.4303
 3192SOL     OW21037   4.387   2.409   4.722 -0.0192  0.0625 -0.0240
 3192SOL    HW121038   4.365   2.465   4.648  5.1160  2.0563 -0.0106
 3192SOL    HW221039   4.450   2.467   4.763  1.3232 -0.7471 -0.9424
 3193SOL     OW21040   4.453   4.360   0.582 -0.1494  0.5523  0.0789
 3193SOL    HW121041   4.462   4.349   0.487 -2.2182  0.4187 -0.0975
 3193SOL    HW221042   4.511   4.433   0.603  1.3441 -0.8202  0.7696
 3194SOL     OW21043   0.667   1.294   4.730  0.2651  0.8230  0.3182
 3194SOL    HW121044   0.736   1.290   4.796  0.2300  0.9165  0.3606
 3194SOL    HW221045   0.722   1.265   4.657  0.6122  0.5508  0.6816
 3195SOL     OW21046   2.101   0.044  16.730  0.2494 -0.1829 -0.1094
 3195SOL    HW121047   2.100   0.131  16.769 -0.1702 -0.1185 -0.2612
 3195SOL    HW221048   2.194   0.038  16.710 -0.0512 -3.4636 -0.6383
 3196SOL     OW21049   4.573   1.642   2.036  0.7977  0.4291 -0.0778
 3196SOL    HW121050   4.561   1.631   1.942 -0.0890  0.7602 -0.0077
 3196SOL    HW221051   4.623   1.564   2.059 -1.3383 -1.0984 -0.7226
 3197SOL     OW21052   1.427   1.350   5.195 -0.6020  0.4095  0.1864
 3197SOL    HW121053   1.495   1.415   5.178 -1.1280  0.3118 -2.2382
 3197SOL    HW221054   1.352   1.408   5.209 -3.0617 -2.5417 -0.7843
 3198SOL     OW21055   2.904   4.414   1.028  0.0168  0.5681 -0.6385
 3198SOL    HW121056   2.944   4.466   1.098 -0.0484  1.7792 -1.5060
 3198SOL    HW221057   2.861   4.488   0.985  0.2970  0.7245 -0.6542
 3199SOL     OW21058   0.319   1.804   3.669  0.4015 -0.4695  0.1059
 3199SOL    HW121059   0.398   1.826   3.717  0.2261  0.4964 -0.0360
 3199SOL    HW221060   0.357   1.811   3.581 -0.2408  0.2280 -0.1155
 3200SOL     OW21061   2.483   1.086   8.646  0.1934 -0.3453  0.1597
 3200SOL    HW121062   2.503   0.997   8.674  1.7097 -0.0231  0.0766
 3200SOL    HW221063   2.422   1.067   8.575  0.1153  0.3361  0.0419
 3201SOL     OW21064   1.225   0.915   7.799 -0.2046  0.3507  0.4636
 3201SOL    HW121065   1.284   0.959   7.739 -1.6753 -0.2834 -1.4301
 3201SOL    HW221066   1.184   0.988   7.846 -1.5817  0.2410 -0.5721
 3202SOL     OW21067   3.476   3.148   4.093 -0.1507 -0.5192  0.8099
 3202SOL    HW121068   3.384   3.135   4.071  0.1897 -1.2458 -0.1807
 3202SOL    HW221069   3.499   3.221   4.036  0.0463 -0.6206  0.7603
 3203SOL     OW21070   0.674   3.396   4.864  0.3144  0.2595  0.4774
 3203SOL    HW121071   0.672   3.442   4.780  2.2869 -0.9510 -0.2456
 3203SOL    HW221072   0.767   3.376   4.873  0.1659 -0.4884  0.3397
 3204SOL     OW21073   3.944   3.266   0.769 -0.1190 -0.1966  0.0135
 3204SOL    HW121074   3.978   3.262   0.680 -2.4961 -3.1858 -0.7615
 3204SOL    HW221075   3.917   3.358   0.771  1.0304  0.1015  2.4147
 3205SOL     OW21076   0.305   2.079   4.917  0.2379 -0.3830 -0.4033
 3205SOL    HW121077   0.305   2.145   4.987  0.1339  0.3042 -1.0485
 3205SOL    HW221078   0.217   2.093   4.882  0.0085 -2.1604 -0.5290
 3206SOL     OW21079   0.088   2.376   9.295  0.4127 -0.0555  0.5565
 3206SOL    HW121080   4.717   2.386   9.284  0.6528  0.7527 -0.8507
 3206SOL    HW221081   0.114   2.346   9.208  0.2755  1.6307 -0.0651
 3207SOL     OW21082   3.411   2.951   3.866  0.2026  0.6406  0.2484
 3207SOL    HW121083   3.504   2.941   3.847  0.4661  2.2844  0.6188
 3207SOL    HW221084   3.393   2.876   3.923 -0.1517 -0.2315 -1.0198
 3208SOL     OW21085   4.484   1.039   0.037 -0.7761  0.0137 -0.0836
 3208SOL    HW121086   4.488   1.082  17.648  1.0542 -0.1558 -0.0903
 3208SOL    HW221087   4.556   0.976   0.031 -0.5881  0.0348  2.2391
 3209SOL     OW21088   1.449   3.576   7.367  0.9590  0.3214  0.0223
 3209SOL    HW121089   1.433   3.515   7.439  0.5064 -0.2847 -0.6012
 3209SOL    HW221090   1.372   3.629   7.389  1.3486  0.2151  1.6889
 3210SOL     OW21091   3.634   2.230  11.267 -0.1056  0.2735  0.1808
 3210SOL    HW121092   3.550   2.187  11.254  0.7808 -1.4705  0.1046
 3210SOL    HW221093   3.625   2.268  11.354 -1.1723 -0.1856  0.2711
 3211SOL     OW21094   1.195   3.187   2.531 -0.1165 -0.2511  0.5085
 3211SOL    HW121095   1.103   3.161   2.541  0.0432 -0.3434  1.6338
 3211SOL    HW221096   1.223   3.134   2.456  0.7522  1.7182 -0.5632
 3212SOL     OW21097   2.846   1.800  12.485 -0.3238  0.4365 -0.4670
 3212SOL    HW121098   2.812   1.727  12.537  0.4484 -1.5930 -2.7672
 3212SOL    HW221099   2.928   1.813  12.533  0.6098  0.0981 -1.9700
 3213SOL     OW21100   2.069   3.500  12.070  0.0277 -0.1375  0.2117
 3213SOL    HW121101   2.150   3.490  12.020  0.9880  0.3403  1.6756
 3213SOL    HW221102   2.057   3.595  12.062 -1.4513 -0.3350  0.1033
 3214SOL     OW21103   0.898   1.663   9.168  0.1175 -0.1901 -0.0443
 3214SOL    HW121104   0.834   1.733   9.180 -0.7974 -0.8661 -0.9007
 3214SOL    HW221105   0.843   1.590   9.198  0.7517 -0.5547  0.2346
 3215SOL     OW21106   0.178   1.560   3.780  0.0824  0.2538  0.0068
 3215SOL    HW121107   0.213   1.643   3.748 -0.1857  0.6011  0.6184
 3215SOL    HW221108   0.250   1.500   3.760  1.8605  2.0447  1.1278
 3216SOL     OW21109   3.662   4.196   1.644 -0.2149 -0.2620  0.0044
 3216SOL    HW121110   3.661   4.205   1.740  0.0797 -0.0190 -0.0150
 3216SOL    HW221111   3.631   4.282   1.618 -1.2276 -0.3390  0.9713
 3217SOL     OW21112   4.193   3.459   3.159  0.1587 -0.0312  0.0915
 3217SOL    HW121113   4.265   3.402   3.133  1.3542  1.2143  0.7127
 3217SOL    HW221114   4.131   3.439   3.088 -0.7823  0.5818  0.7405
 3218SOL     OW21115   1.572   3.897  15.273 -0.1509 -0.2914  0.5749
 3218SOL    HW121116   1.650   3.948  15.298  0.9049 -0.9203 -1.4112
 3218SOL    HW221117   1.500   3.935  15.323 -1.7288 -0.1372 -1.7920
 3219SOL     OW21118   4.534   3.209   3.898 -0.2364 -0.9754  0.0658
 3219SOL    HW121119   4.475   3.236   3.969 -1.3032  2.0150 -1.9716
 3219SOL    HW221120   4.469   3.203   3.828  0.2260  0.5924 -0.4947
 3220SOL     OW21121   2.462   1.233  10.574  0.4479 -0.8042  0.6646
 3220SOL    HW121122   2.547   1.248  10.532 -0.5509 -0.6331 -1.3386
 3220SOL    HW221123   2.488   1.229  10.666  1.7743  0.3133  0.3553
 3221SOL     OW21124   3.821   0.075   5.704 -0.1799 -0.1080 -0.2222
 3221SOL    HW121125   3.772   0.059   5.785  1.1001  1.2046  0.8125
 3221SOL    HW221126   3.742   0.105   5.660 -0.0978 -2.4500 -1.9918
 3222SOL     OW21127   3.494   0.475   0.486  0.7309 -0.3255  0.3161
 3222SOL    HW121128   3.480   0.490   0.579 -1.7479 -0.5547 -0.0124
 3222SOL    HW221129   3.537   0.551   0.447 -0.4909  0.7079  0.9766
 3223SOL     OW21130   0.925   2.071  17.605 -0.3240 -0.0974 -0.1082
 3223SOL    HW121131   0.871   2.048  17.529  0.2083  0.2405 -0.5885
 3223SOL    HW221132   1.007   2.080  17.557 -0.6615  1.5823 -0.3602
 3224SOL     OW21133   0.968   2.277   4.628 -0.1255 -0.4129 -0.3357
 3224SOL    HW121134   1.021   2.209   4.669 -1.0749  0.1076  1.7833
 3224SOL    HW221135   0.894   2.227   4.594  0.2660 -0.7867 -0.6369
 3225SOL     OW21136   2.312   0.878  12.367 -0.0847  0.1033 -0.2817
 3225SOL    HW121137   2.345   0.962  12.400  0.8007 -0.8325  1.1870
 3225SOL    HW221138   2.335   0.874  12.274  1.8819 -3.1928  0.3548
 3226SOL     OW21139   2.662   3.747  15.459  0.1275 -0.0654 -0.1580
 3226SOL    HW121140   2.569   3.754  15.439  0.2493 -1.1802 -1.1259
 3226SOL    HW221141   2.708   3.773  15.379  0.2992 -0.3219 -0.1424
 3227SOL     OW21142   1.141   0.964  13.944 -0.4137 -0.2885  0.1151
 3227SOL    HW121143   1.049   0.939  13.938 -0.2988 -0.3682 -1.1711
 3227SOL    HW221144   1.177   0.958  13.856 -0.2795  1.1920  0.0698
 3228SOL     OW21145   4.280   0.676   7.153  0.5414  0.4061  0.1847
 3228SOL    HW121146   4.239   0.597   7.116 -2.4537  1.0255  2.2174
 3228SOL    HW221147   4.221   0.749   7.134 -0.3456  0.0971  1.7381
 3229SOL     OW21148   1.194   3.170   3.389 -0.5807 -0.0473  1.0096
 3229SOL    HW121149   1.108   3.155   3.348  0.5133 -0.0408 -1.2494
 3229SOL    HW221150   1.185   3.265   3.403 -0.6572  0.2911 -1.3156
 3230SOL     OW21151   0.583   1.137   9.337  0.1061  0.0252 -0.0216
 3230SOL    HW121152   0.579   1.051   9.295  2.2204 -0.0729 -0.0215
 3230SOL    HW221153   0.651   1.115   9.400 -1.0586 -1.3547  0.7465
 3231SOL     OW21154   2.647   3.859   8.129  0.3031  0.4604 -0.0918
 3231SOL    HW121155   2.591   3.783   8.113 -1.2158  1.3657  0.8344
 3231SOL    HW221156   2.670   3.854   8.221  2.4596  1.8419 -0.5621
 3232SOL     OW21157   1.587   0.596   6.198  0.3148  0.0565  0.0642
 3232SOL    HW121158   1.657   0.551   6.245  1.5726  2.7041  0.7072
 3232SOL    HW221159   1.555   0.647   6.273  0.5308 -0.6073  0.6090
 3233SOL     OW21160   3.054   3.923   2.964 -0.3517  0.1350  0.3976
 3233SOL    HW121161   2.973   3.928   3.016  0.3299 -2.1130  1.6687
 3233SOL    HW221162   3.044   3.836   2.925  2.2209 -0.9784  2.2227
 3234SOL     OW21163   4.218   1.532   6.664 -0.3284 -0.1416  0.0693
 3234SOL    HW121164   4.275   1.599   6.627 -3.2754  2.2381 -0.1853
 3234SOL    HW221165   4.146   1.593   6.678  0.9647  1.2835  0.3710
 3235SOL     OW21166   3.687   0.489   2.251 -0.4737 -0.5119 -0.1419
 3235SOL    HW121167   3.739   0.424   2.204  0.5696  1.2330 -1.4191
 3235SOL    HW221168   3.656   0.539   2.176  1.5838 -2.0285 -1.9846
 3236SOL     OW21169   1.453   2.901   8.699 -0.2696  0.4152  0.2834
 3236SOL    HW121170   1.372   2.857   8.726 -0.7161  0.0990 -1.5586
 3236SOL    HW221171   1.461   2.963   8.771 -0.2168  0.8437 -0.0860
 3237SOL     OW21172   4.517   3.921   7.086  0.1504  0.1053  0.1764
 3237SOL    HW121173   4.535   3.885   7.173 -0.4701 -2.5320 -0.7935
 3237SOL    HW221174   4.554   3.863   7.020 -0.0475 -1.1281  1.1531
 3238SOL     OW21175   4.185   0.863   8.446 -0.1732 -0.1625 -0.4780
 3238SOL    HW121176   4.261   0.806   8.458 -0.6755 -1.1155 -1.8203
 3238SOL    HW221177   4.217   0.948   8.478 -1.4827  0.3908 -0.6337
 3239SOL     OW21178   2.944   3.123   6.257  0.0497  0.1948 -0.0736
 3239SOL    HW121179   2.861   3.158   6.225  0.5604  1.7083  0.2471
 3239SOL    HW221180   2.990   3.206   6.248 -1.8218  1.1877 -0.3520
 3240SOL     OW21181   1.898   0.333   4.938 -0.0587 -0.2335 -0.5172
 3240SOL    HW121182   1.828   0.392   4.967  0.4980 -0.1175  0.5858
 3240SOL    HW221183   1.861   0.249   4.968 -0.8650 -0.7725 -3.0750
 3241SOL     OW21184   2.235   4.086   9.078 -0.1059  0.3036 -0.0111
 3241SOL    HW121185   2.299   4.146   9.115 -0.5154  0.2076  0.8620
 3241SOL    HW221186   2.282   4.049   9.003 -1.6030  1.7724 -1.6723
 3242SOL     OW21187   0.725   0.191  14.681 -0.6272  0.3914 -0.1037
 3242SOL    HW121188   0.777   0.166  14.758 -0.0753 -0.3611 -0.7164
 3242SOL    HW221189   0.695   0.279  14.703  1.1493  0.6693  1.2322
 3243SOL     OW21190   1.832   3.678   5.253 -0.6187  0.4127 -0.0502
 3243SOL    HW121191   1.775   3.629   5.193  0.7436 -0.5398 -0.5579
 3243SOL    HW221192   1.907   3.620   5.240 -0.1531  0.9112  0.4309
 3244SOL     OW21193   4.088   2.743  11.450  0.2144  0.2676 -0.9132
 3244SOL    HW121194   4.083   2.838  11.440 -0.2483  0.2453 -0.8934
 3244SOL    HW221195   4.070   2.714  11.360  1.8102 -0.2810 -1.0629
 3245SOL     OW21196   1.456   2.191   7.502 -0.1552 -0.4424 -0.2756
 3245SOL    HW121197   1.517   2.117   7.500  0.0441 -0.2778 -0.2371
 3245SOL    HW221198   1.422   2.190   7.591  1.6722  0.1347  0.4217
 3246SOL     OW21199   2.480   1.825   7.108 -0.4484 -0.5992  0.1880
 3246SOL    HW121200   2.402   1.771   7.095 -1.5669  1.0501  0.0536
 3246SOL    HW221201   2.547   1.762   7.082  1.9763  1.2096  2.1785
 3247SOL     OW21202   3.426   0.328   9.568  0.2695 -0.3702 -0.1635
 3247SOL    HW121203   3.412   0.234   9.581 -2.2899  0.4575  3.2472
 3247SOL    HW221204   3.336   0.361   9.574  0.7321  0.5505  2.1374
 3248SOL     OW21205   1.584   1.263   3.808  0.5434  0.0172  0.6781
 3248SOL    HW121206   1.574   1.254   3.903 -1.2151  1.1234  0.6073
 3248SOL    HW221207   1.580   1.356   3.786  1.3883 -0.0655  0.1782
 3249SOL     OW21208   1.129   3.622   7.649 -0.6081  0.4627 -0.3723
 3249SOL    HW121209   1.202   3.562   7.631 -1.1147 -0.4191  0.5464
 3249SOL    HW221210   1.146   3.689   7.583  0.9714 -1.8789 -2.3306
 3250SOL     OW21211   2.809   1.500  12.241 -0.0550  0.3442  0.8379
 3250SOL    HW121212   2.796   1.594  12.252 -0.8149  0.3335  0.0505
 3250SOL    HW221213   2.773   1.469  12.158 -0.0078  1.0978  0.5414
 3251SOL     OW21214   0.959   1.229   7.500 -0.2538  0.2016 -0.3120
 3251SOL    HW121215   0.980   1.322   7.511 -0.4836  0.1830  0.2667
 3251SOL    HW221216   1.050   1.204   7.484 -0.0583  0.0503  1.0354
 3252SOL     OW21217   0.333   1.426   7.887 -0.0942 -0.4625  0.1145
 3252SOL    HW121218   0.361   1.456   7.801 -1.9364 -0.7076 -0.5648
 3252SOL    HW221219   0.414   1.389   7.924  0.8104  1.1226 -0.2777
 3253SOL     OW21220   3.857   4.455   9.619 -0.4788 -0.0508 -0.1507
 3253SOL    HW121221   3.847   4.524   9.554 -0.6938 -1.0162 -1.1615
 3253SOL    HW221222   3.941   4.483   9.654  0.2871 -1.0607 -1.1523
 3254SOL     OW21223   4.625   1.308  15.080  0.1100  0.1388  0.0422
 3254SOL    HW121224   4.544   1.339  15.038  1.0248  2.2128 -0.1851
 3254SOL    HW221225   4.601   1.217  15.097 -0.6852  0.7461  2.2332
 3255SOL     OW21226   3.237   4.259   3.986  0.0369 -0.0875 -0.4313
 3255SOL    HW121227   3.217   4.250   3.893 -0.1796 -2.2568 -0.1755
 3255SOL    HW221228   3.157   4.233   4.031 -0.4128  1.1484 -0.5288
 3256SOL     OW21229   2.672   2.132  10.716 -0.0132  0.4292  0.6444
 3256SOL    HW121230   2.751   2.095  10.676 -0.6826 -0.3428  0.0296
 3256SOL    HW221231   2.618   2.142  10.638 -2.3839  1.1702  2.3984
 3257SOL     OW21232   0.444   0.518   8.551  0.2825 -0.5134 -0.4185
 3257SOL    HW121233   0.409   0.581   8.488 -0.6619 -1.0880 -0.4645
 3257SOL    HW221234   0.513   0.488   8.491 -0.4849 -0.1783 -1.4604
 3258SOL     OW21235   1.115   3.370   5.507  0.6525 -0.0115  0.2285
 3258SOL    HW121236   1.119   3.281   5.542  1.5406 -0.8353 -2.0152
 3258SOL    HW221237   1.207   3.396   5.511  0.9941 -0.6304 -3.7640
 3259SOL     OW21238   1.403   0.552   0.216  0.5766  0.2927  0.1322
 3259SOL    HW121239   1.334   0.604   0.177  1.1318  1.4438  0.6599
 3259SOL    HW221240   1.451   0.635   0.224 -1.5112  1.3847  1.2149
 3260SOL     OW21241   3.565   4.126   3.707  0.1234 -0.3798 -0.4504
 3260SOL    HW121242   3.558   4.203   3.650 -1.9414 -0.2140  0.0197
 3260SOL    HW221243   3.660   4.124   3.718  0.4914 -0.6250 -3.6603
 3261SOL     OW21244   1.726   1.511   7.645  0.5533  0.0895 -0.0385
 3261SOL    HW121245   1.746   1.425   7.681  1.5146  0.7762  1.0464
 3261SOL    HW221246   1.632   1.512   7.664  0.3440 -0.3022 -1.0565
 3262SOL     OW21247   2.710   4.049  16.767 -0.5143 -0.5132 -0.7289
 3262SOL    HW121248   2.634   4.057  16.824 -3.0799 -3.7618 -3.6274
 3262SOL    HW221249   2.707   3.957  16.741 -0.9306 -0.5001 -0.7335
 3263SOL     OW21250   1.785   1.640   7.434  0.2413 -0.6595  0.0070
 3263SOL    HW121251   1.779   1.590   7.516 -1.0687 -1.4563 -0.5720
 3263SOL    HW221252   1.696   1.629   7.402  0.0914 -0.0193  0.2091
 3264SOL     OW21253   1.895   0.015   9.521 -0.2429  0.5313 -0.4426
 3264SOL    HW121254   1.891   0.044   9.612 -0.8356  2.4237 -1.0855
 3264SOL    HW221255   1.908   0.100   9.479 -1.5079 -0.0863 -2.0736
 3265SOL     OW21256   3.383   3.441   4.221  0.1874 -0.3705  0.0334
 3265SOL    HW121257   3.414   3.357   4.257 -0.7148  0.6435  3.1439
 3265SOL    HW221258   3.444   3.456   4.149 -1.6399  1.3898 -1.1322
 3266SOL     OW21259   0.553   3.051   6.909  0.1333 -0.2803  0.0242
 3266SOL    HW121260   0.481   3.033   6.849 -0.4342  1.7910  0.0839
 3266SOL    HW221261   0.584   2.961   6.906 -0.9966 -0.6808  0.7052
 3267SOL     OW21262   4.304   2.417  15.402  0.6463  0.2111  0.1628
 3267SOL    HW121263   4.327   2.456  15.317  0.3611 -0.2437 -0.1237
 3267SOL    HW221264   4.347   2.481  15.459  2.7730 -2.4701  1.5417
 3268SOL     OW21265   1.330   4.035  11.267  0.0618  0.0941  0.0385
 3268SOL    HW121266   1.365   4.052  11.354  1.2394  2.2033 -0.8458
 3268SOL    HW221267   1.352   3.942  11.259  2.1415  0.6158 -0.2203
 3269SOL     OW21268   0.730   1.575   5.687 -0.6103 -0.1483 -0.1511
 3269SOL    HW121269   0.737   1.528   5.605 -0.8667 -1.2295  0.4459
 3269SOL    HW221270   0.650   1.532   5.719  0.2853 -1.5791  0.1272
 3270SOL     OW21271   0.026   4.230   1.344 -0.1950 -0.2062 -0.2459
 3270SOL    HW121272   0.091   4.179   1.392 -0.9415 -2.7864 -2.0073
 3270SOL    HW221273   0.031   4.311   1.395 -1.3695 -0.5001  0.3426
 3271SOL     OW21274   3.831   4.142   2.727  0.3222  0.7431  0.9677
 3271SOL    HW121275   3.841   4.206   2.798 -2.5617 -0.6676  2.6694
 3271SOL    HW221276   3.739   4.121   2.742 -0.0085  1.0227 -0.7325
 3272SOL     OW21277   0.136   1.003   4.657 -0.1908  0.6062 -0.7431
 3272SOL    HW121278   0.162   0.922   4.699 -0.5299  0.4736 -0.7932
 3272SOL    HW221279   0.145   1.065   4.729  4.3851 -0.8575 -0.0558
 3273SOL     OW21280   2.959   3.245  14.714 -0.1474  0.3973  0.5898
 3273SOL    HW121281   2.898   3.303  14.669  0.3273  1.8919  1.8501
 3273SOL    HW221282   2.957   3.162  14.667 -0.4707  1.8188 -1.9161
 3274SOL     OW21283   4.298   1.208   4.169  0.2374  0.7948 -0.3090
 3274SOL    HW121284   4.221   1.230   4.222  0.2431  0.6140 -0.2243
 3274SOL    HW221285   4.272   1.124   4.130 -1.6722  0.5235  1.5506
 3275SOL     OW21286   2.377   1.985   6.539  0.1500  0.3952 -0.0015
 3275SOL    HW121287   2.362   2.022   6.626  0.2140  1.3548 -0.4015
 3275SOL    HW221288   2.345   1.895   6.548  0.2796  0.1877 -1.6237
 3276SOL     OW21289   0.134   2.028   8.357  0.1769  0.5510  0.1154
 3276SOL    HW121290   0.174   1.970   8.293 -0.3532 -0.1247  0.3988
 3276SOL    HW221291   0.101   1.964   8.420 -1.2831  0.7051 -0.4933
 3277SOL     OW21292   1.613   2.104   3.434 -0.3448  0.1115 -0.0515
 3277SOL    HW121293   1.675   2.108   3.507  2.3375 -0.9948 -2.2868
 3277SOL    HW221294   1.670   2.111   3.358 -1.1602 -1.2788 -0.7839
 3278SOL     OW21295   1.624   3.339  13.975  0.1419  0.0090  0.6823
 3278SOL    HW121296   1.577   3.411  14.018 -0.3853  0.2993 -0.3708
 3278SOL    HW221297   1.695   3.390  13.935 -1.7127  0.3887 -2.1371
 3279SOL     OW21298   1.201   3.940  14.071  0.1352 -0.0966 -0.5110
 3279SOL    HW121299   1.131   4.006  14.070  0.3764  0.2275  2.3645
 3279SOL    HW221300   1.180   3.895  13.989 -0.6176  2.1002 -1.5254
 3280SOL     OW21301   2.491   0.807   5.226  0.7585 -0.6899  0.2178
 3280SOL    HW121302   2.441   0.888   5.212  2.5101  0.0157 -2.0374
 3280SOL    HW221303   2.459   0.792   5.315 -0.3838 -0.0408 -0.0787
 3281SOL     OW21304   4.420   2.039  13.722 -0.7029 -0.4603 -0.6470
 3281SOL    HW121305   4.360   2.107  13.694  2.1128  2.0487 -0.5470
 3281SOL    HW221306   4.408   1.983  13.645  0.8416  0.5267 -1.5948
 3282SOL     OW21307   0.286   1.224   2.290  0.0559  0.1011 -0.7428
 3282SOL    HW121308   0.272   1.130   2.297 -0.2635  0.4204  2.9684
 3282SOL    HW221309   0.372   1.234   2.332 -1.1486  1.6029  1.3604
 3283SOL     OW21310   1.799   3.695   9.262  0.1047 -0.2730 -0.1130
 3283SOL    HW121311   1.810   3.788   9.283  3.1098 -0.5882 -0.2856
 3283SOL    HW221312   1.814   3.661   9.350 -0.7156  0.0748  0.1655
 3284SOL     OW21313   1.659   1.661   9.020 -0.0370 -0.1660  0.1273
 3284SOL    HW121314   1.691   1.663   8.930 -0.9605 -1.5854 -0.2211
 3284SOL    HW221315   1.578   1.712   9.022 -1.0704 -1.6779 -4.2598
 3285SOL     OW21316   0.711   0.146  17.249 -0.1280  0.1136  0.0534
 3285SOL    HW121317   0.738   0.059  17.279  1.0175  0.4313 -0.0537
 3285SOL    HW221318   0.707   0.199  17.328  4.1194  0.5969 -0.0187
 3286SOL     OW21319   1.708   0.948   2.603 -0.0513 -0.2545 -0.1510
 3286SOL    HW121320   1.660   0.998   2.669  1.1888  1.5027 -0.6033
 3286SOL    HW221321   1.720   0.866   2.652  0.4229  0.1034  0.3286
 3287SOL     OW21322   4.368   1.144   8.149 -0.5143 -0.2116 -0.4013
 3287SOL    HW121323   4.287   1.192   8.168 -0.4762 -0.0652 -0.6105
 3287SOL    HW221324   4.419   1.176   8.223 -1.0562  1.0963 -0.5920
 3288SOL     OW21325   3.598   0.931   0.740  0.4639  0.5419  0.4351
 3288SOL    HW121326   3.639   0.997   0.685  0.7996 -1.4826 -1.7084
 3288SOL    HW221327   3.640   0.963   0.820  0.3821 -0.3545  0.8415
 3289SOL     OW21328   2.814   4.193   0.539 -0.0939  0.0389 -0.1681
 3289SOL    HW121329   2.779   4.139   0.468  0.0763  1.5228 -1.4112
 3289SOL    HW221330   2.861   4.259   0.487  0.1396 -0.3174 -0.4021
 3290SOL     OW21331   3.683   2.777   9.157  0.1722 -0.7607  0.0348
 3290SOL    HW121332   3.602   2.793   9.108 -0.5397 -3.0781  0.4650
 3290SOL    HW221333   3.658   2.696   9.201  0.8998 -1.9464 -1.7595
 3291SOL     OW21334   4.207   0.122   3.007 -0.0761 -0.1270  0.1223
 3291SOL    HW121335   4.293   0.086   3.030 -0.2494 -0.0971  0.8184
 3291SOL    HW221336   4.217   0.191   2.941 -0.0481  1.0251  1.3413
 3292SOL     OW21337   0.226   4.411  15.045  0.1310  0.3988  0.0626
 3292SOL    HW121338   0.154   4.475  15.045 -0.9588 -0.8215  0.8499
 3292SOL    HW221339   0.196   4.356  15.118 -1.8002 -2.3856 -2.7943
 3293SOL     OW21340   3.239   2.406  10.146 -0.1878  0.0581  0.2969
 3293SOL    HW121341   3.319   2.409  10.197  0.5245 -2.1248 -0.6892
 3293SOL    HW221342   3.191   2.330  10.180  3.5382 -1.9654  0.9643
 3294SOL     OW21343   2.627   1.973  12.559 -0.1784 -0.2238  0.1112
 3294SOL    HW121344   2.716   1.943  12.537 -0.2441 -0.9750  0.8808
 3294SOL    HW221345   2.602   1.911  12.627  3.1198 -2.0677 -0.3289
 3295SOL     OW21346   1.352   2.482   7.210  0.5015 -0.3177 -0.6206
 3295SOL    HW121347   1.334   2.550   7.274  0.1034  1.4026 -2.5679
 3295SOL    HW221348   1.447   2.474   7.223  0.2511  0.7297  1.8232
 3296SOL     OW21349   2.971   0.614   7.954 -0.5642  0.4354 -0.7413
 3296SOL    HW121350   3.042   0.676   7.937 -0.5727  0.5026 -0.5365
 3296SOL    HW221351   2.988   0.550   7.885 -0.1112 -1.3652  1.0479
 3297SOL     OW21352   1.387   1.470  12.934 -0.3766  0.0709 -0.1283
 3297SOL    HW121353   1.395   1.531  13.007 -3.1900  0.7369 -0.3773
 3297SOL    HW221354   1.446   1.400  12.962 -0.0349  0.0607 -0.8632
 3298SOL     OW21355   3.179   4.325   0.890  0.2756  0.7915  0.5152
 3298SOL    HW121356   3.133   4.360   0.814 -1.0374  1.4189  1.6079
 3298SOL    HW221357   3.128   4.360   0.963 -0.0708 -1.0219  1.1527
 3299SOL     OW21358   0.385   1.861  15.176 -0.8330 -0.0173 -0.4431
 3299SOL    HW121359   0.339   1.875  15.094  0.5766 -0.0298 -1.2451
 3299SOL    HW221360   0.350   1.935  15.226 -3.7284 -1.9207  0.3412
 3300SOL     OW21361   1.584   3.674   8.293 -0.1320  0.8286 -0.0336
 3300SOL    HW121362   1.674   3.649   8.312 -1.0953 -2.2484  0.4029
 3300SOL    HW221363   1.547   3.704   8.376 -0.5210 -0.1463  0.1397
 3301SOL     OW21364   0.610   0.497   0.946  0.1958 -0.0612  0.1009
 3301SOL    HW121365   0.566   0.423   0.988  0.4002  0.3782  1.1047
 3301SOL    HW221366   0.561   0.575   0.973 -0.1868  0.0493 -0.9388
 3302SOL     OW21367   2.306   1.679   5.104  0.7984 -0.0159  0.1382
 3302SOL    HW121368   2.268   1.670   5.192  1.6733 -2.5322  0.2582
 3302SOL    HW221369   2.333   1.771   5.096  2.0100 -0.3369  0.5325
 3303SOL     OW21370   0.451   2.902   4.511 -0.0893  0.0415 -0.7138
 3303SOL    HW121371   0.412   2.873   4.428  0.8536 -0.4033 -1.0052
 3303SOL    HW221372   0.375   2.919   4.566  0.2522  0.4908 -0.3780
 3304SOL     OW21373   2.694   0.245   4.881 -0.4557  0.1144 -0.1998
 3304SOL    HW121374   2.604   0.270   4.859 -0.2667  0.2936 -0.7672
 3304SOL    HW221375   2.698   0.263   4.975  0.4842  1.2627 -0.4571
 3305SOL     OW21376   0.102   3.972   5.670  0.1295  0.1732 -0.1494
 3305SOL    HW121377   0.191   3.936   5.671  0.8450  1.9486  0.5031
 3305SOL    HW221378   0.096   3.992   5.763  0.6024  0.0427 -0.0894
 3306SOL     OW21379   0.749   2.486   3.085 -0.2416 -0.3899 -0.2140
 3306SOL    HW121380   0.704   2.523   3.161  1.3051 -1.2857  1.1212
 3306SOL    HW221381   0.678   2.430   3.056 -1.8723  0.0817  2.8365
 3307SOL     OW21382   3.672   4.686  17.536 -0.3887 -0.6384 -0.4065
 3307SOL    HW121383   3.683   0.043  17.486  2.7266  0.8320  2.6010
 3307SOL    HW221384   3.679   4.622  17.466 -1.8548 -1.6589  0.3841
 3308SOL     OW21385   4.451   1.659   1.481  0.1984  0.1090  0.0924
 3308SOL    HW121386   4.392   1.663   1.556  1.0054  0.7034  0.6939
 3308SOL    HW221387   4.440   1.744   1.438  0.9228  0.1396 -0.0275
 3309SOL     OW21388   0.955   0.032   6.435 -0.2264 -0.3800  0.1706
 3309SOL    HW121389   1.022   0.052   6.370 -1.6640 -0.9921 -1.5225
 3309SOL    HW221390   0.919   0.119   6.453  2.4078  1.0100 -1.2946
 3310SOL     OW21391   4.672   4.272  10.913 -0.3813  0.5564 -0.7749
 3310SOL    HW121392   4.722   4.196  10.941  1.2238  1.6231 -0.7409
 3310SOL    HW221393   0.013   4.341  10.898  0.1908  0.3679  0.8647
 3311SOL     OW21394   2.397   1.588  11.159  0.2758 -0.0307  0.2663
 3311SOL    HW121395   2.372   1.504  11.121  0.3910  0.5339 -1.0305
 3311SOL    HW221396   2.349   1.638  11.094  0.2793 -0.6280 -0.1958
 3312SOL     OW21397   4.721   2.744   8.529  0.0261 -0.1176 -0.0032
 3312SOL    HW121398   4.633   2.707   8.537 -0.0203 -0.3700 -1.6910
 3312SOL    HW221399   0.044   2.660   8.536 -0.1476 -0.4998 -3.0825
 3313SOL     OW21400   3.043   4.591   7.913  0.3445  0.8857  0.3942
 3313SOL    HW121401   2.957   4.559   7.888 -0.4845  2.3312  1.3902
 3313SOL    HW221402   3.074   4.535   7.985  0.3923  0.5903  0.1409
 3314SOL     OW21403   1.585   3.145   6.320  0.4975  0.4455  0.8932
 3314SOL    HW121404   1.523   3.169   6.389 -0.7418  1.6348 -0.6193
 3314SOL    HW221405   1.648   3.083   6.355  0.2656 -0.1391  0.2781
 3315SOL     OW21406   3.212   1.284   6.903 -0.0993  0.0511  0.0665
 3315SOL    HW121407   3.190   1.210   6.960 -0.4622  0.0713 -0.0499
 3315SOL    HW221408   3.138   1.343   6.914  0.9218  1.4006 -0.3978
 3316SOL     OW21409   2.584   1.707   8.421 -0.0401  0.3311 -0.2793
 3316SOL    HW121410   2.607   1.740   8.335 -0.3564 -1.5908 -1.0892
 3316SOL    HW221411   2.579   1.614   8.403  2.3260  0.8923 -3.8382
 3317SOL     OW21412   0.556   4.596   0.811  0.1344 -0.2639  0.0328
 3317SOL    HW121413   0.526   4.506   0.802  0.5406 -0.3782 -0.1535
 3317SOL    HW221414   0.650   4.584   0.796 -0.0092 -0.5969 -0.5782
 3318SOL     OW21415   1.767   1.478   3.724 -0.4917 -0.3453  0.0412
 3318SOL    HW121416   1.778   1.565   3.687 -0.8727  0.6423  2.2326
 3318SOL    HW221417   1.812   1.419   3.664 -2.5542 -1.4000 -0.4562
 3319SOL     OW21418   1.334   1.532   8.878  0.7335 -0.1739 -0.6061
 3319SOL    HW121419   1.317   1.554   8.969 -3.5792 -0.7236 -1.2789
 3319SOL    HW221420   1.379   1.447   8.871 -0.0521 -0.7364  1.2467
 3320SOL     OW21421   4.139   0.692  17.116  0.5456  0.3626 -0.4550
 3320SOL    HW121422   4.139   0.676  17.211 -1.1501  1.1634 -0.3129
 3320SOL    HW221423   4.048   0.674  17.094  0.5194 -0.8218  0.6087
 3321SOL     OW21424   4.127   4.113   1.774  0.0228  0.3413  0.0093
 3321SOL    HW121425   4.213   4.155   1.776  0.8420 -1.4391  2.7271
 3321SOL    HW221426   4.100   4.119   1.683 -0.9831 -0.1745  0.2676
 3322SOL     OW21427   0.182   2.776  13.509 -0.3862 -0.6879 -0.0317
 3322SOL    HW121428   0.115   2.738  13.565 -0.9153  2.3321  1.4206
 3322SOL    HW221429   0.225   2.838  13.569  0.7238 -1.1038 -0.3877
 3323SOL     OW21430   2.663   2.164   2.524 -0.7748  0.5016 -0.1365
 3323SOL    HW121431   2.574   2.186   2.550 -0.6273  0.3769  0.4997
 3323SOL    HW221432   2.717   2.239   2.550 -0.4737  0.1684  0.2176
 3324SOL     OW21433   1.418   0.200  13.601  0.0736  0.0412  0.0189
 3324SOL    HW121434   1.419   0.262  13.675 -0.0147  1.1715 -0.9251
 3324SOL    HW221435   1.368   0.131  13.645  0.2913  1.4166  2.4860
 3325SOL     OW21436   1.120   2.123   6.153  0.5932 -0.0429 -0.0127
 3325SOL    HW121437   1.152   2.209   6.178 -1.3832  1.5258 -2.9706
 3325SOL    HW221438   1.163   2.109   6.069  2.2641  1.2643  0.6276
 3326SOL     OW21439   2.486   4.100  16.939  0.2203 -0.7323 -0.6836
 3326SOL    HW121440   2.520   4.152  17.012  1.2679 -2.2388 -0.1120
 3326SOL    HW221441   2.463   4.020  16.986  1.1880 -0.5271  0.1387
 3327SOL     OW21442   0.207   0.981   4.134 -0.8426  0.4167  0.5460
 3327SOL    HW121443   0.262   0.905   4.154  0.3561  0.2876 -3.1502
 3327SOL    HW221444   0.169   0.996   4.220  1.7453 -0.4407  1.8430
 3328SOL     OW21445   1.772   3.528   4.120 -0.7699 -0.3556 -0.1151
 3328SOL    HW121446   1.839   3.507   4.185  0.5108  1.1584 -0.9527
 3328SOL    HW221447   1.835   3.531   4.048 -0.7165 -3.4829 -0.1590
 3329SOL     OW21448   2.050   1.057  12.436  0.7325  0.2279  0.0367
 3329SOL    HW121449   2.082   1.013  12.514  2.5290  0.3381 -0.6369
 3329SOL    HW221450   1.959   1.075  12.460  0.1269 -0.1987 -1.9320
 3330SOL     OW21451   4.008   1.547   6.265  0.4530  0.0724  0.5692
 3330SOL    HW121452   3.997   1.604   6.189 -0.7785 -0.1908  0.5542
 3330SOL    HW221453   3.940   1.565   6.330 -0.5465  1.6410 -0.9125
 3331SOL     OW21454   1.433   1.310  12.360  0.4449  0.6103 -0.3440
 3331SOL    HW121455   1.354   1.349  12.322 -1.1159 -0.3065  1.9898
 3331SOL    HW221456   1.385   1.230  12.379  1.4229  0.2253  0.5039
 3332SOL     OW21457   3.957   4.556  14.498  0.2665  0.2400  0.1306
 3332SOL    HW121458   4.006   4.628  14.539  1.1004  0.2257 -0.8526
 3332SOL    HW221459   4.001   4.481  14.538 -0.9585 -0.2905  0.4861
 3333SOL     OW21460   1.295   4.682   7.245  0.0684  0.3024 -0.3770
 3333SOL    HW121461   1.340   4.717   7.322 -0.1049 -0.7429  0.2110
 3333SOL    HW221462   1.202   4.698   7.258 -0.3072 -1.8209 -0.3319
 3334SOL     OW21463   1.937   3.316  17.459  0.5393  0.2154  0.2575
 3334SOL    HW121464   2.025   3.337  17.490 -1.4818  1.8728  4.8035
 3334SOL    HW221465   1.883   3.384  17.499  1.7266  1.6245 -0.5635
 3335SOL     OW21466   0.090   0.069   2.536 -0.0778 -0.0930  0.1115
 3335SOL    HW121467   0.151   0.019   2.481 -0.3043 -1.3827  1.0334
 3335SOL    HW221468   0.136   0.042   2.615  0.9591 -1.1461 -0.8358
 3336SOL     OW21469   3.514   4.111   7.675 -0.7092 -1.0261 -0.2791
 3336SOL    HW121470   3.431   4.073   7.703 -0.9134 -1.2633 -1.2180
 3336SOL    HW221471   3.508   4.134   7.582  2.0056  1.9860  0.2652
 3337SOL     OW21472   2.647   3.545   5.730  0.7299 -0.2767  0.3383
 3337SOL    HW121473   2.704   3.564   5.805 -2.1117 -0.9058  2.6425
 3337SOL    HW221474   2.598   3.627   5.728  1.0014 -0.1977 -2.3124
 3338SOL     OW21475   4.042   2.102   8.442 -0.0764 -0.5016  0.2007
 3338SOL    HW121476   3.988   2.162   8.390 -0.1544 -0.8435 -0.1173
 3338SOL    HW221477   4.034   2.022   8.389  1.5970 -0.1566 -0.5502
 3339SOL     OW21478   4.400   0.771   8.950 -0.3772 -0.8754  0.0788
 3339SOL    HW121479   4.413   0.707   9.021  1.1645 -0.1206  0.4835
 3339SOL    HW221480   4.333   0.829   8.986  0.3398 -0.6086  0.9943
 3340SOL     OW21481   2.023   4.374   8.527  0.2368  0.2040 -0.1788
 3340SOL    HW121482   2.008   4.388   8.621 -0.9624  0.1978 -0.3645
 3340SOL    HW221483   2.115   4.398   8.521  0.2275  0.6746  1.4120
 3341SOL     OW21484   3.933   2.668  13.349 -0.0135  0.6063 -0.2972
 3341SOL    HW121485   3.852   2.716  13.335  0.3580  1.3649  0.1194
 3341SOL    HW221486   3.993   2.727  13.304 -0.0045  1.3509  0.6941
 3342SOL     OW21487   1.065   3.234  16.698 -0.2137  0.1057  0.2575
 3342SOL    HW121488   1.060   3.296  16.770  0.0488 -1.7367  1.8654
 3342SOL    HW221489   1.070   3.293  16.623 -0.2480 -1.2775 -0.8310
 3343SOL     OW21490   1.756   0.040   8.267  0.6651 -0.0835 -0.1548
 3343SOL    HW121491   1.828   4.708   8.240  0.2861 -0.4441 -0.4272
 3343SOL    HW221492   1.774   0.062   8.358  0.0633  1.0907 -0.3221
 3344SOL     OW21493   1.388   1.863   0.734 -0.1709 -0.6224  0.3385
 3344SOL    HW121494   1.348   1.908   0.659 -1.2376  0.8619  1.8094
 3344SOL    HW221495   1.367   1.921   0.807  3.2710 -0.9349  1.5403
 3345SOL     OW21496   1.669   0.600   2.338 -0.6938 -0.0832 -0.3811
 3345SOL    HW121497   1.720   0.520   2.324  0.6770  0.6340  0.4769
 3345SOL    HW221498   1.735   0.667   2.321 -0.4915  0.0559  0.9641
 3346SOL     OW21499   3.784   4.628   5.000 -0.3139 -0.0859  1.0314
 3346SOL    HW121500   3.761   4.540   4.973 -0.9577 -0.3873  2.5760
 3346SOL    HW221501   3.879   4.618   4.994 -0.5167 -0.9828 -0.6719
 3347SOL     OW21502   4.046   3.640   1.476 -0.0028  0.0687 -0.4108
 3347SOL    HW121503   4.045   3.592   1.559 -0.0809  0.6467 -0.0809
 3347SOL    HW221504   3.963   3.606   1.442 -0.7381 -0.1028  1.5568
 3348SOL     OW21505   3.775   1.761   0.424 -0.4634  0.3148 -0.3726
 3348SOL    HW121506   3.790   1.722   0.338 -0.1133  2.6076 -1.3577
 3348SOL    HW221507   3.828   1.840   0.413  2.0761 -1.2989  0.4556
 3349SOL     OW21508   1.194   3.891   8.160 -0.8638 -0.4333 -0.1335
 3349SOL    HW121509   1.208   3.916   8.252  0.4952 -1.7990  0.0408
 3349SOL    HW221510   1.130   3.821   8.173 -0.0969 -1.0620  0.2961
 3350SOL     OW21511   0.364   0.815   7.280  0.6536  0.5015  0.2075
 3350SOL    HW121512   0.334   0.901   7.250 -2.6081 -0.5772  0.3330
 3350SOL    HW221513   0.291   0.803   7.341  0.2292 -0.3055 -0.4513
 3351SOL     OW21514   3.680   3.337  15.475 -0.1423 -0.8538  0.3516
 3351SOL    HW121515   3.693   3.432  15.473  2.7541 -1.3495 -3.5791
 3351SOL    HW221516   3.686   3.308  15.566  0.0581 -1.1080  0.2578
 3352SOL     OW21517   3.991   0.697  17.596  0.4342  0.1647  0.1422
 3352SOL    HW121518   4.072   0.718  17.643 -0.1477 -0.1672  1.2813
 3352SOL    HW221519   3.942   0.677  17.676  1.1605 -1.5868  0.1441
 3353SOL     OW21520   0.202   2.244   6.161  0.1502  0.1821 -0.1527
 3353SOL    HW121521   0.285   2.288   6.178 -0.6726  1.2407  1.1290
 3353SOL    HW221522   0.200   2.227   6.067  0.2909  0.0561 -0.1338
 3354SOL     OW21523   3.151   2.845  16.921  0.2298 -0.0432  0.2406
 3354SOL    HW121524   3.118   2.757  16.904 -0.6365  0.0969  1.1903
 3354SOL    HW221525   3.077   2.900  16.947 -0.3417 -1.4102  1.5181
 3355SOL     OW21526   3.165   1.982  11.062  0.3570 -0.2492  0.1911
 3355SOL    HW121527   3.109   2.013  11.134 -0.2691 -0.1327 -0.3401
 3355SOL    HW221528   3.166   1.889  11.084 -0.8433 -0.0860  0.9577
 3356SOL     OW21529   0.488   2.343  15.001 -0.3196  0.3139  0.4646
 3356SOL    HW121530   0.510   2.292  14.923  0.8972 -0.3454  1.2259
 3356SOL    HW221531   0.459   2.424  14.958  2.0711  0.2977 -1.2131
 3357SOL     OW21532   3.964   1.074  17.585 -0.2917 -0.0936 -0.1740
 3357SOL    HW121533   3.962   1.164  17.553  0.5710 -0.6271 -1.7090
 3357SOL    HW221534   4.044   1.064  17.637 -1.6672 -1.2881  1.7259
 3358SOL     OW21535   4.175   4.242   3.685  0.3493 -0.4073 -0.1220
 3358SOL    HW121536   4.202   4.152   3.698  3.2674  0.2178 -1.8602
 3358SOL    HW221537   4.091   4.237   3.731 -0.2675  1.6564 -0.9659
 3359SOL     OW21538   3.774   3.999   7.727 -0.3990 -0.3422 -0.0145
 3359SOL    HW121539   3.704   4.058   7.699 -0.9762 -0.9677  0.0893
 3359SOL    HW221540   3.755   3.990   7.821  0.7333  2.8646  0.4936
 3360SOL     OW21541   2.153   0.198  13.214  0.2555  0.3656 -0.2549
 3360SOL    HW121542   2.229   0.209  13.271 -0.4251  1.1212  0.5019
 3360SOL    HW221543   2.085   0.236  13.270 -0.1350 -0.6495 -0.0304
 3361SOL     OW21544   2.031   2.934   4.850 -0.1602  0.4257 -0.0687
 3361SOL    HW121545   1.998   2.911   4.937  3.3645  2.0028  1.7236
 3361SOL    HW221546   2.125   2.946   4.865 -0.0359  0.8250 -1.1784
 3362SOL     OW21547   0.109   1.548   6.504  0.0749 -0.5320  0.2734
 3362SOL    HW121548   0.176   1.595   6.454  0.8430 -1.3363  0.5416
 3362SOL    HW221549   0.108   1.589   6.590  0.2619  0.0519 -0.0039
 3363SOL     OW21550   1.826   2.236   9.856  0.7056  0.0142  0.1364
 3363SOL    HW121551   1.766   2.293   9.904  0.4402 -2.1092  2.3544
 3363SOL    HW221552   1.747   2.186   9.836  0.5502  0.9840 -1.6106
 3364SOL     OW21553   4.308   2.730   6.348  0.9247  0.3354  0.2782
 3364SOL    HW121554   4.353   2.677   6.281  0.4437 -0.7138  0.7776
 3364SOL    HW221555   4.232   2.757   6.296  1.2220 -2.5847 -1.6964
 3365SOL     OW21556   0.044   3.953   8.381 -0.2344 -0.0883 -0.5028
 3365SOL    HW121557   0.133   3.990   8.379  0.1132 -0.8927  0.0416
 3365SOL    HW221558   0.029   3.963   8.475 -1.6068  2.4250 -0.9870
 3366SOL     OW21559   3.794   1.445  16.069 -0.5247 -0.5048 -0.1112
 3366SOL    HW121560   3.790   1.419  15.977 -0.2756  0.9382 -0.5329
 3366SOL    HW221561   3.795   1.541  16.066 -0.7796 -0.5068 -0.2153
 3367SOL     OW21562   2.150   4.714   1.023  0.3203 -0.1578 -0.1989
 3367SOL    HW121563   2.169   4.707   0.929 -0.4918  1.1808 -0.4541
 3367SOL    HW221564   2.202   4.643   1.060  1.4029  0.5555 -0.3558
 3368SOL     OW21565   0.284   4.450   8.922 -0.1038 -0.4583 -0.2198
 3368SOL    HW121566   0.287   4.368   8.972 -0.5410 -1.2561 -1.5076
 3368SOL    HW221567   0.330   4.429   8.841  1.8333  0.3662  0.6609
 3369SOL     OW21568   1.092   0.668   4.882 -0.3179 -0.1521 -0.2405
 3369SOL    HW121569   1.052   0.646   4.966 -0.6060 -0.0668 -0.3560
 3369SOL    HW221570   1.027   0.632   4.821 -0.8116 -0.7104  0.6296
 3370SOL     OW21571   0.460   1.745   7.690 -0.2387 -0.2000  0.3152
 3370SOL    HW121572   0.477   1.655   7.663 -0.7677 -0.4800  0.8974
 3370SOL    HW221573   0.365   1.740   7.685 -0.4156  3.0081  0.3538
 3371SOL     OW21574   1.263   4.585   9.955  0.1670  0.7925 -0.1247
 3371SOL    HW121575   1.235   4.661  10.007 -1.1971  0.1518  0.0904
 3371SOL    HW221576   1.335   4.619   9.902  1.7100  0.6847  1.9275
 3372SOL     OW21577   3.905   4.648  17.390 -0.1970  0.0497  0.2116
 3372SOL    HW121578   3.949   4.624  17.472  0.8942 -2.3485 -1.0861
 3372SOL    HW221579   3.916   4.566  17.343  0.2524  0.7375 -0.8731
 3373SOL     OW21580   2.845   1.007   6.179 -0.2533 -0.2465  0.0618
 3373SOL    HW121581   2.908   1.077   6.199 -0.5333  0.1418 -0.4067
 3373SOL    HW221582   2.793   1.061   6.120  0.8022  0.4365 -0.2631
 3374SOL     OW21583   3.896   2.391   1.386 -0.1700  0.3431 -0.7577
 3374SOL    HW121584   3.825   2.344   1.340 -0.2877  0.0864 -0.3106
 3374SOL    HW221585   3.875   2.483   1.372  0.8368  0.3830 -2.0919
 3375SOL     OW21586   4.508   1.066   3.667 -0.1558 -0.0059 -0.4187
 3375SOL    HW121587   4.459   1.123   3.607 -0.0060 -2.2107 -2.6419
 3375SOL    HW221588   4.453   0.989   3.652  0.6931 -0.9342  1.3433
 3376SOL     OW21589   4.157   3.013  13.013 -0.0986  0.0751  0.6064
 3376SOL    HW121590   4.100   2.962  12.956  1.3817 -0.7945 -0.0927
 3376SOL    HW221591   4.199   3.068  12.947  0.0030  2.2818  2.5107
 3377SOL     OW21592   1.882   4.274   5.196 -0.2531 -0.4974 -0.0197
 3377SOL    HW121593   1.893   4.188   5.236 -1.4622 -0.3045  0.7189
 3377SOL    HW221594   1.946   4.317   5.253 -1.2659  1.5138 -0.4140
 3378SOL     OW21595   0.365   3.367   5.198  0.3573  0.1307  0.5858
 3378SOL    HW121596   0.450   3.399   5.169  0.2058  0.4270  0.4741
 3378SOL    HW221597   0.303   3.435   5.172  2.2172  1.4528 -0.3922
 3379SOL     OW21598   4.016   2.464  15.784 -0.0275  0.7325  0.5136
 3379SOL    HW121599   3.957   2.529  15.822 -1.6128 -0.0401 -0.6610
 3379SOL    HW221600   3.966   2.405  15.728  0.9617  0.5393 -0.1741
 3380SOL     OW21601   3.156   1.310   5.119  0.0731  0.1471 -0.7228
 3380SOL    HW121602   3.155   1.215   5.122  0.7395  0.1251 -1.2915
 3380SOL    HW221603   3.246   1.330   5.143 -0.4764  0.0408  1.3743
 3381SOL     OW21604   1.022   0.716  11.384 -0.1984 -0.1299  0.2308
 3381SOL    HW121605   0.945   0.663  11.406 -0.1987  1.6328  4.5317
 3381SOL    HW221606   1.089   0.669  11.434  0.1572 -0.8528 -0.9353
 3382SOL     OW21607   2.822   1.543  10.321  0.2605 -0.2294 -0.3528
 3382SOL    HW121608   2.739   1.496  10.315  0.6451 -0.8754 -0.7051
 3382SOL    HW221609   2.814   1.614  10.258  1.0609 -1.4400 -1.8424
 3383SOL     OW21610   2.402   0.251   8.038  0.4436 -0.2229 -0.1400
 3383SOL    HW121611   2.413   0.157   8.049 -0.2762 -0.2646  0.2557
 3383SOL    HW221612   2.491   0.286   8.041  1.3236 -2.4872 -0.0558
 3384SOL     OW21613   0.778   4.455  12.104  0.0599  0.0541  0.6734
 3384SOL    HW121614   0.810   4.369  12.132  0.8766  0.3550  0.6435
 3384SOL    HW221615   0.708   4.432  12.043  0.8815  1.2617 -0.7071
 3385SOL     OW21616   2.466   1.929   4.551 -0.1320  0.3737 -0.2785
 3385SOL    HW121617   2.457   1.835   4.533 -2.2776  0.5197  0.0200
 3385SOL    HW221618   2.528   1.947   4.480 -1.9180  0.2288 -1.8800
 3386SOL     OW21619   3.341   1.760   9.085  0.4531 -0.2053 -0.1834
 3386SOL    HW121620   3.338   1.836   9.026  1.4585 -1.0625 -1.3356
 3386SOL    HW221621   3.266   1.783   9.141  0.2641 -1.1408 -0.0640
 3387SOL     OW21622   3.477   2.608   5.467 -0.8774 -0.1011 -0.1821
 3387SOL    HW121623   3.456   2.529   5.517  1.1491 -0.2485  0.4530
 3387SOL    HW221624   3.553   2.640   5.516 -1.7926  0.2352  1.0243
 3388SOL     OW21625   3.742   2.001   3.424 -0.0137  0.5225  0.0207
 3388SOL    HW121626   3.650   2.008   3.450 -0.0739 -2.5828  0.6750
 3388SOL    HW221627   3.760   1.915   3.461  0.1623 -0.3550 -2.1253
 3389SOL     OW21628   4.342   3.988   3.107  0.4690  0.2479  0.1893
 3389SOL    HW121629   4.380   4.019   3.189  3.0486 -1.4531 -0.3416
 3389SOL    HW221630   4.306   3.904   3.135  0.1799  0.8369  1.5503
 3390SOL     OW21631   3.768   2.942   2.246 -0.0910  0.0320  0.7050
 3390SOL    HW121632   3.746   2.911   2.334  1.2416  0.0245  1.0458
 3390SOL    HW221633   3.753   2.872   2.183  0.6007 -0.6036  1.2571
 3391SOL     OW21634   0.523   0.999  11.204  0.3093  0.8427  0.1053
 3391SOL    HW121635   0.474   0.929  11.247  0.3704  0.8094  0.1206
 3391SOL    HW221636   0.460   1.036  11.142 -0.1006 -0.8348 -0.4820
 3392SOL     OW21637   3.888   4.481   1.554  0.1400 -0.7966 -0.2885
 3392SOL    HW121638   3.809   4.426   1.553  0.8923 -1.8848 -0.5982
 3392SOL    HW221639   3.931   4.464   1.637 -1.1289 -2.3273  0.0603
 3393SOL     OW21640   0.577   3.374   8.256 -0.2370 -0.3975  0.1953
 3393SOL    HW121641   0.640   3.439   8.286 -1.5511  0.7168  0.5698
 3393SOL    HW221642   0.494   3.422   8.260 -0.2260 -0.2173 -1.4171
 3394SOL     OW21643   2.020   4.190   7.609  0.0300  0.0280  0.2414
 3394SOL    HW121644   1.989   4.278   7.590 -0.9496 -0.1340  1.0453
 3394SOL    HW221645   1.945   4.155   7.658 -1.4100  0.3560 -1.7280
 3395SOL     OW21646   1.969   4.463   7.208 -0.1177 -0.3914  0.3661
 3395SOL    HW121647   1.958   4.410   7.129 -0.9825 -0.5773  0.6178
 3395SOL    HW221648   2.063   4.482   7.201 -0.5951  2.0631  0.5006
 3396SOL     OW21649   0.401   0.161  17.392 -0.4868  0.3792 -0.5474
 3396SOL    HW121650   0.475   0.131  17.444 -0.9168 -0.8845 -0.6556
 3396SOL    HW221651   0.402   0.091  17.327  0.4930 -1.5183  1.4652
 3397SOL     OW21652   4.368   1.007   1.427 -0.1947 -0.2495  0.3093
 3397SOL    HW121653   4.404   1.077   1.481 -1.8535  0.4889  0.4465
 3397SOL    HW221654   4.380   1.049   1.342 -0.5761  0.3921  0.5762
 3398SOL     OW21655   1.429   0.592   6.000  0.5330 -0.2530  0.2890
 3398SOL    HW121656   1.385   0.522   6.048  1.8592 -1.2258  0.0806
 3398SOL    HW221657   1.509   0.617   6.045  1.2818 -2.6751  0.3058
 3399SOL     OW21658   3.248   0.693  10.468  0.0099 -0.2684 -0.1411
 3399SOL    HW121659   3.174   0.637  10.490 -2.2198  1.5943 -2.9075
 3399SOL    HW221660   3.265   0.672  10.377  0.4896 -1.3021  0.1948
 3400SOL     OW21661   2.193   3.500  17.286 -0.2366  0.4229 -0.0217
 3400SOL    HW121662   2.202   3.408  17.263 -0.2322  0.5879 -0.6839
 3400SOL    HW221663   2.206   3.504  17.381 -1.3133  2.7790  0.0297
 3401SOL     OW21664   2.540   2.100   5.689  0.2384  0.2372 -0.7050
 3401SOL    HW121665   2.618   2.149   5.660 -0.9339  2.1607 -0.5987
 3401SOL    HW221666   2.583   2.076   5.771 -1.5872 -0.1580  0.1324
 3402SOL     OW21667   0.894   3.923  12.271 -0.1536  0.8659 -0.1561
 3402SOL    HW121668   0.826   3.863  12.301  1.1253 -1.1149 -1.1878
 3402SOL    HW221669   0.878   3.921  12.176 -0.0096  1.1289 -0.1858
 3403SOL     OW21670   1.912   4.596   5.260  0.3550 -1.1470 -0.3612
 3403SOL    HW121671   1.822   4.583   5.289  0.3462  0.8353  0.4860
 3403SOL    HW221672   1.942   4.662   5.322  1.4642 -1.2841 -0.7510
 3404SOL     OW21673   3.109   0.072   1.699  0.1354  1.1265 -0.3311
 3404SOL    HW121674   3.115   0.159   1.738 -0.1971  0.7978  0.4463
 3404SOL    HW221675   3.044   0.031   1.757 -0.0203 -0.7859 -1.8264
 3405SOL     OW21676   1.105   3.529  11.484 -0.0884  0.5699  0.3579
 3405SOL    HW121677   1.198   3.552  11.491  0.1272 -0.6314  1.4694
 3405SOL    HW221678   1.125   3.437  11.464  0.5607  0.5150  1.2391
 3406SOL     OW21679   0.883   1.384   9.026 -0.3467 -0.2462  0.2971
 3406SOL    HW121680   0.804   1.354   9.072 -0.9665  0.2171 -0.4504
 3406SOL    HW221681   0.849   1.403   8.939 -0.8095 -1.8766  0.1281
 3407SOL     OW21682   1.441   2.970  16.487  0.2999 -0.3793  0.4412
 3407SOL    HW121683   1.407   3.018  16.563 -0.3373 -0.8973  0.4824
 3407SOL    HW221684   1.356   2.944  16.451  0.2035  0.2477  0.2105
 3408SOL     OW21685   2.440   2.512   7.074  0.4183  0.3069  0.4431
 3408SOL    HW121686   2.432   2.472   7.160  2.3724  1.6392  1.2574
 3408SOL    HW221687   2.356   2.502   7.029  0.6296  0.9338 -0.0909
 3409SOL     OW21688   3.889   4.328   7.708 -0.1068 -0.2020  0.5682
 3409SOL    HW121689   3.983   4.311   7.704 -0.3469 -2.4766  4.4084
 3409SOL    HW221690   3.851   4.280   7.634 -0.0920 -1.6140  1.4740
 3410SOL     OW21691   2.450   0.154   1.178 -0.1452  0.4122  0.8065
 3410SOL    HW121692   2.443   0.180   1.270 -1.1366 -2.4877  1.5604
 3410SOL    HW221693   2.384   0.208   1.135  2.1833  1.7138 -1.1406
 3411SOL     OW21694   3.378   3.488   6.407 -0.3814  0.4918  0.1141
 3411SOL    HW121695   3.462   3.468   6.447 -0.6343  0.1065  0.4515
 3411SOL    HW221696   3.366   3.407   6.358 -0.7303 -1.2244  3.0431
 3412SOL     OW21697   0.904   1.663  11.522 -0.5672 -0.3956 -0.0258
 3412SOL    HW121698   0.820   1.698  11.492 -0.5747  0.2819  0.7903
 3412SOL    HW221699   0.912   1.711  11.604  0.6674 -0.1857 -0.2797
 3413SOL     OW21700   1.305   2.559  13.269  0.6431 -0.4431  0.0981
 3413SOL    HW121701   1.318   2.594  13.357 -0.2806  0.5135 -0.1618
 3413SOL    HW221702   1.211   2.567  13.256  0.8749  1.7653 -0.2320
 3414SOL     OW21703   0.861   1.472  11.132 -0.1612  0.0387 -0.3689
 3414SOL    HW121704   0.934   1.510  11.180 -0.1597 -0.6454  0.1890
 3414SOL    HW221705   0.855   1.383  11.168  3.6181  0.1600  0.5557
 3415SOL     OW21706   3.549   1.416  10.696 -0.1758  0.1475 -0.0814
 3415SOL    HW121707   3.475   1.421  10.757  0.9614 -1.4791  1.4479
 3415SOL    HW221708   3.580   1.327  10.715  2.8207  1.3757  0.6810
 3416SOL     OW21709   2.461   1.433   6.701  0.0172  1.0278  0.0431
 3416SOL    HW121710   2.538   1.487   6.716 -0.2578  0.8712  2.0440
 3416SOL    HW221711   2.465   1.365   6.769 -1.6976  1.4510  0.5730
 3417SOL     OW21712   1.705   0.842   8.623  0.8269 -0.0752  0.3101
 3417SOL    HW121713   1.655   0.762   8.608 -0.9199  1.0925 -0.0564
 3417SOL    HW221714   1.658   0.879   8.697  1.2459  0.4766  0.2970
 3418SOL     OW21715   2.705   2.839   7.303 -0.0122 -0.0814 -0.3599
 3418SOL    HW121716   2.626   2.792   7.274 -1.2377  1.3228  0.6902
 3418SOL    HW221717   2.668   2.911   7.355 -1.7329 -1.8624  0.9184
 3419SOL     OW21718   4.353   4.452   2.739 -0.2848 -0.5692  0.3264
 3419SOL    HW121719   4.414   4.524   2.726 -1.5873  0.5098  0.2823
 3419SOL    HW221720   4.280   4.493   2.784 -0.4852 -0.8301  0.2434
 3420SOL     OW21721   2.111   3.506  11.409  0.1276  0.2473  0.2709
 3420SOL    HW121722   2.165   3.435  11.443  0.0295  1.1606  2.3129
 3420SOL    HW221723   2.031   3.456  11.390  0.5624 -0.7183  0.9515
 3421SOL     OW21724   2.818   2.218   4.211  0.2880 -0.0748  0.4488
 3421SOL    HW121725   2.817   2.160   4.134 -1.9365  0.0152  0.4122
 3421SOL    HW221726   2.905   2.257   4.200 -1.0932  2.9936  0.2696
 3422SOL     OW21727   2.141   1.550   2.388  0.3575 -0.3420  0.3281
 3422SOL    HW121728   2.086   1.618   2.426 -2.0740 -2.4162  0.5300
 3422SOL    HW221729   2.218   1.603   2.365  0.1305 -2.0890 -4.6456
 3423SOL     OW21730   4.095   4.324   4.488  0.1151  0.3187 -0.0722
 3423SOL    HW121731   4.146   4.405   4.501  2.5933 -1.4120  1.0246
 3423SOL    HW221732   4.170   4.266   4.498  0.1974  0.2678 -0.9834
 3424SOL     OW21733   0.077   3.245   4.565 -0.0304  0.2435  0.8662
 3424SOL    HW121734   0.038   3.327   4.534  0.6153  1.5663  3.5736
 3424SOL    HW221735   0.146   3.247   4.499  0.1583 -0.1428  1.0518
 3425SOL     OW21736   4.640   1.574   3.752 -0.3385  0.1081 -0.4055
 3425SOL    HW121737   0.011   1.572   3.757 -0.3687  1.1397  0.4362
 3425SOL    HW221738   4.611   1.531   3.833  0.6636 -0.6400 -0.4469
 3426SOL     OW21739   1.660   1.970  10.932  0.2306 -0.3304 -0.1021
 3426SOL    HW121740   1.643   1.882  10.966  0.2825 -0.3959 -0.2478
 3426SOL    HW221741   1.744   1.968  10.886 -1.1160  1.1030 -2.6292
 3427SOL     OW21742   3.327   3.793  11.018  1.4106  0.2982  0.8418
 3427SOL    HW121743   3.314   3.842  11.099 -1.1346  0.9159  0.0833
 3427SOL    HW221744   3.280   3.861  10.969  0.1196 -1.1522  0.0623
 3428SOL     OW21745   1.058   1.932   6.788  0.6298  0.1559 -0.3104
 3428SOL    HW121746   1.072   1.881   6.867  0.1997  1.5557  0.6577
 3428SOL    HW221747   1.097   2.012   6.823  3.0008 -1.2109  0.1981
 3429SOL     OW21748   4.376   1.912  15.409 -0.0493 -0.0548  0.4594
 3429SOL    HW121749   4.432   1.973  15.360 -1.8501  0.2608 -1.1894
 3429SOL    HW221750   4.317   1.882  15.341 -2.4621  1.8688  1.6844
 3430SOL     OW21751   0.214   2.083   0.969 -0.0725  0.1807 -0.0792
 3430SOL    HW121752   0.182   2.007   0.922  2.3301 -0.6446 -0.3785
 3430SOL    HW221753   0.249   2.036   1.045 -0.9562  2.2187  1.6030
 3431SOL     OW21754   0.870   4.203  12.214  0.6663  0.5012  0.1550
 3431SOL    HW121755   0.886   4.214  12.308 -0.0687  0.7494  0.2445
 3431SOL    HW221756   0.814   4.126  12.206 -2.3198  2.9557 -2.3570
 3432SOL     OW21757   2.337   1.384   3.184 -0.4196 -0.1356 -0.0788
 3432SOL    HW121758   2.266   1.320   3.175 -1.0313  0.2174  2.2418
 3432SOL    HW221759   2.368   1.383   3.093 -2.2840  0.4563 -0.7191
 3433SOL     OW21760   3.252   0.077  15.735 -0.6203 -0.3361 -0.1572
 3433SOL    HW121761   3.184   0.022  15.775  2.4421 -2.2454  2.4299
 3433SOL    HW221762   3.221   0.098  15.647 -2.0102  0.2265  0.4540
 3434SOL     OW21763   0.667   1.424   5.466 -0.4060 -0.1953  0.8852
 3434SOL    HW121764   0.586   1.375   5.483 -0.7712 -0.5955 -2.0312
 3434SOL    HW221765   0.674   1.426   5.371 -1.5415 -0.5481  0.7899
 3435SOL     OW21766   1.878   0.270  10.291 -0.0059 -0.0691 -0.2494
 3435SOL    HW121767   1.949   0.228  10.243  2.4751  1.1738  2.3538
 3435SOL    HW221768   1.923   0.302  10.369  0.6821  0.0768 -0.7020
 3436SOL     OW21769   4.397   0.416   2.297 -0.0941  0.0139  0.4593
 3436SOL    HW121770   4.353   0.371   2.369  0.8681 -0.2737  0.8513
 3436SOL    HW221771   4.422   0.496   2.344 -0.1019  1.9939 -2.8859
 3437SOL     OW21772   2.292   0.283  12.862 -0.0951  0.0924 -0.2942
 3437SOL    HW121773   2.273   0.364  12.815 -1.3308  3.0912  5.2926
 3437SOL    HW221774   2.347   0.243  12.795 -1.1038 -1.2874 -0.2946
 3438SOL     OW21775   2.045   0.131  15.988 -0.0889  0.2875 -0.1660
 3438SOL    HW121776   2.056   0.175  15.903  0.0356  1.0655  0.2590
 3438SOL    HW221777   2.003   0.049  15.963  2.6587 -1.1193 -0.0745
 3439SOL     OW21778   3.946   0.510   8.457 -0.6189  0.1618 -0.6993
 3439SOL    HW121779   3.969   0.597   8.489  1.2661  0.0048 -1.5812
 3439SOL    HW221780   4.032   0.480   8.426 -0.7012  1.1633 -1.8981
 3440SOL     OW21781   1.414   1.975   3.030 -0.0577 -0.3946  0.6421
 3440SOL    HW121782   1.415   2.046   3.094  2.0644 -0.0835  0.2632
 3440SOL    HW221783   1.331   1.933   3.054 -0.8039  0.6166 -0.2070
 3441SOL     OW21784   2.368   2.767   7.472  0.2552 -0.0698 -0.4226
 3441SOL    HW121785   2.311   2.712   7.418 -1.0207  0.3224  0.5201
 3441SOL    HW221786   2.334   2.855   7.457  1.1985  0.3689  0.0159
 3442SOL     OW21787   2.071   2.387   1.939 -0.2141 -0.1843  0.9095
 3442SOL    HW121788   2.052   2.389   1.845  0.1303  1.9256  0.8811
 3442SOL    HW221789   1.997   2.438   1.970  0.2896 -1.4255  4.0972
 3443SOL     OW21790   2.807   0.668  11.342  0.2052  0.3243 -0.4499
 3443SOL    HW121791   2.851   0.664  11.257  0.0566 -3.2560 -0.3802
 3443SOL    HW221792   2.880   0.699  11.395  0.5254 -0.7398 -0.2563
 3444SOL     OW21793   4.132   1.696  12.656 -0.1332  0.3520  0.0040
 3444SOL    HW121794   4.069   1.683  12.585 -0.0719 -0.6523  0.1346
 3444SOL    HW221795   4.140   1.610  12.696 -0.9649 -0.2068 -1.0275
 3445SOL     OW21796   1.589   4.556   5.010 -0.4538 -0.3454  0.0041
 3445SOL    HW121797   1.507   4.600   4.988  1.1738  1.7047 -1.9046
 3445SOL    HW221798   1.558   4.485   5.066 -1.7281 -1.6774 -2.4245
 3446SOL     OW21799   2.514   1.651   1.273  0.0873  0.2783 -0.2977
 3446SOL    HW121800   2.560   1.619   1.195  1.7808  3.4138 -0.5768
 3446SOL    HW221801   2.526   1.746   1.277  1.3075  0.0471  1.6996
 3447SOL     OW21802   0.692   2.087   3.612  0.2031  0.6795 -0.1105
 3447SOL    HW121803   0.709   2.025   3.541 -0.0446  0.3915  0.0833
 3447SOL    HW221804   0.624   2.142   3.574 -0.6994 -2.1606 -2.5580
 3448SOL     OW21805   2.310   1.756   8.495  0.0506  0.3983 -0.0933
 3448SOL    HW121806   2.264   1.766   8.412 -1.3106  0.6933  0.7095
 3448SOL    HW221807   2.402   1.762   8.470  0.1031 -1.7087 -0.3844
 3449SOL     OW21808   3.531   0.115  15.723  0.2336 -0.3107  0.3300
 3449SOL    HW121809   3.509   0.183  15.786 -0.7764  0.6746 -1.0884
 3449SOL    HW221810   3.445   0.072  15.718 -0.4695  1.3667 -1.7430
 3450SOL     OW21811   4.438   2.272  16.540  0.6534  0.3497 -0.1854
 3450SOL    HW121812   4.362   2.217  16.556  1.6773 -1.1169 -0.3687
 3450SOL    HW221813   4.516   2.224  16.567  0.7850  0.2792 -0.6794
 3451SOL     OW21814   4.155   2.932   4.729 -0.1142  0.3128  0.6938
 3451SOL    HW121815   4.088   2.865   4.721  1.5263 -1.0243 -1.7336
 3451SOL    HW221816   4.184   2.919   4.819  0.4989 -1.4972  0.2319
 3452SOL     OW21817   1.953   3.163   5.488 -0.1977  0.2094  0.0237
 3452SOL    HW121818   1.977   3.167   5.581  0.9527  1.9196 -0.3417
 3452SOL    HW221819   2.007   3.094   5.450 -1.9422 -0.3648 -1.4322
 3453SOL     OW21820   3.688   3.981   5.247 -0.0719 -0.6482 -0.4920
 3453SOL    HW121821   3.778   3.972   5.278  0.3918 -0.2613 -1.7097
 3453SOL    HW221822   3.635   3.914   5.290  0.0722 -0.8223 -0.5890
 3454SOL     OW21823   2.593   3.438   1.988 -0.1222  0.5675  0.5467
 3454SOL    HW121824   2.554   3.426   1.902 -1.5556 -0.0316  1.2727
 3454SOL    HW221825   2.550   3.371   2.041 -2.1351  2.0648  0.8076
 3455SOL     OW21826   2.590   0.097  17.531  0.0093  0.0005 -0.2056
 3455SOL    HW121827   2.608   0.135  17.445  0.1630 -0.6938 -0.4804
 3455SOL    HW221828   2.542   0.162  17.582  1.5809 -0.4400  1.8246
 3456SOL     OW21829   0.560   1.990  17.206  0.2044 -0.0051  0.2255
 3456SOL    HW121830   0.473   1.949  17.202 -0.1603  0.7445  0.4543
 3456SOL    HW221831   0.531   2.081  17.217 -2.4604 -0.6505 -1.5949
 3457SOL     OW21832   2.921   0.866   5.932  0.0478  0.6019  0.0003
 3457SOL    HW121833   2.927   0.900   6.021  0.8122 -0.8147  0.4891
 3457SOL    HW221834   2.835   0.822   5.932  0.0260  0.6220  3.2200
 3458SOL     OW21835   3.548   3.156   0.047  0.0008  0.2664  0.2763
 3458SOL    HW121836   3.612   3.154   0.118  1.1203  0.8041 -0.7158
 3458SOL    HW221837   3.551   3.250   0.028 -0.4135 -0.1042 -1.6470
 3459SOL     OW21838   3.289   1.699   2.547  0.6210  0.1374  0.1860
 3459SOL    HW121839   3.254   1.783   2.516 -0.4935 -0.4442 -0.1609
 3459SOL    HW221840   3.375   1.712   2.507  0.9760 -2.6024  0.0931
 3460SOL     OW21841   0.114   1.376   5.972 -0.2970  0.0476 -0.1042
 3460SOL    HW121842   0.130   1.425   5.892 -0.1895 -0.4357 -0.3792
 3460SOL    HW221843   0.077   1.444   6.029  1.6466 -1.0182  2.4468
 3461SOL     OW21844   4.588   0.453   4.888 -0.3651  0.5260 -0.1276
 3461SOL    HW121845   4.661   0.394   4.870  0.2183  0.8904  1.0271
 3461SOL    HW221846   4.630   0.535   4.863  1.8463 -0.7223 -0.4444
 3462SOL     OW21847   1.629   3.208   2.984  0.2243 -0.5760 -0.7456
 3462SOL    HW121848   1.571   3.236   2.913  1.6944  0.1121 -1.6569
 3462SOL    HW221849   1.568   3.205   3.058  1.0126  0.7315 -0.0530
 3463SOL     OW21850   3.971   2.644   5.385 -0.2076 -0.4946 -0.0103
 3463SOL    HW121851   3.900   2.660   5.322  0.0474 -1.3411 -0.5110
 3463SOL    HW221852   3.958   2.554   5.415 -0.0833 -0.6259 -0.3495
 3464SOL     OW21853   4.160   4.278   6.102  0.3565  0.1475  0.3509
 3464SOL    HW121854   4.153   4.338   6.176 -1.8590 -1.3300  1.3405
 3464SOL    HW221855   4.198   4.200   6.142 -0.7384  0.4560  1.9685
 3465SOL     OW21856   1.697   0.383  17.494 -0.5051 -0.4841 -0.1841
 3465SOL    HW121857   1.713   0.330  17.416  0.4277  0.9103 -0.9406
 3465SOL    HW221858   1.721   0.468  17.458 -0.6460 -1.6620 -3.0158
 3466SOL     OW21859   1.525   2.831  10.544  0.7367  0.2637  0.2256
 3466SOL    HW121860   1.443   2.841  10.592  0.9684 -1.4522  1.0083
 3466SOL    HW221861   1.569   2.759  10.589  0.5961  0.0781  0.0649
 3467SOL     OW21862   4.225   0.221   4.228  0.1840 -0.5309  0.6108
 3467SOL    HW121863   4.180   0.198   4.309 -0.1456  0.9201  0.8432
 3467SOL    HW221864   4.312   0.238   4.264  0.5905  3.0356 -2.0387
 3468SOL     OW21865   3.953   2.139   1.008 -0.5389 -0.1421  0.3790
 3468SOL    HW121866   3.933   2.196   0.934  0.0513  0.1038  0.4094
 3468SOL    HW221867   3.898   2.062   0.995  1.4390 -1.0805 -2.2755
 3469SOL     OW21868   0.050   3.754   3.243  0.2970 -0.3563  0.1658
 3469SOL    HW121869   0.068   3.704   3.323 -1.0858 -1.8999 -0.4799
 3469SOL    HW221870   0.038   3.672   3.196 -0.1503 -0.6614  0.8022
 3470SOL     OW21871   2.776   3.033   0.989 -0.3891 -0.6018  0.0823
 3470SOL    HW121872   2.797   2.944   0.963 -2.7451 -1.3593  0.7719
 3470SOL    HW221873   2.731   3.007   1.069  2.7024 -0.8315  1.7491
 3471SOL     OW21874   2.581   0.626  14.100 -0.2743  0.0586 -0.0032
 3471SOL    HW121875   2.533   0.608  14.181 -0.7655 -0.8382 -0.4902
 3471SOL    HW221876   2.526   0.693  14.060 -0.5815 -0.6234 -0.7270
 3472SOL     OW21877   0.396   3.686   0.762  0.2463  0.4608  0.4864
 3472SOL    HW121878   0.335   3.681   0.689 -0.1808 -1.3564  0.9787
 3472SOL    HW221879   0.446   3.611   0.729 -2.5527 -0.2219 -2.2044
 3473SOL     OW21880   0.391   3.293   9.943 -0.6696  0.5771 -0.5440
 3473SOL    HW121881   0.356   3.229   9.880  1.4173 -2.2785  1.2158
 3473SOL    HW221882   0.313   3.305   9.996 -0.8115  2.0624 -1.0830
 3474SOL     OW21883   2.509   2.967   8.652 -0.5493 -0.7013 -0.3173
 3474SOL    HW121884   2.449   2.945   8.723  0.5840 -2.0027  0.2426
 3474SOL    HW221885   2.452   3.033   8.613  1.3062  0.9055 -0.3457
 3475SOL     OW21886   4.176   3.254   1.893  0.1402  0.0514  0.6841
 3475SOL    HW121887   4.182   3.183   1.829  0.9521  0.0521  0.7546
 3475SOL    HW221888   4.103   3.222   1.946 -0.6221  0.6928  0.0053
 3476SOL     OW21889   3.065   2.752   7.252  0.0784 -0.2304 -0.6687
 3476SOL    HW121890   2.978   2.712   7.258  0.3780 -0.7541  0.0932
 3476SOL    HW221891   3.119   2.711   7.319  0.2971 -2.1275 -2.0032
 3477SOL     OW21892   1.258   2.059   8.840 -0.0293  0.5112 -0.4767
 3477SOL    HW121893   1.301   2.096   8.917  1.5766 -2.2553 -0.0621
 3477SOL    HW221894   1.307   2.102   8.769  2.6267 -0.6911  0.6361
 3478SOL     OW21895   2.523   1.607  10.014  0.4741 -0.3779 -0.0390
 3478SOL    HW121896   2.510   1.655   9.932  0.9990 -3.1695 -1.7528
 3478SOL    HW221897   2.470   1.533   9.985 -0.8024  1.0078 -1.2705
 3479SOL     OW21898   4.299   0.800   9.308  0.2963  0.0001  0.2833
 3479SOL    HW121899   4.383   0.757   9.288 -0.2645 -1.5384  1.2819
 3479SOL    HW221900   4.286   0.786   9.401  0.3008 -0.1515  0.2609
 3480SOL     OW21901   4.224   2.328   4.372 -0.2082  0.2284  0.6257
 3480SOL    HW121902   4.275   2.261   4.418  0.0430 -0.0910 -0.1232
 3480SOL    HW221903   4.249   2.304   4.283  3.3581 -1.9388  2.2321
 3481SOL     OW21904   3.600   0.272   0.311 -0.0918 -0.6606 -0.0249
 3481SOL    HW121905   3.556   0.227   0.383  0.1998 -0.3336  0.3558
 3481SOL    HW221906   3.589   0.364   0.333 -1.3851 -0.1964 -2.5371
 3482SOL     OW21907   4.442   0.080   3.097  0.4165  0.4303  0.0917
 3482SOL    HW121908   4.461   0.172   3.116  1.0764  0.5698 -1.2276
 3482SOL    HW221909   4.523   0.045   3.060  0.9362 -0.2385  1.8523
 3483SOL     OW21910   3.126   1.574  10.853 -0.0539  0.2929  0.7105
 3483SOL    HW121911   3.112   1.479  10.860  0.8176  0.0779 -0.5060
 3483SOL    HW221912   3.038   1.611  10.859 -0.1650  0.0679  0.4823
 3484SOL     OW21913   0.305   1.078   7.188 -0.1193 -0.1802  0.2860
 3484SOL    HW121914   0.280   1.081   7.096 -0.7328 -0.7053  0.4334
 3484SOL    HW221915   0.390   1.122   7.192 -1.3266  2.1974 -0.1533
 3485SOL     OW21916   2.182   1.809   3.471  0.3562 -0.2155 -0.7070
 3485SOL    HW121917   2.122   1.851   3.409 -0.5804 -0.1897  0.2159
 3485SOL    HW221918   2.251   1.781   3.412  0.0981  1.6074 -1.8651
 3486SOL     OW21919   1.149   1.249  14.959 -0.2765  0.3932  0.1758
 3486SOL    HW121920   1.123   1.159  14.978  0.9527 -0.2005 -0.9530
 3486SOL    HW221921   1.073   1.301  14.985 -0.0505  0.9769 -0.3440
 3487SOL     OW21922   1.274   0.493  12.961  0.4530 -0.2571 -0.0841
 3487SOL    HW121923   1.294   0.399  12.964  1.5609 -0.0602 -1.2214
 3487SOL    HW221924   1.341   0.516  13.025 -0.6207  0.5942  0.7344
 3488SOL     OW21925   2.122   2.726   5.720 -0.0814  0.1032 -0.6864
 3488SOL    HW121926   2.163   2.665   5.782 -0.0075 -1.7088 -2.5132
 3488SOL    HW221927   2.124   2.682   5.635 -0.5134  0.1022 -0.6956
 3489SOL     OW21928   1.207   3.024   7.542 -0.2594 -0.6567 -0.4581
 3489SOL    HW121929   1.225   2.934   7.570 -0.0623 -0.1779  0.9374
 3489SOL    HW221930   1.203   3.070   7.625  2.8852 -0.3708 -0.4658
 3490SOL     OW21931   0.770   4.024   1.734 -0.6099 -0.1032  0.4826
 3490SOL    HW121932   0.731   3.987   1.813 -0.6590  0.6650  0.8261
 3490SOL    HW221933   0.727   4.110   1.741  1.2948  0.7713  1.4953
 3491SOL     OW21934   2.687   1.458  16.075  0.0799 -0.0087  0.1988
 3491SOL    HW121935   2.626   1.525  16.043  0.6155  1.0159  1.3209
 3491SOL    HW221936   2.667   1.384  16.019 -0.1444  1.0851 -1.1685
 3492SOL     OW21937   0.449   1.200  15.807 -0.2799  0.3591  0.2637
 3492SOL    HW121938   0.453   1.296  15.806  0.2553  0.3567  2.3069
 3492SOL    HW221939   0.536   1.174  15.836 -0.5409 -0.3613  0.4001
 3493SOL     OW21940   3.505   1.622   4.440  0.6537 -0.2740  0.1683
 3493SOL    HW121941   3.547   1.708   4.446  0.0899  0.0973 -1.1823
 3493SOL    HW221942   3.543   1.588   4.521  0.0306 -0.9859  0.1628
 3494SOL     OW21943   1.686   0.658   3.644  0.2666  0.2825  0.1904
 3494SOL    HW121944   1.765   0.620   3.681  0.4581 -0.3196 -0.8482
 3494SOL    HW221945   1.649   0.687   3.728  1.0261 -0.2037  0.6960
 3495SOL     OW21946   3.949   0.841   8.652 -0.1976 -0.2681 -0.7793
 3495SOL    HW121947   3.990   0.765   8.693 -0.5649 -0.7197 -1.2521
 3495SOL    HW221948   4.024   0.861   8.595  1.2089 -2.5168  0.2859
 3496SOL     OW21949   2.977   3.640   2.640 -0.1246  0.3025 -0.3992
 3496SOL    HW121950   3.009   3.730   2.630  0.6416  0.0164 -0.5532
 3496SOL    HW221951   2.931   3.628   2.557 -1.6625 -0.2386  0.5388
 3497SOL     OW21952   1.351   2.499   6.027  0.3013  0.4851  0.2764
 3497SOL    HW121953   1.268   2.484   5.982  0.8381  0.4608 -0.7178
 3497SOL    HW221954   1.351   2.594   6.033 -1.1002  0.2989  3.1188
 3498SOL     OW21955   3.376   4.167  12.002 -0.1649  0.8281  0.3869
 3498SOL    HW121956   3.340   4.197  11.918  0.6480 -0.3752 -0.4078
 3498SOL    HW221957   3.439   4.233  12.030  2.1476  0.2038 -3.2188
 3499SOL     OW21958   0.453   3.617   6.354 -0.0346  0.4985  0.1594
 3499SOL    HW121959   0.436   3.665   6.273 -0.1284 -0.3184 -0.3075
 3499SOL    HW221960   0.547   3.635   6.360  0.4339 -1.6136 -0.6239
 3500SOL     OW21961   3.829   1.878   6.780  0.4911  0.2797 -0.0702
 3500SOL    HW121962   3.765   1.889   6.850  0.3399  2.4752 -0.5528
 3500SOL    HW221963   3.862   1.967   6.771  0.8934  0.0591 -0.7172
 3501SOL     OW21964   0.650   3.817   3.061  0.6723 -0.1827 -0.1231
 3501SOL    HW121965   0.681   3.877   2.993  1.1996 -0.3144  0.0074
 3501SOL    HW221966   0.585   3.763   3.016 -0.1557  0.4448  0.3033
 3502SOL     OW21967   3.869   1.512   8.246  0.1959  0.2567 -0.3100
 3502SOL    HW121968   3.856   1.477   8.158 -0.8317 -0.0744 -0.0345
 3502SOL    HW221969   3.777   1.529   8.268  0.4555 -0.1887  1.1242
 3503SOL     OW21970   2.959   1.865   7.854 -0.1106 -0.5846  0.3680
 3503SOL    HW121971   2.955   1.897   7.764  0.1256  0.4055  0.7083
 3503SOL    HW221972   3.054   1.862   7.865 -0.1432 -0.5409  0.6533
 3504SOL     OW21973   1.097   3.748   3.216 -0.1277  0.5271  0.0532
 3504SOL    HW121974   1.030   3.806   3.252 -0.4082  0.0313  0.3300
 3504SOL    HW221975   1.165   3.786   3.271  0.5003 -0.4314 -0.0528
 3505SOL     OW21976   3.506   3.688   8.080 -0.0110 -0.0513 -0.0670
 3505SOL    HW121977   3.531   3.635   8.156  0.0811  0.4884  0.2791
 3505SOL    HW221978   3.528   3.773   8.120  0.7874  0.0721 -0.7873
 3506SOL     OW21979   2.202   0.499   6.939 -0.1770 -0.5045 -0.2562
 3506SOL    HW121980   2.259   0.449   6.881  0.3675  0.1856 -0.3266
 3506SOL    HW221981   2.265   0.529   7.005 -0.4462  0.6594 -0.5245
 3507SOL     OW21982   2.424   3.037   4.165 -0.7397  0.1270  0.8618
 3507SOL    HW121983   2.457   3.107   4.108 -0.0903  0.4302  1.6115
 3507SOL    HW221984   2.426   3.086   4.247 -0.1353 -0.1375  1.0117
 3508SOL     OW21985   0.831   4.202  14.544  0.5091 -0.4153  0.6920
 3508SOL    HW121986   0.900   4.240  14.490 -1.3816  1.4812 -0.3622
 3508SOL    HW221987   0.870   4.119  14.572 -0.5597 -0.6706  1.4117
 3509SOL     OW21988   2.572   2.267   3.932 -0.2010  0.3166 -0.0860
 3509SOL    HW121989   2.584   2.352   3.974 -0.5262 -0.9040  2.4982
 3509SOL    HW221990   2.657   2.225   3.940 -0.3378 -0.3140 -1.8780
 3510SOL     OW21991   2.655   3.531   5.423  0.2969 -0.1532 -0.5258
 3510SOL    HW121992   2.666   3.545   5.517  0.0319  0.1167 -0.5332
 3510SOL    HW221993   2.570   3.574   5.407 -0.1509 -1.0008 -0.4294
 3511SOL     OW21994   1.731   0.587   3.123  0.0431 -0.1022 -0.6166
 3511SOL    HW121995   1.707   0.508   3.172 -0.9372  1.5979  1.6691
 3511SOL    HW221996   1.825   0.569   3.111  0.2700  0.5879  0.0717
 3512SOL     OW21997   0.897   4.245   0.481  0.0734 -0.3645  0.2735
 3512SOL    HW121998   0.950   4.172   0.513 -0.3678 -0.6885  0.2657
 3512SOL    HW221999   0.960   4.316   0.469 -0.2824 -0.0619  0.2004
 3513SOL     OW22000   2.612   4.523  16.628 -0.2066  0.1414  0.2836
 3513SOL    HW122001   2.518   4.513  16.644  0.2674 -0.8257  2.5194
 3513SOL    HW222002   2.654   4.461  16.688  1.9466 -0.2048 -1.5958
 3514SOL     OW22003   4.527   2.726   5.124  0.1814 -0.1610  0.4224
 3514SOL    HW122004   4.567   2.808   5.152  2.5067 -0.8252 -0.9478
 3514SOL    HW222005   4.590   2.661   5.155  0.4071 -0.4893 -0.7173
 3515SOL     OW22006   0.456   1.340   6.399  0.3181 -0.8733  0.3354
 3515SOL    HW122007   0.370   1.296   6.400 -1.2400  2.1863  0.5602
 3515SOL    HW222008   0.485   1.300   6.481  2.5657  0.3541  0.1218
 3516SOL     OW22009   2.849   3.122   5.949  0.0154  0.3385 -0.1122
 3516SOL    HW122010   2.807   3.184   5.890 -0.7024 -1.1276 -1.1539
 3516SOL    HW222011   2.802   3.041   5.929 -2.4302  1.6982  0.1386
 3517SOL     OW22012   3.957   0.724   9.613 -0.6332  0.0839 -0.2834
 3517SOL    HW122013   3.905   0.649   9.583 -0.6942  0.2420 -0.5698
 3517SOL    HW222014   3.891   0.788   9.640  0.2021  0.9348 -0.2739
 3518SOL     OW22015   2.569   4.652   1.089  0.2178  0.0810  0.2333
 3518SOL    HW122016   2.499   4.590   1.110  0.3931 -0.5373 -1.0704
 3518SOL    HW222017   2.533   0.012   1.121 -0.0507 -1.0718  2.9760
 3519SOL     OW22018   1.403   2.221   9.009 -0.1964 -0.5908  0.1148
 3519SOL    HW122019   1.465   2.269   8.954  1.1517 -1.8276  0.5462
 3519SOL    HW222020   1.407   2.271   9.090 -0.9008 -0.1437 -0.1306
 3520SOL     OW22021   2.555   2.045   4.767 -0.6691 -0.5033  0.3425
 3520SOL    HW122022   2.535   2.001   4.684  4.1830 -1.8481 -0.1396
 3520SOL    HW222023   2.636   1.996   4.783 -0.2365  0.0541 -0.1121
 3521SOL     OW22024   1.976   0.870   3.275  0.5813 -0.2375 -0.1136
 3521SOL    HW122025   1.944   0.795   3.326 -1.1830  0.4897 -0.1605
 3521SOL    HW222026   1.891   0.905   3.248  1.4228  1.9984  0.1505
 3522SOL     OW22027   2.210   2.082   7.877  0.1562 -0.1031 -0.7350
 3522SOL    HW122028   2.266   2.015   7.917  1.5452  1.0433 -0.7585
 3522SOL    HW222029   2.134   2.057   7.930 -1.0117  4.0318 -0.4565
 3523SOL     OW22030   1.610   4.352   0.173 -0.4478  0.1599 -0.1232
 3523SOL    HW122031   1.647   4.289   0.110 -1.9550  1.1175 -1.9745
 3523SOL    HW222032   1.661   4.350   0.254  0.7361 -2.2139 -0.9200
 3524SOL     OW22033   1.843   0.483   8.151 -0.2765 -0.3054  0.1070
 3524SOL    HW122034   1.875   0.556   8.202 -0.8767  1.3615 -1.8892
 3524SOL    HW222035   1.809   0.536   8.078  0.1721  1.4296  1.1704
 3525SOL     OW22036   1.838   0.590   3.896  0.0520  0.5178 -0.0697
 3525SOL    HW122037   1.830   0.551   3.983  0.5480 -2.0813 -1.1859
 3525SOL    HW222038   1.922   0.636   3.897  0.5702 -0.4362  0.5922
 3526SOL     OW22039   1.127   2.670   6.939 -0.0605  0.1568  0.5230
 3526SOL    HW122040   1.104   2.739   7.001 -0.7047  2.3234 -2.1117
 3526SOL    HW222041   1.183   2.716   6.876  0.2880  0.0871  0.7783
 3527SOL     OW22042   1.307   3.584  14.194  0.0314  0.3122 -0.1719
 3527SOL    HW122043   1.382   3.601  14.138 -1.1306  1.5520 -1.3588
 3527SOL    HW222044   1.328   3.490  14.190 -0.2862  0.0746  3.3783
 3528SOL     OW22045   1.896   2.063   2.937  0.2704 -0.2997 -0.2065
 3528SOL    HW122046   1.965   2.034   2.878  1.4368  1.7031  0.1759
 3528SOL    HW222047   1.845   2.122   2.882  1.9186  0.2663 -1.1136
 3529SOL     OW22048   3.258   4.250   1.171 -0.0901  0.3845 -0.7383
 3529SOL    HW122049   3.238   4.161   1.142  0.4527 -0.1196  0.4271
 3529SOL    HW222050   3.182   4.300   1.141 -1.6794 -2.3446 -1.2566
 3530SOL     OW22051   1.758   4.639   7.067 -0.2198  0.1477 -0.1561
 3530SOL    HW122052   1.831   4.603   7.117 -1.7975 -0.7757  1.5153
 3530SOL    HW222053   1.679   4.598   7.104  0.1383 -0.2304  0.1845
 3531SOL     OW22054   2.164   3.364  15.556 -0.2872 -0.8571 -0.1382
 3531SOL    HW122055   2.169   3.382  15.650  3.3132  0.1997 -0.5385
 3531SOL    HW222056   2.138   3.451  15.524  0.2725 -1.1200 -1.3046
 3532SOL     OW22057   2.298   0.979   9.202 -0.4047  0.1207 -0.2114
 3532SOL    HW122058   2.308   1.018   9.289 -0.5362  0.2022 -0.2322
 3532SOL    HW222059   2.386   0.942   9.192 -0.7630 -0.7274 -0.1846
 3533SOL     OW22060   3.841   2.559   3.187  0.5695  0.1487  0.3145
 3533SOL    HW122061   3.827   2.492   3.119  0.2713 -0.9575  1.4695
 3533SOL    HW222062   3.921   2.533   3.233  1.0468  1.9584  0.4783
 3534SOL     OW22063   2.432   1.023   4.614 -0.6273  0.2473 -0.0917
 3534SOL    HW122064   2.429   1.119   4.610 -1.9958  0.2716  1.4281
 3534SOL    HW222065   2.423   0.992   4.524 -0.8697  1.2762 -0.4252
 3535SOL     OW22066   2.321   2.419   9.992  0.0391  0.2320  0.3289
 3535SOL    HW122067   2.337   2.450   9.903 -0.3594  1.4464  0.6877
 3535SOL    HW222068   2.257   2.483  10.023  0.4883  1.8223 -2.0804
 3536SOL     OW22069   3.549   2.180   6.494  0.3800  0.0902 -0.6695
 3536SOL    HW122070   3.583   2.265   6.522  0.7526 -0.3255  0.1276
 3536SOL    HW222071   3.624   2.123   6.508 -0.6234 -0.9534  0.4255
 3537SOL     OW22072   2.287   3.596  12.267 -0.3873  0.0984 -0.0756
 3537SOL    HW122073   2.325   3.550  12.192 -0.4419 -0.6599  0.3536
 3537SOL    HW222074   2.221   3.652  12.227 -0.2320  0.3045 -0.0385
 3538SOL     OW22075   3.146   1.666  15.916  0.2761  0.2473 -0.2198
 3538SOL    HW122076   3.099   1.650  15.834  1.1315 -3.4513 -0.0010
 3538SOL    HW222077   3.233   1.700  15.892  0.7364 -0.9783 -0.2802
 3539SOL     OW22078   4.606   0.192   4.455 -0.0497 -0.5381  0.4064
 3539SOL    HW122079   4.524   0.143   4.447  1.2605 -2.1535 -3.2932
 3539SOL    HW222080   4.649   0.145   4.384  2.7988 -0.0993  1.8120
 3540SOL     OW22081   4.136   0.400   5.940  0.0206 -0.0483  0.3034
 3540SOL    HW122082   4.124   0.351   5.859  0.6297 -0.9538  0.7569
 3540SOL    HW222083   4.214   0.361   5.979 -0.1520  1.2848  1.9931
 3541SOL     OW22084   0.376   3.007   3.056  0.5633 -0.1376  0.2179
 3541SOL    HW122085   0.355   2.993   2.964  0.3696 -1.2911  0.4336
 3541SOL    HW222086   0.471   2.996   3.061  0.6706  0.6539 -0.1354
 3542SOL     OW22087   3.813   2.662   0.487  0.0894  0.6222 -0.1407
 3542SOL    HW122088   3.787   2.713   0.564  1.5320  2.5669 -0.9577
 3542SOL    HW222089   3.873   2.724   0.446  1.6478 -1.1362 -0.4861
 3543SOL     OW22090   0.875   2.727  16.450  0.2281  0.1698  0.0065
 3543SOL    HW122091   0.854   2.820  16.449 -0.4306  0.0163 -0.3425
 3543SOL    HW222092   0.862   2.702  16.542 -2.3196  1.0923 -0.0994
 3544SOL     OW22093   3.734   4.356   4.164 -0.5147 -0.0683 -0.1734
 3544SOL    HW122094   3.762   4.447   4.153  1.2969 -0.2806  2.4170
 3544SOL    HW222095   3.660   4.371   4.223  0.4720  1.6708  0.6186
 3545SOL     OW22096   0.459   1.875   3.436  0.3264  0.1728 -0.2678
 3545SOL    HW122097   0.555   1.868   3.438  0.2856 -0.9031 -2.0144
 3545SOL    HW222098   0.449   1.903   3.345  1.0660  1.5086  0.0529
 3546SOL     OW22099   2.173   2.515   5.874  0.0233  0.1312  0.0728
 3546SOL    HW122100   2.181   2.420   5.864 -0.4023 -0.0205  1.1807
 3546SOL    HW222101   2.093   2.504   5.925  0.9689  2.0750  1.9664
 3547SOL     OW22102   0.361   0.523   5.760  0.0086  0.6298  0.2024
 3547SOL    HW122103   0.431   0.473   5.801  0.7173  1.0889 -0.4388
 3547SOL    HW222104   0.374   0.613   5.788 -2.4787  1.1427 -0.3506
 3548SOL     OW22105   2.691   1.677  16.924 -0.0240 -0.8283  0.4345
 3548SOL    HW122106   2.641   1.623  16.862 -0.5509 -0.9358  0.9558
 3548SOL    HW222107   2.772   1.626  16.919  1.2268  1.0398  1.9519
 3549SOL     OW22108   1.232   0.756  12.898 -0.2701 -0.1419  0.1118
 3549SOL    HW122109   1.141   0.786  12.898  0.3545  1.7755  0.4675
 3549SOL    HW222110   1.213   0.664  12.911  0.6555 -0.7432 -2.7347
 3550SOL     OW22111   3.557   0.776   5.060  0.2993  0.1011 -0.1377
 3550SOL    HW122112   3.584   0.688   5.086 -1.4559 -0.1127  0.9565
 3550SOL    HW222113   3.615   0.789   4.985 -1.2444 -0.8189 -1.5076
 3551SOL     OW22114   3.316   3.343   1.614  0.3279  0.6382 -0.0691
 3551SOL    HW122115   3.362   3.375   1.691 -0.5473 -0.7514  1.0361
 3551SOL    HW222116   3.225   3.358   1.639  0.7280  0.6567  1.3577
 3552SOL     OW22117   0.877   4.366   6.323 -0.5785 -0.0290 -0.4236
 3552SOL    HW122118   0.944   4.298   6.322 -3.4981 -2.8780 -0.9396
 3552SOL    HW222119   0.801   4.315   6.294 -1.3144 -0.0438  1.5506
 3553SOL     OW22120   0.702   4.143   5.576  0.1542 -0.5835  0.0261
 3553SOL    HW122121   0.661   4.198   5.510 -0.1170  0.2912  0.9109
 3553SOL    HW222122   0.795   4.152   5.555  0.5531  0.1407  2.0949
 3554SOL     OW22123   2.384   2.116   3.258 -0.2299  0.1717 -0.0570
 3554SOL    HW122124   2.316   2.067   3.211 -1.0084  0.4482  0.7875
 3554SOL    HW222125   2.427   2.043   3.303 -0.6944 -1.5602 -2.3683
 3555SOL     OW22126   0.277   3.043  12.888 -0.2487 -0.4579 -0.2063
 3555SOL    HW122127   0.255   3.115  12.946 -0.6110  0.2324 -1.2075
 3555SOL    HW222128   0.298   2.983  12.960  2.6565 -1.0735 -1.5564
 3556SOL     OW22129   0.790   2.456   8.004  0.2579  0.0612  0.4736
 3556SOL    HW122130   0.713   2.513   8.008  1.4516  1.7561 -0.3629
 3556SOL    HW222131   0.844   2.535   8.011 -0.5093  0.6934 -0.7252
 3557SOL     OW22132   4.043   1.335   4.874 -0.5538 -0.2574  0.5486
 3557SOL    HW122133   3.999   1.373   4.950  1.0794 -1.6241  2.1927
 3557SOL    HW222134   4.132   1.328   4.909 -0.1082 -2.3745 -0.9742
 3558SOL     OW22135   3.095   3.644  16.000  0.0222 -0.0883 -0.0685
 3558SOL    HW122136   3.128   3.555  15.991 -3.4506 -1.1908 -1.6020
 3558SOL    HW222137   3.123   3.680  15.916  3.4871 -1.5541  0.4500
 3559SOL     OW22138   1.143   4.409   9.742 -0.2553 -0.4111  0.1014
 3559SOL    HW122139   1.212   4.391   9.678  0.6430 -0.4632  1.0800
 3559SOL    HW222140   1.187   4.465   9.806  1.5810 -1.3041 -0.3897
 3560SOL     OW22141   3.278   1.994   7.786 -0.4182  0.2434 -0.1602
 3560SOL    HW122142   3.313   1.905   7.793 -0.3688  0.3018  0.2968
 3560SOL    HW222143   3.286   2.009   7.880  0.7832 -1.5499  0.0200
 3561SOL     OW22144   0.648   1.265   9.811  0.2186  0.0129 -0.0946
 3561SOL    HW122145   0.699   1.273   9.891 -0.4565 -2.2436  0.5790
 3561SOL    HW222146   0.647   1.359   9.793 -0.0986  0.3911  1.9114
 3562SOL     OW22147   0.543   2.379   7.414  0.0585 -0.8250  0.2811
 3562SOL    HW122148   0.495   2.308   7.457 -0.5652  0.2768  1.4157
 3562SOL    HW222149   0.624   2.380   7.464 -0.7309  0.0902  1.5489
 3563SOL     OW22150   2.348   3.828  10.460  0.2826  0.2524 -0.2949
 3563SOL    HW122151   2.323   3.739  10.435 -0.3700 -0.3989  2.6922
 3563SOL    HW222152   2.268   3.852  10.507  0.7384 -1.6981  1.4615
 3564SOL     OW22153   2.837   1.518   2.669  0.1150  0.0909 -0.1927
 3564SOL    HW122154   2.860   1.463   2.594  0.5240  0.7215 -0.5295
 3564SOL    HW222155   2.911   1.577   2.654 -0.3593  0.3352 -1.5108
 3565SOL     OW22156   3.658   0.349   5.289  0.2501 -0.0272 -0.2556
 3565SOL    HW122157   3.665   0.399   5.370 -2.8269 -0.6893  0.4402
 3565SOL    HW222158   3.562   0.347   5.283  0.3847  1.1982 -2.7473
 3566SOL     OW22159   3.627   3.822  11.025  0.3852  0.3608  0.3663
 3566SOL    HW122160   3.708   3.833  10.975 -1.8714  0.6086 -3.2566
 3566SOL    HW222161   3.576   3.902  11.010 -0.3553 -0.0759  0.5564
 3567SOL     OW22162   3.416   1.371   6.136 -1.0315 -0.3237  0.2237
 3567SOL    HW122163   3.472   1.330   6.202 -1.5756 -2.1630 -0.4588
 3567SOL    HW222164   3.374   1.440   6.188  1.3369  3.4304 -2.8426
 3568SOL     OW22165   2.340   3.883   7.230 -0.3925 -0.1598 -0.2859
 3568SOL    HW122166   2.280   3.901   7.158 -2.3807  0.1537  1.4528
 3568SOL    HW222167   2.283   3.830   7.285 -4.4170  2.7450 -1.7305
 3569SOL     OW22168   1.295   3.599   4.954 -0.2303  0.5538 -0.3981
 3569SOL    HW122169   1.296   3.524   4.895 -0.0670  0.7610 -0.6544
 3569SOL    HW222170   1.294   3.551   5.037  2.6147  0.7035 -0.2707
 3570SOL     OW22171   2.175   2.820   3.831  0.6615 -0.2078 -0.1787
 3570SOL    HW122172   2.170   2.750   3.897 -3.2577 -0.6146 -0.9001
 3570SOL    HW222173   2.180   2.892   3.893 -0.5341  1.7777 -2.3681
 3571SOL     OW22174   1.773   3.867  13.915 -0.3850  0.2383  0.2953
 3571SOL    HW122175   1.742   3.826  13.834 -0.6988 -0.6089  0.8361
 3571SOL    HW222176   1.700   3.854  13.975  0.6504 -0.2282  1.4559
 3572SOL     OW22177   4.242   0.803   1.578  0.6129 -0.2577  0.1304
 3572SOL    HW122178   4.269   0.856   1.503  1.8431  1.4031  1.7514
 3572SOL    HW222179   4.308   0.810   1.647  1.2942  0.6865 -0.6015
 3573SOL     OW22180   0.712   2.980   6.546 -0.1904 -0.1777  0.1094
 3573SOL    HW122181   0.731   3.053   6.604  0.2441  0.4950 -0.8863
 3573SOL    HW222182   0.693   3.047   6.481 -1.1093 -1.6606 -1.1442
 3574SOL     OW22183   1.998   2.335  11.604 -0.2897  0.2401  0.3380
 3574SOL    HW122184   1.910   2.297  11.610 -0.6685  0.8215 -1.4379
 3574SOL    HW222185   1.989   2.390  11.526  4.0905 -0.1829 -0.4537
 3575SOL     OW22186   4.593   0.318   2.787 -0.4663  0.3339 -0.6027
 3575SOL    HW122187   4.672   0.339   2.837 -0.8105 -0.4738  0.2744
 3575SOL    HW222188   4.550   0.404   2.791 -1.0029 -0.0305  1.4990
 3576SOL     OW22189   1.631   2.750   2.124 -0.6647  0.6681  0.0074
 3576SOL    HW122190   1.646   2.826   2.069  1.3286 -0.5816 -1.1787
 3576SOL    HW222191   1.544   2.720   2.097 -0.3922 -0.9737  0.9101
 3577SOL     OW22192   2.715   3.778  13.511 -0.3131 -0.6336 -0.4947
 3577SOL    HW122193   2.716   3.809  13.601 -0.2070 -1.1559 -0.3189
 3577SOL    HW222194   2.681   3.689  13.514  0.1922 -0.8538 -1.1695
 3578SOL     OW22195   2.489   2.017   1.099 -0.2606 -0.3441  0.1269
 3578SOL    HW122196   2.494   1.996   1.192  0.0756 -0.3523  0.1057
 3578SOL    HW222197   2.491   1.934   1.053  0.3522 -0.9240  1.2188
 3579SOL     OW22198   0.804   2.496   2.099 -0.0994  0.0205 -0.2143
 3579SOL    HW122199   0.757   2.493   2.015 -1.3621  3.8260  0.3902
 3579SOL    HW222200   0.731   2.490   2.161  1.1633  0.1165  1.2759
 3580SOL     OW22201   3.890   0.810  11.969  0.0476  0.2047  0.2551
 3580SOL    HW122202   3.837   0.882  11.937 -3.4682 -0.4442  4.5899
 3580SOL    HW222203   3.979   0.846  11.969 -0.9304  2.5992  0.2796
 3581SOL     OW22204   0.173   2.083   5.881  0.0396  0.0265  0.0136
 3581SOL    HW122205   0.111   2.017   5.849  2.2529 -1.3075 -1.6086
 3581SOL    HW222206   0.259   2.040   5.874  0.7094  0.8271  3.2878
 3582SOL     OW22207   3.536   2.689   4.616  0.6452  0.6721 -0.9388
 3582SOL    HW122208   3.620   2.736   4.610 -0.3795  2.4287 -1.3871
 3582SOL    HW222209   3.500   2.709   4.530  0.2308  0.5775 -0.7834
 3583SOL     OW22210   2.465   4.297   6.824 -0.8276 -0.0370  0.0863
 3583SOL    HW122211   2.489   4.224   6.766 -0.0277 -0.8015  1.3854
 3583SOL    HW222212   2.380   4.321   6.787 -2.1279 -3.1203  1.0986
 3584SOL     OW22213   2.702   0.005   7.226 -0.0608 -0.2783  0.3835
 3584SOL    HW122214   2.626   4.672   7.218  1.3971 -1.8503 -2.7844
 3584SOL    HW222215   2.741   4.704   7.310  0.1871  0.8179  0.6016
 3585SOL     OW22216   4.659   1.239   3.404 -0.1472 -0.4639  0.2769
 3585SOL    HW122217   4.583   1.184   3.387  1.7581 -2.4394 -1.8223
 3585SOL    HW222218   0.004   1.183   3.368 -2.2985 -3.1337  0.3329
 3586SOL     OW22219   2.649   3.272  10.200  0.4271 -0.0417  0.5846
 3586SOL    HW122220   2.741   3.253  10.217  0.1292 -2.3398 -0.3744
 3586SOL    HW222221   2.619   3.323  10.275 -1.4225  1.3493 -1.1007
 3587SOL     OW22222   1.233   1.668  17.646 -0.3076  0.2756 -0.1928
 3587SOL    HW122223   1.199   1.593  17.599  0.9892 -1.0566  0.9834
 3587SOL    HW222224   1.153   1.701  17.687 -0.3137  1.4046 -1.1078
 3588SOL     OW22225   3.171   0.786  13.957  0.0952 -0.3612 -0.0967
 3588SOL    HW122226   3.175   0.735  14.038  2.4144  1.4688  0.9322
 3588SOL    HW222227   3.248   0.841  13.967 -0.0281  0.0415 -1.4753
 3589SOL     OW22228   3.629   2.527   4.321  0.0272 -0.2828 -0.2439
 3589SOL    HW122229   3.605   2.537   4.229  0.9389 -0.9353 -0.5481
 3589SOL    HW222230   3.722   2.547   4.335  0.0414  1.2076 -2.4454
 3590SOL     OW22231   2.950   2.403   1.493 -0.4557 -0.5415  0.0218
 3590SOL    HW122232   2.961   2.362   1.579  0.7645  1.0730  0.6361
 3590SOL    HW222233   3.038   2.437   1.484 -1.6653  1.8884 -2.5612
 3591SOL     OW22234   1.532   3.186   6.061 -0.2527 -0.2231 -0.4403
 3591SOL    HW122235   1.597   3.120   6.036 -0.3814 -0.0122 -1.3258
 3591SOL    HW222236   1.548   3.175   6.155  0.4730 -1.6512 -0.7374
 3592SOL     OW22237   0.334   2.756   4.189 -0.3964  0.2972 -1.1853
 3592SOL    HW122238   0.276   2.808   4.133 -1.5754  0.5402  0.2590
 3592SOL    HW222239   0.417   2.800   4.168  1.3427 -1.4018  2.1566
 3593SOL     OW22240   3.112   2.260   6.532  0.4551 -0.2864 -0.2418
 3593SOL    HW122241   3.149   2.341   6.496  0.4195 -0.5558 -0.8792
 3593SOL    HW222242   3.051   2.238   6.462 -0.3114 -0.6905  0.5555
 3594SOL     OW22243   2.633   4.542  16.365  0.1901  0.1209 -0.0034
 3594SOL    HW122244   2.651   4.492  16.444  0.0085 -2.7506 -1.7910
 3594SOL    HW222245   2.553   4.589  16.391  0.8352  1.2355 -0.0297
 3595SOL     OW22246   0.005   0.560   0.587  0.1626 -0.1721 -0.1368
 3595SOL    HW122247   0.088   0.546   0.542  0.5409  3.2286 -0.5564
 3595SOL    HW222248   0.006   0.507   0.666 -2.5892  0.1279  0.0949
 3596SOL     OW22249   2.349   0.836  12.095 -0.1845  0.0150 -0.2487
 3596SOL    HW122250   2.324   0.749  12.064 -1.2773  0.6005 -0.9869
 3596SOL    HW222251   2.288   0.884  12.041  0.1031  1.1623  0.4394
 3597SOL     OW22252   1.646   1.796   8.504 -0.1171 -0.1858  0.0573
 3597SOL    HW122253   1.680   1.777   8.417  0.9151  1.0439  0.1894
 3597SOL    HW222254   1.551   1.795   8.490  0.1063  0.2549 -1.4980
 3598SOL     OW22255   1.160   2.843   0.892 -0.0696  0.3039  0.0526
 3598SOL    HW122256   1.246   2.808   0.914 -0.5528 -1.6489 -1.1174
 3598SOL    HW222257   1.131   2.794   0.815  1.7967 -0.6665 -0.0248
 3599SOL     OW22258   3.347   3.617   0.579  0.2754 -0.3889  0.3625
 3599SOL    HW122259   3.319   3.535   0.621  3.0719 -1.4069  0.1867
 3599SOL    HW222260   3.278   3.666   0.625  1.9406  1.0509  1.3441
 3600SOL     OW22261   1.407   2.086   1.869  0.2415  0.2505 -0.2878
 3600SOL    HW122262   1.475   2.112   1.806  2.6194  0.4224  2.3460
 3600SOL    HW222263   1.425   2.138   1.947  0.3688  1.0225 -0.8293
 3601SOL     OW22264   0.895   3.109   3.301 -0.5835 -0.7526  0.3509
 3601SOL    HW122265   0.863   3.127   3.390  1.3092  1.8067  0.5045
 3601SOL    HW222266   0.863   3.192   3.267  4.5510  1.9869  2.2484
 3602SOL     OW22267   1.422   0.577   3.119  0.4108 -0.2244 -0.3854
 3602SOL    HW122268   1.467   0.505   3.163 -1.4079  0.5414  2.6844
 3602SOL    HW222269   1.333   0.546   3.136  0.4617 -0.6774 -0.9215
 3603SOL     OW22270   2.266   3.950  16.611  0.6834  0.3870  0.2048
 3603SOL    HW122271   2.292   3.863  16.640  0.9327  0.2015 -0.5901
 3603SOL    HW222272   2.176   3.957  16.645  1.0843 -1.1016  1.5999
 3604SOL     OW22273   2.676   1.527  15.742 -0.0646 -0.2514  0.2777
 3604SOL    HW122274   2.750   1.568  15.787 -1.6481  0.4747  2.2219
 3604SOL    HW222275   2.661   1.450  15.797  0.7113 -0.5108  0.1261
 3605SOL     OW22276   1.441   3.221   6.548 -0.0492  0.1102  0.0664
 3605SOL    HW122277   1.482   3.153   6.600  0.1582  0.0533 -0.1738
 3605SOL    HW222278   1.470   3.300   6.594  1.1254  0.3860 -1.1392
 3606SOL     OW22279   3.814   4.706   9.159 -0.3956 -0.0292  0.0373
 3606SOL    HW122280   3.763   0.053   9.198 -0.7009 -0.2149 -0.0286
 3606SOL    HW222281   3.742   4.653   9.125 -0.2310 -0.5404  0.4731
 3607SOL     OW22282   1.380   0.706  12.119 -0.1787  0.3710  0.0193
 3607SOL    HW122283   1.431   0.686  12.197  2.1913 -1.3924 -1.9850
 3607SOL    HW222284   1.437   0.725  12.044 -1.8071  2.8298 -0.6094
 3608SOL     OW22285   2.038   2.607   6.672 -0.4169  0.3839  0.0242
 3608SOL    HW122286   1.959   2.628   6.623 -0.7405 -0.0934  0.3544
 3608SOL    HW222287   2.080   2.693   6.662  3.0890 -1.2609  0.5365
 3609SOL     OW22288   3.043   2.970   6.052 -0.4012 -0.5503 -0.1973
 3609SOL    HW122289   3.055   3.014   6.137  0.8110  0.5917 -0.9796
 3609SOL    HW222290   2.968   3.019   6.017 -0.6013  0.1109  1.1199
 3610SOL     OW22291   2.396   0.644   3.693 -0.1714 -0.2607 -0.5989
 3610SOL    HW122292   2.426   0.616   3.607  1.6463 -1.6027  0.4727
 3610SOL    HW222293   2.305   0.617   3.684  0.1501 -2.2155  2.0230
 3611SOL     OW22294   3.493   4.389  15.798 -0.2383 -0.2508 -0.2108
 3611SOL    HW122295   3.401   4.405  15.776 -0.0077  2.2973  0.6643
 3611SOL    HW222296   3.512   4.439  15.877 -4.2630  1.2604 -0.1748
 3612SOL     OW22297   4.570   3.422   4.392 -0.3864 -0.0155  0.0947
 3612SOL    HW122298   4.563   3.493   4.328 -0.0898 -1.1089 -1.1311
 3612SOL    HW222299   4.527   3.465   4.467  1.9214  1.4505  0.5895
 3613SOL     OW22300   0.579   2.036  12.041 -0.1786  0.4566  0.2706
 3613SOL    HW122301   0.508   2.088  12.079  1.0753  1.1233  1.7527
 3613SOL    HW222302   0.604   2.084  11.962  0.1585  0.6017  0.4590
 3614SOL     OW22303   2.594   0.798   7.029  0.3336 -0.6036 -0.3412
 3614SOL    HW122304   2.610   0.793   6.934  0.2477 -1.7790 -0.2955
 3614SOL    HW222305   2.621   0.885   7.059  0.5553 -0.5502 -0.6931
 3615SOL     OW22306   2.297   3.048   5.470  0.2352 -0.0866  0.2250
 3615SOL    HW122307   2.211   3.010   5.453  0.6766 -0.4043 -1.3491
 3615SOL    HW222308   2.343   2.965   5.455  1.7478  1.2750 -2.6748
 3616SOL     OW22309   3.347   3.577   1.337  0.3604  0.0605  0.3721
 3616SOL    HW122310   3.273   3.520   1.316 -1.7139  1.9345  2.5860
 3616SOL    HW222311   3.410   3.544   1.273  1.7789  1.4972  1.0354
 3617SOL     OW22312   1.337   1.668   5.327  0.7680 -0.3864 -0.4650
 3617SOL    HW122313   1.250   1.641   5.299  0.8401 -2.1953  1.0494
 3617SOL    HW222314   1.366   1.716   5.250  0.0457 -1.1443 -1.1952
 3618SOL     OW22315   3.077   2.626  10.658  0.0054  0.5671 -0.5395
 3618SOL    HW122316   3.074   2.537  10.693  0.2034 -0.0818 -2.1880
 3618SOL    HW222317   3.049   2.663  10.741  1.0416 -1.0093  0.5197
 3619SOL     OW22318   4.153   3.676   6.683  0.2870 -0.0508  0.2085
 3619SOL    HW122319   4.145   3.599   6.626 -1.5064  0.0003  0.3882
 3619SOL    HW222320   4.176   3.649   6.771 -3.1602  0.8596  1.4035
 3620SOL     OW22321   3.916   0.640   4.338 -0.3635  0.4496  0.9203
 3620SOL    HW122322   3.857   0.715   4.350 -0.2486  0.6619  0.1801
 3620SOL    HW222323   3.976   0.639   4.412  2.7908 -0.6955 -1.6547
 3621SOL     OW22324   2.467   3.460   6.404  0.0963 -0.2515  0.1700
 3621SOL    HW122325   2.479   3.491   6.314  0.2842  2.6355  1.1673
 3621SOL    HW222326   2.382   3.417   6.411 -0.3438  0.4626 -0.9522
 3622SOL     OW22327   0.306   4.531   8.348 -0.0226  0.2823  0.5143
 3622SOL    HW122328   0.254   4.463   8.390  2.6006 -1.5059  0.8875
 3622SOL    HW222329   0.249   4.551   8.273 -0.5530 -3.2397 -0.0322
 3623SOL     OW22330   1.933   2.865  16.270 -0.2596  0.3863 -0.2179
 3623SOL    HW122331   1.848   2.907  16.285 -1.6384 -1.4320 -2.8602
 3623SOL    HW222332   1.910   2.793  16.211 -0.4378 -0.8322  1.3202
 3624SOL     OW22333   2.373   2.769   9.446 -0.0249  0.2210 -0.4538
 3624SOL    HW122334   2.355   2.863   9.456 -1.2378  0.0893 -1.3904
 3624SOL    HW222335   2.465   2.771   9.472 -0.1141  0.9086 -0.1764
 3625SOL     OW22336   4.505   4.635   1.295  0.3199  0.0186  0.0524
 3625SOL    HW122337   4.574   4.629   1.229  1.2088  1.8119  0.7932
 3625SOL    HW222338   4.441   4.577   1.253 -0.6291  2.2157 -1.5416
 3626SOL     OW22339   1.521   2.476   7.567 -0.0874 -0.5807  0.3799
 3626SOL    HW122340   1.493   2.385   7.554 -3.1841  0.6347 -1.4803
 3626SOL    HW222341   1.551   2.476   7.658  1.4008  3.7978 -0.1191
 3627SOL     OW22342   3.849   2.253  12.532  0.1876  0.6388  0.2142
 3627SOL    HW122343   3.820   2.204  12.608 -0.2464 -1.1237 -1.0996
 3627SOL    HW222344   3.893   2.183  12.484 -1.2975 -0.3638  0.2991
 3628SOL     OW22345   1.486   3.565   2.635  0.1494  0.4129 -0.3093
 3628SOL    HW122346   1.399   3.525   2.641 -0.6996  2.0657 -1.7201
 3628SOL    HW222347   1.524   3.523   2.713 -0.1776  1.5104  0.4495
 3629SOL     OW22348   2.835   3.138   4.956 -0.0663  0.0621  0.1022
 3629SOL    HW122349   2.855   3.117   5.047 -4.5878 -0.4781  0.9977
 3629SOL    HW222350   2.770   3.074   4.927  0.4002 -0.2166 -0.3229
 3630SOL     OW22351   1.088   2.282  16.216 -0.0888 -0.0809 -0.3056
 3630SOL    HW122352   0.995   2.296  16.235 -0.1867 -1.4176  0.2293
 3630SOL    HW222353   1.094   2.186  16.219 -1.2559 -0.0270  3.3365
 3631SOL     OW22354   3.005   2.919   6.404 -0.3993 -0.0789  0.1453
 3631SOL    HW122355   3.081   2.977   6.415 -0.4560  0.3942 -2.0650
 3631SOL    HW222356   2.939   2.970   6.357  0.2865  0.9821  0.3237
 3632SOL     OW22357   1.722   4.314   4.026  0.0819  0.3367 -0.6422
 3632SOL    HW122358   1.747   4.399   3.990  2.3011 -0.1762 -0.3267
 3632SOL    HW222359   1.656   4.296   3.960 -1.6054 -0.5363  1.2752
 3633SOL     OW22360   3.971   0.706  16.647  0.2930  0.3358 -0.2857
 3633SOL    HW122361   3.969   0.635  16.712 -0.9390  1.6545  1.1118
 3633SOL    HW222362   4.056   0.740  16.674  0.6844 -0.4706 -0.4793
 3634SOL     OW22363   2.250   0.082   5.225 -0.0919  0.1211  0.3895
 3634SOL    HW122364   2.184   0.125   5.280 -1.5142  2.2861 -2.9886
 3634SOL    HW222365   2.333   0.125   5.244 -0.2057  0.7422 -0.4808
 3635SOL     OW22366   3.923   2.182   4.171 -0.2959  0.0081  0.1444
 3635SOL    HW122367   3.984   2.178   4.098 -0.8899  0.4183 -0.3687
 3635SOL    HW222368   3.848   2.218   4.124 -0.4776 -0.1719  0.2962
 3636SOL     OW22369   4.026   1.312   7.275  0.3650  0.0346  0.0485
 3636SOL    HW122370   4.060   1.298   7.187 -0.8729  2.1641 -0.7704
 3636SOL    HW222371   4.106   1.316   7.328  0.3525 -0.1571  0.0822
 3637SOL     OW22372   4.603   3.721   7.634 -0.0878  0.0528  0.0099
 3637SOL    HW122373   4.544   3.795   7.639  0.0778  0.0579  1.9098
 3637SOL    HW222374   4.586   3.708   7.541 -2.1802 -0.9431  0.5325
 3638SOL     OW22375   0.294   2.929   6.523 -0.1429 -0.1460 -0.0508
 3638SOL    HW122376   0.228   2.997   6.533  0.0156 -0.2627  1.7757
 3638SOL    HW222377   0.259   2.874   6.452  1.0869 -0.2688 -0.5615
 3639SOL     OW22378   4.245   0.790   7.737 -0.5151 -0.0911 -0.0359
 3639SOL    HW122379   4.307   0.720   7.716  1.9153  1.4894  1.9204
 3639SOL    HW222380   4.236   0.768   7.829  0.9189 -0.0150  0.1314
 3640SOL     OW22381   2.174   2.582   8.404 -0.0989 -0.0336 -0.0793
 3640SOL    HW122382   2.100   2.553   8.457  0.5150 -0.5444  0.5041
 3640SOL    HW222383   2.186   2.675   8.426 -0.1011 -0.3064  1.0820
 3641SOL     OW22384   2.397   4.144   4.718  0.0157  0.0012  0.5217
 3641SOL    HW122385   2.323   4.124   4.661 -1.1983 -1.2550  2.5103
 3641SOL    HW222386   2.359   4.213   4.773  0.1104  1.6574 -1.4834
 3642SOL     OW22387   2.779   1.150   3.752 -0.1422 -0.6888  0.0647
 3642SOL    HW122388   2.874   1.150   3.745 -0.2003  1.6267 -0.7211
 3642SOL    HW222389   2.739   1.134   3.667 -0.1067 -1.1761  0.1382
 3643SOL     OW22390   0.588   3.726   0.278 -0.3125 -0.0115 -0.3141
 3643SOL    HW122391   0.652   3.762   0.340 -0.2122 -0.4697 -0.1523
 3643SOL    HW222392   0.582   3.633   0.298  3.0463  0.2689  1.9801
 3644SOL     OW22393   2.117   1.927   6.148  0.1737  0.1920 -0.5085
 3644SOL    HW122394   2.063   1.862   6.193 -1.3682  0.8932 -1.3595
 3644SOL    HW222395   2.140   1.993   6.214 -0.3285 -0.8612  0.7165
 3645SOL     OW22396   1.164   2.477   4.602 -0.3155 -0.0973 -0.1386
 3645SOL    HW122397   1.088   2.533   4.587  2.9235  4.4161  0.2477
 3645SOL    HW222398   1.119   2.403   4.643  0.2924  0.3061  1.2446
 3646SOL     OW22399   3.928   1.655  15.701 -0.2813 -0.6167  0.4551
 3646SOL    HW122400   3.839   1.661  15.738 -0.3706  3.3452 -0.3962
 3646SOL    HW222401   3.906   1.606  15.622  0.0414  0.6220 -0.3990
 3647SOL     OW22402   3.831   3.998   0.901  0.2875 -0.0427  0.3738
 3647SOL    HW122403   3.848   4.072   0.843 -0.5520  1.1311  1.6499
 3647SOL    HW222404   3.921   3.965   0.903  0.3545  0.2632  2.2946
 3648SOL     OW22405   1.454   3.252   3.195  0.3745 -0.6550  0.1104
 3648SOL    HW122406   1.395   3.282   3.264 -1.0480 -2.6370 -0.2251
 3648SOL    HW222407   1.389   3.258   3.125  3.0261  3.9116 -1.9481
 3649SOL     OW22408   4.690   0.816   0.710  0.3078  0.7038 -0.2047
 3649SOL    HW122409   0.056   0.840   0.688  0.7062  0.4404  1.1711
 3649SOL    HW222410   4.681   0.739   0.653  0.5075  2.0425 -2.0251
 3650SOL     OW22411   3.136   1.455   2.570 -0.2446 -0.1819 -0.5145
 3650SOL    HW122412   3.196   1.529   2.569  1.1394 -1.3210 -1.4035
 3650SOL    HW222413   3.174   1.391   2.509 -0.3424  1.7238 -2.5524
 3651SOL     OW22414   3.293   4.459   4.147 -0.8918 -0.1023 -0.3611
 3651SOL    HW122415   3.263   4.374   4.116  2.1133 -1.8328  1.5227
 3651SOL    HW222416   3.344   4.494   4.075 -1.6116  0.7797 -0.4438
 3652SOL     OW22417   0.122   2.547  15.547  0.4817 -0.1500  0.0187
 3652SOL    HW122418   0.181   2.531  15.620  1.5465 -2.3547 -1.3398
 3652SOL    HW222419   0.175   2.579  15.474 -1.3758  0.6233 -0.9997
 3653SOL     OW22420   3.935   3.117  15.443 -0.4911  0.2367 -0.0826
 3653SOL    HW122421   4.019   3.073  15.431 -0.9203 -0.5742 -0.0769
 3653SOL    HW222422   3.976   3.199  15.472 -1.6785  0.5129  0.7943
 3654SOL     OW22423   3.156   4.548  17.632  0.1947 -0.5100  0.3927
 3654SOL    HW122424   3.116   4.622  17.677 -0.3804 -0.2931 -0.4721
 3654SOL    HW222425   3.243   4.549  17.672  0.6599  2.0246 -0.6775
 3655SOL     OW22426   1.979   2.855  15.314  0.4330  0.3988 -0.0714
 3655SOL    HW122427   1.909   2.838  15.251  2.0575  0.7502 -2.0089
 3655SOL    HW222428   2.037   2.781  15.297  0.1342 -0.1350  1.2455
 3656SOL     OW22429   4.524   0.683   9.207  0.6253 -0.1940 -0.0886
 3656SOL    HW122430   4.580   0.606   9.196  2.1942  0.9962 -0.5704
 3656SOL    HW222431   4.572   0.738   9.269 -1.5640  1.5691  0.0326
 3657SOL     OW22432   0.537   1.871  15.799 -0.2616  0.7450  0.3934
 3657SOL    HW122433   0.552   1.930  15.873 -0.3362  1.0119  0.1930
 3657SOL    HW222434   0.602   1.901  15.736 -1.5673  2.7240  0.0179
 3658SOL     OW22435   2.392   0.973   6.050  0.2775 -0.0763 -0.3905
 3658SOL    HW122436   2.353   1.028   6.118  0.5257 -0.0363 -0.2838
 3658SOL    HW222437   2.325   0.904   6.044  1.3236 -1.1850  0.8448
 3659SOL     OW22438   1.214   3.403  10.781 -0.5200 -0.1986  0.0741
 3659SOL    HW122439   1.145   3.386  10.717 -1.0724 -1.9254  1.1054
 3659SOL    HW222440   1.258   3.470  10.730  0.5894 -0.4265  0.7380
 3660SOL     OW22441   0.307   3.359   2.891 -0.2192  0.1638  0.0935
 3660SOL    HW122442   0.393   3.378   2.852  0.7835 -0.6366  1.8931
 3660SOL    HW222443   0.325   3.396   2.977  2.4259 -0.0843 -0.3234
 3661SOL     OW22444   1.125   4.180  12.131 -0.5280 -0.2049  0.0571
 3661SOL    HW122445   1.035   4.187  12.164 -0.3375  0.1668  0.4919
 3661SOL    HW222446   1.122   4.260  12.078  1.3056 -0.5229 -0.5220
 3662SOL     OW22447   2.993   2.081   5.589 -0.3947  0.3709 -0.3175
 3662SOL    HW122448   3.083   2.112   5.601  0.1231 -0.6152 -1.6741
 3662SOL    HW222449   2.985   2.015   5.657 -1.0786 -1.6735 -2.3977
 3663SOL     OW22450   0.621   0.911   9.211 -0.4608 -0.5286 -0.2924
 3663SOL    HW122451   0.687   0.875   9.152 -0.8063 -2.3587  0.4568
 3663SOL    HW222452   0.542   0.877   9.169 -0.3478 -1.1986  0.0482
 3664SOL     OW22453   3.929   0.568  11.197  0.3627  0.0216 -0.0200
 3664SOL    HW122454   3.864   0.513  11.239  1.8942 -1.3966  0.5059
 3664SOL    HW222455   4.008   0.515  11.210  0.7964  0.7384  0.2989
 3665SOL     OW22456   3.038   2.050  12.040 -0.4479  0.3637 -0.0881
 3665SOL    HW122457   3.056   2.063  12.133 -0.7405  0.1699 -0.0034
 3665SOL    HW222458   3.095   2.109  11.991 -0.5509 -0.0590 -0.7238
 3666SOL     OW22459   2.719   4.315  13.111  0.1575  0.3115  0.0871
 3666SOL    HW122460   2.695   4.370  13.185 -1.6940  0.4271 -0.5995
 3666SOL    HW222461   2.652   4.342  13.048 -0.4749  0.7957  0.9657
 3667SOL     OW22462   3.965   4.139   4.805  0.2585 -0.0912  0.3963
 3667SOL    HW122463   3.925   4.147   4.892  1.0620 -2.1254  0.9541
 3667SOL    HW222464   4.044   4.191   4.819 -0.6020  1.7130 -1.4670
 3668SOL     OW22465   3.937   0.479  16.787  0.3108 -0.4493  0.0518
 3668SOL    HW122466   3.860   0.498  16.840 -0.0013 -1.4568 -0.0465
 3668SOL    HW222467   3.895   0.418  16.727  1.4870 -0.2883 -0.9373
 3669SOL     OW22468   3.568   4.313  12.263 -0.1434  0.4164  0.2050
 3669SOL    HW122469   3.659   4.300  12.239 -0.1846 -0.9132  0.7920
 3669SOL    HW222470   3.577   4.314  12.358 -1.9879  0.2871  0.3917
 3670SOL     OW22471   1.377   0.660   7.538 -0.0803  0.0710  0.0734
 3670SOL    HW122472   1.295   0.682   7.582 -1.0131  1.4740 -2.3311
 3670SOL    HW222473   1.358   0.580   7.488 -2.5732  0.2267  0.7712
 3671SOL     OW22474   3.397   3.932   7.078 -0.5723 -0.2133  0.2766
 3671SOL    HW122475   3.412   3.899   7.166  0.9408 -1.6592 -0.5151
 3671SOL    HW222476   3.342   3.870   7.029  1.8102 -1.0203 -1.3835
 3672SOL     OW22477   1.376   1.062  13.282 -0.1819 -0.3882  0.8663
 3672SOL    HW122478   1.307   1.117  13.246  0.0816  0.6588  1.9411
 3672SOL    HW222479   1.360   0.978  13.240 -2.5094  0.3522  0.3056
 3673SOL     OW22480   2.714   4.275   2.577  0.0124 -0.5995 -0.5146
 3673SOL    HW122481   2.630   4.243   2.547  0.3477 -0.3087 -1.7584
 3673SOL    HW222482   2.727   4.356   2.527 -0.6294  0.8410  1.5986
 3674SOL     OW22483   0.309   0.803   5.973  0.3180 -0.1630 -0.5331
 3674SOL    HW122484   0.235   0.828   5.918  0.4555 -1.6064 -1.3854
 3674SOL    HW222485   0.378   0.807   5.906  2.2274 -0.5253  1.3997
 3675SOL     OW22486   3.862   1.992  11.330  0.5092  0.1979  0.8089
 3675SOL    HW122487   3.812   1.980  11.411  0.2583 -0.1546  0.6011
 3675SOL    HW222488   3.799   1.951  11.271  2.4885 -0.9867 -0.4539
 3676SOL     OW22489   2.055   3.758  17.301 -1.0512  0.0395  0.1702
 3676SOL    HW122490   2.024   3.709  17.225 -1.7344  0.7670 -0.0109
 3676SOL    HW222491   2.147   3.731  17.299 -0.9627  0.5070 -1.9310
 3677SOL     OW22492   2.851   2.258   0.330 -0.0772 -0.5787 -0.6226
 3677SOL    HW122493   2.798   2.290   0.257  1.8707 -0.0201 -1.8206
 3677SOL    HW222494   2.789   2.208   0.382  2.0680 -3.0868 -0.4875
 3678SOL     OW22495   4.681   4.583   9.375 -0.0088  0.4197  0.2893
 3678SOL    HW122496   0.022   4.640   9.417  2.4938 -1.9669 -0.3677
 3678SOL    HW222497   4.606   4.619   9.423  1.8675  1.7335  2.2341
 3679SOL     OW22498   1.924   0.652   3.417  0.2244 -0.2907 -0.1676
 3679SOL    HW122499   1.920   0.558   3.402 -1.1296 -0.5283  1.6472
 3679SOL    HW222500   1.970   0.659   3.501  0.2324  0.3911 -0.2303
 3680SOL     OW22501   4.293   0.460   8.800 -0.3988  0.3760 -0.2787
 3680SOL    HW122502   4.296   0.372   8.764 -0.5049 -0.2743  1.2886
 3680SOL    HW222503   4.292   0.448   8.895 -1.0470  1.4385 -0.1421
 3681SOL     OW22504   3.123   3.446   8.272  0.1889  0.9069  0.2991
 3681SOL    HW122505   3.200   3.437   8.329  0.6611  0.8849 -0.3388
 3681SOL    HW222506   3.161   3.435   8.185 -0.4836 -1.3696  0.2900
 3682SOL     OW22507   0.901   0.590   6.351  1.0474 -0.0514  0.0737
 3682SOL    HW122508   0.959   0.582   6.276  0.5436 -0.7489 -0.2450
 3682SOL    HW222509   0.909   0.499   6.380  0.5433 -0.0428  0.2492
 3683SOL     OW22510   0.309   1.388   2.859 -0.3255 -0.2872 -0.0978
 3683SOL    HW122511   0.243   1.394   2.928  0.8467 -0.6820  1.0674
 3683SOL    HW222512   0.389   1.420   2.900 -0.4648  1.0586 -0.8907
 3684SOL     OW22513   1.940   0.277  13.370 -0.7924 -0.0218 -0.2980
 3684SOL    HW122514   1.933   0.365  13.332  2.0649  0.2950 -0.1113
 3684SOL    HW222515   1.912   0.282  13.461  0.1708  1.5375 -0.0816
 3685SOL     OW22516   1.673   0.534  14.616  0.5195 -0.0954 -0.2463
 3685SOL    HW122517   1.730   0.476  14.666  1.4141  0.1932 -0.9397
 3685SOL    HW222518   1.590   0.500  14.649  1.7190 -1.4509  1.4026
 3686SOL     OW22519   1.690   1.215   6.828 -0.0830  0.3368 -0.5873
 3686SOL    HW122520   1.645   1.299   6.841 -2.2737 -0.4316 -3.2737
 3686SOL    HW222521   1.749   1.229   6.755  1.2251 -0.1757  0.3762
 3687SOL     OW22522   1.800   0.370  14.771  0.8089 -0.1859 -0.2792
 3687SOL    HW122523   1.870   0.431  14.796  0.7761  0.2113 -1.1511
 3687SOL    HW222524   1.753   0.358  14.853  1.5945  2.1414  0.5062
 3688SOL     OW22525   2.502   1.451  15.375  0.3720  0.5577 -0.1347
 3688SOL    HW122526   2.482   1.459  15.468  0.7429  1.3992 -0.1277
 3688SOL    HW222527   2.533   1.360  15.380  1.9117  1.1604  1.0142
 3689SOL     OW22528   0.925   1.712   5.786 -0.2697 -0.0789  0.1932
 3689SOL    HW122529   0.900   1.797   5.750 -1.1102 -0.6964 -0.6990
 3689SOL    HW222530   0.860   1.656   5.744 -1.1725  1.6235 -0.6974
 3690SOL     OW22531   2.298   1.320  11.513 -0.5700  0.2828  0.2810
 3690SOL    HW122532   2.223   1.364  11.552 -1.9465 -1.0178 -0.9035
 3690SOL    HW222533   2.318   1.376  11.439  1.8271  0.2367  0.8918
 3691SOL     OW22534   3.252   1.258   9.596 -0.2673  0.0242  0.5045
 3691SOL    HW122535   3.302   1.237   9.518 -1.0134 -1.3986  0.4137
 3691SOL    HW222536   3.165   1.237   9.562  0.2705 -1.7890  0.2538
 3692SOL     OW22537   0.231   0.464   2.513  0.3402  0.2033  0.5262
 3692SOL    HW122538   0.297   0.406   2.475 -0.7956 -1.0047  0.3953
 3692SOL    HW222539   0.152   0.411   2.500  1.4761 -1.0981 -1.2313
 3693SOL     OW22540   0.913   3.403   2.426  0.4898 -0.6288 -0.0143
 3693SOL    HW122541   0.919   3.308   2.438 -0.2017 -0.7699 -0.7851
 3693SOL    HW222542   0.828   3.406   2.380  1.4929 -0.2721 -1.8478
 3694SOL     OW22543   2.493   1.150  16.723  0.3943  0.4967 -0.3193
 3694SOL    HW122544   2.438   1.227  16.737  0.6450  0.7311 -0.6327
 3694SOL    HW222545   2.539   1.180  16.645  0.0700 -0.2442 -0.7962
 3695SOL     OW22546   0.597   1.672   6.131 -0.0620 -0.3881 -0.3174
 3695SOL    HW122547   0.520   1.726   6.110 -0.7051 -0.9086  0.6657
 3695SOL    HW222548   0.562   1.624   6.206 -0.1595  0.4542  0.1711
 3696SOL     OW22549   1.352   3.599   3.767 -0.4346  0.1178 -0.2816
 3696SOL    HW122550   1.351   3.503   3.758 -0.4716  0.2677 -2.0089
 3696SOL    HW222551   1.402   3.602   3.848 -1.5490 -0.6245  0.4261
 3697SOL     OW22552   1.081   3.021   5.384 -0.0591  0.2113 -0.0171
 3697SOL    HW122553   1.136   2.945   5.363 -0.9415 -0.1937 -0.8376
 3697SOL    HW222554   1.142   3.086   5.347 -0.5048  1.0092  0.6674
 3698SOL     OW22555   3.412   1.675   6.516 -0.2889 -0.1574 -0.1090
 3698SOL    HW122556   3.337   1.634   6.559  0.5278  0.1194  1.5493
 3698SOL    HW222557   3.443   1.750   6.567  0.4369 -0.9120  0.5443
 3699SOL     OW22558   1.379   3.517  11.725  0.1707 -0.3527 -0.9649
 3699SOL    HW122559   1.385   3.484  11.636 -0.7098  2.3837 -2.0201
 3699SOL    HW222560   1.388   3.611  11.710  0.7179 -0.1756  0.3980
 3700SOL     OW22561   3.667   4.287   0.797  0.0967 -0.2020  0.6300
 3700SOL    HW122562   3.612   4.295   0.875 -2.2078  1.2710 -1.1418
 3700SOL    HW222563   3.590   4.293   0.740 -0.4211  0.1433  1.3698
 3701SOL     OW22564   2.170   4.459   6.028  0.3945 -0.1550 -0.0119
 3701SOL    HW122565   2.136   4.370   6.024  1.7786 -0.8075  3.5328
 3701SOL    HW222566   2.262   4.442   6.047  0.1671  2.5445  3.6716
 3702SOL     OW22567   3.703   4.002  16.822 -0.0568  0.0579  0.0779
 3702SOL    HW122568   3.625   4.056  16.814  1.4536  2.3499  0.8145
 3702SOL    HW222569   3.666   3.914  16.834 -1.9688  0.7777 -0.6856
 3703SOL     OW22570   4.446   2.531  13.213  0.1995  0.1854  0.2530
 3703SOL    HW122571   4.424   2.599  13.149  0.6118  0.2098  0.1431
 3703SOL    HW222572   4.417   2.450  13.170  1.3426 -1.1276  1.9881
 3704SOL     OW22573   4.439   0.908   6.945 -0.0578  0.0642  0.4059
 3704SOL    HW122574   4.498   0.983   6.938  0.8883 -0.8006 -0.8273
 3704SOL    HW222575   4.410   0.919   7.036 -0.8711 -1.1305  0.2870
 3705SOL     OW22576   3.185   1.032   5.176  0.2800  0.8929  0.2478
 3705SOL    HW122577   3.212   0.946   5.143  1.1238  0.1016  2.9693
 3705SOL    HW222578   3.228   1.039   5.261  1.5308 -3.9617  0.0570
 3706SOL     OW22579   3.527   3.966   3.446 -0.0866  0.9530 -0.1495
 3706SOL    HW122580   3.540   4.022   3.370  2.1967 -1.3298 -1.4458
 3706SOL    HW222581   3.565   3.886   3.410 -1.1121  0.2262  0.3945
 3707SOL     OW22582   2.864   0.181   2.828  0.4656 -0.3248  0.9966
 3707SOL    HW122583   2.828   0.231   2.902  0.7356 -1.1581  1.6891
 3707SOL    HW222584   2.919   0.252   2.794 -1.0063  0.1845 -0.3592
 3708SOL     OW22585   4.659   3.639   4.761 -0.0621  0.1206 -0.1716
 3708SOL    HW122586   4.603   3.601   4.693  2.4535  0.2097 -2.3278
 3708SOL    HW222587   4.619   3.725   4.770 -1.9444 -0.7033 -0.7233
 3709SOL     OW22588   0.768   4.235  15.014 -0.8266  0.4674 -0.1924
 3709SOL    HW122589   0.719   4.253  15.095 -0.5429  1.0715 -0.1587
 3709SOL    HW222590   0.839   4.181  15.048  0.9945  1.6789 -2.0715
 3710SOL     OW22591   0.737   4.636   4.684 -0.2577 -0.4916 -0.1901
 3710SOL    HW122592   0.656   4.586   4.693 -0.3889 -0.5838 -1.8354
 3710SOL    HW222593   0.705   4.722   4.710  1.3400 -0.7078  2.5590
 3711SOL     OW22594   2.607   1.326   6.938  0.2996 -0.0303  0.1341
 3711SOL    HW122595   2.652   1.339   7.021  1.2378 -1.1987 -0.1869
 3711SOL    HW222596   2.642   1.248   6.896 -3.1435 -1.2498 -0.5362
 3712SOL     OW22597   4.722   1.390   7.643  0.2443  0.0755  0.2163
 3712SOL    HW122598   0.030   1.361   7.728 -0.5957  1.2269  0.9223
 3712SOL    HW222599   0.075   1.371   7.589  0.4260  1.2086  0.0788
 3713SOL     OW22600   1.424   1.093   4.720 -0.7950  0.2058  0.3420
 3713SOL    HW122601   1.406   1.046   4.638 -1.8119 -0.8925  1.1984
 3713SOL    HW222602   1.347   1.066   4.770 -0.5571  1.7540  1.5141
 3714SOL     OW22603   0.341   0.568   9.006  0.3689 -0.1213  0.1820
 3714SOL    HW122604   0.275   0.607   9.064  1.2421  0.0840  1.0474
 3714SOL    HW222605   0.398   0.517   9.065 -1.4574  0.6398  2.6140
 3715SOL     OW22606   2.014   3.350  13.012 -0.2800  0.3010  0.4329
 3715SOL    HW122607   2.037   3.272  13.063  0.6598 -1.5253 -2.8006
 3715SOL    HW222608   2.087   3.410  13.022 -0.0507 -0.0641  0.9580
 3716SOL     OW22609   3.248   3.680   5.217  0.1819 -0.1642 -0.1517
 3716SOL    HW122610   3.201   3.753   5.176  0.5835  0.6592  0.8833
 3716SOL    HW222611   3.288   3.636   5.141  0.6841  0.5360 -0.2952
 3717SOL     OW22612   2.449   2.097  10.523  0.2481 -0.0129  0.2291
 3717SOL    HW122613   2.493   2.081  10.440 -0.8507 -1.4519 -0.0836
 3717SOL    HW222614   2.412   2.012  10.548 -3.8732  2.2506  1.8033
 3718SOL     OW22615   2.513   2.585  15.305  0.1441  0.4066 -0.5271
 3718SOL    HW122616   2.479   2.513  15.357 -0.5479  2.1690  1.4788
 3718SOL    HW222617   2.608   2.584  15.320  0.3635 -1.2943 -2.1015
 3719SOL     OW22618   3.616   0.336   3.426 -0.7477 -0.5471  0.3338
 3719SOL    HW122619   3.702   0.297   3.413  0.4853  1.1549  3.4004
 3719SOL    HW222620   3.601   0.402   3.359  0.5812 -1.0502 -0.4387
 3720SOL     OW22621   1.563   2.766   5.089  0.1120 -0.2403 -0.3593
 3720SOL    HW122622   1.495   2.710   5.126  1.1166 -1.0796  0.2085
 3720SOL    HW222623   1.545   2.763   4.995 -1.0129 -2.5832 -0.0539
 3721SOL     OW22624   1.697   2.972  16.056 -0.1312 -0.0446  0.6294
 3721SOL    HW122625   1.711   3.001  16.146  0.6448 -2.0833  1.1559
 3721SOL    HW222626   1.777   3.005  16.016 -0.4067 -1.1551 -0.8346
 3722SOL     OW22627   4.546   1.233   4.291  0.6344  0.3341  0.4967
 3722SOL    HW122628   4.461   1.247   4.251  0.9232 -1.3106 -0.7236
 3722SOL    HW222629   4.601   1.224   4.213  1.4018  2.5366  0.7912
 3723SOL     OW22630   0.124   4.001   7.750 -0.0207  0.0342  0.0834
 3723SOL    HW122631   0.040   3.998   7.795 -0.0257 -1.8960 -0.0637
 3723SOL    HW222632   0.130   4.088   7.712  0.0402  0.5279  1.2410
 3724SOL     OW22633   0.095   0.248   4.975 -0.2437 -0.2427  0.4325
 3724SOL    HW122634   0.099   0.208   5.062 -1.7661 -1.0803  0.1142
 3724SOL    HW222635   0.013   0.219   4.935  1.1568 -1.2875 -1.6523
 3725SOL     OW22636   4.226   0.777   5.329  0.2381 -0.3901 -0.1725
 3725SOL    HW122637   4.300   0.820   5.285 -0.8180  0.4276 -1.1470
 3725SOL    HW222638   4.249   0.798   5.419  2.6234 -0.6038 -0.7365
 3726SOL     OW22639   0.847   2.692  10.089 -0.0734  0.2260 -0.5969
 3726SOL    HW122640   0.869   2.782  10.112  2.4237 -0.5372 -0.0220
 3726SOL    HW222641   0.827   2.710   9.998 -1.7819  0.7651 -0.1240
 3727SOL     OW22642   2.082   1.470   9.516  0.0170 -0.2885  0.1644
 3727SOL    HW122643   1.992   1.495   9.499  0.3374  1.3444  0.8395
 3727SOL    HW222644   2.080   1.427   9.602 -0.3711 -2.0367 -0.7266
 3728SOL     OW22645   0.132   3.781  11.803 -0.0388 -0.3019  0.2169
 3728SOL    HW122646   0.125   3.868  11.764 -1.2921 -0.5427 -0.0956
 3728SOL    HW222647   0.038   3.770  11.820 -0.1233 -0.9193 -0.6218
 3729SOL     OW22648   3.479   3.560   4.458  0.2701  0.4525 -0.2070
 3729SOL    HW122649   3.451   3.521   4.376  0.5186 -0.3193  0.0769
 3729SOL    HW222650   3.486   3.655   4.448 -2.2611  0.3770 -2.7516
 3730SOL     OW22651   0.734   1.271   8.420  0.2959  0.8818 -0.4925
 3730SOL    HW122652   0.718   1.245   8.511 -0.5848 -2.1917 -1.5061
 3730SOL    HW222653   0.830   1.278   8.425  0.2866  0.4853  0.3108
 3731SOL     OW22654   2.576   0.838  12.490 -0.2582 -0.0556  0.0624
 3731SOL    HW122655   2.588   0.852  12.396 -1.6006 -0.4113 -0.1609
 3731SOL    HW222656   2.660   0.867  12.526 -0.0880 -0.6701  0.1648
 3732SOL     OW22657   1.561   1.532   3.407  0.0848  0.1352  0.1895
 3732SOL    HW122658   1.513   1.593   3.350 -0.3791 -0.5873 -0.1880
 3732SOL    HW222659   1.611   1.600   3.452  0.4399 -0.6874  1.0409
 3733SOL     OW22660   0.516   0.837   7.589 -0.0058 -0.0197 -0.0470
 3733SOL    HW122661   0.423   0.858   7.584  0.0851  0.4862  0.3863
 3733SOL    HW222662   0.558   0.915   7.624 -0.0706  0.0403 -0.1019
 3734SOL     OW22663   2.746   4.014   3.390  0.3632  0.2424  0.9723
 3734SOL    HW122664   2.662   3.968   3.396  0.7576 -0.5316  0.5771
 3734SOL    HW222665   2.806   3.940   3.397  0.6515  0.3951  0.1677
 3735SOL     OW22666   0.556   1.473  14.756 -0.9719  0.5396 -0.1989
 3735SOL    HW122667   0.511   1.395  14.790  0.4231 -0.8698 -1.5824
 3735SOL    HW222668   0.481   1.530  14.771 -1.0608  0.5590 -0.7045
 3736SOL     OW22669   1.146   2.883   6.715 -0.2675 -0.5096  0.3299
 3736SOL    HW122670   1.134   2.973   6.747 -1.2424 -1.4225  2.5646
 3736SOL    HW222671   1.055   2.853   6.713 -1.1123  1.9708  1.5029
 3737SOL     OW22672   0.562   3.054   5.184 -0.5611 -0.0833  0.0435
 3737SOL    HW122673   0.561   3.102   5.102  0.0234  2.7658  1.7143
 3737SOL    HW222674   0.653   3.028   5.194 -0.9088 -1.6091 -0.7705
 3738SOL     OW22675   2.460   0.369   6.432  0.1219  0.5250  0.3456
 3738SOL    HW122676   2.541   0.331   6.465 -0.9145 -2.4527 -0.5896
 3738SOL    HW222677   2.460   0.457   6.470  0.2930  0.0258  1.4799
 3739SOL     OW22678   1.649   3.966  12.192  0.3580 -0.2497  0.5259
 3739SOL    HW122679   1.653   3.991  12.100  2.4329  0.2956  0.7716
 3739SOL    HW222680   1.560   3.987  12.223  0.7400  1.1125  0.6919
 3740SOL     OW22681   3.795   0.135  11.201  0.2793  0.2062  0.1960
 3740SOL    HW122682   3.821   0.197  11.134  1.7152 -0.6221 -0.0021
 3740SOL    HW222683   3.705   0.164  11.216 -0.5551 -0.8520 -2.8010
 3741SOL     OW22684   2.831   0.783   4.515  0.0309  0.4748 -0.0359
 3741SOL    HW122685   2.878   0.830   4.584 -0.9316  0.3599  0.6807
 3741SOL    HW222686   2.863   0.695   4.531  0.1971  0.9113  1.9412
 3742SOL     OW22687   0.500   0.907  14.189 -0.0239 -0.1242  0.5831
 3742SOL    HW122688   0.588   0.900  14.154 -0.0042  0.0116  0.6041
 3742SOL    HW222689   0.468   0.818  14.173 -0.1596 -0.3637  2.1009
 3743SOL     OW22690   3.552   0.961   5.597 -0.1571 -0.0362  0.0107
 3743SOL    HW122691   3.509   1.047   5.603  0.0026 -0.0941  1.8886
 3743SOL    HW222692   3.634   0.984   5.642  0.6793  2.3939 -2.7642
 3744SOL     OW22693   3.133   1.612  15.583 -0.1962  0.1806 -0.1217
 3744SOL    HW122694   3.079   1.681  15.544 -2.5434 -2.2866 -1.2082
 3744SOL    HW222695   3.064   1.557  15.618  0.6892 -1.2339 -0.5937
 3745SOL     OW22696   0.502   4.034   3.851  0.0565 -0.0054  0.3709
 3745SOL    HW122697   0.515   3.982   3.930 -0.4088 -1.1323 -0.2818
 3745SOL    HW222698   0.554   4.111   3.873 -0.1052  1.0498 -2.8208
 3746SOL     OW22699   4.189   4.179  15.723  0.7373  0.2756 -0.1246
 3746SOL    HW122700   4.154   4.089  15.720  2.2777 -0.3363  0.5288
 3746SOL    HW222701   4.136   4.229  15.661 -2.6817 -0.4925  2.1816
 3747SOL     OW22702   0.874   0.740   3.243 -0.1918 -0.3356 -0.1446
 3747SOL    HW122703   0.907   0.815   3.292  0.2288  0.7714 -2.0991
 3747SOL    HW222704   0.921   0.746   3.160 -0.5920 -0.1954 -0.3627
 3748SOL     OW22705   1.071   1.071   8.421  0.1824  0.0553 -0.2524
 3748SOL    HW122706   1.050   1.146   8.476  0.7177  1.7541 -2.3721
 3748SOL    HW222707   1.117   1.006   8.474 -0.4282 -0.5573 -0.4694
 3749SOL     OW22708   1.387   1.953  16.398 -0.1577  0.2781 -0.0023
 3749SOL    HW122709   1.378   2.000  16.315  2.3978  0.8855  0.0614
 3749SOL    HW222710   1.448   1.881  16.383 -0.1770  0.3872 -0.6152
 3750SOL     OW22711   4.672   2.478  13.590 -0.1332  0.5309  0.0086
 3750SOL    HW122712   4.690   2.402  13.645  1.1084 -0.0251 -1.1706
 3750SOL    HW222713   4.576   2.481  13.591 -0.0822  1.9141  0.5188
 3751SOL     OW22714   2.397   0.513   7.147 -0.0365  0.0733  0.1211
 3751SOL    HW122715   2.356   0.503   7.233 -0.2182 -2.7105 -0.2794
 3751SOL    HW222716   2.483   0.541   7.177 -0.2750  0.3827  0.5231
 3752SOL     OW22717   2.374   2.360   2.301 -0.3422 -0.1298 -0.4795
 3752SOL    HW122718   2.327   2.397   2.376 -0.8043  0.7703 -1.2169
 3752SOL    HW222719   2.306   2.302   2.266 -2.2167  0.5344  2.0160
 3753SOL     OW22720   2.708   2.187   5.263  0.2421 -0.6024  0.4606
 3753SOL    HW122721   2.781   2.125   5.257  1.6544  0.8117  3.0645
 3753SOL    HW222722   2.637   2.140   5.220 -0.4584  1.8011 -1.0355
 3754SOL     OW22723   4.442   3.166   4.473  0.1939  0.8307 -0.8981
 3754SOL    HW122724   4.497   3.217   4.413  0.6961 -0.6270 -1.6628
 3754SOL    HW222725   4.485   3.081   4.465  1.2541  1.2137  0.5684
 3755SOL     OW22726   3.522   4.318   3.499  0.5511  0.1134  0.3798
 3755SOL    HW122727   3.440   4.282   3.463 -0.1085  1.1746  0.8297
 3755SOL    HW222728   3.586   4.287   3.435  2.8298  1.5220  2.0087
 3756SOL     OW22729   0.888   3.499   7.873 -0.2071  0.1128 -0.0434
 3756SOL    HW122730   0.982   3.516   7.867  0.1409 -1.2642  1.4910
 3756SOL    HW222731   0.886   3.457   7.959  1.9987 -0.0546 -0.0750
 3757SOL     OW22732   0.749   0.572   8.917 -0.1029 -0.7160  0.4029
 3757SOL    HW122733   0.691   0.602   8.847 -0.0846  0.1517  0.7536
 3757SOL    HW222734   0.702   0.493   8.944 -0.8738 -0.1292  0.8001
 3758SOL     OW22735   1.848   3.176  14.197  0.3877 -0.7898  0.3500
 3758SOL    HW122736   1.841   3.129  14.280  0.1277  0.4643  1.0343
 3758SOL    HW222737   1.781   3.244  14.206 -0.0276 -0.7011 -3.2302
 3759SOL     OW22738   1.495   0.720   4.406 -0.2611  0.2629 -1.1417
 3759SOL    HW122739   1.520   0.795   4.458 -1.3655 -1.2422  1.5462
 3759SOL    HW222740   1.423   0.683   4.457  0.0797  2.4261  0.8544
 3760SOL     OW22741   3.947   1.746   6.082  0.1159  0.1504  0.0638
 3760SOL    HW122742   4.037   1.775   6.098 -0.2303  1.4725 -0.3213
 3760SOL    HW222743   3.951   1.693   6.002 -0.7132 -2.2227  1.6049
 3761SOL     OW22744   3.625   3.484  17.411 -0.3846  0.6748  0.3081
 3761SOL    HW122745   3.599   3.460  17.500  1.5221 -2.5844 -0.0232
 3761SOL    HW222746   3.533   3.481  17.384 -0.4931 -2.3650  1.0544
 3762SOL     OW22747   3.598   0.296   6.949 -0.0350 -0.4871  0.0861
 3762SOL    HW122748   3.564   0.215   6.910  0.5708 -0.5150 -0.3732
 3762SOL    HW222749   3.647   0.332   6.876 -0.6265  2.0383  0.9507
 3763SOL     OW22750   1.264   0.527   0.864 -0.4456 -0.2381 -0.6711
 3763SOL    HW122751   1.177   0.517   0.825 -1.0511  4.0130 -0.4673
 3763SOL    HW222752   1.246   0.506   0.955  2.2233 -0.0578 -0.0856
 3764SOL     OW22753   2.881   4.279   6.634  0.0474 -0.1867  0.4497
 3764SOL    HW122754   2.892   4.184   6.625  0.6943 -0.2562  1.9416
 3764SOL    HW222755   2.868   4.274   6.729  0.7077  2.1155  0.6629
 3765SOL     OW22756   0.156   3.364  10.094 -0.1679 -0.0739  0.7439
 3765SOL    HW122757   0.114   3.321  10.020 -0.2046 -0.2065  0.8402
 3765SOL    HW222758   0.135   3.299  10.162  3.1284  0.0538  1.9093
 3766SOL     OW22759   4.549   4.430   9.156 -0.5841  0.1381  0.0796
 3766SOL    HW122760   4.580   4.352   9.202 -0.0730  0.5361  0.4065
 3766SOL    HW222761   4.568   4.497   9.222 -0.2339  0.4141 -0.2955
 3767SOL     OW22762   3.429   2.709   2.515  0.1914  0.1056  0.4121
 3767SOL    HW122763   3.365   2.692   2.445  0.6103  0.9316 -0.1646
 3767SOL    HW222764   3.440   2.626   2.562  1.5551  0.5267  0.8143
 3768SOL     OW22765   1.420   0.832   7.190  0.0255  0.0610 -0.3156
 3768SOL    HW122766   1.510   0.827   7.222  0.1048 -1.9120 -0.8490
 3768SOL    HW222767   1.439   0.810   7.099 -0.4877 -2.0052  0.0726
 3769SOL     OW22768   3.522   2.628  10.063 -0.1873 -0.8927 -0.2684
 3769SOL    HW122769   3.572   2.707  10.040  0.0680 -1.2937 -1.0627
 3769SOL    HW222770   3.530   2.638  10.158  0.0443 -0.7555 -0.3018
 3770SOL     OW22771   2.326   1.927  15.426  0.3095  0.4379 -0.4725
 3770SOL    HW122772   2.398   1.955  15.369  1.6584 -1.5843  0.2559
 3770SOL    HW222773   2.257   1.991  15.404 -1.6938 -1.5631 -0.0289
 3771SOL     OW22774   2.310   4.577   8.920 -0.2230  0.5560 -0.8814
 3771SOL    HW122775   2.242   4.639   8.891 -0.5980  0.1925 -0.7816
 3771SOL    HW222776   2.323   4.606   9.010 -0.9895 -0.1539 -0.5370
 3772SOL     OW22777   4.571   4.074   5.700  0.1484  0.3496 -0.1733
 3772SOL    HW122778   4.665   4.064   5.685  0.0659 -2.3131  1.0542
 3772SOL    HW222779   4.548   4.012   5.769  1.1015  0.0338 -0.1395
 3773SOL     OW22780   1.824   4.344   6.386 -0.4204 -0.2150 -0.4532
 3773SOL    HW122781   1.814   4.436   6.409 -1.5176 -0.3637 -0.3655
 3773SOL    HW222782   1.781   4.339   6.300 -0.2260 -1.4543 -0.4814
 3774SOL     OW22783   4.369   0.871   3.120  0.1129 -0.0553  0.1232
 3774SOL    HW122784   4.434   0.854   3.052  1.1752 -0.5241  1.2557
 3774SOL    HW222785   4.419   0.889   3.199  0.3943  0.7043 -0.2252
 3775SOL     OW22786   3.464   0.132   0.518  0.3435  0.6909  0.5290
 3775SOL    HW122787   3.433   0.046   0.488 -2.0869  2.2399 -1.3858
 3775SOL    HW222788   3.430   0.124   0.607 -1.2884 -0.0483 -0.1634
 3776SOL     OW22789   4.641   1.565   6.064  0.2627 -0.2833  0.2237
 3776SOL    HW122790   4.676   1.648   6.097 -2.2389  0.4862  1.0090
 3776SOL    HW222791   4.600   1.597   5.983 -0.3048  2.6166  1.6325
 3777SOL     OW22792   0.396   0.879   3.804 -0.3553  0.1051 -0.3776
 3777SOL    HW122793   0.377   0.972   3.813  2.3890  0.4929  1.6863
 3777SOL    HW222794   0.406   0.884   3.709 -1.0318  3.0895 -0.2988
 3778SOL     OW22795   4.377   0.521   5.048 -0.5113 -0.0262 -0.0372
 3778SOL    HW122796   4.439   0.487   4.983 -0.0206  1.4528 -0.3356
 3778SOL    HW222797   4.409   0.480   5.129  0.9754  1.3332  0.0557
 3779SOL     OW22798   0.167   3.478   8.559  0.5347  0.2228  0.5140
 3779SOL    HW122799   0.161   3.535   8.636 -1.2238 -1.3175  1.5039
 3779SOL    HW222800   0.081   3.498   8.521  0.7004  0.0183  0.0266
 3780SOL     OW22801   2.223   3.950   9.660 -0.3348  0.3673 -0.2187
 3780SOL    HW122802   2.197   3.913   9.744  2.1694 -2.1816 -0.5574
 3780SOL    HW222803   2.296   4.003   9.690 -0.4622 -0.4711  1.5726
 3781SOL     OW22804   2.565   0.527   5.380 -0.3367 -0.3280 -0.5254
 3781SOL    HW122805   2.654   0.559   5.390 -0.8160  0.8981 -0.2522
 3781SOL    HW222806   2.522   0.604   5.416 -2.1404 -2.0280  0.9811
 3782SOL     OW22807   0.467   1.841   8.123 -0.6894 -0.3437  0.6937
 3782SOL    HW122808   0.487   1.903   8.053  1.1768 -1.1310  0.5273
 3782SOL    HW222809   0.532   1.774   8.101  0.8403  0.2557  3.3469
 3783SOL     OW22810   3.826   0.154   0.202  0.2603  0.3331  0.1101
 3783SOL    HW122811   3.878   0.220   0.156 -0.8888  1.2156  0.0916
 3783SOL    HW222812   3.746   0.201   0.226 -0.0524 -0.2543  0.2113
 3784SOL     OW22813   4.638   3.217  10.053 -0.4625 -0.7757  0.0342
 3784SOL    HW122814   4.669   3.194  10.141 -0.2935 -1.9247 -0.3242
 3784SOL    HW222815   4.708   3.208   9.988 -0.7212  0.9636 -0.4936
 3785SOL     OW22816   3.299   1.448   7.985  0.2761 -0.1406 -0.1117
 3785SOL    HW122817   3.377   1.503   7.976  0.6362 -0.7381 -0.6407
 3785SOL    HW222818   3.323   1.395   8.061 -0.8709  0.7452  0.8552
 3786SOL     OW22819   3.204   0.377   0.198 -0.2820 -0.0931  0.2488
 3786SOL    HW122820   3.197   0.351   0.290  2.5845 -2.0837 -0.0750
 3786SOL    HW222821   3.271   0.315   0.168  0.2264  0.4027  0.3684
 3787SOL     OW22822   0.610   1.394  16.622  0.1614  0.4113  0.1872
 3787SOL    HW122823   0.698   1.399  16.658  1.8075 -1.8272 -3.5023
 3787SOL    HW222824   0.642   1.432  16.541 -2.6656  3.4739  0.4871
 3788SOL     OW22825   3.401   1.894   7.258  0.2540  0.9697 -0.1494
 3788SOL    HW122826   3.364   1.888   7.346  0.5686  1.4038  0.0158
 3788SOL    HW222827   3.351   1.960   7.209 -1.4333 -1.4706 -1.6739
 3789SOL     OW22828   2.094   4.514  15.634  0.2009 -0.0593  0.3778
 3789SOL    HW122829   2.074   4.425  15.660 -0.0107 -0.1504 -0.1011
 3789SOL    HW222830   2.187   4.524  15.652 -0.2031  0.9277  1.9882
 3790SOL     OW22831   1.146   2.933   7.082  0.6182  0.4559 -0.1900
 3790SOL    HW122832   1.132   2.970   7.170 -0.7333 -0.6083  0.0275
 3790SOL    HW222833   1.221   2.980   7.044  0.8639  1.0981  1.0800
 3791SOL     OW22834   1.412   2.584  13.590 -0.8697 -0.0483  0.7657
 3791SOL    HW122835   1.378   2.668  13.561 -1.9026 -0.9500 -0.6342
 3791SOL    HW222836   1.365   2.564  13.671 -0.4455 -1.4407  0.6728
 3792SOL     OW22837   0.358   3.588   0.464  0.1725 -0.4058  0.0343
 3792SOL    HW122838   0.404   3.504   0.455  1.0947 -0.0163  1.2102
 3792SOL    HW222839   0.272   3.550   0.480  0.4537  0.0531  2.6593
 3793SOL     OW22840   2.133   1.659   4.852 -0.5287 -0.5735  0.5089
 3793SOL    HW122841   2.163   1.632   4.939 -0.4022 -1.2132  0.2622
 3793SOL    HW222842   2.164   1.591   4.793  1.7907 -0.6893  1.8556
 3794SOL     OW22843   0.175   3.887  17.661 -0.4486  0.2498  0.0182
 3794SOL    HW122844   0.155   3.971   0.006 -0.9809  0.8991 -1.5197
 3794SOL    HW222845   0.208   3.836   0.038 -0.4165  0.7878  0.3719
 3795SOL     OW22846   2.495   0.141   9.758 -0.2174  0.3731 -0.2355
 3795SOL    HW122847   2.428   0.186   9.706  0.9193  0.8935 -1.2445
 3795SOL    HW222848   2.479   0.191   9.838  1.0370  0.9993 -0.3810
 3796SOL     OW22849   4.333   4.401   1.222  0.7582 -0.2416  0.0685
 3796SOL    HW122850   4.403   4.347   1.186 -1.1027 -1.9942 -0.9018
 3796SOL    HW222851   4.330   4.364   1.310  1.6203 -0.1288  0.1436
 3797SOL     OW22852   0.019   3.832   2.608  0.5173  0.7347 -0.3721
 3797SOL    HW122853   4.710   3.922   2.610  1.8846  1.2065  1.2997
 3797SOL    HW222854   0.065   3.819   2.691 -2.3891 -1.3965  0.9212
 3798SOL     OW22855   0.419   2.161  16.319 -0.3645 -0.0131 -0.4445
 3798SOL    HW122856   0.418   2.247  16.359  2.4322  0.0732 -0.5400
 3798SOL    HW222857   0.474   2.113  16.382 -0.5532 -2.4745 -2.1170
 3799SOL     OW22858   2.724   4.494   8.880 -0.0991 -0.0170  0.6164
 3799SOL    HW122859   2.808   4.520   8.843  0.5253 -1.3404  1.0931
 3799SOL    HW222860   2.751   4.411   8.921 -2.6972 -1.1160  0.1073
 3800SOL     OW22861   2.823   4.653   7.481  0.3415 -0.1668 -0.7821
 3800SOL    HW122862   2.823   4.566   7.520 -2.4636  0.2518  0.1791
 3800SOL    HW222863   2.916   4.673   7.495  0.2842 -0.4608 -0.0047
 3801SOL     OW22864   2.979   4.123  13.227  0.0648 -0.2499 -0.1688
 3801SOL    HW122865   2.918   4.197  13.231  0.6759  0.2560  0.0303
 3801SOL    HW222866   3.052   4.158  13.280 -0.4955  1.9766 -0.8551
 3802SOL     OW22867   0.667   1.627  15.841  0.8291 -0.2071 -0.0507
 3802SOL    HW122868   0.606   1.691  15.804 -0.0185 -0.9050  0.1267
 3802SOL    HW222869   0.726   1.692  15.880  2.4907 -1.8425  0.1695
 3803SOL     OW22870   3.882   2.229   7.671 -0.1947  0.0293  0.3806
 3803SOL    HW122871   3.975   2.248   7.656 -0.0976 -0.2410  0.6426
 3803SOL    HW222872   3.876   2.147   7.623 -0.2541  1.1354 -1.5319
 3804SOL     OW22873   3.902   3.901  10.504 -0.1354  0.6820 -0.3705
 3804SOL    HW122874   3.835   3.946  10.554 -1.2774  1.0801 -2.2625
 3804SOL    HW222875   3.847   3.835  10.461  0.0732  1.5986 -2.0580
 3805SOL     OW22876   1.021   1.930   8.917 -0.3164  0.2514 -0.5154
 3805SOL    HW122877   1.109   1.951   8.884  0.9123  0.4967  2.9609
 3805SOL    HW222878   1.002   1.847   8.874  0.0036 -0.5110  0.8093
 3806SOL     OW22879   2.376   3.924   8.116  0.4639  0.5081 -0.0472
 3806SOL    HW122880   2.363   4.018   8.129  1.0422  0.9466 -2.5951
 3806SOL    HW222881   2.471   3.924   8.119  0.4538 -0.9920  0.4725
 3807SOL     OW22882   1.043   3.273   4.368 -0.6494 -0.0350  0.3065
 3807SOL    HW122883   1.126   3.226   4.355 -1.5162 -2.2713  2.8328
 3807SOL    HW222884   1.065   3.353   4.415 -0.7671  0.9861 -1.3826
 3808SOL     OW22885   3.419   4.548   5.988 -0.1190 -0.0395  0.2274
 3808SOL    HW122886   3.414   4.460   5.952 -1.9956  0.9276 -1.9188
 3808SOL    HW222887   3.351   4.590   5.934 -2.3091  1.6487  4.2579
 3809SOL     OW22888   3.474   2.035   9.910 -0.6233  0.2398 -0.0452
 3809SOL    HW122889   3.519   1.963   9.955 -0.6626  0.4475  0.3257
 3809SOL    HW222890   3.540   2.100   9.932 -1.0242  2.1739 -4.5672
 3810SOL     OW22891   1.327   3.674   8.928  0.2473 -0.6841  0.6131
 3810SOL    HW122892   1.318   3.769   8.920  0.8868 -0.5343  1.6729
 3810SOL    HW222893   1.364   3.671   9.016  0.2865 -0.6975  0.5961
 3811SOL     OW22894   1.162   2.043  16.524 -0.4201  0.2935 -0.0207
 3811SOL    HW122895   1.242   1.995  16.504 -0.3068 -0.0363  1.2257
 3811SOL    HW222896   1.106   2.023  16.450  0.5949  0.3300 -0.8078
 3812SOL     OW22897   2.221   3.428  15.827 -0.2978  0.1134  0.2083
 3812SOL    HW122898   2.181   3.375  15.896 -3.0945  1.2941 -0.5450
 3812SOL    HW222899   2.213   3.519  15.857 -0.4089 -0.1546  1.0099
 3813SOL     OW22900   3.759   3.749  11.297  0.0558  0.3957  0.7848
 3813SOL    HW122901   3.729   3.737  11.207  0.8424  0.4123  0.5247
 3813SOL    HW222902   3.700   3.692  11.346  1.3054 -1.1462  0.4828
 3814SOL     OW22903   2.330   0.176  16.088  0.4045  0.0247 -0.2591
 3814SOL    HW122904   2.307   0.237  16.158 -3.0529  0.4180 -1.7818
 3814SOL    HW222905   2.239   0.151  16.075 -0.0919  1.4372  0.5573
 3815SOL     OW22906   2.186   2.406   8.096  0.1493  0.1497 -0.1404
 3815SOL    HW122907   2.260   2.353   8.066  0.8037  0.2500  1.2877
 3815SOL    HW222908   2.121   2.391   8.027  1.4800  2.1010 -1.8215
 3816SOL     OW22909   0.291   3.217   8.911 -0.2385  0.1044  0.3073
 3816SOL    HW122910   0.309   3.311   8.914 -2.7795  0.6391 -1.3224
 3816SOL    HW222911   0.291   3.197   9.005  0.1346 -0.3076  0.2245
 3817SOL     OW22912   3.228   0.150  10.956  0.6162 -0.1903 -0.1777
 3817SOL    HW122913   3.314   0.167  10.917  1.5737  1.3010  2.6028
 3817SOL    HW222914   3.253   0.161  11.048 -0.7701  3.2052 -0.2204
 3818SOL     OW22915   3.646   2.696   3.341 -0.1403 -0.4951  0.1992
 3818SOL    HW122916   3.693   2.646   3.274 -1.0738 -1.3178  0.1646
 3818SOL    HW222917   3.642   2.784   3.304 -1.1921 -0.0740  1.3600
 3819SOL     OW22918   0.726   4.063   2.621  0.2401  0.2351 -0.8902
 3819SOL    HW122919   0.702   3.995   2.558  1.0016  0.4188 -1.3864
 3819SOL    HW222920   0.781   4.121   2.567  1.3967  0.7647  0.8722
 3820SOL     OW22921   2.292   4.182  15.875  0.3451  0.2017 -0.5791
 3820SOL    HW122922   2.379   4.144  15.882  0.3401 -0.1375 -2.3187
 3820SOL    HW222923   2.253   4.138  15.799 -1.2923 -1.5551  1.2822
 3821SOL     OW22924   2.688   3.359   6.132 -0.6179  0.2682  0.5624
 3821SOL    HW122925   2.644   3.435   6.170 -2.1386  0.1279 -0.9058
 3821SOL    HW222926   2.715   3.383   6.043 -1.9912  0.5052  0.2029
 3822SOL     OW22927   3.301   2.195   8.044  0.3669 -0.8455 -1.2895
 3822SOL    HW122928   3.299   2.108   8.083 -0.2977  0.9554  2.7003
 3822SOL    HW222929   3.387   2.215   8.079  0.7031 -0.8818 -2.1016
 3823SOL     OW22930   1.919   1.158   6.985 -0.3809  0.4025  0.3309
 3823SOL    HW122931   1.981   1.119   6.923 -0.7603  2.5156 -1.3699
 3823SOL    HW222932   1.850   1.187   6.926  0.4150  0.1871 -0.7127
 3824SOL     OW22933   1.521   1.549  13.484  0.5622  0.7299 -0.2583
 3824SOL    HW122934   1.589   1.569  13.420  1.8404 -0.8962  0.5855
 3824SOL    HW222935   1.575   1.553  13.563 -0.3205  2.6901  0.2581
 3825SOL     OW22936   0.102   1.270   7.876 -0.6571 -0.2123  0.2475
 3825SOL    HW122937   0.096   1.215   7.798  0.0637  1.6736 -1.1504
 3825SOL    HW222938   0.193   1.297   7.869 -0.2408 -1.3008  1.5876
 3826SOL     OW22939   2.945   2.024  11.250  0.3411  0.2977  0.0168
 3826SOL    HW122940   2.945   2.028  11.346 -1.1431 -2.4581  0.1345
 3826SOL    HW222941   2.866   1.980  11.219  0.3354 -1.1990  2.1194
 3827SOL     OW22942   3.915   2.452   4.970 -0.2391 -0.2832 -0.3323
 3827SOL    HW122943   3.994   2.402   4.950 -0.3716 -1.1365  1.3327
 3827SOL    HW222944   3.849   2.385   4.955 -0.4734 -0.0762 -0.2043
 3828SOL     OW22945   4.693   0.840   3.839 -0.5856 -0.2380  0.4210
 3828SOL    HW122946   0.038   0.773   3.837 -2.4286 -1.9766 -3.0431
 3828SOL    HW222947   4.661   0.826   3.750 -0.6213 -2.4568  0.8014
 3829SOL     OW22948   2.563   2.629   7.626  0.6031  0.1336 -0.0057
 3829SOL    HW122949   2.639   2.678   7.658  0.1144 -0.9039  2.7283
 3829SOL    HW222950   2.532   2.694   7.563  0.8711 -0.2326 -0.5098
 3830SOL     OW22951   3.682   2.638   5.671 -0.4963 -0.0080  0.1008
 3830SOL    HW122952   3.702   2.565   5.730 -4.1822 -0.3846  0.8626
 3830SOL    HW222953   3.690   2.713   5.730 -0.6485 -0.7317  1.0407
 3831SOL     OW22954   3.332   2.525  15.395 -0.0985  0.5395 -0.0799
 3831SOL    HW122955   3.403   2.528  15.460  1.5594  3.0143 -1.9764
 3831SOL    HW222956   3.371   2.575  15.323 -0.1903  1.1042  0.2579
 3832SOL     OW22957   1.921   2.938   4.197  0.4188 -0.0385  0.1486
 3832SOL    HW122958   2.000   2.978   4.234 -1.3104  0.0266  3.7627
 3832SOL    HW222959   1.857   2.946   4.268  1.4260  1.5274  0.8730
 3833SOL     OW22960   3.713   1.151   9.034 -0.2846  0.3610  0.5837
 3833SOL    HW122961   3.750   1.139   9.121  0.7342 -0.8787 -0.0264
 3833SOL    HW222962   3.748   1.084   8.975 -1.3216 -0.7276  1.1955
 3834SOL     OW22963   4.303   3.611   7.273  0.5509 -0.1492  0.6680
 3834SOL    HW122964   4.225   3.555   7.274  1.1486 -0.9492  1.7765
 3834SOL    HW222965   4.316   3.633   7.181 -1.1245  0.9383  0.6789
 3835SOL     OW22966   2.186   3.019  15.423 -0.1070 -0.0845  0.2546
 3835SOL    HW122967   2.108   2.994  15.373  0.6640 -2.3651  0.1982
 3835SOL    HW222968   2.234   2.941  15.395 -0.6485 -1.1730  2.3824
 3836SOL     OW22969   1.369   1.770   1.217 -0.0602 -0.2373 -0.6704
 3836SOL    HW122970   1.463   1.761   1.201  0.1661 -0.8489  1.0654
 3836SOL    HW222971   1.337   1.721   1.141  1.7680  1.2481 -2.4142
 3837SOL     OW22972   3.084   2.122   2.705 -0.4921 -0.0119  0.3625
 3837SOL    HW122973   3.152   2.131   2.771 -0.9183 -0.7433  0.8954
 3837SOL    HW222974   3.003   2.149   2.748 -0.3397  0.4953  0.3413
 3838SOL     OW22975   2.715   3.970  11.070 -0.0254  0.3906 -0.7261
 3838SOL    HW122976   2.749   4.059  11.083 -0.8825  0.3235  1.8817
 3838SOL    HW222977   2.628   3.971  11.109 -0.6430 -0.3521 -2.0793
 3839SOL     OW22978   0.259   1.289   3.594  0.2445  0.0679  0.4590
 3839SOL    HW122979   0.184   1.230   3.605 -0.0503  0.2700 -0.4556
 3839SOL    HW222980   0.322   1.223   3.564 -0.2037  0.2192 -0.8215
 3840SOL     OW22981   2.979   1.838   8.224 -0.1790  0.1411  0.0838
 3840SOL    HW122982   2.996   1.765   8.284  0.6365 -1.6018 -2.2879
 3840SOL    HW222983   3.001   1.798   8.140  2.1553  3.0590 -0.6616
 3841SOL     OW22984   1.772   4.070   4.786 -0.6265  1.1269  0.0988
 3841SOL    HW122985   1.813   4.030   4.863 -1.0440  0.6218  0.0497
 3841SOL    HW222986   1.831   4.136   4.748  1.0022 -0.9238 -0.9708
 3842SOL     OW22987   0.682   0.573   6.028  0.4039 -0.4699  0.1984
 3842SOL    HW122988   0.667   0.575   5.933 -3.6056  0.2006  0.8110
 3842SOL    HW222989   0.594   0.551   6.060  0.6553 -0.4441  0.8958
 3843SOL     OW22990   3.067   2.861   7.919 -0.3579 -0.1420  0.2202
 3843SOL    HW122991   3.019   2.779   7.929 -2.1737  0.7209 -1.3934
 3843SOL    HW222992   3.083   2.884   8.010 -0.4475  3.2007 -0.5872
 3844SOL     OW22993   1.222   1.716   7.760  0.0319 -0.3453  0.1466
 3844SOL    HW122994   1.288   1.764   7.711 -1.2759 -0.6806 -1.9794
 3844SOL    HW222995   1.270   1.697   7.840  0.2929  3.7451  0.9395
 3845SOL     OW22996   3.167   0.498   2.985 -0.0945  0.7066  0.8651
 3845SOL    HW122997   3.106   0.567   3.010  0.1649  1.1728  0.1953
 3845SOL    HW222998   3.230   0.506   3.057 -0.9496 -0.7962  1.7849
 3846SOL     OW22999   0.326   2.137  16.981  0.4922  0.0061 -0.3313
 3846SOL    HW123000   0.325   2.043  16.966  0.4216 -0.0649  0.1389
 3846SOL    HW223001   0.243   2.161  17.022 -1.0851 -3.9537 -1.2427
 3847SOL     OW23002   2.589   3.815   3.453 -0.1014  0.0693  0.1219
 3847SOL    HW123003   2.526   3.834   3.383  1.5714 -0.3393 -1.5082
 3847SOL    HW223004   2.569   3.728   3.488 -0.7412 -0.2641 -1.0494
 3848SOL     OW23005   3.349   0.354   0.983 -0.0100 -0.0519 -0.0421
 3848SOL    HW123006   3.366   0.420   1.049 -2.0625 -0.9419  1.3542
 3848SOL    HW223007   3.378   0.276   1.032 -2.6879 -0.6694  0.5422
 3849SOL     OW23008   0.319   0.237  16.146 -0.2433  0.1317 -0.0701
 3849SOL    HW123009   0.379   0.194  16.085 -2.0475  1.1565 -2.5811
 3849SOL    HW223010   0.360   0.216  16.230 -0.1741 -2.7355 -0.8024
 3850SOL     OW23011   0.059   0.490   2.897 -0.5083  0.0942 -0.6371
 3850SOL    HW123012   0.031   0.577   2.869 -0.2380 -0.4900 -2.7252
 3850SOL    HW223013   0.153   0.492   2.877 -0.4649 -1.2670 -0.6020
 3851SOL     OW23014   3.256   1.821   1.161  0.4409  0.0418  0.2277
 3851SOL    HW123015   3.217   1.872   1.090 -0.6311  0.0483  0.8171
 3851SOL    HW223016   3.191   1.831   1.231 -0.3471 -0.8475 -0.3875
 3852SOL     OW23017   3.091   0.221   4.407  0.6136  0.1479  0.1334
 3852SOL    HW123018   3.040   0.175   4.473  0.0071  0.9138  0.1933
 3852SOL    HW223019   3.132   0.143   4.370  1.7480  0.3591  0.9242
 3853SOL     OW23020   1.597   2.410   1.575 -0.0430 -0.2111 -0.3723
 3853SOL    HW123021   1.510   2.373   1.564 -0.8346  1.2474  0.8957
 3853SOL    HW223022   1.577   2.487   1.629  0.2586 -0.3355 -0.0814
 3854SOL     OW23023   3.856   1.639   3.067 -0.2431 -0.4228 -0.1297
 3854SOL    HW123024   3.825   1.726   3.042 -2.6112 -0.3283  3.0603
 3854SOL    HW223025   3.890   1.614   2.982  4.1320  0.5043  1.3546
 3855SOL     OW23026   0.056   2.550   2.627 -0.5302  0.4928 -0.6570
 3855SOL    HW123027   0.069   2.550   2.722  1.1811 -0.5704 -0.8909
 3855SOL    HW223028   0.145   2.539   2.595 -0.0570  1.9194  0.1902
 3856SOL     OW23029   3.149   0.962   0.379 -0.7887  0.8366 -0.4500
 3856SOL    HW123030   3.171   1.023   0.449  1.0564 -2.0209  1.4619
 3856SOL    HW223031   3.202   0.887   0.405 -0.8094  0.5733 -1.1765
 3857SOL     OW23032   2.661   1.934   0.758  0.0179 -0.6062 -0.3017
 3857SOL    HW123033   2.634   1.923   0.849  1.5604  2.1759  0.4649
 3857SOL    HW223034   2.604   1.878   0.705 -0.5319  1.2862 -1.6871
 3858SOL     OW23035   0.996   2.336   1.969  0.5781 -0.1626 -0.4826
 3858SOL    HW123036   0.927   2.397   1.999 -0.1511 -1.1510 -0.1562
 3858SOL    HW223037   1.001   2.277   2.044 -3.0175  2.2500  1.7025
 3859SOL     OW23038   1.350   4.430  12.208 -0.1624 -0.1591 -0.1053
 3859SOL    HW123039   1.381   4.509  12.164 -3.4006  2.2412  1.9046
 3859SOL    HW223040   1.385   4.432  12.297 -1.4584 -0.5656  0.4095
 3860SOL     OW23041   3.152   2.568   7.441  0.1027  0.4056  0.0942
 3860SOL    HW123042   3.203   2.611   7.510  1.3661 -0.7631 -0.1110
 3860SOL    HW223043   3.096   2.510   7.493  1.8484 -0.9888  0.4094
 3861SOL     OW23044   1.354   0.565   3.719  0.1326 -0.3857  0.3476
 3861SOL    HW123045   1.409   0.640   3.743 -0.8691  0.8936 -1.2836
 3861SOL    HW223046   1.393   0.486   3.754  1.3545  0.2486  0.4179
 3862SOL     OW23047   2.392   0.788  13.339 -0.2323  0.3681  0.6921
 3862SOL    HW123048   2.464   0.825  13.389 -0.5171  1.2059  0.4717
 3862SOL    HW223049   2.446   0.767  13.262 -0.5795  3.7315 -0.4594
 3863SOL     OW23050   1.489   4.489   7.152  0.5234 -0.2512  0.2185
 3863SOL    HW123051   1.426   4.551   7.190  0.0929 -1.4206  1.4165
 3863SOL    HW223052   1.444   4.468   7.070  0.0863  1.6101 -0.0265
 3864SOL     OW23053   3.071   2.322   4.187  0.4157  0.4899 -0.3067
 3864SOL    HW123054   3.069   2.361   4.274 -1.9602 -2.0898  0.7652
 3864SOL    HW223055   3.046   2.397   4.132  0.2810  0.5432 -0.1699
 3865SOL     OW23056   3.103   3.449   0.484 -0.5759 -0.0459 -0.3877
 3865SOL    HW123057   3.125   3.426   0.575 -1.0992  0.2292 -0.1954
 3865SOL    HW223058   3.171   3.403   0.435 -1.2000  0.2227 -1.5021
 3866SOL     OW23059   1.870   2.968   6.113  0.3057 -0.2214 -0.5722
 3866SOL    HW123060   1.800   3.004   6.059  0.7711 -0.9593 -1.6562
 3866SOL    HW223061   1.921   3.046   6.134  0.0158 -0.2655  0.2947
 3867SOL     OW23062   0.226   3.145   5.089 -0.0259  0.2118  0.9623
 3867SOL    HW123063   0.282   3.205   5.137  0.8136  0.4378 -0.2688
 3867SOL    HW223064   0.155   3.149   5.152 -0.7079 -3.1165  0.4140
 3868SOL     OW23065   0.957   2.319   5.208  0.2420  0.3453 -0.0382
 3868SOL    HW123066   0.950   2.237   5.158  2.9932 -0.2820  0.5925
 3868SOL    HW223067   0.925   2.380   5.142  3.2694  1.1869 -0.7447
 3869SOL     OW23068   3.475   1.628   4.973 -0.6414 -0.4364 -0.1206
 3869SOL    HW123069   3.399   1.682   4.950 -0.2407  0.1066 -0.1726
 3869SOL    HW223070   3.549   1.687   4.958 -1.2710  0.4877  0.4020
 3870SOL     OW23071   3.975   1.009   9.059 -0.5291  0.3985  0.0600
 3870SOL    HW123072   3.940   1.091   9.093 -0.7775  0.4032 -0.2019
 3870SOL    HW223073   4.057   1.039   9.019 -0.2092 -0.7613 -0.1499
 3871SOL     OW23074   1.772   3.461   8.450  0.0102 -0.8576 -0.2433
 3871SOL    HW123075   1.847   3.497   8.402 -0.4782  1.7206  0.9226
 3871SOL    HW223076   1.769   3.515   8.529  2.1563  2.2257 -2.2743
 3872SOL     OW23077   0.913   1.016   6.422 -0.0143  0.5937 -0.2516
 3872SOL    HW123078   0.908   1.111   6.408  1.4859  0.7538  0.3343
 3872SOL    HW223079   0.949   0.991   6.337  0.5618  3.0939 -0.7268
 3873SOL     OW23080   0.876   3.272   1.304 -0.3509 -0.2993 -0.3222
 3873SOL    HW123081   0.970   3.263   1.290 -0.2573  1.4176 -0.7962
 3873SOL    HW223082   0.850   3.213   1.233 -2.4392 -0.8876  0.9278
 3874SOL     OW23083   1.937   3.568  16.339  0.1884 -0.0828  0.0982
 3874SOL    HW123084   1.951   3.595  16.430  0.5183  2.0062 -0.5827
 3874SOL    HW223085   1.984   3.639  16.296 -0.9201  2.5887  3.2509
 3875SOL     OW23086   3.639   3.820   3.777 -0.1321 -0.3059 -0.0719
 3875SOL    HW123087   3.667   3.735   3.809  0.8055  0.2725  0.6602
 3875SOL    HW223088   3.720   3.865   3.751 -0.3415 -0.0649 -0.3070
 3876SOL     OW23089   3.433   0.777   9.476  0.0421  0.3826  0.3043
 3876SOL    HW123090   3.506   0.716   9.462 -0.4884 -0.4513  1.1893
 3876SOL    HW223091   3.369   0.743   9.414  0.5205  1.0143 -0.5354
 3877SOL     OW23092   3.229   2.395   4.758 -0.6266 -0.2523  0.3511
 3877SOL    HW123093   3.193   2.370   4.843 -0.5706  0.1502  0.4942
 3877SOL    HW223094   3.154   2.376   4.702  1.6528  2.0829 -3.5033
 3878SOL     OW23095   2.564   4.016   1.999  0.2672  0.3740  0.1010
 3878SOL    HW123096   2.614   4.049   1.925 -0.8743  1.0284 -0.3768
 3878SOL    HW223097   2.619   3.943   2.028 -0.1462  0.0877  0.1781
 3879SOL     OW23098   4.110   2.601   8.207  0.3467 -0.7621  0.4496
 3879SOL    HW123099   4.108   2.643   8.293  0.8053  1.4674 -0.6264
 3879SOL    HW223100   4.173   2.531   8.225 -1.8548 -2.9702 -0.4142
 3880SOL     OW23101   1.361   0.042   6.077  0.2652 -0.1421 -0.2192
 3880SOL    HW123102   1.438   4.710   6.083  1.6665  1.7798 -0.6323
 3880SOL    HW223103   1.394   0.122   6.036  1.4522  0.3161  1.6604
 3881SOL     OW23104   1.150   2.371   1.727 -0.1287 -0.0705  0.5635
 3881SOL    HW123105   1.169   2.277   1.724  2.1433  0.3774  0.8411
 3881SOL    HW223106   1.107   2.386   1.811  0.5367 -0.2484  0.9288
 3882SOL     OW23107   2.453   4.634   4.964  0.2385  0.7124  0.1141
 3882SOL    HW123108   2.502   4.562   4.925  1.6008  1.4907  0.3757
 3882SOL    HW223109   2.384   4.594   5.016 -0.0788  1.2538  0.1142
 3883SOL     OW23110   0.474   3.677   4.599  0.4658  0.4527 -0.5256
 3883SOL    HW123111   0.471   3.772   4.612  1.5102  0.4884 -0.5501
 3883SOL    HW223112   0.378   3.670   4.596  0.5609 -0.6039 -0.9230
 3884SOL     OW23113   0.540   0.142   4.667  0.6196 -0.0059  0.0781
 3884SOL    HW123114   0.514   0.142   4.575 -1.0537 -0.1076  0.5480
 3884SOL    HW223115   0.498   0.064   4.703 -2.6624  0.8897 -1.8683
 3885SOL     OW23116   3.675   0.001   2.603 -0.4569 -0.8934  0.0352
 3885SOL    HW123117   3.670   4.693   2.512 -0.4520 -0.8132  0.0072
 3885SOL    HW223118   3.590   0.044   2.601 -0.0815 -0.0977  1.3871
 3886SOL     OW23119   4.318   2.948   2.760 -0.1477 -0.0819 -0.1993
 3886SOL    HW123120   4.396   3.001   2.776 -1.1457  1.2861  0.1412
 3886SOL    HW223121   4.355   2.861   2.773 -0.4604  0.0610  1.6916
 3887SOL     OW23122   4.720   0.335   2.533  0.7342 -0.0418  0.2051
 3887SOL    HW123123   4.660   0.336   2.608  1.7099 -3.7039  1.0298
 3887SOL    HW223124   0.022   0.243   2.532  0.1280 -0.2097  0.1815
 3888SOL     OW23125   3.395   0.547   2.247  0.5769  0.4608 -0.0238
 3888SOL    HW123126   3.333   0.524   2.178  2.4502 -0.1299 -1.5270
 3888SOL    HW223127   3.478   0.504   2.227 -0.4355 -2.0610  1.1860
 3889SOL     OW23128   2.224   3.168   3.940  0.2013  0.2791 -0.3022
 3889SOL    HW123129   2.141   3.198   3.977  0.7082  0.3431  0.7723
 3889SOL    HW223130   2.279   3.174   4.018 -1.3411 -0.3468  0.8366
 3890SOL     OW23131   4.171   3.847   3.448 -0.3694  0.2389 -0.1682
 3890SOL    HW123132   4.238   3.913   3.429 -0.1301  0.6717  2.1518
 3890SOL    HW223133   4.221   3.818   3.524  2.9960 -1.9348 -3.1920
 3891SOL     OW23134   1.850   0.057   4.720 -0.2047  0.3608  0.1116
 3891SOL    HW123135   1.846   0.019   4.808  1.7953  0.6495  0.3324
 3891SOL    HW223136   1.914   4.723   4.679 -0.1058  0.0909  0.6501
 3892SOL     OW23137   3.356   4.002   3.857  0.0748 -0.2213  0.5538
 3892SOL    HW123138   3.326   4.090   3.880 -1.4522 -0.2046 -1.5648
 3892SOL    HW223139   3.446   3.998   3.890  0.2290 -3.0840 -0.2535
 3893SOL     OW23140   2.403   2.882  12.961 -0.0790  0.2961 -0.1651
 3893SOL    HW123141   2.479   2.929  12.996  0.7901  0.7508 -2.6465
 3893SOL    HW223142   2.465   2.819  12.924 -0.5429  0.8152 -1.8358
 3894SOL     OW23143   3.411   3.966   1.584 -0.5587  0.5546  0.3563
 3894SOL    HW123144   3.480   4.032   1.577  2.1674 -2.3656 -0.6479
 3894SOL    HW223145   3.341   4.014   1.628 -1.2564  2.0402 -2.4115
 3895SOL     OW23146   1.009   2.563   5.096 -0.4356 -0.3099 -0.4009
 3895SOL    HW123147   1.018   2.658   5.083 -0.4130 -0.1866  0.5210
 3895SOL    HW223148   1.072   2.522   5.036 -0.2527  0.8033 -0.9766
 3896SOL     OW23149   3.262   0.061   9.094  0.4277  0.5464  0.0769
 3896SOL    HW123150   3.248   0.026   9.182 -0.2391 -0.5967 -0.4933
 3896SOL    HW223151   3.181   0.111   9.080 -0.2576 -0.5440  0.1516
 3897SOL     OW23152   4.097   3.158  13.237  0.7398  0.5193  0.2049
 3897SOL    HW123153   4.138   3.098  13.300 -1.0165  0.5336  1.3427
 3897SOL    HW223154   4.118   3.105  13.160  0.8130 -2.5007  2.2851
 3898SOL     OW23155   0.206   2.226   3.565 -0.1749 -0.3829 -0.0738
 3898SOL    HW123156   0.185   2.138   3.595 -0.7546 -0.2995 -0.2398
 3898SOL    HW223157   0.119   2.262   3.548 -0.2368 -0.1539  0.7393
 3899SOL     OW23158   0.530   4.536   1.641 -0.5184  0.1037  0.5824
 3899SOL    HW123159   0.519   4.576   1.727 -0.1133 -1.0559  1.1720
 3899SOL    HW223160   0.563   4.450   1.668 -1.2901  0.3708  2.3618
 3900SOL     OW23161   3.820   4.360   6.349  0.1894  0.0200  0.4777
 3900SOL    HW123162   3.900   4.307   6.349  1.0214  1.2753  0.2285
 3900SOL    HW223163   3.800   4.344   6.442  2.2340 -2.7294  0.4632
 3901SOL     OW23164   1.996   4.563  10.666 -0.4340  0.2071 -0.2141
 3901SOL    HW123165   1.923   4.596  10.718 -0.5790 -0.0510 -0.2577
 3901SOL    HW223166   1.959   4.480  10.638 -0.2319  0.2682 -0.6693
 3902SOL     OW23167   4.516   2.005  10.499  0.2164 -0.5762 -0.0100
 3902SOL    HW123168   4.565   1.946  10.442 -0.4403  1.1571 -2.3988
 3902SOL    HW223169   4.428   2.004  10.460  0.9902  1.8769 -1.8308
 3903SOL     OW23170   3.302   2.126   5.706 -0.3746 -0.5036 -0.3035
 3903SOL    HW123171   3.304   2.183   5.784 -0.4361 -0.4250 -0.3594
 3903SOL    HW223172   3.353   2.055   5.744 -2.4524 -1.8834 -0.1275
 3904SOL     OW23173   0.844   2.189   7.411 -0.0238 -0.1442  1.1068
 3904SOL    HW123174   0.840   2.139   7.492  0.4267  0.0942  1.2711
 3904SOL    HW223175   0.752   2.212   7.397  0.7820  1.3697 -1.7909
 3905SOL     OW23176   1.006   3.076   9.430  0.4677  0.1106 -0.2839
 3905SOL    HW123177   1.073   3.017   9.465 -1.3665 -2.6393 -1.4040
 3905SOL    HW223178   0.939   3.066   9.498  0.7444 -0.2772 -0.0714
 3906SOL     OW23179   1.992   4.109   6.682  0.5572 -0.0561 -0.1985
 3906SOL    HW123180   1.923   4.062   6.635  1.7514 -0.8372 -1.2026
 3906SOL    HW223181   1.985   4.071   6.769 -2.0373  1.9838  0.4634
 3907SOL     OW23182   3.896   1.911   7.189  0.3839 -0.4468 -0.4120
 3907SOL    HW123183   3.849   1.838   7.229 -1.0631  0.8535  0.2612
 3907SOL    HW223184   3.825   1.962   7.149  1.0040  0.7581  0.0150
 3908SOL     OW23185   1.616   2.101   6.889  0.2758 -0.2353  0.0245
 3908SOL    HW123186   1.697   2.142   6.860 -0.6499 -0.1672 -2.5382
 3908SOL    HW223187   1.578   2.065   6.808  0.6838 -0.0483 -0.2521
 3909SOL     OW23188   2.723   1.982   2.705 -0.5723  0.3408 -0.6728
 3909SOL    HW123189   2.696   2.039   2.633 -0.1029  0.4962 -0.7271
 3909SOL    HW223190   2.716   2.040   2.781  2.6187  1.6426 -1.3599
 3910SOL     OW23191   3.077   4.446   9.974  0.0709 -0.3870 -0.3435
 3910SOL    HW123192   2.983   4.462   9.989  0.3454  1.1243 -0.2375
 3910SOL    HW223193   3.066   4.357  10.006  2.0614 -0.8225 -0.8771
 3911SOL     OW23194   0.801   0.118  12.799  0.0082 -0.1445 -0.3879
 3911SOL    HW123195   0.730   0.161  12.847  1.2863  1.8969 -0.3468
 3911SOL    HW223196   0.757   0.058  12.739 -1.2188  0.0522  0.3100
 3912SOL     OW23197   3.589   0.765   7.479  0.0828 -0.5160 -0.6128
 3912SOL    HW123198   3.603   0.670   7.485  2.4479 -0.1802 -0.5443
 3912SOL    HW223199   3.564   0.776   7.388  0.1958  0.0434 -0.5769
 3913SOL     OW23200   3.255   0.761   2.736  0.3362  0.1659 -0.0715
 3913SOL    HW123201   3.187   0.709   2.692  1.0378  0.4041 -1.4528
 3913SOL    HW223202   3.327   0.697   2.737  0.4765  0.3573  2.1768
 3914SOL     OW23203   0.917   3.171   4.594  0.1711 -0.4441 -0.4835
 3914SOL    HW123204   0.969   3.178   4.513  2.4435  1.2457  1.0973
 3914SOL    HW223205   0.969   3.215   4.662 -1.7882  1.2037 -0.0512
 3915SOL     OW23206   1.426   1.323   2.693 -0.0392 -0.0460  0.4046
 3915SOL    HW123207   1.416   1.306   2.600  2.9786 -0.6682  0.1727
 3915SOL    HW223208   1.473   1.407   2.689  1.6028 -0.8979  1.7301
 3916SOL     OW23209   0.169   4.005   3.292 -0.0144 -0.3238 -0.1878
 3916SOL    HW123210   0.122   3.923   3.272  1.0048 -0.4834 -1.8832
 3916SOL    HW223211   0.251   3.966   3.322  1.0646  1.9467 -0.2545
 3917SOL     OW23212   2.890   3.608   2.025 -0.6023  0.4769 -0.1833
 3917SOL    HW123213   2.885   3.512   2.020  0.8799  0.4776 -1.8605
 3917SOL    HW223214   2.974   3.622   2.068 -0.1003 -0.2422 -0.9148
 3918SOL     OW23215   2.208   1.059   6.596  0.3399 -0.2125 -0.0457
 3918SOL    HW123216   2.255   1.141   6.610 -1.4968  0.6281  1.3162
 3918SOL    HW223217   2.244   1.015   6.673  0.4579 -1.3361 -0.7492
 3919SOL     OW23218   3.002   1.181   4.917 -0.0043  0.0857  0.0638
 3919SOL    HW123219   3.032   1.256   4.969  0.3440 -0.7844  1.1268
 3919SOL    HW223220   3.067   1.144   4.857  0.3817 -0.3450  0.7399
 3920SOL     OW23221   2.031   2.987  13.835 -0.3958 -0.7378 -0.2683
 3920SOL    HW123222   1.974   3.054  13.872  0.7653  0.5941 -0.8951
 3920SOL    HW223223   2.003   2.920  13.898 -1.6812 -0.2799 -0.3673
 3921SOL     OW23224   3.413   2.446  11.754  0.7583 -0.1408 -0.2034
 3921SOL    HW123225   3.438   2.525  11.802  2.4449  0.1933 -1.6317
 3921SOL    HW223226   3.460   2.379  11.803 -0.0985  0.4593  1.4599
 3922SOL     OW23227   2.622   3.121   2.679  0.0295 -0.4932  0.5250
 3922SOL    HW123228   2.615   3.216   2.674  0.2392 -0.3822  2.3136
 3922SOL    HW223229   2.695   3.106   2.619  0.2922  0.8484  0.5159
 3923SOL     OW23230   2.588   3.479  10.386 -0.3064  0.2375  0.2499
 3923SOL    HW123231   2.669   3.477  10.437 -0.2436  2.8444  0.2285
 3923SOL    HW223232   2.534   3.519  10.454 -1.7379 -0.1769 -0.6479
 3924SOL     OW23233   2.223   4.206  16.444 -0.1463 -0.4042 -0.2013
 3924SOL    HW123234   2.129   4.223  16.436  0.1913  1.2792 -0.5926
 3924SOL    HW223235   2.227   4.126  16.496  0.5124  0.9348  1.8218
 3925SOL     OW23236   4.215   2.644  12.228 -0.3451  0.1936  0.1398
 3925SOL    HW123237   4.293   2.604  12.190 -0.7032  2.3891 -2.9099
 3925SOL    HW223238   4.161   2.566  12.246 -0.3534  0.6059  1.8656
 3926SOL     OW23239   2.757   3.312   5.788 -0.4190 -0.9956 -0.3965
 3926SOL    HW123240   2.754   3.283   5.696  0.6073 -0.5498 -0.5697
 3926SOL    HW223241   2.723   3.399   5.768 -1.9443 -1.2545  1.0933
 3927SOL     OW23242   0.190   0.107   5.685 -0.4123  0.5831  0.4848
 3927SOL    HW123243   0.181   0.017   5.718 -4.1955  0.6661 -0.2954
 3927SOL    HW223244   0.120   0.157   5.727  1.1122  3.5811 -0.5529
 3928SOL     OW23245   0.306   3.417   5.449 -0.3775  0.1173  0.4621
 3928SOL    HW123246   0.289   3.412   5.355 -0.4975  2.1849  0.3764
 3928SOL    HW223247   0.399   3.396   5.444 -0.3988  0.8748 -2.7169
 3929SOL     OW23248   0.014   4.545   7.962  0.1076  0.1464 -0.0154
 3929SOL    HW123249   0.108   4.548   7.948  0.2275  1.3207  0.9821
 3929SOL    HW223250   0.007   4.605   8.037 -0.4646  0.9317 -0.6880
 3930SOL     OW23251   0.970   3.909   3.642  0.0674 -0.0773 -0.5628
 3930SOL    HW123252   1.012   3.876   3.722 -1.3123  0.6114  0.4457
 3930SOL    HW223253   0.950   3.996   3.676  2.2634  0.2771 -0.1840
 3931SOL     OW23254   1.954   2.781   3.255  0.5583  0.1146  0.1979
 3931SOL    HW123255   1.934   2.727   3.331 -1.0636  1.6655  0.9039
 3931SOL    HW223256   1.950   2.716   3.185  3.1766 -2.1522  2.1991
 3932SOL     OW23257   0.462   3.005   7.767  0.1820  0.2345 -0.6540
 3932SOL    HW123258   0.392   3.003   7.832  2.4852  0.5800  1.8530
 3932SOL    HW223259   0.469   2.911   7.748 -2.1131 -0.1713  0.5708
 3933SOL     OW23260   4.692   2.783   5.482  0.4877  0.0183 -0.0390
 3933SOL    HW123261   4.660   2.768   5.571  4.5889  1.2366  1.5938
 3933SOL    HW223262   4.604   2.776   5.444  0.2797  0.1982  0.4158
 3934SOL     OW23263   3.085   1.216   8.739  0.5604  0.1402 -0.2673
 3934SOL    HW123264   3.039   1.136   8.763 -0.4784  0.7820 -0.1025
 3934SOL    HW223265   3.095   1.251   8.828  1.0763 -0.9815  0.1188
 3935SOL     OW23266   4.096   4.227   5.180 -0.6120 -0.0862  0.3704
 3935SOL    HW123267   4.183   4.264   5.167 -1.4585  2.0910  0.9494
 3935SOL    HW223268   4.053   4.298   5.227 -0.0043 -0.4696  1.5105
 3936SOL     OW23269   3.695   1.595   5.579  0.0968  0.8918  0.1211
 3936SOL    HW123270   3.636   1.605   5.654  0.9773  1.8500  0.6904
 3936SOL    HW223271   3.748   1.674   5.589  0.2235  0.8108  0.0751
 3937SOL     OW23272   3.632   3.344   1.620  0.4562 -0.1695  0.1062
 3937SOL    HW123273   3.539   3.321   1.627  0.9563 -0.7255  4.9120
 3937SOL    HW223274   3.687   3.275   1.657  0.5440 -0.6983 -1.0333
 3938SOL     OW23275   3.480   1.926   5.773  0.2487 -1.0643 -0.4230
 3938SOL    HW123276   3.568   1.960   5.760  0.2864 -1.2648 -0.7151
 3938SOL    HW223277   3.505   1.861   5.839  1.0675  2.3985  2.6505
 3939SOL     OW23278   4.438   4.296   8.451 -0.1353  0.2042 -0.3316
 3939SOL    HW123279   4.480   4.214   8.475  1.7698  1.5837  1.0612
 3939SOL    HW223280   4.418   4.330   8.538 -1.6174  2.9028 -1.7283
 3940SOL     OW23281   4.152   0.746  15.507 -0.1090  0.2927  0.2276
 3940SOL    HW123282   4.202   0.772  15.430  0.2730  1.8259  0.9917
 3940SOL    HW223283   4.232   0.733  15.557  0.9623  2.4014 -0.9606
 3941SOL     OW23284   0.283   1.905   7.050 -0.0052 -0.8159 -0.5034
 3941SOL    HW123285   0.238   1.841   6.994 -1.3479 -0.5796  0.3070
 3941SOL    HW223286   0.370   1.890   7.013  1.1793  0.3036  1.8645
 3942SOL     OW23287   3.920   0.954   1.172  0.2132 -0.7803  0.0558
 3942SOL    HW123288   3.826   0.945   1.163  0.4442 -1.8251 -1.2743
 3942SOL    HW223289   3.949   0.870   1.136 -0.8779 -1.3562  0.5224
 3943SOL     OW23290   0.166   4.695   8.857 -0.1214 -0.4209 -0.4536
 3943SOL    HW123291   0.227   4.625   8.882  0.7397  0.0966 -1.1217
 3943SOL    HW223292   0.171   4.690   8.762  1.9977  1.5486 -0.4483
 3944SOL     OW23293   4.149   3.035   5.934 -0.2558 -0.0489 -0.6110
 3944SOL    HW123294   4.059   3.052   5.906  0.0742 -0.0302 -1.6656
 3944SOL    HW223295   4.157   2.940   5.926  0.4205  0.2307 -2.9967
 3945SOL     OW23296   1.724   2.553   6.955  0.1866  0.3409  0.1319
 3945SOL    HW123297   1.764   2.621   7.009  0.2904  0.1073  0.3528
 3945SOL    HW223298   1.639   2.535   6.994 -0.2108  1.9695  0.0023
 3946SOL     OW23299   2.578   1.397   3.484  0.1617 -0.5232 -0.1135
 3946SOL    HW123300   2.543   1.339   3.552 -0.3545 -1.3562 -1.0911
 3946SOL    HW223301   2.606   1.335   3.417  1.2864 -1.7844  1.5172
 3947SOL     OW23302   3.357   0.286   3.508  0.2604 -0.0974 -0.0529
 3947SOL    HW123303   3.448   0.297   3.481  0.0278  2.5071  0.2922
 3947SOL    HW223304   3.360   0.224   3.581 -0.8983 -1.4178 -1.1236
 3948SOL     OW23305   3.178   1.028   4.770 -0.2654 -0.1160 -0.3143
 3948SOL    HW123306   3.272   1.029   4.750 -0.1627  1.5133  0.2668
 3948SOL    HW223307   3.170   0.936   4.792  0.8797 -0.5234 -1.5924
 3949SOL     OW23308   4.377   1.466  16.447 -0.4496 -0.2927  0.3121
 3949SOL    HW123309   4.454   1.502  16.402 -0.7866 -0.7188 -0.5934
 3949SOL    HW223310   4.349   1.537  16.505 -1.7093  0.3685 -1.1081
 3950SOL     OW23311   2.189   1.350   8.336 -0.0154 -0.0838  0.0952
 3950SOL    HW123312   2.154   1.262   8.351 -1.5614  0.3837 -0.6909
 3950SOL    HW223313   2.149   1.405   8.404  0.2668  0.9403 -0.5577
 3951SOL     OW23314   1.536   1.108   3.298 -0.0708 -0.0392 -0.1163
 3951SOL    HW123315   1.475   1.157   3.243 -1.3697 -0.4195  0.9891
 3951SOL    HW223316   1.556   1.161   3.375  0.7735 -0.9235  0.2633
 3952SOL     OW23317   1.977   1.780   6.315  0.1772 -0.1225  0.2459
 3952SOL    HW123318   1.976   1.772   6.411 -0.1813 -0.2935  0.2294
 3952SOL    HW223319   2.003   1.692   6.288 -1.1955 -0.5162  0.2070
 3953SOL     OW23320   1.958   1.881   2.686  0.2162 -0.4200 -0.2520
 3953SOL    HW123321   1.957   1.848   2.596  2.3890 -0.2896 -0.3124
 3953SOL    HW223322   1.868   1.910   2.702  0.7847  0.6638  1.0185
 3954SOL     OW23323   0.323   3.099   2.812  0.2626 -0.2641  0.4196
 3954SOL    HW123324   0.349   3.117   2.722  1.5222  0.5980  0.9422
 3954SOL    HW223325   0.279   3.183   2.826 -0.8116 -0.8412  0.4800
 3955SOL     OW23326   3.852   4.720   3.440 -0.8125  0.6918  0.2333
 3955SOL    HW123327   3.779   4.692   3.495 -0.9506  0.4529 -0.0692
 3955SOL    HW223328   3.894   4.634   3.428 -0.5584  1.1576 -2.2086
 3956SOL     OW23329   1.966   3.794  15.277 -0.0754  0.3310  0.1166
 3956SOL    HW123330   1.944   3.887  15.287  1.8722  0.6228  1.5462
 3956SOL    HW223331   1.994   3.790  15.185 -1.4091 -1.1988 -0.2065
 3957SOL     OW23332   2.465   0.583   5.087 -0.4563  0.1890  0.0162
 3957SOL    HW123333   2.489   0.549   5.173  0.1669 -1.8385 -0.9348
 3957SOL    HW223334   2.467   0.676   5.108 -0.2857  0.3654 -0.7616
 3958SOL     OW23335   1.889   0.127   6.261  0.0415 -0.4145 -0.6750
 3958SOL    HW123336   1.957   0.160   6.203  0.1650 -2.5525 -1.7166
 3958SOL    HW223337   1.856   0.204   6.309 -0.3025 -1.9772  1.5969
 3959SOL     OW23338   2.255   2.818   2.891  0.0111 -0.0413  0.3992
 3959SOL    HW123339   2.288   2.860   2.971  1.5288  2.3260 -1.4538
 3959SOL    HW223340   2.334   2.831   2.839 -0.0590 -1.3186 -0.0254
 3960SOL     OW23341   0.865   1.374  11.584 -0.2850  0.1251 -0.2989
 3960SOL    HW123342   0.889   1.466  11.570  0.4968 -0.1774 -0.9036
 3960SOL    HW223343   0.801   1.381  11.655  0.6664  3.9367  0.2092
 3961SOL     OW23344   0.987   0.764   5.510 -0.4390 -0.3769  0.3031
 3961SOL    HW123345   1.069   0.767   5.460 -0.7462 -0.0043 -0.1768
 3961SOL    HW223346   0.914   0.791   5.454  0.4538  0.2614 -0.5704
 3962SOL     OW23347   4.001   0.760   3.661 -0.0142 -0.3166  0.3834
 3962SOL    HW123348   4.054   0.814   3.603 -1.3680  2.1487  1.4419
 3962SOL    HW223349   3.936   0.719   3.605  1.0581 -2.6131  0.7930
 3963SOL     OW23350   1.125   3.238   1.171 -0.3634  0.1978 -0.0280
 3963SOL    HW123351   1.184   3.192   1.111 -0.6641  1.2858 -1.1501
 3963SOL    HW223352   1.182   3.242   1.248 -0.3325 -1.1847  0.0250
 3964SOL     OW23353   0.036   2.488   6.829  0.4074 -0.1822 -0.2401
 3964SOL    HW123354   0.066   2.412   6.878 -0.2685  0.0049  0.4656
 3964SOL    HW223355   4.665   2.479   6.834  0.3798  0.3046  0.0867
 3965SOL     OW23356   3.515   4.624   1.213 -0.3297 -0.0299 -0.3473
 3965SOL    HW123357   3.458   4.559   1.255 -1.1758  0.3571 -0.8852
 3965SOL    HW223358   3.576   4.568   1.165  0.7554  0.8494  0.0225
 3966SOL     OW23359   3.761   1.408  15.804 -0.2284 -0.3554  0.0152
 3966SOL    HW123360   3.741   1.355  15.726  0.0181  0.0041 -0.2894
 3966SOL    HW223361   3.703   1.477  15.774  1.2160  1.2865  1.0293
 3967SOL     OW23362   3.254   2.615   2.331  0.0878  0.2841 -0.1113
 3967SOL    HW123363   3.227   2.537   2.282 -0.7374  0.8579 -0.5749
 3967SOL    HW223364   3.306   2.661   2.265  3.5521 -2.5139  0.6148
 3968SOL     OW23365   4.359   2.553   6.566  0.1819  0.4840  0.0954
 3968SOL    HW123366   4.332   2.485   6.504  0.7614 -0.2450  0.6355
 3968SOL    HW223367   4.364   2.630   6.509  0.2415  1.0600  0.8801
 3969SOL     OW23368   0.275   0.738   9.836 -0.1169  0.0120  0.5697
 3969SOL    HW123369   0.349   0.783   9.876  1.4779 -0.3162 -2.0139
 3969SOL    HW223370   0.313   0.712   9.752  0.7362 -1.0015  1.2656
 3970SOL     OW23371   4.505   3.611   2.647  0.1295 -0.3492 -0.0888
 3970SOL    HW123372   4.481   3.668   2.574 -2.0525  1.4747  2.0880
 3970SOL    HW223373   4.596   3.592   2.621  0.4289 -0.4276  1.0435
 3971SOL     OW23374   1.858   0.990  16.146  0.3431  0.3940 -0.2437
 3971SOL    HW123375   1.858   1.086  16.154 -2.8007  0.2604  1.4527
 3971SOL    HW223376   1.764   0.975  16.134 -0.0862  1.4023  1.8129
 3972SOL     OW23377   2.517   4.174   3.264  0.1159  0.0854  0.0771
 3972SOL    HW123378   2.547   4.153   3.352  1.9640 -1.0308 -0.8241
 3972SOL    HW223379   2.422   4.178   3.272  0.3630  0.5252  2.6563
 3973SOL     OW23380   1.630   4.160  17.664 -0.2545  0.5823  0.0797
 3973SOL    HW123381   1.555   4.141   0.023 -0.2449 -1.1828 -0.5261
 3973SOL    HW223382   1.586   4.123  17.587  1.6381  0.3773 -0.9017
 3974SOL     OW23383   0.969   2.113   7.915 -0.1464 -0.6415  0.2524
 3974SOL    HW123384   1.011   2.031   7.892  1.0051  0.4813 -1.5783
 3974SOL    HW223385   1.015   2.130   7.997 -0.9504 -2.1752  1.0353
 3975SOL     OW23386   4.298   1.206   3.032  0.3166  0.2668  0.1717
 3975SOL    HW123387   4.387   1.201   3.067  0.0160  3.1973  1.3571
 3975SOL    HW223388   4.258   1.148   3.097  1.4744 -1.1184 -0.3327
 3976SOL     OW23389   4.452   3.524   5.279  0.0050  0.0238 -0.8994
 3976SOL    HW123390   4.457   3.619   5.282  2.7444 -0.2095  2.7720
 3976SOL    HW223391   4.367   3.512   5.238  0.7812 -2.1341 -1.9183
 3977SOL     OW23392   4.719   3.461   2.517 -0.0697  0.0545 -0.3197
 3977SOL    HW123393   4.676   3.402   2.455  0.7785 -0.4815 -0.4034
 3977SOL    HW223394   0.076   3.411   2.524  0.0653 -0.0995 -3.0999
 3978SOL     OW23395   1.734   4.156   1.711 -0.0933  0.2761  0.3367
 3978SOL    HW123396   1.741   4.252   1.708 -4.9127  0.6288  0.7916
 3978SOL    HW223397   1.693   4.147   1.625  0.0525  0.4264  0.2511
 3979SOL     OW23398   3.412   1.839   5.334  0.2649 -0.2851  0.2868
 3979SOL    HW123399   3.387   1.804   5.420  1.9929 -0.0100  0.9002
 3979SOL    HW223400   3.396   1.763   5.279  0.6501 -0.5856  0.5962
 3980SOL     OW23401   0.111   3.614   5.556 -0.1182 -0.0447  0.2386
 3980SOL    HW123402   0.205   3.597   5.567  0.0807 -0.4629 -2.0659
 3980SOL    HW223403   0.109   3.544   5.491 -0.7406  0.6634 -0.4961
 3981SOL     OW23404   3.084   2.667   2.519 -0.4776  0.0829 -0.1232
 3981SOL    HW123405   3.152   2.640   2.458 -0.1704  2.3796 -0.7960
 3981SOL    HW223406   3.022   2.594   2.512 -0.4091  0.0229 -0.1025
 3982SOL     OW23407   3.962   3.778  12.027  0.1216 -0.2163 -0.3753
 3982SOL    HW123408   3.951   3.868  11.994  1.5858 -0.7276 -2.2976
 3982SOL    HW223409   3.970   3.776  12.122  0.9347  2.1476 -0.3796
 3983SOL     OW23410   1.061   0.637  17.325  0.0549  0.0864 -0.1615
 3983SOL    HW123411   0.968   0.629  17.347 -0.2637  1.2042 -1.0736
 3983SOL    HW223412   1.075   0.732  17.334  0.0002 -0.0335  1.2098
 3984SOL     OW23413   3.277   0.983   7.307  0.3621  0.0275 -0.5068
 3984SOL    HW123414   3.358   1.021   7.274 -0.1897  1.8161  0.1743
 3984SOL    HW223415   3.246   1.058   7.357  0.8493 -0.0918 -0.0377
 3985SOL     OW23416   1.709   0.386   4.457  0.0614  0.4214  0.0392
 3985SOL    HW123417   1.778   0.356   4.517  0.9171  0.6210 -0.8354
 3985SOL    HW223418   1.750   0.463   4.417 -0.8250  1.7843  1.7865
 3986SOL     OW23419   3.407   3.494   4.754 -0.0725 -0.4925  0.3546
 3986SOL    HW123420   3.448   3.514   4.669  0.9922  2.4912  1.5470
 3986SOL    HW223421   3.322   3.457   4.733 -2.0035  2.3336  3.1553
 3987SOL     OW23422   1.360   2.299   5.587 -0.0780  0.0990  0.3617
 3987SOL    HW123423   1.380   2.386   5.622 -0.9321  0.5855 -0.3590
 3987SOL    HW223424   1.297   2.277   5.655  0.8795 -0.2772  1.1179
 3988SOL     OW23425   4.168   1.163   3.821  0.2094 -0.0667 -0.3326
 3988SOL    HW123426   4.100   1.141   3.885  0.3210  2.4215  0.6248
 3988SOL    HW223427   4.243   1.194   3.872 -0.5283  0.5609  0.3728
 3989SOL     OW23428   4.056   1.344   6.921 -0.1254 -0.5521 -0.1050
 3989SOL    HW123429   4.118   1.417   6.925 -2.6232  1.5143  0.8332
 3989SOL    HW223430   4.112   1.269   6.940 -0.3966 -0.4404  1.1515
 3990SOL     OW23431   0.898   1.910  10.413 -0.0753  0.4479 -0.3011
 3990SOL    HW123432   0.935   1.915  10.325  0.9980  0.5041  0.1465
 3990SOL    HW223433   0.836   1.982  10.424  0.6878  0.7425  2.1516
 3991SOL     OW23434   0.536   3.745  13.908  0.1394 -0.0530  0.0245
 3991SOL    HW123435   0.531   3.830  13.951 -3.9307 -0.0142 -0.5344
 3991SOL    HW223436   0.526   3.767  13.815  0.2865  4.7772  1.1672
 3992SOL     OW23437   4.193   3.312   8.474 -0.0783 -0.2209 -0.2829
 3992SOL    HW123438   4.202   3.223   8.507 -2.3969  0.1773  1.3988
 3992SOL    HW223439   4.243   3.307   8.392  0.6792  0.0170  0.1633
 3993SOL     OW23440   2.966   3.549   1.055  0.1373 -0.2747 -0.1034
 3993SOL    HW123441   2.947   3.558   1.148  0.0832 -0.6822 -0.0753
 3993SOL    HW223442   2.937   3.458   1.042 -0.0590 -0.2860  0.4288
 3994SOL     OW23443   2.550   4.718   5.850 -0.7458 -0.2818  0.0793
 3994SOL    HW123444   2.514   0.045   5.922 -0.7621 -0.7344  0.3908
 3994SOL    HW223445   2.645   0.002   5.865 -0.5828 -1.5745 -0.2973
 3995SOL     OW23446   3.178   1.082   1.922  0.1562  0.4058  0.2432
 3995SOL    HW123447   3.251   1.130   1.961 -0.7436 -0.2271  2.7270
 3995SOL    HW223448   3.202   0.991   1.935 -1.8082 -0.0425  0.6686
 3996SOL     OW23449   3.783   0.090   5.342  0.0955  0.4286  0.5032
 3996SOL    HW123450   3.722   0.151   5.301 -0.2472  0.6885  1.3829
 3996SOL    HW223451   3.801   0.110   5.434  0.6145  2.0336  0.0476
 3997SOL     OW23452   0.827   2.029   8.775  0.2779  0.1713 -0.3824
 3997SOL    HW123453   0.883   2.003   8.848  0.0727 -0.3202 -0.4002
 3997SOL    HW223454   0.743   1.992   8.802  0.6933 -0.7088 -0.2760
 3998SOL     OW23455   3.236   1.937   4.645 -0.0274  0.5510 -0.0411
 3998SOL    HW123456   3.202   1.992   4.575  0.7027  0.8127 -0.1967
 3998SOL    HW223457   3.329   1.959   4.656  0.2351 -0.8808  0.6310
 3999SOL     OW23458   3.708   4.299   6.576 -0.3680 -0.2858 -0.2425
 3999SOL    HW123459   3.686   4.212   6.544 -0.8825 -1.2011  2.6341
 3999SOL    HW223460   3.776   4.274   6.639 -1.6761 -0.5647  1.0467
 4000SOL     OW23461   3.103   4.222   7.074  0.2451  0.6863 -0.5377
 4000SOL    HW123462   3.118   4.177   7.158 -2.8115 -2.7616 -1.8009
 4000SOL    HW223463   3.117   4.314   7.096  1.5973  0.4385 -0.3774
 4001SOL     OW23464   1.303   4.681   6.619 -0.0648  0.1055 -0.2620
 4001SOL    HW123465   1.302   4.723   6.705 -0.5596 -3.2582  1.3705
 4001SOL    HW223466   1.393   4.704   6.598 -0.5911  1.3283 -1.1690
 4002SOL     OW23467   1.085   4.178   7.560 -0.1212 -0.2026 -0.2802
 4002SOL    HW123468   1.115   4.142   7.477  0.5187  0.3738 -0.3052
 4002SOL    HW223469   1.155   4.148   7.618 -0.6192 -0.0308  0.4082
 4003SOL     OW23470   0.094   0.931   4.380  0.2779 -0.2039  0.5988
 4003SOL    HW123471   0.148   0.980   4.443  0.4250  0.4972 -0.0709
 4003SOL    HW223472   0.039   0.881   4.440  1.4947 -1.1358  0.9280
 4004SOL     OW23473   3.128   3.491  11.403 -0.1063  0.2534 -0.0141
 4004SOL    HW123474   3.043   3.532  11.391 -1.1654 -1.7955  0.4416
 4004SOL    HW223475   3.168   3.560  11.456  1.4682  0.6361 -1.7218
 4005SOL     OW23476   1.833   2.691   6.501  0.2501 -0.1088  0.6382
 4005SOL    HW123477   1.765   2.672   6.566 -1.9991  2.4136 -1.0012
 4005SOL    HW223478   1.806   2.629   6.434 -2.4484  0.5656  1.1245
 4006SOL     OW23479   1.276   2.843   5.344 -0.6072 -0.3452 -0.3871
 4006SOL    HW123480   1.314   2.904   5.281  3.3953 -2.4257  0.0344
 4006SOL    HW223481   1.355   2.802   5.378 -1.5554 -2.0914 -0.2756
 4007SOL     OW23482   1.127   3.435   0.835  0.1425  0.1606 -0.4617
 4007SOL    HW123483   1.077   3.487   0.772 -0.4690 -0.1831 -0.2711
 4007SOL    HW223484   1.155   3.366   0.775  0.7434  0.5767 -0.6586
 4008SOL     OW23485   0.892   3.978   2.196 -0.2138  0.1400 -0.1817
 4008SOL    HW123486   0.931   3.897   2.162 -1.0780  0.0789 -1.0152
 4008SOL    HW223487   0.921   4.035   2.126 -0.6606  1.0667  0.3847
 4009SOL     OW23488   2.497   0.184  12.711  0.4036 -0.0389  0.1298
 4009SOL    HW123489   2.535   0.238  12.642  0.4881 -1.1194 -0.6741
 4009SOL    HW223490   2.579   0.161  12.755 -0.1482 -1.8959  0.1921
 4010SOL     OW23491   2.350   4.488  16.630 -0.1210 -0.1734 -1.3095
 4010SOL    HW123492   2.281   4.540  16.588 -0.6835 -0.7012 -1.0266
 4010SOL    HW223493   2.306   4.403  16.631 -2.3376  0.9859 -1.5819
 4011SOL     OW23494   1.298   2.423   6.950  0.3423  0.7213 -0.2031
 4011SOL    HW123495   1.228   2.489   6.951  1.1337  1.5522 -0.2602
 4011SOL    HW223496   1.322   2.424   7.042 -0.6387 -2.0411  0.0911
 4012SOL     OW23497   3.271   3.660  16.884 -0.0543  0.0478  0.4730
 4012SOL    HW123498   3.292   3.750  16.858 -2.3137  1.2556  2.8368
 4012SOL    HW223499   3.190   3.655  16.834  1.0053  0.5401 -1.3042
 4013SOL     OW23500   1.454   0.514   7.960  0.2469 -0.7557  0.3116
 4013SOL    HW123501   1.375   0.566   7.942 -0.7165 -2.5623 -0.7529
 4013SOL    HW223502   1.504   0.568   8.021 -0.2116 -1.2800  1.1522
 4014SOL     OW23503   3.526   1.827  16.742 -0.4206  0.0277  0.5160
 4014SOL    HW123504   3.487   1.758  16.797 -0.0734  0.5890  1.4615
 4014SOL    HW223505   3.456   1.844  16.678 -0.7095 -0.4496  0.7058
 4015SOL     OW23506   1.170   1.876   8.435 -0.0712 -0.4489  0.0515
 4015SOL    HW123507   1.252   1.909   8.471 -0.6156  0.7937  0.1534
 4015SOL    HW223508   1.116   1.955   8.427  2.4193  1.5407  2.6638
 4016SOL     OW23509   3.530   0.501  12.496 -0.0639 -0.5390  0.5628
 4016SOL    HW123510   3.545   0.470  12.586 -1.7917 -0.6818  0.7957
 4016SOL    HW223511   3.615   0.541  12.477  0.6460 -1.7447  1.1532
 4017SOL     OW23512   4.387   3.370   2.242  0.0458  0.0478  0.0106
 4017SOL    HW123513   4.360   3.395   2.154 -0.1822 -1.6732 -0.3991
 4017SOL    HW223514   4.300   3.375   2.282 -0.1083  0.5369 -0.3856
 4018SOL     OW23515   0.970   1.896   9.571 -0.0923  0.3656 -0.0568
 4018SOL    HW123516   0.984   1.827   9.507 -0.3787  0.2502  0.0059
 4018SOL    HW223517   0.976   1.977   9.519  2.0381 -0.4303 -1.0227
 4019SOL     OW23518   0.443   4.579   2.075  0.2230 -0.1003 -0.2142
 4019SOL    HW123519   0.468   4.494   2.038  0.7881 -0.3522  0.7283
 4019SOL    HW223520   0.471   4.636   2.004  1.3733  1.3079  1.3402
 4020SOL     OW23521   1.117   0.126   3.185 -0.2160  0.4295 -0.5398
 4020SOL    HW123522   1.149   0.104   3.097  1.5851  1.2246 -0.0940
 4020SOL    HW223523   1.199   0.138   3.234  0.6672 -1.0190 -1.6757
 4021SOL     OW23524   3.631   3.586   7.143 -0.1743 -0.4008 -0.4214
 4021SOL    HW123525   3.724   3.602   7.160 -0.5754 -0.3306  1.6840
 4021SOL    HW223526   3.621   3.530   7.066 -1.6109 -0.8934  0.1263
 4022SOL     OW23527   4.696   3.753   7.908 -0.2629 -0.1641  0.4263
 4022SOL    HW123528   4.643   3.733   7.831  0.8172  0.8649 -0.5914
 4022SOL    HW223529   4.684   3.846   7.926 -2.0862 -0.6660  1.7744
 4023SOL     OW23530   0.507   2.201   2.489 -0.1165 -0.5615  0.1554
 4023SOL    HW123531   0.557   2.276   2.457  1.4613 -1.3005  0.8653
 4023SOL    HW223532   0.423   2.227   2.451 -1.2780 -1.6924  1.9518
 4024SOL     OW23533   4.367   2.362   3.646  0.4406  0.0831 -0.4570
 4024SOL    HW123534   4.393   2.434   3.589 -1.0015  0.5527 -0.5407
 4024SOL    HW223535   4.372   2.283   3.593  2.0572 -1.8160  2.5236
 4025SOL     OW23536   4.496   4.298   4.170  0.2095 -0.2802 -0.1152
 4025SOL    HW123537   4.545   4.319   4.091 -0.7862  1.2145 -0.3492
 4025SOL    HW223538   4.547   4.327   4.246 -0.6930  0.2442  0.2989
 4026SOL     OW23539   3.354   4.205   8.470 -0.0350 -0.8686 -0.3834
 4026SOL    HW123540   3.279   4.199   8.529  1.1641  0.2794  1.2581
 4026SOL    HW223541   3.394   4.291   8.484  0.0696 -0.9321 -0.2968
 4027SOL     OW23542   0.518   2.140   3.825 -0.3858 -0.0103  0.5869
 4027SOL    HW123543   0.429   2.130   3.791 -0.5120 -0.1818  0.9683
 4027SOL    HW223544   0.572   2.114   3.750 -0.4649  0.0260  0.5164
 4028SOL     OW23545   1.588   4.507   5.630  0.2484  0.0320  0.4744
 4028SOL    HW123546   1.590   4.418   5.664 -1.3188 -0.7084 -1.3478
 4028SOL    HW223547   1.504   4.540   5.660 -0.1331  1.1371 -1.7555
 4029SOL     OW23548   4.326   2.286   9.537  0.1871 -0.6297  0.1158
 4029SOL    HW123549   4.341   2.209   9.593 -1.2864 -0.8917  0.1689
 4029SOL    HW223550   4.284   2.348   9.597  2.8676  1.3580 -0.0710
 4030SOL     OW23551   0.303   0.018   1.754 -0.3053  0.4032 -0.1764
 4030SOL    HW123552   0.343   0.104   1.736  1.2866 -0.3515 -0.2842
 4030SOL    HW223553   0.385   4.700   1.780 -0.2675 -0.9469 -2.4598
 4031SOL     OW23554   0.844   2.175   2.389 -0.4286  0.2596  0.1895
 4031SOL    HW123555   0.916   2.178   2.453 -0.4158  1.2359  0.1374
 4031SOL    HW223556   0.801   2.256   2.418 -1.5605 -0.6616  1.0594
 4032SOL     OW23557   0.362   1.780   6.045  0.0147  0.0755 -0.0910
 4032SOL    HW123558   0.309   1.740   5.976  0.2817  0.3526 -0.4515
 4032SOL    HW223559   0.395   1.853   5.994 -0.2175  0.9290  0.9811
 4033SOL     OW23560   0.295   1.315   4.858 -0.5077 -0.1322  0.2615
 4033SOL    HW123561   0.203   1.322   4.880 -0.7000  2.4842 -1.2912
 4033SOL    HW223562   0.323   1.284   4.944  0.7510  3.2764  1.0593
 4034SOL     OW23563   3.858   0.953   6.233  0.1377 -0.1309 -0.1725
 4034SOL    HW123564   3.763   0.963   6.242  0.5914  1.4685  2.5808
 4034SOL    HW223565   3.863   0.894   6.157 -0.4564 -1.2212  0.6403
 4035SOL     OW23566   3.200   0.425   3.292 -0.1525  0.2944 -0.2308
 4035SOL    HW123567   3.232   0.411   3.381 -1.3755  2.3421  0.5197
 4035SOL    HW223568   3.118   0.472   3.306 -0.3996 -0.6225  1.3086
 4036SOL     OW23569   1.474   3.840   4.315 -0.0222  0.2720 -0.2094
 4036SOL    HW123570   1.564   3.869   4.334  1.0957 -1.4255 -2.8521
 4036SOL    HW223571   1.427   3.888   4.383 -1.0768  0.3270 -0.9830
 4037SOL     OW23572   1.124   0.050   2.248 -0.2702  0.1424 -0.4105
 4037SOL    HW123573   1.180   0.061   2.171 -0.9319  3.0549 -0.4708
 4037SOL    HW223574   1.174   0.080   2.324  0.2790  1.4174 -1.2693
 4038SOL     OW23575   0.372   2.634   5.357 -0.0456 -0.2046  0.9572
 4038SOL    HW123576   0.383   2.687   5.278 -1.5759  0.3456  1.1176
 4038SOL    HW223577   0.363   2.705   5.420 -2.1232 -0.2349  0.6968
 4039SOL     OW23578   3.134   0.100   2.785  0.4019 -0.3331  0.1669
 4039SOL    HW123579   3.209   0.153   2.812  1.0128  0.1767 -2.5346
 4039SOL    HW223580   3.063   0.147   2.829 -0.4600  0.3441 -1.9093
 4040SOL     OW23581   1.929   1.055   8.668  0.0785  0.3494 -0.2226
 4040SOL    HW123582   1.867   0.983   8.662 -0.1892  0.7140 -1.9090
 4040SOL    HW223583   1.897   1.115   8.736  0.2318  1.2172 -0.9170
 4041SOL     OW23584   0.192   1.038  14.611 -0.4608 -0.5019  0.3733
 4041SOL    HW123585   0.204   0.967  14.674  0.3698 -1.5682 -0.9951
 4041SOL    HW223586   0.101   1.066  14.627 -1.1166 -0.9743 -2.4718
 4042SOL     OW23587   3.256   3.093   8.812 -0.5367 -0.0686  0.2287
 4042SOL    HW123588   3.181   3.152   8.802  0.3558  1.0398  0.0343
 4042SOL    HW223589   3.271   3.079   8.718  0.3163  1.6453  0.1039
 4043SOL     OW23590   3.455   0.780   1.300 -0.8115  0.1756 -1.0376
 4043SOL    HW123591   3.436   0.731   1.220 -1.6445 -1.8458  0.3982
 4043SOL    HW223592   3.508   0.717   1.350  2.0557  1.2678 -2.7106
 4044SOL     OW23593   2.336   2.740   4.372  0.8175 -0.2138 -1.1344
 4044SOL    HW123594   2.314   2.648   4.388 -0.5177  0.5158  1.3063
 4044SOL    HW223595   2.417   2.758   4.419  1.1650 -0.9270 -1.4584
 4045SOL     OW23596   0.475   1.424   3.088 -0.6031  0.1156 -0.3575
 4045SOL    HW123597   0.533   1.443   3.162  0.3796  1.4681 -1.4833
 4045SOL    HW223598   0.448   1.336   3.115  0.6057  0.0852  0.7425
 4046SOL     OW23599   4.305   1.978   5.725  0.0071  0.3357 -0.1340
 4046SOL    HW123600   4.317   1.990   5.819 -0.8579 -2.6594  0.3727
 4046SOL    HW223601   4.367   2.044   5.696  0.2434 -0.9500 -2.5615
 4047SOL     OW23602   3.416   1.841   6.982 -0.5250  0.0084  0.5510
 4047SOL    HW123603   3.463   1.761   6.957 -0.4126  0.4008 -0.4977
 4047SOL    HW223604   3.456   1.854   7.068  2.8364 -0.2464 -0.9984
 4048SOL     OW23605   3.093   1.494   3.248  0.3179 -0.2391  0.3104
 4048SOL    HW123606   3.094   1.487   3.152 -0.4923 -0.9807  0.3565
 4048SOL    HW223607   3.172   1.445   3.272  1.0972  0.9135  0.1157
 4049SOL     OW23608   3.619   2.452   6.594 -0.3525 -0.1232  0.4327
 4049SOL    HW123609   3.604   2.509   6.519  2.5379  1.0502  0.7570
 4049SOL    HW223610   3.600   2.519   6.660  0.0133  0.5957 -0.1996
 4050SOL     OW23611   1.810   3.455  14.299  0.3144  0.0979  0.0119
 4050SOL    HW123612   1.755   3.459  14.377  0.9978 -0.5341  0.5258
 4050SOL    HW223613   1.867   3.532  14.310 -0.1010  0.4691 -0.3977
 4051SOL     OW23614   3.179   1.256   8.217 -0.1269 -0.2790  0.8569
 4051SOL    HW123615   3.154   1.172   8.256  1.3169 -1.2324 -0.2850
 4051SOL    HW223616   3.263   1.266   8.260 -1.7099 -1.7762  4.2854
 4052SOL     OW23617   1.813   4.333   0.494 -0.4123  0.3456  0.4643
 4052SOL    HW123618   1.882   4.374   0.546 -0.9322 -0.0863  1.4749
 4052SOL    HW223619   1.852   4.307   0.410  0.4683  0.2028  0.9240
 4053SOL     OW23620   0.149   4.165   0.967 -0.3802 -0.4568 -0.3770
 4053SOL    HW123621   0.163   4.110   1.044  3.3052  0.4658 -0.4251
 4053SOL    HW223622   0.177   4.102   0.900  0.9738 -0.0353 -0.1975
 4054SOL     OW23623   4.681   4.417   2.881  0.3429  0.5868  0.4797
 4054SOL    HW123624   4.594   4.416   2.919 -0.3219 -0.0497 -1.0523
 4054SOL    HW223625   4.722   4.347   2.931 -0.9366 -0.8065 -0.4290
 4055SOL     OW23626   2.479   0.891   3.728 -0.4844  0.1544 -0.3861
 4055SOL    HW123627   2.455   0.812   3.777 -0.6723  0.0736 -0.6069
 4055SOL    HW223628   2.412   0.955   3.755 -1.4680 -1.3490  0.7562
 4056SOL     OW23629   3.940   3.137   2.007  0.3265 -0.1437 -0.3253
 4056SOL    HW123630   3.882   3.111   2.078 -2.3478 -0.5029 -2.6195
 4056SOL    HW223631   3.925   3.068   1.942 -0.2889  0.9621 -1.3713
 4057SOL     OW23632   2.499   0.061   4.711  0.3215  0.1855 -0.0543
 4057SOL    HW123633   2.483   4.713   4.772  1.7734 -0.0122  0.0847
 4057SOL    HW223634   2.457   0.136   4.753  0.7968 -0.0009  0.7501
 4058SOL     OW23635   0.123   4.087   5.006  0.0292 -0.2112 -1.2333
 4058SOL    HW123636   0.129   4.003   5.052  2.6780  0.8686  0.3889
 4058SOL    HW223637   0.033   4.115   5.024 -0.4569 -1.8482 -1.0908
 4059SOL     OW23638   0.772   4.650  15.415  0.1050  0.3991 -0.2600
 4059SOL    HW123639   0.798   4.668  15.325 -0.4255  0.4780 -0.3964
 4059SOL    HW223640   0.740   0.010  15.450  2.3440  0.3381  1.9859
 4060SOL     OW23641   4.391   4.378   6.553 -0.1432 -0.1674 -0.4064
 4060SOL    HW123642   4.385   4.429   6.634  0.4900 -0.0588 -0.4303
 4060SOL    HW223643   4.306   4.335   6.548  0.7083 -1.8922 -0.0678
 4061SOL     OW23644   3.817   3.765  16.561  0.2114  0.0986  0.5028
 4061SOL    HW123645   3.750   3.750  16.628  0.6800  0.3529  1.0331
 4061SOL    HW223646   3.830   3.859  16.557  2.4492 -0.1950  0.6401
 4062SOL     OW23647   0.841   4.667  15.127  0.2795 -0.6717  0.4648
 4062SOL    HW123648   0.831   0.028  15.084  0.1556 -0.5842  0.6633
 4062SOL    HW223649   0.909   4.628  15.072  0.1619 -3.4643  2.3112
 4063SOL     OW23650   0.672   1.712   3.133 -0.2001  0.1088 -0.5276
 4063SOL    HW123651   0.677   1.799   3.094  0.7564 -0.8116 -2.5033
 4063SOL    HW223652   0.681   1.667   3.048 -1.2896 -0.6083 -0.2573
 4064SOL     OW23653   0.101   0.607  14.364 -0.3266 -0.4901 -0.2980
 4064SOL    HW123654   0.016   0.627  14.325  0.4611 -0.0193 -1.7643
 4064SOL    HW223655   0.148   0.690  14.359 -0.7351 -0.1232  2.0268
 4065SOL     OW23656   2.045   1.410   7.651 -0.5604 -0.9387  0.9565
 4065SOL    HW123657   2.091   1.365   7.722  0.3095 -0.8264  0.4696
 4065SOL    HW223658   1.958   1.384   7.682 -1.4706 -0.3136 -1.0332
 4066SOL     OW23659   3.990   3.778  12.295  0.1174 -0.5555 -0.1575
 4066SOL    HW123660   3.935   3.747  12.367 -0.1826 -1.7807 -0.9178
 4066SOL    HW223661   4.061   3.812  12.350  1.2815 -3.0650 -0.0900
 4067SOL     OW23662   1.865   3.921   7.399 -0.0395 -0.9449  0.2377
 4067SOL    HW123663   1.912   3.916   7.482 -0.8277  3.1100  0.9314
 4067SOL    HW223664   1.919   3.986   7.353  0.4482 -0.1158  1.9870
 4068SOL     OW23665   0.608   4.701   3.860  0.3829 -0.4480  0.6136
 4068SOL    HW123666   0.614   0.051   3.800 -0.5581 -0.8918 -0.0238
 4068SOL    HW223667   0.689   4.713   3.909  1.1940 -1.1321 -0.5779
 4069SOL     OW23668   3.175   3.190   5.162 -0.5050 -0.4614  0.2716
 4069SOL    HW123669   3.180   3.154   5.073  0.5111 -0.9294  0.5237
 4069SOL    HW223670   3.258   3.188   5.209  0.5942  1.4579 -1.5626
 4070SOL     OW23671   3.208   0.035   6.167 -0.0532  0.0922  0.5964
 4070SOL    HW123672   3.172   0.118   6.138 -1.6019 -0.0205  2.1833
 4070SOL    HW223673   3.299   0.052   6.192  0.2504 -2.0508  1.0205
 4071SOL     OW23674   1.422   0.210   0.538 -0.1367  0.3790  0.1027
 4071SOL    HW123675   1.492   0.212   0.473 -0.3138 -0.2737 -0.1063
 4071SOL    HW223676   1.348   0.230   0.480  1.6884  1.0481 -1.9618
 4072SOL     OW23677   0.359   0.469   3.713 -0.1113 -0.0378  0.0348
 4072SOL    HW123678   0.315   0.516   3.642 -0.8168  1.9681  1.7952
 4072SOL    HW223679   0.453   0.468   3.694  0.2087 -2.2947  1.6854
 4073SOL     OW23680   1.523   4.001   7.958  0.7639  0.4740 -0.2709
 4073SOL    HW123681   1.470   4.074   7.991 -1.2390 -1.3902  0.6464
 4073SOL    HW223682   1.500   3.922   8.006  0.8934  0.3964 -0.3383
 4074SOL     OW23683   0.183   0.402   1.745 -0.5041  0.3614 -0.4485
 4074SOL    HW123684   0.203   0.491   1.717 -1.6912  1.1378  1.1741
 4074SOL    HW223685   0.269   0.367   1.766 -1.3721 -0.4996  1.6718
 4075SOL     OW23686   0.596   4.171   1.092  0.0060 -0.6814 -0.0480
 4075SOL    HW123687   0.671   4.228   1.075  0.1411 -0.7533  0.3014
 4075SOL    HW223688   0.626   4.097   1.041 -0.7041  0.6767 -2.4486
 4076SOL     OW23689   2.667   3.208  16.931  0.1201 -0.2876 -0.0972
 4076SOL    HW123690   2.587   3.174  16.890  0.7147 -0.4890 -1.0962
 4076SOL    HW223691   2.635   3.260  17.004 -3.9322  1.8152 -3.3736
 4077SOL     OW23692   2.152   3.465  17.582 -0.1114  0.2432  0.0113
 4077SOL    HW123693   2.204   3.510  17.649 -1.0870  1.7827 -0.2732
 4077SOL    HW223694   2.067   3.498  17.610 -0.6231  0.0717 -1.3359
 4078SOL     OW23695   3.397   0.894   7.932  0.7386  0.3841 -0.1450
 4078SOL    HW123696   3.451   0.914   7.856  2.5837  3.1011  1.8590
 4078SOL    HW223697   3.424   0.804   7.951 -3.1956 -0.7512  0.0832
 4079SOL     OW23698   2.260   4.680   4.253  0.0806 -0.2612  0.2613
 4079SOL    HW123699   2.302   4.695   4.338  1.8925 -0.3112 -0.6269
 4079SOL    HW223700   2.313   0.011   4.196  0.6752  0.0178  1.0722
 4080SOL     OW23701   0.611   1.757  12.133 -1.1289 -0.9842  0.4321
 4080SOL    HW123702   0.527   1.713  12.146 -2.0735  1.0474  1.1740
 4080SOL    HW223703   0.586   1.840  12.093  2.4912 -0.2745 -0.3328
 4081SOL     OW23704   0.488   0.470  10.320  0.0323  0.1385  0.6095
 4081SOL    HW123705   0.464   0.383  10.288 -1.8976  0.2475  1.7269
 4081SOL    HW223706   0.425   0.489  10.391 -0.3504 -2.4701  0.9573
 4082SOL     OW23707   2.217   0.498   1.769  0.2374  0.1481 -0.2206
 4082SOL    HW123708   2.171   0.474   1.849  2.2775 -0.2836  0.8241
 4082SOL    HW223709   2.202   0.417   1.720 -0.0175  1.6562 -2.6710
 4083SOL     OW23710   3.599   0.199   5.565 -0.6421 -0.1469  0.4335
 4083SOL    HW123711   3.512   0.217   5.529  0.1613  0.6910 -1.1116
 4083SOL    HW223712   3.661   0.268   5.543 -2.3366  1.4037  0.5104
 4084SOL     OW23713   4.007   4.002   8.763  0.4798 -0.6820  0.3628
 4084SOL    HW123714   3.955   3.926   8.791 -0.3540  0.1550  1.0800
 4084SOL    HW223715   4.033   4.039   8.848 -1.6500  0.0472  0.6892
 4085SOL     OW23716   2.715   2.876   6.332  0.3919  0.0132 -0.0582
 4085SOL    HW123717   2.654   2.807   6.307 -0.4185  0.3702  0.9331
 4085SOL    HW223718   2.700   2.944   6.266 -1.2551 -0.3888 -0.0794
 4086SOL     OW23719   1.002   1.822   7.875 -0.2944 -0.1976  0.0210
 4086SOL    HW123720   1.064   1.769   7.825  0.1074 -0.6456  0.9834
 4086SOL    HW223721   0.923   1.809   7.824  0.0366  1.8563 -1.0236
 4087SOL     OW23722   2.291   2.891   2.498  0.5448 -0.0801 -0.5276
 4087SOL    HW123723   2.201   2.864   2.480  0.8275 -1.8602  0.7132
 4087SOL    HW223724   2.330   2.807   2.474 -2.0964 -1.2123 -0.8884
 4088SOL     OW23725   0.682   2.148   3.260 -0.2849 -0.2630  0.1348
 4088SOL    HW123726   0.586   2.152   3.259 -0.3759 -1.3000  2.9650
 4088SOL    HW223727   0.695   2.077   3.197 -2.2655  0.7790 -1.4587
 4089SOL     OW23728   2.173   0.730   5.458 -0.0364  0.4192 -0.7840
 4089SOL    HW123729   2.266   0.730   5.479 -0.2050  0.4717 -0.0649
 4089SOL    HW223730   2.166   0.825   5.444  0.7811  0.5677 -0.1172
 4090SOL     OW23731   3.502   2.807   8.055 -0.2688  0.0303 -0.1995
 4090SOL    HW123732   3.436   2.746   8.023  1.0425 -1.4337 -0.1386
 4090SOL    HW223733   3.468   2.852   8.132 -1.2038  0.4494 -0.8575
 4091SOL     OW23734   2.968   3.567   8.465  0.2392 -0.0041  0.0590
 4091SOL    HW123735   3.022   3.537   8.392  0.7618 -0.2945  0.5623
 4091SOL    HW223736   3.024   3.639   8.495  0.9423 -1.0298  1.2114
 4092SOL     OW23737   0.770   1.331   3.796  0.4908  0.3454  0.5725
 4092SOL    HW123738   0.770   1.426   3.787 -1.0644  0.4343  1.4733
 4092SOL    HW223739   0.708   1.319   3.868  0.4005 -0.5554  0.3503
 4093SOL     OW23740   0.773   2.739   5.224  0.6935  0.3520 -0.7782
 4093SOL    HW123741   0.739   2.729   5.135 -2.1869  0.0837  0.3719
 4093SOL    HW223742   0.848   2.681   5.212  0.0669 -0.5285 -0.4252
 4094SOL     OW23743   2.829   3.615   4.964  0.2698  0.0998  0.8446
 4094SOL    HW123744   2.852   3.538   4.913 -1.6538  0.7431 -0.9718
 4094SOL    HW223745   2.787   3.667   4.896  0.6107 -1.0746 -0.2530
 4095SOL     OW23746   4.475   3.675   6.415  0.0879  0.3472  0.6132
 4095SOL    HW123747   4.475   3.769   6.396  1.3732  0.4579  1.1508
 4095SOL    HW223748   4.406   3.666   6.482 -1.1494 -1.3021 -0.8732
 4096SOL     OW23749   0.356   0.141   5.227  0.3430  0.0893 -0.2366
 4096SOL    HW123750   0.317   0.217   5.270 -2.1591  0.6017 -3.4214
 4096SOL    HW223751   0.393   0.184   5.150  0.9387  5.2577  2.9837
 4097SOL     OW23752   2.031   1.116   3.888 -0.1190 -0.0710 -0.1336
 4097SOL    HW123753   2.096   1.176   3.926 -0.9149  2.0039 -2.0048
 4097SOL    HW223754   1.964   1.165   3.840  0.6523  0.0186 -1.1514
 4098SOL     OW23755   2.878   2.729   6.018  0.0281 -0.4173  0.6999
 4098SOL    HW123756   2.790   2.738   5.981 -0.3713 -2.5630  1.1196
 4098SOL    HW223757   2.892   2.821   6.037  1.8536 -0.3367 -1.0756
 4099SOL     OW23758   0.155   0.145  12.055  0.0744 -0.5679 -0.2443
 4099SOL    HW123759   0.203   0.218  12.094 -0.1432 -0.5218 -0.0648
 4099SOL    HW223760   0.196   0.138  11.969  0.3331 -1.9380 -0.0063
 4100SOL     OW23761   0.882   3.708   0.965 -0.1259  0.1749 -0.4226
 4100SOL    HW123762   0.869   3.701   0.871  1.3044 -1.3931 -0.4889
 4100SOL    HW223763   0.838   3.630   1.000 -0.1507  1.1236  1.7070
 4101SOL     OW23764   4.075   3.979  10.308 -0.0063 -0.0813 -0.2784
 4101SOL    HW123765   4.021   4.021  10.241 -0.7487  0.2367  0.5275
 4101SOL    HW223766   4.008   3.948  10.369 -0.7177  0.7788 -0.6150
 4102SOL     OW23767   4.240   3.803  10.538 -0.5871  0.9529 -0.0622
 4102SOL    HW123768   4.200   3.879  10.495  0.1560  0.8211 -0.9810
 4102SOL    HW223769   4.181   3.728  10.528  0.6948 -0.1354  0.6638
 4103SOL     OW23770   3.685   4.665   4.177  0.3963  0.3576  0.0494
 4103SOL    HW123771   3.713   0.010   4.117 -1.3821  0.9728 -0.0749
 4103SOL    HW223772   3.756   4.662   4.241  2.0512  2.4158 -1.6819
 4104SOL     OW23773   4.559   0.311  14.826 -0.1200  0.3835  0.1120
 4104SOL    HW123774   4.465   0.327  14.823  0.0264  1.4139  0.9445
 4104SOL    HW223775   4.591   0.356  14.905  1.1264 -1.7238  0.8153
 4105SOL     OW23776   1.978   3.546   5.959 -0.2116 -0.7083 -0.2020
 4105SOL    HW123777   1.937   3.471   5.915 -1.0946 -1.1871  1.4586
 4105SOL    HW223778   2.008   3.586   5.877  3.5830  2.1759  2.5692
 4106SOL     OW23779   1.986   2.574   8.148 -0.0441 -0.3451  0.3332
 4106SOL    HW123780   1.985   2.655   8.198 -0.0912 -0.6186  0.7812
 4106SOL    HW223781   2.071   2.531   8.155  0.0131 -0.2174  0.4205
 4107SOL     OW23782   0.784   3.988   2.867  0.1852 -0.0784 -0.0133
 4107SOL    HW123783   0.747   4.013   2.783 -0.6879 -3.5865 -0.6605
 4107SOL    HW223784   0.845   4.061   2.877 -0.6679  0.5784  0.4527
 4108SOL     OW23785   0.002   4.694  16.863 -0.1936 -0.2429 -0.0341
 4108SOL    HW123786   4.719   4.677  16.957  0.4816 -1.0810 -0.1250
 4108SOL    HW223787   4.646   4.648  16.836 -1.4207  1.9258 -0.0800
 4109SOL     OW23788   1.326   1.746  13.435  0.5027  0.2932  0.8907
 4109SOL    HW123789   1.388   1.675  13.454  1.7344  1.3060  0.5924
 4109SOL    HW223790   1.384   1.821  13.422  0.8592 -0.3530 -1.3764
 4110SOL     OW23791   0.831   1.623  10.340  0.2025  0.0269 -0.5541
 4110SOL    HW123792   0.908   1.648  10.290 -0.8293  2.3768 -0.9869
 4110SOL    HW223793   0.759   1.647  10.281  0.2113  0.0755 -0.5450
 4111SOL     OW23794   4.123   2.662   9.855 -0.1858  0.3689 -0.0883
 4111SOL    HW123795   4.079   2.690   9.936  0.3965  3.7295 -0.9575
 4111SOL    HW223796   4.212   2.695   9.866  0.0580  0.1954 -1.5501
 4112SOL     OW23797   3.530   3.634   6.090 -0.0653  0.1190  0.9943
 4112SOL    HW123798   3.539   3.584   6.171  0.2583  0.1900  1.0012
 4112SOL    HW223799   3.585   3.584   6.030  0.2159 -1.9958  3.0204
 4113SOL     OW23800   3.694   3.380  13.557  0.2563 -0.4804  0.4826
 4113SOL    HW123801   3.652   3.383  13.471  1.3446 -4.1476 -0.1732
 4113SOL    HW223802   3.776   3.337  13.534  0.3657  0.5021 -1.0165
 4114SOL     OW23803   3.448   4.190   7.390  0.7629 -0.2729  0.4997
 4114SOL    HW123804   3.425   4.273   7.350  2.3476  0.5700  1.3409
 4114SOL    HW223805   3.366   4.142   7.384  0.3924  0.1877  1.9817
 4115SOL     OW23806   1.403   1.779   3.991  0.1318  0.0656 -0.4644
 4115SOL    HW123807   1.352   1.825   4.057 -0.6516 -1.7828  0.2220
 4115SOL    HW223808   1.489   1.793   4.030 -0.0574  2.1294 -0.8273
 4116SOL     OW23809   0.281   1.753   5.004  0.0354  0.9255 -0.4701
 4116SOL    HW123810   0.365   1.710   5.012  0.9043  2.8940  1.1272
 4116SOL    HW223811   0.312   1.836   4.967  1.5907  1.1518  1.3503
 4117SOL     OW23812   0.725   2.419   6.296 -0.2891 -0.4476  0.2739
 4117SOL    HW123813   0.744   2.488   6.359 -0.4022 -0.3265  0.1760
 4117SOL    HW223814   0.785   2.439   6.224  0.9272  1.9402  1.9780
 4118SOL     OW23815   0.469   0.470   5.138 -0.1783 -0.0155 -0.2198
 4118SOL    HW123816   0.553   0.513   5.151  0.0410 -0.4545 -0.1818
 4118SOL    HW223817   0.440   0.444   5.225 -0.6704  0.1753 -0.3266
 4119SOL     OW23818   0.461   2.664  14.115  0.3538 -0.2502  0.2529
 4119SOL    HW123819   0.442   2.665  14.021 -2.7063  0.2384  0.8722
 4119SOL    HW223820   0.545   2.709  14.124 -0.5045  1.3777  0.0934
 4120SOL     OW23821   1.770   4.078   2.901  0.3227  0.1093 -0.3111
 4120SOL    HW123822   1.794   4.058   2.992 -3.3118 -0.1419  0.5878
 4120SOL    HW223823   1.816   4.159   2.881 -1.0041  0.2468 -2.7118
 4121SOL     OW23824   4.428   3.422   6.962  0.6567  0.3135 -0.3739
 4121SOL    HW123825   4.384   3.506   6.975 -0.4960 -0.0288 -2.0122
 4121SOL    HW223826   4.379   3.369   7.024 -1.1560  1.2006 -1.0485
 4122SOL     OW23827   1.433   0.230   0.800 -0.3892  0.2718  0.4923
 4122SOL    HW123828   1.423   0.200   0.710 -1.1529  1.6282  0.1253
 4122SOL    HW223829   1.521   0.266   0.791 -0.8942  1.3235 -0.1693
 4123SOL     OW23830   4.198   2.806  17.026  0.3247  0.2141 -0.1083
 4123SOL    HW123831   4.145   2.828  17.103  0.4060  1.7758 -0.5045
 4123SOL    HW223832   4.245   2.728  17.057  0.6146 -0.1572 -1.4887
 4124SOL     OW23833   3.384   1.222  12.169  0.0633  0.2676 -0.3398
 4124SOL    HW123834   3.366   1.294  12.230  0.4065 -1.4528  1.8029
 4124SOL    HW223835   3.476   1.210  12.193 -0.4727 -1.3650  0.8371
 4125SOL     OW23836   4.708   4.299   0.260  0.3713  0.5799  0.3188
 4125SOL    HW123837   0.024   4.362   0.320  1.9821 -0.6602  0.5750
 4125SOL    HW223838   4.616   4.306   0.285 -0.1089  1.7071 -1.7105
 4126SOL     OW23839   0.372   0.122   7.896 -0.0624 -0.3314  0.0010
 4126SOL    HW123840   0.420   0.195   7.936  2.8725 -2.0933 -0.3302
 4126SOL    HW223841   0.284   0.140   7.931 -0.6151 -0.0784 -1.5356
 4127SOL     OW23842   1.904   2.343   9.565 -0.3029  0.0727 -0.1554
 4127SOL    HW123843   1.851   2.420   9.544 -1.0391 -0.3435  0.1943
 4127SOL    HW223844   1.916   2.309   9.476  2.2427  0.0193  0.2161
 4128SOL     OW23845   2.127   0.110  10.997  0.5673 -0.3670 -0.1764
 4128SOL    HW123846   2.175   0.057  10.932  2.1333 -1.0826  1.5815
 4128SOL    HW223847   2.171   0.195  10.993 -1.0117  0.4763  0.4136
 4129SOL     OW23848   0.254   4.306   5.665 -0.0104 -0.4511 -0.2621
 4129SOL    HW123849   0.181   4.326   5.607  0.7961 -0.0053 -1.1153
 4129SOL    HW223850   0.286   4.224   5.627 -0.9137 -0.2097 -1.5409
 4130SOL     OW23851   4.287   1.281   6.748  0.4933  0.0233  0.9024
 4130SOL    HW123852   4.378   1.285   6.719 -0.4843 -1.3877 -2.3713
 4130SOL    HW223853   4.270   1.375   6.749  0.5798  0.0315  1.4332
 4131SOL     OW23854   3.370   4.317   4.770 -0.2779 -0.5127 -0.4524
 4131SOL    HW123855   3.283   4.277   4.774 -0.6991  0.3725 -0.7730
 4131SOL    HW223856   3.425   4.239   4.764  0.4105  0.0388 -1.2403
 4132SOL     OW23857   2.416   2.213   7.772 -0.0312 -0.0261  0.9410
 4132SOL    HW123858   2.341   2.164   7.807  0.8158 -2.5290 -0.6943
 4132SOL    HW223859   2.457   2.147   7.716 -0.8800  0.5781 -0.3895
 4133SOL     OW23860   2.537   0.891   9.207 -0.5078 -0.2070  0.1237
 4133SOL    HW123861   2.586   0.932   9.136 -0.7505  0.1814  0.1799
 4133SOL    HW223862   2.602   0.913   9.275 -0.9154  1.2648  0.0447
 4134SOL     OW23863   0.375   1.169   3.160 -0.0398  0.2496  0.2033
 4134SOL    HW123864   0.323   1.089   3.166  0.4851 -0.2431 -1.8494
 4134SOL    HW223865   0.452   1.130   3.200  0.1704  0.0223 -0.4269
 4135SOL     OW23866   1.949   1.379   3.536  0.0808 -0.4406  0.2188
 4135SOL    HW123867   2.015   1.418   3.478  0.1471 -0.1970  0.4545
 4135SOL    HW223868   1.902   1.308   3.494 -0.5382 -1.6456  2.9499
 4136SOL     OW23869   1.502   0.959   6.898 -0.0301 -0.1136 -0.0441
 4136SOL    HW123870   1.518   1.047   6.864 -1.0315 -0.3194 -1.0435
 4136SOL    HW223871   1.413   0.968   6.862 -0.1832 -1.8674 -0.0854
 4137SOL     OW23872   2.866   0.635   6.790  0.1638 -0.0294 -0.7634
 4137SOL    HW123873   2.849   0.614   6.698  0.1961  0.7621 -0.9488
 4137SOL    HW223874   2.817   0.563   6.830  0.5873  0.0212 -0.1497
 4138SOL     OW23875   2.084   4.175   3.617 -0.1552  0.3006 -0.1719
 4138SOL    HW123876   2.020   4.107   3.598 -1.3210  1.3743 -0.0468
 4138SOL    HW223877   2.027   4.248   3.643  0.8492  1.3780 -0.9860
 4139SOL     OW23878   4.085   1.135   2.430 -0.0601  0.3783  0.3862
 4139SOL    HW123879   4.094   1.069   2.498  2.9563 -1.3522 -1.6447
 4139SOL    HW223880   3.990   1.140   2.421  0.2647  1.1889 -2.8250
 4140SOL     OW23881   0.412   3.748   6.092 -0.0160  0.0406  0.4059
 4140SOL    HW123882   0.359   3.790   6.024 -1.2280 -1.0548  0.6646
 4140SOL    HW223883   0.492   3.797   6.076  0.6921 -0.4148  2.5481
 4141SOL     OW23884   0.462   0.705   1.656  0.1682  0.5742  0.1567
 4141SOL    HW123885   0.457   0.637   1.588  1.1538 -0.7828  1.4554
 4141SOL    HW223886   0.530   0.673   1.715  2.4273  1.1809 -2.1040
 4142SOL     OW23887   2.358   2.976   5.037  0.1638 -0.4405 -0.6902
 4142SOL    HW123888   2.344   3.069   5.053  2.2862 -0.7779  3.1032
 4142SOL    HW223889   2.443   2.961   5.077 -0.5517 -1.8764  0.2949
 4143SOL     OW23890   1.490   1.143  15.710  0.6494 -0.6235  0.0268
 4143SOL    HW123891   1.516   1.069  15.766 -1.2861 -1.2007  0.1677
 4143SOL    HW223892   1.567   1.154  15.654 -0.0853 -2.4970 -1.3615
 4144SOL     OW23893   4.370   2.193   1.844  0.0997 -0.2387 -0.7394
 4144SOL    HW123894   4.438   2.133   1.875  0.9690  1.8596  1.3820
 4144SOL    HW223895   4.400   2.226   1.760  2.4449 -0.6084 -0.0559
 4145SOL     OW23896   4.274   4.081  12.147  0.1759  0.4845  0.6144
 4145SOL    HW123897   4.203   4.074  12.211  0.2751  2.8660  0.9888
 4145SOL    HW223898   4.289   4.174  12.129  1.1981  0.3354  0.7366
 4146SOL     OW23899   3.733   1.082  16.039 -0.2415  0.3737  0.1612
 4146SOL    HW123900   3.644   1.117  16.050 -0.7776 -0.5884 -1.1758
 4146SOL    HW223901   3.727   1.072  15.944 -1.4877 -0.7382  0.3620
 4147SOL     OW23902   2.592   2.739   4.851  0.0307  0.0505  0.4819
 4147SOL    HW123903   2.616   2.693   4.770  0.4985 -0.8702  1.1395
 4147SOL    HW223904   2.635   2.820   4.822 -0.9530 -0.2992 -1.9523
 4148SOL     OW23905   3.828   1.353   5.634  0.1731 -0.1021 -0.6702
 4148SOL    HW123906   3.870   1.382   5.715 -2.0076 -0.9997  0.7555
 4148SOL    HW223907   3.783   1.433   5.609 -0.5193 -0.2925 -0.0022
 4149SOL     OW23908   3.890   2.637   2.488 -0.0618  0.3552  0.1831
 4149SOL    HW123909   3.882   2.615   2.581 -1.3554  2.3112  0.5163
 4149SOL    HW223910   3.831   2.712   2.485 -0.4250  0.0160 -1.1934
 4150SOL     OW23911   3.844   1.915   7.723  0.2631  0.0138 -0.2490
 4150SOL    HW123912   3.757   1.948   7.705 -0.7202 -2.8037 -0.6268
 4150SOL    HW223913   3.828   1.842   7.783 -2.0747  0.1840 -0.6666
 4151SOL     OW23914   1.431   1.908   4.558  0.0368 -0.3792  0.1679
 4151SOL    HW123915   1.492   1.855   4.610 -1.5771 -0.9676  1.4708
 4151SOL    HW223916   1.363   1.843   4.541 -0.5814  0.0530  1.0414
 4152SOL     OW23917   1.683   2.969  16.363  0.0486  0.3687  0.3496
 4152SOL    HW123918   1.596   2.955  16.400 -0.5331  2.0457 -0.3713
 4152SOL    HW223919   1.729   3.032  16.418  1.5373 -0.7473  0.3792
 4153SOL     OW23920   0.872   3.383   0.329 -0.2868  0.4660  0.0581
 4153SOL    HW123921   0.903   3.316   0.391  1.2880  2.2172  1.1535
 4153SOL    HW223922   0.938   3.391   0.259 -1.7256  0.5572 -1.2794
 4154SOL     OW23923   4.647   0.335   8.918 -0.0680  0.3729  0.7110
 4154SOL    HW123924   4.612   0.364   8.833 -0.8106  1.0373  1.2385
 4154SOL    HW223925   4.638   0.240   8.914  1.9799  0.1911  0.4403
 4155SOL     OW23926   4.067   4.196  16.761 -0.2972 -0.6539  0.0440
 4155SOL    HW123927   4.119   4.145  16.823  0.5656 -0.5759 -0.6046
 4155SOL    HW223928   4.125   4.272  16.759 -1.8942  0.5677 -0.6483
 4156SOL     OW23929   0.699   3.716   9.548 -0.3956 -0.2472 -0.1738
 4156SOL    HW123930   0.733   3.708   9.637  1.9057  0.1883 -1.0275
 4156SOL    HW223931   0.678   3.809   9.542  1.4644  0.2538  1.3422
 4157SOL     OW23932   2.903   2.651   9.655  0.0565 -0.6445 -1.1423
 4157SOL    HW123933   2.927   2.621   9.743 -0.3208  2.2854 -0.0160
 4157SOL    HW223934   2.989   2.637   9.616  0.5290 -1.8898  0.3524
 4158SOL     OW23935   1.514   2.008   9.448  0.3238 -0.1224  0.0034
 4158SOL    HW123936   1.567   1.989   9.525  1.9490 -1.1278 -1.3759
 4158SOL    HW223937   1.506   2.102   9.466  2.9819  0.5074 -2.0492
 4159SOL     OW23938   3.831   1.600   2.182  0.1310  0.4130 -0.4020
 4159SOL    HW123939   3.863   1.524   2.133 -2.2793  0.1819 -1.6230
 4159SOL    HW223940   3.744   1.573   2.213 -0.4149  1.9269 -0.6090
 4160SOL     OW23941   0.692   1.620   6.419 -0.0203 -0.7293 -0.4291
 4160SOL    HW123942   0.727   1.586   6.501  1.7606 -0.2724 -0.9960
 4160SOL    HW223943   0.764   1.618   6.355 -1.2774 -0.0558 -1.8724
 4161SOL     OW23944   3.203   4.148   2.202 -0.5479 -0.1376  0.4080
 4161SOL    HW123945   3.284   4.157   2.152 -1.2150  0.1300 -0.6275
 4161SOL    HW223946   3.178   4.232   2.240  2.7544  0.3972  1.4045
 4162SOL     OW23947   3.106   4.457   1.790  0.0023 -0.0596 -0.0940
 4162SOL    HW123948   3.016   4.446   1.758  0.4643 -1.4798 -0.9407
 4162SOL    HW223949   3.099   4.450   1.885  1.8256  2.2739  0.2008
 4163SOL     OW23950   0.834   2.283   6.027 -0.1263 -0.3111  0.1561
 4163SOL    HW123951   0.802   2.209   6.079 -1.5672  0.8139  0.8776
 4163SOL    HW223952   0.757   2.297   5.972  1.7385 -0.4397 -2.4386
 4164SOL     OW23953   3.690   2.774   7.231  0.0147  0.1439 -0.0566
 4164SOL    HW123954   3.598   2.748   7.230  0.6305 -2.0140  0.0993
 4164SOL    HW223955   3.694   2.841   7.299 -1.9104  2.1400 -1.9162
 4165SOL     OW23956   1.790   3.397   6.518 -0.0199 -0.0646  0.1464
 4165SOL    HW123957   1.819   3.444   6.597  2.3817 -1.3932  0.0353
 4165SOL    HW223958   1.805   3.458   6.446 -2.0286 -0.6242 -0.7532
 4166SOL     OW23959   4.651   3.286   2.001  0.6098  0.0077 -0.6754
 4166SOL    HW123960   4.575   3.336   1.969  0.3433  0.5951  0.8401
 4166SOL    HW223961   4.680   3.238   1.924 -0.0982  0.4126 -1.1897
 4167SOL     OW23962   0.694   4.515   5.138  0.4747 -0.1007 -0.1718
 4167SOL    HW123963   0.739   4.594   5.169  0.4448 -0.1165 -0.0887
 4167SOL    HW223964   0.605   4.550   5.148  0.8182  0.5202  0.7801
 4168SOL     OW23965   4.252   2.634   6.948 -0.0386 -0.1222 -0.3806
 4168SOL    HW123966   4.227   2.606   7.035  0.8824 -0.0201 -0.0820
 4168SOL    HW223967   4.287   2.722   6.961 -1.2199  0.1355  1.0574
 4169SOL     OW23968   1.166   4.607   9.412 -0.9087 -0.3646 -0.2371
 4169SOL    HW123969   1.092   4.640   9.463 -1.0167 -0.5975 -0.2391
 4169SOL    HW223970   1.239   4.619   9.471 -0.1941  0.9577 -1.3903
 4170SOL     OW23971   4.222   2.969  11.402 -0.0970  0.8188  0.0517
 4170SOL    HW123972   4.221   3.005  11.314 -1.2772  0.0472 -0.2489
 4170SOL    HW223973   4.263   3.043  11.447 -1.0859  0.1981  1.9672
 4171SOL     OW23974   0.077   1.646  17.557 -0.4769  0.3067  0.1767
 4171SOL    HW123975   0.050   1.575  17.499 -0.9991  0.9038 -0.3098
 4171SOL    HW223976   0.071   1.726  17.505  2.5182  1.2240  1.2514
 4172SOL     OW23977   0.171   1.601   7.420 -0.1531  0.1196 -0.2620
 4172SOL    HW123978   0.235   1.607   7.349 -0.8248 -2.5180 -1.1119
 4172SOL    HW223979   0.207   1.521   7.458 -2.2959 -0.5195  0.4253
 4173SOL     OW23980   3.446   4.193  17.413  0.3879 -0.3495  0.1228
 4173SOL    HW123981   3.420   4.147  17.492 -0.7600  0.5582  0.2869
 4173SOL    HW223982   3.357   4.213  17.382  0.1403 -0.3234  0.8516
 4174SOL     OW23983   1.075   1.639  13.427  0.1458  0.3386  0.3717
 4174SOL    HW123984   1.042   1.676  13.509 -1.7897 -1.0984  0.2221
 4174SOL    HW223985   1.159   1.686  13.428  0.4504 -0.2321  1.6295
 4175SOL     OW23986   1.559   3.501   6.933  0.0913 -0.2520  0.1268
 4175SOL    HW123987   1.643   3.523   6.973  0.4872  0.7433 -1.2698
 4175SOL    HW223988   1.507   3.565   6.982  1.4017 -0.0138  1.1933
 4176SOL     OW23989   2.796   3.882   6.795  0.1590  0.0841 -0.4870
 4176SOL    HW123990   2.735   3.908   6.864 -0.4583  0.7674 -1.3045
 4176SOL    HW223991   2.866   3.840   6.846  0.1057 -0.3207 -0.7477
 4177SOL     OW23992   1.830   0.113   6.599  0.1119  0.6242  0.2936
 4177SOL    HW123993   1.917   0.130   6.636 -0.8780  1.8447  2.0849
 4177SOL    HW223994   1.782   0.097   6.681  0.1396  0.4180  0.2676
 4178SOL     OW23995   2.695   3.832   8.384  0.0635  0.1729 -0.2457
 4178SOL    HW123996   2.653   3.872   8.460  0.4254 -0.8625  0.5124
 4178SOL    HW223997   2.696   3.742   8.417 -3.2819  0.9723  1.9690
 4179SOL     OW23998   3.441   0.375   7.154 -0.1530 -0.5729  0.2598
 4179SOL    HW123999   3.426   0.292   7.199 -2.3050 -0.6898 -0.7082
 4179SOL    HW224000   3.500   0.349   7.083 -0.4449 -0.1297 -0.1420
 4180SOL     OW24001   2.106   0.229   6.173  0.5258  0.2188  0.1660
 4180SOL    HW124002   2.145   0.156   6.222 -2.4238  0.1223  2.4075
 4180SOL    HW224003   2.165   0.298   6.202 -0.3468 -0.0262  2.5875
 4181SOL     OW24004   4.615   1.564  15.436  0.4247  0.1979  0.5450
 4181SOL    HW124005   4.670   1.613  15.376  0.8124  0.3237  1.0069
 4181SOL    HW224006   4.569   1.635  15.479  1.2395 -0.2921  2.2276
 4182SOL     OW24007   1.323   2.651  10.228 -0.3943 -0.3172  0.0350
 4182SOL    HW124008   1.260   2.609  10.170  0.3169  0.5295 -1.3560
 4182SOL    HW224009   1.331   2.576  10.286 -0.6467  0.1612  0.6913
 4183SOL     OW24010   3.231   4.130   3.158  0.3845 -0.1750 -0.0866
 4183SOL    HW124011   3.197   4.074   3.228 -0.2875 -0.0488 -0.3118
 4183SOL    HW224012   3.256   4.212   3.200 -0.0787  0.3499 -0.8213
 4184SOL     OW24013   4.032   4.596   7.331 -0.1144 -0.4666  0.1638
 4184SOL    HW124014   4.017   4.628   7.420 -0.3179  0.0851 -0.0669
 4184SOL    HW224015   4.077   4.512   7.340  0.8777  0.1184  0.7366
 4185SOL     OW24016   1.526   4.714   3.029 -0.2265  0.4104 -0.4416
 4185SOL    HW124017   1.448   0.044   3.038 -0.3582 -0.0183  0.8715
 4185SOL    HW224018   1.499   4.623   3.017  1.4844 -0.2945  1.1260
 4186SOL     OW24019   2.257   2.141  11.089  0.1024  0.1903  0.1472
 4186SOL    HW124020   2.178   2.093  11.062  2.1275 -3.0856  0.0731
 4186SOL    HW224021   2.317   2.126  11.016  1.9337  1.8668  1.3029
 4187SOL     OW24022   4.667   2.861   4.253  0.3786 -0.2394 -0.6243
 4187SOL    HW124023   0.013   2.822   4.201  0.2233  1.0799 -1.8173
 4187SOL    HW224024   4.717   2.918   4.311  0.5123 -0.9335 -0.0477
 4188SOL     OW24025   2.366   0.832  12.658 -0.2506  0.2573 -0.0529
 4188SOL    HW124026   2.286   0.843  12.607 -0.8179 -1.9945  0.3735
 4188SOL    HW224027   2.427   0.818  12.585 -3.2979 -1.5229 -2.2730
 4189SOL     OW24028   3.237   3.442   5.373 -0.1684  0.3094 -0.2922
 4189SOL    HW124029   3.191   3.521   5.343  0.3253 -0.2304 -2.5281
 4189SOL    HW224030   3.159   3.387   5.378 -0.4509  0.5769 -1.5141
 4190SOL     OW24031   1.323   1.336   4.132  0.5737  0.1280 -0.0414
 4190SOL    HW124032   1.309   1.268   4.066  0.5014 -0.7442  0.8768
 4190SOL    HW224033   1.407   1.300   4.161 -0.1559 -0.2837  1.5057
 4191SOL     OW24034   1.515   0.085  15.287  0.8712  0.5081 -0.0987
 4191SOL    HW124035   1.515   0.160  15.228 -0.9369 -1.3321 -2.4666
 4191SOL    HW224036   1.509   0.008  15.230 -0.1622  0.2481  0.3555
 4192SOL     OW24037   2.534   3.594   3.659 -0.0014 -0.5547 -0.2999
 4192SOL    HW124038   2.562   3.517   3.610  3.0638 -0.6654  1.6210
 4192SOL    HW224039   2.612   3.607   3.712 -0.8035 -2.3378  1.3091
 4193SOL     OW24040   0.297   1.469  17.402 -0.1190  0.2891  0.4689
 4193SOL    HW124041   0.205   1.446  17.389 -0.0693  1.3824 -1.7586
 4193SOL    HW224042   0.307   1.472  17.497 -0.5488 -1.3057  0.5663
 4194SOL     OW24043   2.884   4.233   0.192 -0.6603 -0.2559  0.3103
 4194SOL    HW124044   2.812   4.274   0.145 -1.1002 -0.3904  0.8632
 4194SOL    HW224045   2.850   4.145   0.210 -1.7450 -0.1291 -1.0904
 4195SOL     OW24046   3.998   3.015   1.508  0.2586  0.3916 -0.2612
 4195SOL    HW124047   3.989   2.920   1.512 -1.7222  0.4673 -2.4511
 4195SOL    HW224048   3.963   3.033   1.420  2.6751  1.7812 -0.9313
 4196SOL     OW24049   3.502   1.161   7.322  0.2472  0.3378  0.1885
 4196SOL    HW124050   3.596   1.179   7.316  0.2712  0.5252  1.1600
 4196SOL    HW224051   3.507   1.157   7.417  1.1862 -1.3367  0.0579
 4197SOL     OW24052   1.445   3.127   9.235 -0.1227 -1.0134  0.0040
 4197SOL    HW124053   1.380   3.079   9.184 -0.0337 -2.0692  0.8679
 4197SOL    HW224054   1.515   3.145   9.173 -1.2222  0.2541 -0.8627
 4198SOL     OW24055   2.128   2.314  16.761 -0.1787 -0.4124  0.2070
 4198SOL    HW124056   2.125   2.308  16.856  4.0923  0.3542  0.4057
 4198SOL    HW224057   2.086   2.399  16.750  1.1806  0.0580 -1.4065
 4199SOL     OW24058   2.914   1.666   6.159  0.2651  0.3539 -0.3042
 4199SOL    HW124059   2.933   1.691   6.068 -0.2154  1.0430 -0.2135
 4199SOL    HW224060   2.829   1.710   6.161  1.0937  1.7657  3.2591
 4200SOL     OW24061   2.832   2.195   7.388 -0.8073 -0.3530  0.0273
 4200SOL    HW124062   2.920   2.178   7.419 -0.3521 -1.9890 -2.1722
 4200SOL    HW224063   2.804   2.271   7.439  1.8119  0.6844 -0.1283
 4201SOL     OW24064   2.659   2.004   4.332  0.0251  0.1477 -0.4421
 4201SOL    HW124065   2.740   1.952   4.337  0.4284  0.8970  0.6870
 4201SOL    HW224066   2.685   2.089   4.297 -3.3903  1.4528  0.2579
 4202SOL     OW24067   2.289   1.573   1.463  0.7707  0.1685  0.4135
 4202SOL    HW124068   2.265   1.578   1.555  2.0110 -0.6167  0.7867
 4202SOL    HW224069   2.314   1.665   1.452  1.2124 -0.4287 -3.7192
 4203SOL     OW24070   1.121   2.182   8.161  0.0714  0.2061 -0.4102
 4203SOL    HW124071   1.182   2.109   8.169 -1.5723 -1.0138  1.1964
 4203SOL    HW224072   1.102   2.204   8.253  2.6667  0.3963  0.0749
 4204SOL     OW24073   3.015   0.315   6.466  0.3296 -1.1438 -0.1350
 4204SOL    HW124074   3.031   0.320   6.560 -0.0059 -2.2930 -0.0220
 4204SOL    HW224075   3.082   0.368   6.423  1.0954 -1.5390  0.5769
 4205SOL     OW24076   1.627   3.877   5.123 -0.2207 -0.2869  0.3443
 4205SOL    HW124077   1.721   3.868   5.107 -0.9388 -0.9734 -3.5663
 4205SOL    HW224078   1.616   3.972   5.123  1.2857 -0.0972 -0.8166
 4206SOL     OW24079   0.643   1.304   9.138 -0.0419  0.0135  0.3141
 4206SOL    HW124080   0.604   1.283   9.053  1.2140  2.8437 -0.9552
 4206SOL    HW224081   0.605   1.238   9.196 -0.9890  1.1438  0.9949
 4207SOL     OW24082   2.160   2.181   9.909 -0.1129  0.1718  0.5391
 4207SOL    HW124083   2.226   2.117   9.883  2.2936  2.2437  1.4572
 4207SOL    HW224084   2.208   2.230   9.977  0.5304 -0.7254  0.7323
 4208SOL     OW24085   1.584   0.687   7.738  0.1795 -0.1869  0.3903
 4208SOL    HW124086   1.531   0.662   7.662  1.5492 -2.0891  0.0740
 4208SOL    HW224087   1.515   0.729   7.790  0.5130  2.2056 -1.0989
 4209SOL     OW24088   3.560   4.479  14.233  0.2203 -0.5430 -0.2985
 4209SOL    HW124089   3.541   4.561  14.186  1.2702  0.3979  0.9059
 4209SOL    HW224090   3.602   4.521  14.308  0.2072 -2.1317  0.5743
 4210SOL     OW24091   3.133   3.856   8.823  0.1723 -0.4217 -0.8160
 4210SOL    HW124092   3.094   3.808   8.896  1.5519  0.0032  0.1924
 4210SOL    HW224093   3.084   3.937   8.837 -1.4808 -1.6852  0.7463
 4211SOL     OW24094   0.907   4.282   2.474  0.1384  0.6333 -0.3886
 4211SOL    HW124095   0.924   4.277   2.379 -0.1410 -0.5370 -0.3717
 4211SOL    HW224096   0.982   4.234   2.508 -0.1654  0.4203 -0.0283
 4212SOL     OW24097   4.294   0.301   8.172  0.0768 -0.0668 -0.4498
 4212SOL    HW124098   4.217   0.255   8.205  0.1855 -0.7835 -1.1937
 4212SOL    HW224099   4.349   0.309   8.250  1.6512 -0.6379 -1.5113
 4213SOL     OW24100   4.357   0.508   3.586 -0.8779  0.0213  0.1296
 4213SOL    HW124101   4.307   0.551   3.516 -0.6415  1.6979  0.9969
 4213SOL    HW224102   4.404   0.451   3.525  0.1361 -0.7111  1.6230
 4214SOL     OW24103   4.283   1.681   6.173 -0.2032 -0.1098  0.4694
 4214SOL    HW124104   4.258   1.738   6.245 -1.9087 -0.0647 -0.1544
 4214SOL    HW224105   4.313   1.605   6.223 -2.0991  0.2141  2.0529
 4215SOL     OW24106   2.381   2.559   1.511 -0.2876 -0.6062 -0.3322
 4215SOL    HW124107   2.435   2.532   1.586  1.5177  1.2264 -0.9406
 4215SOL    HW224108   2.318   2.625   1.541  0.4984  0.5288 -1.1512
 4216SOL     OW24109   1.159   0.565   7.738  0.4444  0.0561  0.1785
 4216SOL    HW124110   1.167   0.585   7.832 -2.0469  0.7088  0.2402
 4216SOL    HW224111   1.065   0.547   7.734  0.4037  0.6381 -1.3766
 4217SOL     OW24112   0.778   2.315   4.976 -0.4643  0.0634 -0.2334
 4217SOL    HW124113   0.763   2.231   4.934 -0.7147  0.7435 -1.5008
 4217SOL    HW224114   0.812   2.370   4.906 -0.7964 -0.4107 -0.7581
 4218SOL     OW24115   1.641   0.655   7.167 -0.3473 -0.3269  0.2501
 4218SOL    HW124116   1.732   0.674   7.190 -0.8508 -1.0218  2.8291
 4218SOL    HW224117   1.654   0.649   7.072  1.2850  1.2388  0.3726
 4219SOL     OW24118   0.443   4.606   5.237  0.3912  0.3334 -0.4435
 4219SOL    HW124119   0.407   4.694   5.227 -2.1602 -0.5110  1.5292
 4219SOL    HW224120   0.410   4.576   5.321 -1.4963 -0.2054 -1.3670
 4220SOL     OW24121   1.527   0.373  16.290 -0.2942  0.3084  0.3039
 4220SOL    HW124122   1.613   0.330  16.286 -1.2929 -1.9702  3.4443
 4220SOL    HW224123   1.560   0.462  16.274  0.9611 -0.0809  0.7685
 4221SOL     OW24124   0.903   2.101  12.981 -0.0073 -0.0614 -0.3865
 4221SOL    HW124125   0.905   2.035  12.911 -0.5923 -2.3327  1.7372
 4221SOL    HW224126   0.912   2.041  13.055 -3.2719  0.4553  0.4203
 4222SOL     OW24127   2.355   1.061   3.361 -0.0699  0.4768  0.1164
 4222SOL    HW124128   2.270   1.104   3.368 -0.3024 -0.2749  2.0648
 4222SOL    HW224129   2.337   0.969   3.339 -0.0130  0.1633  1.3474
 4223SOL     OW24130   0.814   1.402   7.097  0.2273  0.2984 -0.1118
 4223SOL    HW124131   0.878   1.334   7.116  0.5755  0.9923  1.1689
 4223SOL    HW224132   0.753   1.388   7.169 -0.1728 -1.2205 -0.7554
 4224SOL     OW24133   3.838   2.576   2.767 -0.0040 -0.3041  0.1919
 4224SOL    HW124134   3.758   2.524   2.762 -0.2221 -0.2265  2.6291
 4224SOL    HW224135   3.797   2.663   2.770  2.5217  0.9493 -1.5025
 4225SOL     OW24136   3.174   3.252  11.058  0.3921  0.5634 -0.4113
 4225SOL    HW124137   3.159   3.187  11.127  0.4893  1.0062  0.0272
 4225SOL    HW224138   3.149   3.205  10.978  1.3621  1.3592 -1.1917
 4226SOL     OW24139   3.007   4.359  17.497 -0.7346 -0.3175  0.1800
 4226SOL    HW124140   3.063   4.422  17.543  0.2460  0.3348 -1.8660
 4226SOL    HW224141   3.055   4.291  17.450 -0.4462  0.6343 -0.9318
 4227SOL     OW24142   3.670   1.214  17.302  0.1546  0.3857  0.2319
 4227SOL    HW124143   3.684   1.258  17.385  1.0763 -0.8850  0.7378
 4227SOL    HW224144   3.635   1.133  17.338  2.7005 -0.6977  0.2628
 4228SOL     OW24145   0.050   0.642  11.949  0.0290  0.3884 -0.0320
 4228SOL    HW124146   0.057   0.618  11.856 -1.7473  0.4504 -0.1721
 4228SOL    HW224147   0.102   0.577  11.995  0.8690  2.2685  1.6958
 4229SOL     OW24148   0.193   0.091   3.430  0.2168 -0.4141 -0.3189
 4229SOL    HW124149   0.232   0.156   3.372  0.4708 -0.1779  0.1188
 4229SOL    HW224150   0.239   0.013   3.397  1.0955 -0.0745  0.0982
 4230SOL     OW24151   2.031   0.067   4.346  0.5969 -0.0643  0.3759
 4230SOL    HW124152   2.110   0.026   4.313 -0.9811 -2.6368 -0.2339
 4230SOL    HW224153   2.056   0.159   4.352 -0.3923  0.1220  1.8485
 4231SOL     OW24154   1.169   0.410   3.103 -0.3123  0.4531  0.0538
 4231SOL    HW124155   1.120   0.430   3.023  1.4848 -1.1893 -1.4540
 4231SOL    HW224156   1.100   0.402   3.169  0.0759 -0.1184  0.3857
 4232SOL     OW24157   3.638   3.304   3.684  0.0476  0.8585 -0.2933
 4232SOL    HW124158   3.711   3.247   3.709 -1.0309 -0.5581 -0.3920
 4232SOL    HW224159   3.669   3.373   3.626  0.1049 -0.1850 -1.5144
 4233SOL     OW24160   3.549   0.539   9.422  0.0573  0.6398 -0.6149
 4233SOL    HW124161   3.503   0.522   9.340 -0.8616  1.7300 -0.3297
 4233SOL    HW224162   3.509   0.485   9.489 -2.9553 -0.3670 -3.2301
 4234SOL     OW24163   4.197   4.395  11.842 -0.4046  0.1920  0.7874
 4234SOL    HW124164   4.139   4.451  11.791  0.4552 -0.4640 -0.9241
 4234SOL    HW224165   4.254   4.372  11.768 -0.0427  0.5669  0.9499
 4235SOL     OW24166   4.717   0.714   8.026  0.6289  0.6446  0.2871
 4235SOL    HW124167   4.712   0.644   8.090  1.1861  0.4950  0.1640
 4235SOL    HW224168   0.003   0.789   8.084  2.9898 -1.3849  2.5073
 4236SOL     OW24169   1.930   0.474   8.973 -0.3381 -0.1081 -0.0690
 4236SOL    HW124170   1.861   0.518   9.024  0.7252 -0.5145  1.7155
 4236SOL    HW224171   1.894   0.498   8.888 -0.0960 -3.5163 -1.1253
 4237SOL     OW24172   1.014   4.352  13.589 -1.0633  0.5583 -0.2294
 4237SOL    HW124173   1.001   4.446  13.575  0.0439  0.6576 -0.6749
 4237SOL    HW224174   0.960   4.323  13.662  0.1602  0.0435  0.4841
 4238SOL     OW24175   1.754   2.738   9.772 -0.2555  0.2089  0.8761
 4238SOL    HW124176   1.792   2.815   9.813 -1.7127  1.1589  0.4392
 4238SOL    HW224177   1.822   2.719   9.707  0.2055  1.0354  1.1193
 4239SOL     OW24178   2.412   0.585   2.539  0.3374  0.2437  0.8013
 4239SOL    HW124179   2.336   0.528   2.546  1.0752 -1.0154 -1.1946
 4239SOL    HW224180   2.441   0.593   2.630  0.1171 -0.9760  0.9781
 4240SOL     OW24181   1.807   3.843  17.392 -0.1692 -0.2943  0.0713
 4240SOL    HW124182   1.741   3.780  17.418 -0.3327  0.2547  1.0057
 4240SOL    HW224183   1.878   3.788  17.359  0.2361 -0.0024  0.4533
 4241SOL     OW24184   0.065   4.655   1.862  0.3200  1.1839  0.6105
 4241SOL    HW124185   0.147   4.673   1.817  0.1659  0.8505  0.1967
 4241SOL    HW224186   4.715   4.681   1.807  0.2337 -0.4627 -0.0562
 4242SOL     OW24187   0.976   4.712   9.938  0.0218 -0.0602  0.9094
 4242SOL    HW124188   0.982   4.642  10.003  0.1627 -0.6465  0.2655
 4242SOL    HW224189   1.052   0.042   9.961 -0.1479  0.4469  0.2706
 4243SOL     OW24190   4.566   4.337   4.494 -0.0498  0.0078  0.8322
 4243SOL    HW124191   4.575   4.426   4.527  3.0944 -0.1101  0.2699
 4243SOL    HW224192   4.625   4.290   4.552  1.5602  1.7101  0.5813
 4244SOL     OW24193   0.878   3.705  15.436  0.0949 -0.2993 -0.7357
 4244SOL    HW124194   0.784   3.707  15.457  0.3312  0.1004  0.2864
 4244SOL    HW224195   0.896   3.787  15.483 -1.8509 -1.0960  1.4236
 4245SOL     OW24196   3.703   3.068   5.999 -0.0284  0.2108  0.1268
 4245SOL    HW124197   3.785   3.113   5.977 -1.6293  2.0729 -2.0362
 4245SOL    HW224198   3.646   3.143   6.017  0.5490  0.3091  1.6059
 4246SOL     OW24199   2.103   0.066  13.537 -0.1308  0.5728  0.6313
 4246SOL    HW124200   2.132   0.008  13.467 -2.5356 -0.0991  0.2019
 4246SOL    HW224201   2.008   0.069  13.523 -0.0687 -0.0704  0.1115
 4247SOL     OW24202   0.892   1.777  12.176 -0.0058  1.0822  0.2656
 4247SOL    HW124203   0.797   1.787  12.164 -0.2847 -0.8176  0.8694
 4247SOL    HW224204   0.896   1.693  12.221 -0.8363  1.0479  0.2852
 4248SOL     OW24205   1.526   1.785  12.578  0.1718  0.2061  0.3760
 4248SOL    HW124206   1.440   1.772  12.618 -0.6922  0.8932 -1.2340
 4248SOL    HW224207   1.553   1.864  12.624 -1.4302  1.4623 -0.8327
 4249SOL     OW24208   0.387   3.383   4.614 -0.1718  0.2747  0.3439
 4249SOL    HW124209   0.480   3.361   4.610 -0.9842 -2.7075 -1.7617
 4249SOL    HW224210   0.356   3.361   4.702 -1.2939  0.6004  0.0259
 4250SOL     OW24211   2.499   2.033   5.205  0.0851 -0.0280 -0.5607
 4250SOL    HW124212   2.504   1.985   5.287  5.7425  3.2670  0.9902
 4250SOL    HW224213   2.404   2.026   5.195 -0.1239 -0.5613  1.7360
 4251SOL     OW24214   1.378   4.242  17.270  0.5074  0.1829  0.3046
 4251SOL    HW124215   1.330   4.316  17.231 -0.8062  0.4603  2.4527
 4251SOL    HW224216   1.457   4.249  17.216 -0.3715  0.5126 -0.9454
 4252SOL     OW24217   3.761   1.087   5.721 -0.0815  0.1775 -0.1766
 4252SOL    HW124218   3.793   1.151   5.658 -1.2724 -0.7422 -1.7255
 4252SOL    HW224219   3.812   1.115   5.797 -0.2582  0.0143  0.0017
 4253SOL     OW24220   2.707   2.572   3.845  0.3538 -0.2074  0.7059
 4253SOL    HW124221   2.750   2.655   3.826  0.2859 -0.3795 -0.2453
 4253SOL    HW224222   2.617   2.604   3.853  0.9277  1.3160  1.0852
 4254SOL     OW24223   1.663   3.412  17.497 -0.6221  0.5747  0.3720
 4254SOL    HW124224   1.638   3.381  17.409 -0.8222  0.6333  0.4095
 4254SOL    HW224225   1.664   3.507  17.491 -0.8988  0.5869  0.5331
 4255SOL     OW24226   3.128   3.401   1.373  0.1891  0.3912 -0.3051
 4255SOL    HW124227   3.089   3.405   1.461  0.3260 -1.0644 -0.1809
 4255SOL    HW224228   3.047   3.379   1.326 -1.0988  1.4029  1.4330
 4256SOL     OW24229   2.369   4.411   6.231 -0.4360  0.2490 -0.3920
 4256SOL    HW124230   2.279   4.400   6.262 -0.3921 -1.6887 -0.9672
 4256SOL    HW224231   2.403   4.324   6.247 -1.5955 -0.1339 -0.0083
 4257SOL     OW24232   1.582   4.571   6.497 -0.0726  0.1639  0.1485
 4257SOL    HW124233   1.595   4.564   6.592  0.1180  0.3379  0.1340
 4257SOL    HW224234   1.671   4.605   6.486  0.5960 -1.8503 -0.6943
 4258SOL     OW24235   3.282   4.639  17.378 -0.4933  0.0996 -0.1921
 4258SOL    HW124236   3.353   4.668  17.434 -0.9436  1.9024 -0.5650
 4258SOL    HW224237   3.223   4.600  17.443 -2.1895  2.8010 -0.1156
 4259SOL     OW24238   0.098   0.518   8.632 -0.1408  0.2211 -0.4417
 4259SOL    HW124239   0.044   0.518   8.552  2.3274 -0.6772 -2.1015
 4259SOL    HW224240   0.066   0.440   8.676  1.4948 -0.2159 -0.0645
 4260SOL     OW24241   3.625   3.877   8.277  0.8720  0.3839  0.1882
 4260SOL    HW124242   3.660   3.861   8.365  2.1307  1.5559 -0.1061
 4260SOL    HW224243   3.536   3.904   8.301  0.3190 -0.4339 -0.9125
 4261SOL     OW24244   4.578   4.245   3.303  0.8031 -0.0271 -0.3236
 4261SOL    HW124245   4.662   4.275   3.268 -0.4511  0.9938 -2.4956
 4261SOL    HW224246   4.584   4.284   3.390  0.9342  1.8475 -1.1737
 4262SOL     OW24247   3.707   4.677   4.577  0.2266  0.2853 -0.6286
 4262SOL    HW124248   3.629   4.635   4.540  0.2576 -0.9265  0.6451
 4262SOL    HW224249   3.677   0.043   4.590  0.6548  0.4670 -0.9147
 4263SOL     OW24250   3.466   2.477   1.352  0.2967  0.7466  0.5051
 4263SOL    HW124251   3.492   2.518   1.434  1.6029  0.0661  0.4203
 4263SOL    HW224252   3.467   2.384   1.374  0.0269 -0.0737 -3.0301
 4264SOL     OW24253   1.251   4.061   4.376 -0.1963 -0.0434 -0.3450
 4264SOL    HW124254   1.286   3.999   4.440 -2.1962  1.9780  2.7628
 4264SOL    HW224255   1.166   4.020   4.364 -1.0002  0.6773  2.8090
 4265SOL     OW24256   0.280   3.633   7.100 -0.9321 -0.0312 -0.4157
 4265SOL    HW124257   0.368   3.616   7.133 -1.2121 -1.1604 -0.2571
 4265SOL    HW224258   0.240   3.551   7.127  0.9157 -1.1820 -1.1597
 4266SOL     OW24259   3.204   1.637  11.520  0.1121  0.3070 -0.1724
 4266SOL    HW124260   3.183   1.609  11.430 -0.4826  0.2873 -0.0315
 4266SOL    HW224261   3.119   1.614  11.557  0.5811  2.1603  2.0615
 4267SOL     OW24262   0.871   0.861   5.937 -0.2245 -0.1278  0.0928
 4267SOL    HW124263   0.829   0.946   5.949  0.2166  0.1059 -0.0275
 4267SOL    HW224264   0.824   0.803   5.997  0.4296 -0.7127  0.0420
 4268SOL     OW24265   1.716   3.344   9.269  0.1574  0.1705  0.7910
 4268SOL    HW124266   1.762   3.356   9.352 -1.8607  1.9018  1.6585
 4268SOL    HW224267   1.634   3.392   9.283 -1.2091 -1.5822 -1.1768
 4269SOL     OW24268   1.460   1.845   2.112 -0.7805  0.3051 -0.3060
 4269SOL    HW124269   1.430   1.827   2.022  1.6370 -2.3390 -0.5900
 4269SOL    HW224270   1.388   1.811   2.166 -0.7127 -1.0128 -1.0445
 4270SOL     OW24271   1.938   4.603   9.284 -0.1637 -0.3911 -0.2752
 4270SOL    HW124272   1.931   4.632   9.375  1.9802  2.9584 -1.1858
 4270SOL    HW224273   2.032   4.601   9.266 -0.3790 -1.4915 -1.2705
 4271SOL     OW24274   4.460   1.453   5.414 -0.1581 -0.3013  0.4484
 4271SOL    HW124275   4.547   1.492   5.430 -0.0689  0.2242 -1.2841
 4271SOL    HW224276   4.425   1.521   5.356  0.5731  0.1209  0.4924
 4272SOL     OW24277   2.444   1.843   2.983  0.3231  0.5035 -0.7031
 4272SOL    HW124278   2.499   1.775   3.020  0.0358  1.6531  1.8428
 4272SOL    HW224279   2.508   1.915   2.986  0.3589  0.3640  1.4940
 4273SOL     OW24280   2.078   3.647  15.484  0.0581  0.2641  0.1265
 4273SOL    HW124281   2.138   3.714  15.516 -2.6440  2.8755 -0.3125
 4273SOL    HW224282   2.052   3.698  15.407  0.6431  0.2957 -0.0492
 4274SOL     OW24283   0.912   0.786   9.709 -0.2002  0.1681 -0.5015
 4274SOL    HW124284   0.818   0.781   9.693 -0.2286 -2.3950  0.5408
 4274SOL    HW224285   0.914   0.867   9.760 -2.4578 -0.9719  1.4193
 4275SOL     OW24286   1.435   4.060  12.995 -0.0951 -0.2195 -0.5070
 4275SOL    HW124287   1.511   4.055  13.053 -1.3878 -1.4815  1.0668
 4275SOL    HW224288   1.423   3.966  12.982  0.3311 -0.3598  0.1179
 4276SOL     OW24289   0.803   1.700  15.578  0.3743  0.5150 -0.2170
 4276SOL    HW124290   0.808   1.786  15.618 -0.0476 -0.7135  2.4850
 4276SOL    HW224291   0.719   1.695  15.532  0.7914  0.4799 -0.9940
 4277SOL     OW24292   2.307   0.388   1.444 -0.4075  0.4968  0.1499
 4277SOL    HW124293   2.377   0.436   1.400  1.3117 -0.7946  1.4614
 4277SOL    HW224294   2.366   0.329   1.491 -1.1420  0.1688  0.6492
 4278SOL     OW24295   1.192   1.483  11.702 -0.2036 -0.6588 -0.2039
 4278SOL    HW124296   1.172   1.577  11.697  1.3031 -0.2433  1.2723
 4278SOL    HW224297   1.239   1.479  11.618  1.0897 -0.4079  0.4973
 4279SOL     OW24298   3.526   1.853   6.697 -0.2288  0.2540  0.0516
 4279SOL    HW124299   3.566   1.783   6.748 -1.0899  0.9372  1.6869
 4279SOL    HW224300   3.602   1.887   6.650 -0.5355 -0.2138 -0.7739
 4280SOL     OW24301   0.335   3.042   5.399 -0.0368  0.7527 -0.7611
 4280SOL    HW124302   0.267   3.035   5.332 -0.4580 -0.5715 -0.2069
 4280SOL    HW224303   0.408   3.095   5.367  0.9557 -0.1547 -0.0013
 4281SOL     OW24304   0.658   3.978   6.481 -0.2672  0.5323  0.1229
 4281SOL    HW124305   0.748   4.009   6.474  0.9914 -3.4263 -1.3938
 4281SOL    HW224306   0.622   4.018   6.402  2.1187  1.4934 -0.4872
 4282SOL     OW24307   3.608   0.159  15.440 -0.0321 -0.2888  0.2641
 4282SOL    HW124308   3.559   0.135  15.518  0.6649  0.8877  1.0663
 4282SOL    HW224309   3.609   0.075  15.393 -1.2137  1.0800 -2.2325
 4283SOL     OW24310   2.803   3.800   3.146  0.5124 -0.1426 -0.2883
 4283SOL    HW124311   2.740   3.732   3.124  1.3458 -0.8283 -0.5537
 4283SOL    HW224312   2.755   3.882   3.136 -0.7997 -0.6535  1.7911
 4284SOL     OW24313   0.294   3.279   2.247 -0.2527 -0.5289  0.8122
 4284SOL    HW124314   0.214   3.266   2.195  0.5077  1.7978 -0.9364
 4284SOL    HW224315   0.252   3.263   2.332 -0.1736 -1.5915  0.6519
 4285SOL     OW24316   1.467   2.977   9.453  0.1173 -0.3874 -0.3808
 4285SOL    HW124317   1.545   3.011   9.497 -0.7316 -0.6379  1.3446
 4285SOL    HW224318   1.459   3.039   9.381 -3.1112 -2.7756 -2.0838
 4286SOL     OW24319   2.697   2.563   6.331 -0.1374  0.9029  0.6099
 4286SOL    HW124320   2.634   2.529   6.394 -0.3938  3.1962  1.6122
 4286SOL    HW224321   2.647   2.544   6.252 -0.8774  0.5767  1.1552
 4287SOL     OW24322   3.553   1.155   1.260  0.2785  0.4543 -0.4643
 4287SOL    HW124323   3.564   1.225   1.196 -3.7411  1.2137 -0.3551
 4287SOL    HW224324   3.638   1.149   1.304  0.7816 -0.1826 -1.5315
 4288SOL     OW24325   2.646   2.183   1.763 -0.4329  0.0592  0.3156
 4288SOL    HW124326   2.667   2.166   1.855  0.9430 -1.4573 -0.2788
 4288SOL    HW224327   2.653   2.097   1.721 -0.9793 -0.6687  1.7141
 4289SOL     OW24328   2.680   2.945   3.550 -0.2110  0.1379  0.4404
 4289SOL    HW124329   2.752   2.982   3.500 -0.2684  0.9936  0.9860
 4289SOL    HW224330   2.635   2.883   3.493 -1.4412 -0.0100  1.5682
 4290SOL     OW24331   0.576   0.855   8.574  0.4472 -0.2623  0.4765
 4290SOL    HW124332   0.530   0.789   8.627  0.9957 -1.4219 -0.4758
 4290SOL    HW224333   0.661   0.853   8.618  1.6727  1.2146 -1.8257
 4291SOL     OW24334   2.860   3.744  12.735 -0.0193 -0.7551  0.4485
 4291SOL    HW124335   2.822   3.680  12.676 -2.9222 -0.0938  1.6087
 4291SOL    HW224336   2.827   3.706  12.816 -0.2857  1.3655  1.3517
 4292SOL     OW24337   4.411   1.822   7.770  0.2554 -0.0426 -0.1691
 4292SOL    HW124338   4.361   1.903   7.762 -2.7415 -1.8009  0.8690
 4292SOL    HW224339   4.422   1.796   7.679 -1.1750  1.9154 -0.8958
 4293SOL     OW24340   3.919   3.127  10.510 -0.5216  0.0685  0.0672
 4293SOL    HW124341   3.937   3.119  10.604  1.7434 -0.0367 -0.3776
 4293SOL    HW224342   3.922   3.040  10.470  1.4120 -1.0462  2.6709
 4294SOL     OW24343   1.484   1.325  13.199 -0.6588 -0.5802 -0.0502
 4294SOL    HW124344   1.478   1.230  13.214  0.4640 -0.9613 -1.9495
 4294SOL    HW224345   1.391   1.345  13.199 -0.7061 -0.7894 -0.1716
 4295SOL     OW24346   1.748   4.091  17.345 -0.1902  0.1871  0.1148
 4295SOL    HW124347   1.770   4.001  17.369 -2.6098 -0.7962 -1.3643
 4295SOL    HW224348   1.662   4.109  17.383  0.3978 -0.8223  1.9394
 4296SOL     OW24349   2.141   0.013  16.323 -0.0764 -0.2098  0.0524
 4296SOL    HW124350   2.056   4.718  16.363 -1.5934  1.6816 -2.2882
 4296SOL    HW224351   2.151   4.664  16.262 -1.3495 -0.2423 -0.1152
 4297SOL     OW24352   1.663   0.359  14.994 -0.0815 -0.3409 -0.1046
 4297SOL    HW124353   1.681   0.453  14.998  1.2831 -0.6156 -0.0396
 4297SOL    HW224354   1.583   0.356  15.046 -0.3726  1.7618 -0.4360
 4298SOL     OW24355   3.888   1.344   0.602  0.5968 -0.5573  0.2823
 4298SOL    HW124356   3.945   1.352   0.525 -1.2052 -0.8658 -1.0796
 4298SOL    HW224357   3.895   1.436   0.626 -1.8558 -0.7806  1.7652
 4299SOL     OW24358   4.522   0.956   0.832 -0.5926 -0.1725 -0.3778
 4299SOL    HW124359   4.572   0.892   0.782 -1.0438 -0.6062 -0.2797
 4299SOL    HW224360   4.570   0.974   0.913 -2.3099  0.8680  0.3997
 4300SOL     OW24361   3.355   3.635   2.442  0.3804 -0.2016 -0.0685
 4300SOL    HW124362   3.406   3.559   2.470  0.6886  0.5453  1.4083
 4300SOL    HW224363   3.355   3.626   2.347 -1.9532 -0.2200 -0.0681
 4301SOL     OW24364   3.986   4.078  14.966  1.1798 -0.1794 -0.3570
 4301SOL    HW124365   3.986   4.081  15.061 -1.3916  0.3089 -0.3620
 4301SOL    HW224366   3.898   4.113  14.950  1.0680 -0.4225 -0.2763
 4302SOL     OW24367   1.634   2.125   1.726  0.1560 -0.4148 -0.0203
 4302SOL    HW124368   1.712   2.178   1.745 -0.3015  0.2500  0.0146
 4302SOL    HW224369   1.645   2.120   1.632 -0.2941  0.7677 -0.1456
 4303SOL     OW24370   1.545   1.090  10.376  0.9202  1.0233  0.7316
 4303SOL    HW124371   1.598   1.030  10.428  1.0738  1.7711  1.4248
 4303SOL    HW224372   1.462   1.087  10.424 -0.1169 -0.8836 -1.1696
 4304SOL     OW24373   0.706   3.638   6.445 -0.3351  0.2343  0.1863
 4304SOL    HW124374   0.688   3.724   6.482  2.9790  1.3761 -0.8429
 4304SOL    HW224375   0.722   3.593   6.528 -1.6399  1.6350  1.1865
 4305SOL     OW24376   2.422   4.055   6.708 -0.1021 -0.3860 -0.1227
 4305SOL    HW124377   2.433   3.972   6.661 -0.7051 -1.5066  1.7525
 4305SOL    HW224378   2.352   4.087   6.650  0.3650  1.1881  0.1709
 4306SOL     OW24379   3.432   0.170   5.783 -0.0490 -0.4162 -0.4026
 4306SOL    HW124380   3.500   0.189   5.719 -0.2846  2.7975  0.2606
 4306SOL    HW224381   3.488   0.113   5.836  2.0145  2.8578  0.9374
 4307SOL     OW24382   0.242   3.338   2.525 -0.3502 -0.1826 -0.1630
 4307SOL    HW124383   0.309   3.272   2.539  0.9418  1.0274 -0.7218
 4307SOL    HW224384   0.274   3.423   2.553 -0.5541 -0.2023  0.1304
 4308SOL     OW24385   4.200   2.375   3.160  0.1162 -0.4538 -0.2888
 4308SOL    HW124386   4.139   2.393   3.088 -0.6717 -2.3594 -0.0935
 4308SOL    HW224387   4.277   2.423   3.127  0.6239 -1.5525 -0.7058
 4309SOL     OW24388   4.626   3.483   8.117  0.0767  0.4881 -0.2841
 4309SOL    HW124389   4.610   3.563   8.166 -0.5155 -0.3182  0.8487
 4309SOL    HW224390   4.695   3.439   8.167 -1.8899 -1.1576  1.0155
 4310SOL     OW24391   0.460   4.094   4.446  0.2007  0.5500  0.1647
 4310SOL    HW124392   0.393   4.098   4.378 -0.2873  0.1237  0.6202
 4310SOL    HW224393   0.539   4.114   4.396 -0.4257 -0.1301 -1.0901
 4311SOL     OW24394   0.066   0.725   2.708  0.0188 -0.4508 -0.8969
 4311SOL    HW124395   0.020   0.781   2.646 -1.1762 -0.0383  0.3657
 4311SOL    HW224396   0.137   0.687   2.657  0.9407 -1.3790  1.0631
 4312SOL     OW24397   4.562   0.066   6.091 -0.1284 -0.6931 -0.0480
 4312SOL    HW124398   4.575   0.098   6.180  2.6003 -0.7682 -0.4391
 4312SOL    HW224399   4.634   0.003   6.089  1.1518  0.8061 -0.7329
 4313SOL     OW24400   0.381   1.945  14.528 -0.0701 -0.4215 -0.5071
 4313SOL    HW124401   0.397   2.023  14.582 -1.2514  0.8312 -1.9877
 4313SOL    HW224402   0.339   1.980  14.450 -1.1215 -0.8639 -0.1272
 4314SOL     OW24403   1.743   3.598   7.301 -0.3230 -0.3367 -0.1751
 4314SOL    HW124404   1.704   3.685   7.309  1.2615  0.1002  2.9178
 4314SOL    HW224405   1.693   3.551   7.368 -0.2261 -1.5958 -0.9865
 4315SOL     OW24406   2.378   0.976   6.386 -0.1638 -0.1642  0.2967
 4315SOL    HW124407   2.320   1.013   6.453 -1.1887 -2.6387  0.7928
 4315SOL    HW224408   2.435   1.050   6.364  1.3343 -1.2454  0.5597
 4316SOL     OW24409   2.403   2.672   6.667 -0.2042  0.0508  0.0550
 4316SOL    HW124410   2.472   2.640   6.608  1.6284  2.1241  1.0603
 4316SOL    HW224411   2.350   2.594   6.683  1.1603 -0.9338 -0.1490
 4317SOL     OW24412   3.859   2.420  13.494 -0.0335  0.1138 -0.3353
 4317SOL    HW124413   3.877   2.491  13.432 -0.7443 -0.1832 -0.8850
 4317SOL    HW224414   3.839   2.344  13.439  3.6031 -1.0497 -0.0054
 4318SOL     OW24415   3.271   1.385   0.073  0.1621  0.1830 -0.0164
 4318SOL    HW124416   3.292   1.424   0.158  1.9775 -1.3233  0.2334
 4318SOL    HW224417   3.347   1.327   0.069 -0.4333 -0.4490 -1.8765
 4319SOL     OW24418   2.160   0.316   8.985  0.7608  0.7032  0.3703
 4319SOL    HW124419   2.078   0.356   8.957  0.8115  1.1790  0.9096
 4319SOL    HW224420   2.211   0.393   9.010  1.1822  0.4902  0.1833
 4320SOL     OW24421   3.519   4.599  11.907  0.4267  0.1531 -0.2840
 4320SOL    HW124422   3.496   4.509  11.884  0.7878 -0.0876  0.3006
 4320SOL    HW224423   3.604   4.593  11.862  0.1300 -0.4607 -0.7655
 4321SOL     OW24424   3.558   1.710   0.084 -0.8504  0.1035  0.1544
 4321SOL    HW124425   3.537   1.803   0.091  1.6916  0.4822  2.5372
 4321SOL    HW224426   3.517   1.699  17.695 -0.2006  0.1383 -0.1582
 4322SOL     OW24427   2.886   0.763   4.815  0.1539 -0.9151 -0.2713
 4322SOL    HW124428   2.878   0.848   4.771  0.0615  0.6134  2.6925
 4322SOL    HW224429   2.797   0.730   4.819  1.0911 -3.3906  0.1603
 4323SOL     OW24430   3.109   3.780   8.561 -0.0195 -0.3245  0.0047
 4323SOL    HW124431   3.076   3.801   8.648 -0.2281  1.0076 -0.4043
 4323SOL    HW224432   3.093   3.854   8.502 -1.6974  0.8083  1.9221
 4324SOL     OW24433   2.438   2.433   3.700 -0.1628 -0.3741 -0.3765
 4324SOL    HW124434   2.468   2.501   3.762  1.0766  0.2967 -1.7025
 4324SOL    HW224435   2.503   2.454   3.633  1.2211  2.3852  1.7910
 4325SOL     OW24436   4.480   2.510   6.803 -0.1548 -0.0380  0.0977
 4325SOL    HW124437   4.401   2.526   6.855  0.2200 -0.9455  0.9510
 4325SOL    HW224438   4.443   2.536   6.719 -0.6167 -1.2605 -0.0902
 4326SOL     OW24439   3.440   1.143   3.117 -0.4229  0.4453 -0.5210
 4326SOL    HW124440   3.525   1.187   3.123  0.0574 -0.4363 -0.9080
 4326SOL    HW224441   3.407   1.172   3.032  0.3988  1.2481 -0.5703
 4327SOL     OW24442   2.963   1.548   0.739 -0.0925 -0.3366  0.0370
 4327SOL    HW124443   2.967   1.556   0.834  0.0931  0.9022 -0.0744
 4327SOL    HW224444   2.931   1.635   0.712  0.3516  0.1268  1.0081
 4328SOL     OW24445   2.393   4.716  16.369 -0.3241 -0.2005 -0.4676
 4328SOL    HW124446   2.299   0.006  16.366 -0.4758 -2.0142 -4.3242
 4328SOL    HW224447   2.421   4.722  16.277 -0.3324 -1.4867 -0.5622
 4329SOL     OW24448   4.602   3.645   1.867  0.2625  0.1849 -0.4965
 4329SOL    HW124449   4.522   3.624   1.915 -0.3996 -1.7553 -2.4484
 4329SOL    HW224450   4.639   3.724   1.906  1.2746 -1.3401  1.6173
 4330SOL     OW24451   1.286   0.726   2.471 -0.0780 -0.5305  0.4652
 4330SOL    HW124452   1.325   0.809   2.446 -0.2279 -0.3071  0.9783
 4330SOL    HW224453   1.331   0.666   2.411 -0.7652 -0.1924 -0.3712
 4331SOL     OW24454   2.344   0.412   2.033 -0.8450 -0.2730 -0.3613
 4331SOL    HW124455   2.364   0.506   2.023  1.8671 -0.7058  1.0503
 4331SOL    HW224456   2.372   0.373   1.950  1.6960 -0.2812  0.4845
 4332SOL     OW24457   4.480   1.360   0.635  0.2169  0.0527  0.5687
 4332SOL    HW124458   4.498   1.357   0.729  3.8802  0.1853 -0.1248
 4332SOL    HW224459   4.548   1.414   0.595 -0.2046  0.4643  0.4011
 4333SOL     OW24460   1.541   1.343  17.691  0.3061  0.4510  0.2540
 4333SOL    HW124461   1.495   1.417  17.652  2.0668  1.0419 -0.6822
 4333SOL    HW224462   1.612   1.338  17.628 -0.8365 -4.1597 -0.6666
 4334SOL     OW24463   4.649   2.162  11.798 -0.4210 -0.1726 -0.5488
 4334SOL    HW124464   4.644   2.071  11.826 -2.5025  0.1281  0.0172
 4334SOL    HW224465   4.670   2.208  11.880 -1.3785  1.3211 -1.1353
 4335SOL     OW24466   0.153   4.516   0.121 -0.2918 -0.1151  0.1535
 4335SOL    HW124467   0.185   4.537   0.209  0.8660 -0.9316 -0.0797
 4335SOL    HW224468   0.140   4.423   0.138  1.7469 -0.2912  0.7032
 4336SOL     OW24469   2.570   0.998   5.504  0.4157  0.1299 -0.5639
 4336SOL    HW124470   2.663   0.980   5.522  0.2767 -0.9955 -0.9305
 4336SOL    HW224471   2.584   1.022   5.412  0.3216  3.0460  0.2088
 4337SOL     OW24472   1.759   0.604   0.124 -0.6506  0.4006 -0.0450
 4337SOL    HW124473   1.723   0.518   0.102  2.6411 -0.9149 -0.2845
 4337SOL    HW224474   1.769   0.589   0.218  1.6494 -1.8866 -0.6500
 4338SOL     OW24475   0.503   4.482  13.610  0.4353  0.5249  0.2053
 4338SOL    HW124476   0.460   4.538  13.545 -5.0245 -0.0345  3.2764
 4338SOL    HW224477   0.435   4.461  13.674  0.8436  1.6886  1.0206
 4339SOL     OW24478   2.223   4.489  16.964 -0.1385  0.0939 -0.2686
 4339SOL    HW124479   2.231   4.513  17.056 -0.4955 -2.1139  0.3408
 4339SOL    HW224480   2.315   4.497  16.940  0.2063 -0.0750  0.9706
 4340SOL     OW24481   4.549   0.326  10.933 -0.2971  0.3287 -0.0020
 4340SOL    HW124482   4.613   0.255  10.922  0.4750  1.0578 -0.2679
 4340SOL    HW224483   4.565   0.373  10.851  0.9429 -0.2253 -0.0772
 4341SOL     OW24484   2.382   1.246  11.105 -0.4930  0.3360  0.2921
 4341SOL    HW124485   2.405   1.280  11.192  1.1501 -3.1068  1.1919
 4341SOL    HW224486   2.394   1.154  11.126 -0.2121  0.0270 -1.2405
 4342SOL     OW24487   4.209   3.338   8.982  0.5404 -0.5786  0.7762
 4342SOL    HW124488   4.155   3.392   9.040  0.8621 -1.6031  2.0214
 4342SOL    HW224489   4.272   3.320   9.051  2.4917 -0.3155 -0.9549
 4343SOL     OW24490   4.379   1.789   6.591  0.1400  0.1411  0.0264
 4343SOL    HW124491   4.457   1.817   6.543  2.0897 -1.5253  2.1400
 4343SOL    HW224492   4.346   1.862   6.643 -1.5906  0.1197 -1.0475
 4344SOL     OW24493   4.197   0.927  12.747  0.4091  0.3793 -0.1077
 4344SOL    HW124494   4.281   0.973  12.744 -1.1405  3.2330  0.5274
 4344SOL    HW224495   4.194   0.903  12.840 -0.9291  1.8493  0.2177
 4345SOL     OW24496   1.205   1.528   5.129 -0.6063 -0.2557  0.4583
 4345SOL    HW124497   1.217   1.547   5.037  0.8637 -0.4617  0.6088
 4345SOL    HW224498   1.109   1.524   5.130 -0.5513 -1.7484  1.0558
 4346SOL     OW24499   2.201   2.940  17.303  0.5426  0.0537 -0.1129
 4346SOL    HW124500   2.226   2.862  17.353 -0.3244  0.8276  1.4940
 4346SOL    HW224501   2.275   2.930  17.243 -0.8717 -2.2086 -1.5005
 4347SOL     OW24502   4.389   2.889  14.894  0.4630  0.6341 -0.0164
 4347SOL    HW124503   4.312   2.875  14.839  0.5355  2.1192 -0.5077
 4347SOL    HW224504   4.458   2.913  14.833  1.9164  0.1586  1.4491
 4348SOL     OW24505   2.406   2.479   5.721 -0.2914  0.4732  1.1805
 4348SOL    HW124506   2.331   2.485   5.780 -1.7737 -2.5043 -0.3523
 4348SOL    HW224507   2.422   2.386   5.737 -3.9331 -0.7668 -2.1677
 4349SOL     OW24508   3.819   1.087   7.666 -0.1769  0.6820  0.4606
 4349SOL    HW124509   3.808   1.182   7.669  0.4407  0.7867 -0.9724
 4349SOL    HW224510   3.868   1.070   7.586 -1.0225  0.6015 -0.0377
 4350SOL     OW24511   2.679   2.288  10.280 -0.1229 -0.7150  0.2424
 4350SOL    HW124512   2.728   2.206  10.284  0.0077 -0.7648 -2.0942
 4350SOL    HW224513   2.629   2.271  10.200 -1.3578  1.4429  0.5458
 4351SOL     OW24514   0.349   2.909   8.295 -0.0164  0.7362 -0.1528
 4351SOL    HW124515   0.372   2.935   8.384 -0.5460  1.5287 -0.2567
 4351SOL    HW224516   0.365   2.992   8.250 -1.2223  0.9189 -0.2385
 4352SOL     OW24517   1.645   2.413   5.148 -0.2613  0.1202  0.1552
 4352SOL    HW124518   1.632   2.398   5.242 -0.2418 -0.6789  0.0318
 4352SOL    HW224519   1.705   2.487   5.152  1.6793 -1.4833  0.4273
 4353SOL     OW24520   2.914   2.849  11.225  0.0447  0.1578 -0.0458
 4353SOL    HW124521   2.855   2.841  11.300 -0.7424  2.9713 -0.3781
 4353SOL    HW224522   2.920   2.755  11.204 -1.9741  0.2980 -1.1635
 4354SOL     OW24523   3.004   0.111   7.808  0.4901 -0.0300 -0.4855
 4354SOL    HW124524   3.098   0.131   7.804  0.7310 -1.3874 -1.5445
 4354SOL    HW224525   3.004   0.022   7.843  2.3224  0.1459 -0.0168
 4355SOL     OW24526   1.631   3.662  12.252 -0.3779  0.2161  1.0909
 4355SOL    HW124527   1.556   3.603  12.243  0.1779 -0.2703 -0.2168
 4355SOL    HW224528   1.594   3.740  12.210 -0.9447 -0.1630  0.8885
 4356SOL     OW24529   4.310   4.022   3.747 -0.0796 -0.2802 -0.2122
 4356SOL    HW124530   4.331   3.935   3.712  1.0130 -1.4702  3.3833
 4356SOL    HW224531   4.395   4.050   3.781 -0.2717 -0.0647  0.0847
 4357SOL     OW24532   1.567   1.863   5.587  0.2688  0.6454  0.3743
 4357SOL    HW124533   1.619   1.883   5.665  1.5819 -2.4163  0.2903
 4357SOL    HW224534   1.615   1.917   5.524 -0.0971 -0.3557 -0.7476
 4358SOL     OW24535   0.238   2.492   3.232 -0.7913 -0.0405  0.2668
 4358SOL    HW124536   0.282   2.556   3.175 -2.9820  1.7467  0.5353
 4358SOL    HW224537   0.300   2.420   3.230  0.1351  0.7979 -1.1422
 4359SOL     OW24538   4.507   4.242  10.063  0.2525  0.3680  0.1513
 4359SOL    HW124539   4.479   4.280  10.146  0.1937  1.7743 -0.5183
 4359SOL    HW224540   4.585   4.201  10.101  0.1361  1.1539  1.2194
 4360SOL     OW24541   3.484   4.515   7.514  0.0311  0.5422 -0.3087
 4360SOL    HW124542   3.436   4.478   7.439  1.6683  1.9378 -2.0308
 4360SOL    HW224543   3.536   4.577   7.463  2.7110 -1.1980  0.3185
 4361SOL     OW24544   0.437   4.230  17.421 -0.5219  0.2524  0.0348
 4361SOL    HW124545   0.472   4.173  17.352  0.6212  1.9888 -0.8148
 4361SOL    HW224546   0.511   4.283  17.451 -0.8320  0.3540  0.6308
 4362SOL     OW24547   3.335   3.937   6.594  0.3148  0.1588  0.3049
 4362SOL    HW124548   3.243   3.916   6.575 -0.3803  2.9786  0.5136
 4362SOL    HW224549   3.315   4.001   6.662 -2.1721 -1.6546  1.3042
 4363SOL     OW24550   3.315   0.449   9.830  0.0528 -0.0355 -0.1241
 4363SOL    HW124551   3.293   0.423   9.919 -0.6123 -3.9417 -1.4197
 4363SOL    HW224552   3.410   0.442   9.821  0.0256 -0.4546 -0.0968
 4364SOL     OW24553   4.568   1.842   7.997 -0.1577  0.3796  0.1231
 4364SOL    HW124554   4.505   1.872   8.061 -2.2644  2.8071 -3.1051
 4364SOL    HW224555   4.524   1.821   7.915  2.2136 -0.4963 -0.9371
 4365SOL     OW24556   0.458   3.656   7.662 -0.0017 -0.2808 -0.1892
 4365SOL    HW124557   0.544   3.652   7.705 -0.0364  2.4023  0.1535
 4365SOL    HW224558   0.489   3.691   7.578  1.8689 -1.2905  0.0692
 4366SOL     OW24559   2.372   1.452   9.097  0.1518  0.7470 -0.2060
 4366SOL    HW124560   2.305   1.422   9.158 -0.8454  0.5612 -1.3980
 4366SOL    HW224561   2.454   1.453   9.147  0.5742 -1.6304 -0.8488
 4367SOL     OW24562   2.508   1.501   5.965 -0.2607 -0.1158 -0.1719
 4367SOL    HW124563   2.445   1.540   6.025  1.3238  3.8270 -1.0350
 4367SOL    HW224564   2.451   1.473   5.894  0.6958 -1.8049 -0.2619
 4368SOL     OW24565   3.796   3.784   3.058  0.1631  0.1346  0.0644
 4368SOL    HW124566   3.815   3.692   3.041  3.2859  0.9340 -0.7128
 4368SOL    HW224567   3.768   3.801   2.969  2.6574 -1.3362 -0.9981
 4369SOL     OW24568   4.721   1.168  17.584 -0.2082 -0.4768 -0.4117
 4369SOL    HW124569   0.004   1.079  17.619  0.8991 -1.3452 -2.8148
 4369SOL    HW224570   0.057   1.151  17.511  1.6496  0.0346  0.9934
 4370SOL     OW24571   2.536   2.091   7.540 -0.2539  0.4764 -0.5317
 4370SOL    HW124572   2.470   2.046   7.487 -0.9385 -1.1602  1.7188
 4370SOL    HW224573   2.580   2.021   7.588 -1.5679  0.9310  1.3272
 4371SOL     OW24574   2.551   1.787  10.949 -0.5056 -0.0843  0.1112
 4371SOL    HW124575   2.563   1.693  10.947  1.5439  0.1802  0.5098
 4371SOL    HW224576   2.466   1.789  10.993 -1.4364 -0.4596 -1.6717
 4372SOL     OW24577   1.421   4.152   0.304 -0.2768 -0.3409 -0.1237
 4372SOL    HW124578   1.407   4.117   0.216  0.6575 -0.5141 -0.2068
 4372SOL    HW224579   1.507   4.113   0.319  0.7070  1.9413  0.2321
 4373SOL     OW24580   3.787   1.783  14.106 -1.0878  0.0459  0.3534
 4373SOL    HW124581   3.819   1.774  14.196 -0.3033  0.4647  0.1133
 4373SOL    HW224582   3.871   1.807  14.068 -2.0088  0.0786 -1.6186
 4374SOL     OW24583   3.098   0.358   5.151 -0.0080  0.5637 -0.0544
 4374SOL    HW124584   3.112   0.374   5.245  2.6564  1.9380 -0.6697
 4374SOL    HW224585   3.015   0.404   5.147 -0.8597 -0.9286  0.3437
 4375SOL     OW24586   3.082   1.318   9.375  0.1580 -0.6503 -0.8117
 4375SOL    HW124587   3.146   1.378   9.337  2.1077 -1.9746  0.4454
 4375SOL    HW224588   3.002   1.372   9.375  0.9389  0.5047  0.1006
 4376SOL     OW24589   2.461   4.649  11.471  0.7012  0.3060  0.3690
 4376SOL    HW124590   2.478   4.577  11.411 -2.3209  0.1011 -0.2072
 4376SOL    HW224591   2.529   4.634  11.537  1.6623  0.3819 -0.5977
 4377SOL     OW24592   4.089   0.276   0.550  0.5033  0.0395 -0.1066
 4377SOL    HW124593   4.092   0.340   0.479  0.2757 -0.1287 -0.2674
 4377SOL    HW224594   4.173   0.278   0.596  0.4574 -1.5660  0.0153
 4378SOL     OW24595   0.824   1.888   6.651  0.0439  0.3689 -0.3137
 4378SOL    HW124596   0.868   1.891   6.565  2.1578  0.8928  0.7919
 4378SOL    HW224597   0.897   1.904   6.711  0.9832  0.2408 -1.3971
 4379SOL     OW24598   2.668   2.424   4.333 -0.0105 -0.1155  0.4408
 4379SOL    HW124599   2.724   2.354   4.302  0.8501  1.8129 -2.4217
 4379SOL    HW224600   2.646   2.472   4.253  0.9717  0.2368  0.3783
 4380SOL     OW24601   2.017   1.559   6.169 -0.5044  0.1985 -0.2791
 4380SOL    HW124602   2.040   1.484   6.223 -1.2433  1.8445  2.2742
 4380SOL    HW224603   1.930   1.532   6.140 -0.4852 -0.6738  0.4893
 4381SOL     OW24604   2.725   2.192   9.367 -0.3110 -0.9380 -0.3896
 4381SOL    HW124605   2.814   2.224   9.381 -0.7891  0.8449 -1.3365
 4381SOL    HW224606   2.689   2.251   9.434  2.0875 -1.0355  0.9779
 4382SOL     OW24607   2.114   1.180   7.168  0.0749  0.2583 -0.0761
 4382SOL    HW124608   2.081   1.200   7.256 -0.2157  0.2337 -0.1817
 4382SOL    HW224609   2.035   1.179   7.115 -0.5098  1.3762  0.7620
 4383SOL     OW24610   3.402   0.181   4.449 -0.5528 -0.3060  0.8291
 4383SOL    HW124611   3.417   0.165   4.355 -0.6303 -3.5001  1.3426
 4383SOL    HW224612   3.325   0.236   4.448  0.9953  1.8749  2.4863
 4384SOL     OW24613   0.954   4.370   8.519  0.1510 -0.0534  0.6342
 4384SOL    HW124614   0.920   4.436   8.459  1.0439  0.3085  0.5332
 4384SOL    HW224615   1.039   4.413   8.525  0.9423 -1.3525 -1.0630
 4385SOL     OW24616   4.287   2.319   8.040 -0.1723 -0.1098 -0.5145
 4385SOL    HW124617   4.376   2.326   8.004 -0.2865 -1.3819 -1.0271
 4385SOL    HW224618   4.295   2.318   8.135 -1.5860 -0.6547 -0.4097
 4386SOL     OW24619   3.396   2.669   3.483 -0.3387  0.5925  0.0908
 4386SOL    HW124620   3.482   2.664   3.443 -0.8287  1.8128 -1.1094
 4386SOL    HW224621   3.340   2.683   3.407 -1.0133 -0.9214  0.3108
 4387SOL     OW24622   3.250   1.740   8.446  0.1413  0.2430  0.2032
 4387SOL    HW124623   3.280   1.814   8.394  0.2558  0.5131  0.6529
 4387SOL    HW224624   3.191   1.793   8.499 -1.5991 -1.0966 -0.3998
 4388SOL     OW24625   1.137   1.565  10.394  0.4522 -0.3525  0.2052
 4388SOL    HW124626   1.136   1.471  10.409  1.6775 -0.1396  1.6969
 4388SOL    HW224627   1.103   1.607  10.474  0.7620 -4.3841  2.4730
 4389SOL     OW24628   4.186   1.474   1.276 -0.2088 -0.1878  0.2383
 4389SOL    HW124629   4.164   1.432   1.193 -0.0944 -1.0781  0.6589
 4389SOL    HW224630   4.097   1.476   1.309 -0.1184 -1.5266  0.5567
 4390SOL     OW24631   4.483   2.516  16.433 -0.2900 -0.0431  0.4388
 4390SOL    HW124632   4.415   2.572  16.470 -0.3901  0.2884 -0.2529
 4390SOL    HW224633   4.453   2.430  16.462  1.4793 -1.1930 -1.1548
 4391SOL     OW24634   3.622   2.669   6.412 -0.4059  0.5286 -0.5401
 4391SOL    HW124635   3.611   2.720   6.331  0.1485  3.0829  0.9931
 4391SOL    HW224636   3.715   2.653   6.396 -0.0066  0.7343  1.7034
 4392SOL     OW24637   4.056   3.524   8.003 -0.9592  0.3319 -0.3612
 4392SOL    HW124638   3.991   3.514   8.073  0.5081 -0.4740  0.8900
 4392SOL    HW224639   4.071   3.429   7.996 -1.8681  0.3034 -1.8301
 4393SOL     OW24640   1.493   0.536  13.664  0.2099 -0.2935 -0.1470
 4393SOL    HW124641   1.500   0.482  13.743  0.3420  2.6069  1.8512
 4393SOL    HW224642   1.520   0.623  13.696  0.6020 -0.7209  0.6933
 4394SOL     OW24643   3.652   3.264  16.233  0.6484 -0.0959 -0.3290
 4394SOL    HW124644   3.713   3.239  16.302  0.6803  0.5089 -0.1327
 4394SOL    HW224645   3.580   3.307  16.279 -0.8070 -2.1372 -0.6943
 4395SOL     OW24646   2.389   2.530   9.753 -0.1099  0.3652 -0.0936
 4395SOL    HW124647   2.463   2.589   9.767 -0.2220  0.1112  1.6021
 4395SOL    HW224648   2.324   2.593   9.721  0.0597  0.8683  0.5464
 4396SOL     OW24649   0.766   4.589  14.760 -0.0080  0.5018 -0.1797
 4396SOL    HW124650   0.723   4.505  14.773 -0.4140  0.7508  0.0843
 4396SOL    HW224651   0.841   4.580  14.819 -0.2342 -0.4521 -0.0454
 4397SOL     OW24652   1.209   2.071  14.320  0.0024 -0.2096 -0.2631
 4397SOL    HW124653   1.174   2.062  14.231 -1.8130 -2.3236  0.6864
 4397SOL    HW224654   1.151   2.001  14.350  0.5054  0.5557  2.4536
 4398SOL     OW24655   0.905   4.656   6.707 -0.1724 -0.0373  0.7050
 4398SOL    HW124656   0.948   4.682   6.625 -0.4962 -2.7305 -0.3193
 4398SOL    HW224657   0.821   4.628   6.671  0.5253 -1.3069  0.0777
 4399SOL     OW24658   1.346   3.209   0.699  0.0009  0.7730 -0.3562
 4399SOL    HW124659   1.253   3.209   0.676  0.3990 -0.7743 -1.8814
 4399SOL    HW224660   1.377   3.131   0.655  1.0989  0.5416  0.8238
 4400SOL     OW24661   2.694   2.078   5.922 -0.0430 -0.0683 -0.3953
 4400SOL    HW124662   2.691   2.171   5.899  1.0422  0.5226  1.8566
 4400SOL    HW224663   2.659   2.076   6.011 -0.1550  0.6095 -0.4179
 4401SOL     OW24664   1.496   2.760   7.559  0.7137  0.6167 -0.0906
 4401SOL    HW124665   1.500   2.664   7.549 -3.2381  0.2741  1.5467
 4401SOL    HW224666   1.514   2.769   7.653 -1.0710 -2.4189  0.5631
 4402SOL     OW24667   0.759   2.609   3.574  0.5351  0.1516  0.1006
 4402SOL    HW124668   0.683   2.581   3.625 -0.9619  0.8924 -1.7249
 4402SOL    HW224669   0.813   2.651   3.641  1.7667 -0.4416 -0.5252
 4403SOL     OW24670   3.510   2.641   8.839  0.0514  0.3701 -0.1809
 4403SOL    HW124671   3.475   2.594   8.763  1.6063  2.6823 -2.3090
 4403SOL    HW224672   3.427   2.667   8.878 -0.5192 -0.5008 -0.7867
 4404SOL     OW24673   2.881   3.197   2.899  0.2810  0.3254 -0.0509
 4404SOL    HW124674   2.834   3.256   2.841 -1.9637 -3.6325 -2.2729
 4404SOL    HW224675   2.961   3.247   2.918  1.6225 -1.1707 -1.7600
 4405SOL     OW24676   2.345   2.758   9.999 -0.2055  0.1902  0.1703
 4405SOL    HW124677   2.436   2.769  10.027 -0.3157  1.4920  0.0394
 4405SOL    HW224678   2.309   2.819  10.064  0.1849  0.7584 -0.1444
 4406SOL     OW24679   1.031   1.358   6.793 -0.2942 -0.1592 -0.2038
 4406SOL    HW124680   0.983   1.419   6.738  1.6735  0.3573 -1.3398
 4406SOL    HW224681   1.102   1.414   6.825 -0.2429 -0.4614  0.2068
 4407SOL     OW24682   4.483   3.752  10.291 -0.2289  0.2247 -0.3383
 4407SOL    HW124683   4.486   3.814  10.219 -0.3219 -0.3245 -0.8196
 4407SOL    HW224684   4.427   3.787  10.361  0.9178 -2.2171  1.8177
 4408SOL     OW24685   4.466   0.112   6.970  0.0174 -0.0336  0.3539
 4408SOL    HW124686   4.529   0.048   6.936 -0.1751  0.1062 -0.2740
 4408SOL    HW224687   4.517   0.177   7.018 -0.8524  1.1814 -0.3708
 4409SOL     OW24688   0.352   4.474   4.092  0.1254 -0.0523 -0.3091
 4409SOL    HW124689   0.421   4.540   4.092  1.3160 -1.2990  0.6555
 4409SOL    HW224690   0.342   4.446   4.183  1.1658 -0.2243 -0.2566
 4410SOL     OW24691   2.871   1.522   8.875 -0.3768  0.2772 -0.4344
 4410SOL    HW124692   2.862   1.618   8.872 -0.4807  0.2456 -1.1475
 4410SOL    HW224693   2.955   1.520   8.922 -1.2932 -3.1436  1.0193
 4411SOL     OW24694   2.037   1.245   7.420  0.2976 -0.5805 -0.2431
 4411SOL    HW124695   2.044   1.296   7.500 -0.2493 -2.2444  0.8826
 4411SOL    HW224696   1.965   1.293   7.379  0.8345 -0.7152 -1.3255
 4412SOL     OW24697   3.094   0.513   5.730 -0.1532  0.3158 -0.4723
 4412SOL    HW124698   3.000   0.520   5.715 -0.1337  0.6016 -0.4600
 4412SOL    HW224699   3.108   0.421   5.706 -0.2148  0.0618  0.4434
 4413SOL     OW24700   0.460   0.471   6.401  0.0973  1.0604 -0.1082
 4413SOL    HW124701   0.454   0.454   6.307  2.1081  0.2575 -0.1091
 4413SOL    HW224702   0.463   0.383   6.438  0.2133  0.7201 -0.9326
 4414SOL     OW24703   3.493   4.378   4.306  0.0655  0.2497  0.7816
 4414SOL    HW124704   3.483   4.449   4.370 -0.9690  1.9634 -1.2798
 4414SOL    HW224705   3.422   4.404   4.247  0.1232 -3.2241 -0.8229
 4415SOL     OW24706   1.036   3.510   6.093  0.4035  0.2499  0.5311
 4415SOL    HW124707   1.063   3.521   6.184 -0.1268 -1.7202  0.9095
 4415SOL    HW224708   0.942   3.513   6.107  0.4636  2.4629  0.4733
 4416SOL     OW24709   2.636   0.115   5.490 -0.2382  0.2877  0.2867
 4416SOL    HW124710   2.707   0.120   5.425 -1.0095 -0.7481 -0.6447
 4416SOL    HW224711   2.667   0.178   5.555  2.5957 -0.8130  0.0005
 4417SOL     OW24712   4.103   2.105  14.760  0.1192 -0.4638  0.9018
 4417SOL    HW124713   4.102   2.016  14.795  0.2024 -0.6511  0.4243
 4417SOL    HW224714   4.188   2.113  14.717 -0.5112  1.0784 -0.0507
 4418SOL     OW24715   1.251   1.688   4.514  0.0884  0.4606 -0.1430
 4418SOL    HW124716   1.157   1.671   4.510  0.0512  0.0358  2.1875
 4418SOL    HW224717   1.284   1.655   4.431  2.7629  0.2350  1.0084
 4419SOL     OW24718   1.630   1.814   2.995  0.4295  0.1845 -0.3892
 4419SOL    HW124719   1.555   1.867   3.022 -0.2036 -0.6699 -0.4555
 4419SOL    HW224720   1.654   1.850   2.910 -1.0245  1.3135 -0.3197
 4420SOL     OW24721   1.255   0.536   7.030  0.6327 -0.0545  0.8872
 4420SOL    HW124722   1.208   0.618   7.012  0.9564  0.2587  1.4733
 4420SOL    HW224723   1.191   0.498   7.090 -0.6182  1.3530  0.4780
 4421SOL     OW24724   0.773   0.346   5.464 -0.2878  0.6805 -0.0941
 4421SOL    HW124725   0.860   0.385   5.470  0.1351 -0.1393 -1.0025
 4421SOL    HW224726   0.787   0.295   5.384 -1.2156  2.3931 -1.3487
 4422SOL     OW24727   2.213   3.550   4.252  0.0753 -0.1942 -0.2727
 4422SOL    HW124728   2.164   3.468   4.267  0.3156  0.1184  2.3083
 4422SOL    HW224729   2.147   3.607   4.212  2.4728  1.7912 -1.3795
 4423SOL     OW24730   2.931   0.449   3.360  0.1207  0.1195  0.1828
 4423SOL    HW124731   2.930   0.530   3.411 -0.7947 -0.5048  1.1577
 4423SOL    HW224732   2.836   0.441   3.351  0.0971 -0.4419  0.9190
 4424SOL     OW24733   0.843   3.080   9.664  0.1121 -0.1989  0.0591
 4424SOL    HW124734   0.800   2.995   9.647 -0.8723  0.1488  0.7747
 4424SOL    HW224735   0.816   3.114   9.749  2.0202 -1.6039  1.2117
 4425SOL     OW24736   0.463   4.262   7.711 -0.7523 -0.0421  0.0822
 4425SOL    HW124737   0.398   4.237   7.646 -0.9676  3.7063 -1.1595
 4425SOL    HW224738   0.479   4.173   7.742  0.4854  0.0456 -0.2967
 4426SOL     OW24739   4.652   0.780   2.948  0.2371 -0.1861  0.1347
 4426SOL    HW124740   4.587   0.841   2.912  0.5134 -0.4549 -0.8139
 4426SOL    HW224741   0.002   0.797   2.889  0.5057  0.3994  0.6311
 4427SOL     OW24742   3.254   4.630   3.468  0.0248 -0.1766  0.4736
 4427SOL    HW124743   3.233   4.622   3.561 -0.4061 -3.4494  0.0939
 4427SOL    HW224744   3.350   4.631   3.461  0.1253 -2.2185  1.7452
 4428SOL     OW24745   2.140   3.358   8.537  0.2992 -0.1601  0.0141
 4428SOL    HW124746   2.108   3.412   8.609 -1.4004  0.0012 -0.8333
 4428SOL    HW224747   2.157   3.430   8.477  0.7144  0.6124  1.0755
 4429SOL     OW24748   3.629   4.247   0.401  0.1302  0.3824  0.1575
 4429SOL    HW124749   3.691   4.303   0.355  3.4911 -4.3504 -1.1031
 4429SOL    HW224750   3.573   4.246   0.324  0.1899 -0.0137  0.1216
 4430SOL     OW24751   1.562   4.588   3.314  0.1888  0.0444 -0.0124
 4430SOL    HW124752   1.590   4.498   3.325  0.7312  0.1260 -0.7522
 4430SOL    HW224753   1.470   4.572   3.337 -0.6808  2.0110 -2.0589
 4431SOL     OW24754   0.212   3.375  12.015 -0.0821 -0.0508 -0.1217
 4431SOL    HW124755   0.141   3.349  11.957 -0.8902  2.6232 -0.3356
 4431SOL    HW224756   0.162   3.379  12.097  2.3832  2.6402  1.2721
 4432SOL     OW24757   1.325   3.548  16.802 -0.0116 -0.0801  0.3821
 4432SOL    HW124758   1.250   3.503  16.839 -2.5237  2.0218 -2.1052
 4432SOL    HW224759   1.307   3.529  16.710  0.3122  0.7072  0.1563
 4433SOL     OW24760   1.316   3.093  17.182  0.3684 -0.9482  0.2400
 4433SOL    HW124761   1.332   3.069  17.273 -0.4369  0.4521  0.7406
 4433SOL    HW224762   1.308   3.001  17.157  4.0727 -0.4054 -2.9178
 4434SOL     OW24763   0.215   4.454   4.418  0.4687 -0.2178  0.2237
 4434SOL    HW124764   0.301   4.453   4.459  0.6134  1.1656 -0.0383
 4434SOL    HW224765   0.184   4.364   4.429  0.3674 -0.1908  0.1613
 4435SOL     OW24766   1.787   4.713   3.005 -0.6076 -0.2321 -0.3276
 4435SOL    HW124767   1.695   4.717   3.032 -0.1385  2.5257  0.8481
 4435SOL    HW224768   1.824   0.075   3.028  0.1067 -0.9653  1.2750
 4436SOL     OW24769   4.070   3.193  14.621 -0.1508 -0.1535  0.2714
 4436SOL    HW124770   4.048   3.115  14.571  0.3169 -0.3326  0.3457
 4436SOL    HW224771   4.165   3.193  14.624 -0.1295  2.4179 -0.5003
 4437SOL     OW24772   1.026   1.549   3.143 -0.1689 -0.5296 -0.0143
 4437SOL    HW124773   0.941   1.519   3.110 -0.4448 -0.2998  0.4987
 4437SOL    HW224774   1.073   1.548   3.059 -0.3134 -1.3057 -0.0856
 4438SOL     OW24775   4.361   3.174   3.690 -0.3580  0.1596  0.0746
 4438SOL    HW124776   4.293   3.108   3.703  1.3751 -1.4097  1.0712
 4438SOL    HW224777   4.301   3.246   3.669 -0.4393 -0.2897 -1.2564
 4439SOL     OW24778   1.806   4.425  17.003 -0.0674 -0.5024 -1.0725
 4439SOL    HW124779   1.824   4.372  16.925  3.0663  0.5784 -1.0989
 4439SOL    HW224780   1.876   4.490  16.998 -0.6583  0.2985  1.2045
 4440SOL     OW24781   3.439   0.219  14.654 -0.1455  0.1359  0.0620
 4440SOL    HW124782   3.534   0.212  14.646 -0.2352 -0.8088 -0.1308
 4440SOL    HW224783   3.424   0.313  14.651  1.5721  0.3847 -0.8186
 4441SOL     OW24784   2.816   3.398  15.945  0.1442 -0.2058 -0.3488
 4441SOL    HW124785   2.826   3.328  16.009 -2.1541  1.8922  2.3039
 4441SOL    HW224786   2.856   3.348  15.875  0.1100  0.4723 -0.8473
 4442SOL     OW24787   1.818   4.366  10.607 -0.0733  0.0837  0.2470
 4442SOL    HW124788   1.876   4.293  10.630 -0.2651 -0.2805 -0.4130
 4442SOL    HW224789   1.731   4.327  10.615 -0.3053  0.7492  0.9373
 4443SOL     OW24790   1.758   0.588   6.932 -0.0582 -0.2582 -0.0214
 4443SOL    HW124791   1.780   0.673   6.895  2.0345  0.1174  2.0504
 4443SOL    HW224792   1.708   0.553   6.859 -1.1933  0.9121  0.1974
 4444SOL     OW24793   1.440   0.719   4.156  0.3732 -0.1374  0.2187
 4444SOL    HW124794   1.450   0.700   4.249  0.2451 -0.2848  0.2012
 4444SOL    HW224795   1.385   0.646   4.129  2.5760 -2.1109  1.0373
 4445SOL     OW24796   3.652   0.152   9.291  0.5466  0.6379 -0.2245
 4445SOL    HW124797   3.557   0.162   9.299  0.5077  1.9903 -2.1026
 4445SOL    HW224798   3.678   0.245   9.288  1.4323  0.3858 -0.5247
 4446SOL     OW24799   1.512   0.237   4.313  0.6178 -0.0802  0.1995
 4446SOL    HW124800   1.572   0.163   4.329  1.7041  0.8849  0.5721
 4446SOL    HW224801   1.574   0.300   4.350  2.4884 -0.7848 -1.6833
 4447SOL     OW24802   1.271   4.399   5.439  0.5275 -0.1942  0.0851
 4447SOL    HW124803   1.221   4.480   5.447  1.7276  0.6959 -1.4108
 4447SOL    HW224804   1.219   4.357   5.371 -2.8518  2.5020  1.0107
 4448SOL     OW24805   2.634   2.709   9.534 -0.1356 -0.0888 -0.7076
 4448SOL    HW124806   2.586   2.735   9.613  0.4910  1.1471 -0.7239
 4448SOL    HW224807   2.706   2.654   9.567  0.0184  0.1086 -0.7082
 4449SOL     OW24808   2.499   3.932   1.429 -0.0009 -0.1035 -0.7076
 4449SOL    HW124809   2.417   3.887   1.451  0.5339  0.6535  2.9076
 4449SOL    HW224810   2.553   3.896   1.499  0.5466  0.8931 -0.6156
 4450SOL     OW24811   0.383   2.283   0.878  0.0015  0.4989  0.9666
 4450SOL    HW124812   0.385   2.299   0.972 -2.4765  0.0925  1.0969
 4450SOL    HW224813   0.305   2.227   0.887  0.0227  0.2883 -0.1456
 4451SOL     OW24814   1.512   1.285   7.103  0.1604  0.0438  0.4681
 4451SOL    HW124815   1.485   1.275   7.012 -0.5933 -1.3944  0.8558
 4451SOL    HW224816   1.586   1.225   7.107  0.0484 -0.2801 -1.9148
 4452SOL     OW24817   1.919   4.067  16.338 -0.1112 -0.1527 -0.1323
 4452SOL    HW124818   1.940   3.993  16.280 -2.6858 -0.5060 -0.6211
 4452SOL    HW224819   1.823   4.063  16.344 -0.2465  0.2332 -1.9741
 4453SOL     OW24820   1.490   0.355   3.844 -0.3428  0.0540  0.1361
 4453SOL    HW124821   1.527   0.377   3.930  0.0317  0.2346 -0.0744
 4453SOL    HW224822   1.523   0.267   3.826 -2.9275 -0.3868 -2.4432
 4454SOL     OW24823   2.299   3.151   2.743 -0.2640  0.3245  0.3961
 4454SOL    HW124824   2.390   3.176   2.754 -0.0253  0.6399 -2.2599
 4454SOL    HW224825   2.311   3.080   2.680  0.5847  2.1037 -1.4256
 4455SOL     OW24826   1.240   3.435   5.159  0.0612 -0.0486 -0.2359
 4455SOL    HW124827   1.159   3.480   5.184  2.1151  2.8949  1.0742
 4455SOL    HW224828   1.224   3.360   5.217  0.4574 -2.3352 -3.0393
 4456SOL     OW24829   2.415   2.265  15.861  0.5948 -0.0899  0.2103
 4456SOL    HW124830   2.507   2.285  15.842  0.9147 -0.4567  1.3986
 4456SOL    HW224831   2.392   2.212  15.785  0.0454  1.9170 -1.0283
 4457SOL     OW24832   0.677   3.691   6.744 -0.0297  0.0757 -0.3592
 4457SOL    HW124833   0.633   3.687   6.829 -0.8185  2.8023 -0.6224
 4457SOL    HW224834   0.765   3.718   6.772  0.9573 -0.3133 -3.0868
 4458SOL     OW24835   3.634   0.098   1.442  0.3519  0.0156 -0.3650
 4458SOL    HW124836   3.557   0.087   1.386  0.1191  1.7580 -0.3901
 4458SOL    HW224837   3.604   0.050   1.520  0.7684 -1.0724 -0.8656
 4459SOL     OW24838   1.372   2.035   6.385  0.1956  0.0516  0.5533
 4459SOL    HW124839   1.312   2.094   6.430 -1.3755 -1.7263  0.7834
 4459SOL    HW224840   1.335   2.029   6.297  0.0283 -1.0200  0.7015
 4460SOL     OW24841   1.486   3.233   1.174 -0.7273 -0.8028 -0.1858
 4460SOL    HW124842   1.407   3.207   1.222  1.2929 -2.2686  2.2825
 4460SOL    HW224843   1.444   3.299   1.119 -1.2602  0.1809  1.4039
 4461SOL     OW24844   2.091   0.276   8.201 -0.1051  0.4649  0.4401
 4461SOL    HW124845   2.169   0.250   8.152  1.3459  0.8803  2.5512
 4461SOL    HW224846   2.020   0.227   8.159  1.9071 -1.4718 -0.7074
 4462SOL     OW24847   3.091   1.527  12.536 -0.0555  0.1989  0.5871
 4462SOL    HW124848   3.071   1.484  12.619 -0.6541 -0.7801 -0.0713
 4462SOL    HW224849   3.099   1.618  12.565  0.2733  0.4609 -0.3284
 4463SOL     OW24850   3.851   1.529   4.335 -0.0885 -0.0372 -0.7773
 4463SOL    HW124851   3.929   1.507   4.285  0.1468  0.0930 -0.4627
 4463SOL    HW224852   3.828   1.609   4.287 -1.8247  0.4973  0.9514
 4464SOL     OW24853   4.354   3.349   4.053  0.3595 -0.0291 -0.1910
 4464SOL    HW124854   4.354   3.384   4.142 -0.6035  1.1068 -0.6381
 4464SOL    HW224855   4.258   3.346   4.043  0.4206  1.1577 -1.1224
 4465SOL     OW24856   0.054   0.812   8.961  0.0623  1.0509  0.2465
 4465SOL    HW124857   0.095   0.797   8.876  1.8525 -1.5281  1.5685
 4465SOL    HW224858   0.019   0.723   8.963  0.6229  0.8268  0.0672
 4466SOL     OW24859   3.837   0.691   4.836  0.1537 -0.6936 -0.1127
 4466SOL    HW124860   3.926   0.722   4.848  0.7086 -2.1682 -0.3532
 4466SOL    HW224861   3.829   0.636   4.915  0.3524 -1.9395 -0.9615
 4467SOL     OW24862   4.418   2.054   6.388 -0.1186  0.0517  0.4407
 4467SOL    HW124863   4.469   2.091   6.316  0.8058  1.3163  1.7455
 4467SOL    HW224864   4.477   1.985   6.420  0.5746  0.5291  0.1843
 4468SOL     OW24865   3.986   2.615  12.508  0.7753  0.5861 -0.6388
 4468SOL    HW124866   3.967   2.553  12.578 -0.9974  0.3558 -1.3200
 4468SOL    HW224867   4.035   2.563  12.444 -0.0068 -0.4436 -0.3968
 4469SOL     OW24868   3.830   1.126   2.490  0.6683  0.1603 -0.0739
 4469SOL    HW124869   3.776   1.141   2.568 -0.2666 -0.6861 -0.5689
 4469SOL    HW224870   3.843   1.032   2.482  2.9466  0.8009 -4.0033
 4470SOL     OW24871   2.327   0.577  17.142 -0.2801 -1.1596  0.1793
 4470SOL    HW124872   2.361   0.566  17.053 -1.3976  0.3105 -0.4187
 4470SOL    HW224873   2.282   0.492  17.147 -1.9952 -0.1652  1.8973
 4471SOL     OW24874   3.164   4.569   5.873 -0.2206 -0.4140  0.8092
 4471SOL    HW124875   3.101   4.557   5.944 -0.6419  2.5797  0.9425
 4471SOL    HW224876   3.147   4.663   5.867 -2.7015 -0.7800  2.0552
 4472SOL     OW24877   3.005   1.513   3.880 -0.7004 -0.1303 -0.5416
 4472SOL    HW124878   3.043   1.533   3.966 -0.9067 -0.7503 -0.3003
 4472SOL    HW224879   3.086   1.478   3.843 -1.7498 -0.9033 -2.1065
 4473SOL     OW24880   1.407   2.127   4.925 -0.5019 -0.3367  0.4251
 4473SOL    HW124881   1.364   2.192   4.981 -0.7868  0.2490 -0.4739
 4473SOL    HW224882   1.498   2.129   4.955 -0.6163 -1.0350  0.8368
 4474SOL     OW24883   1.461   1.717   6.200  0.4189 -0.4038 -0.1220
 4474SOL    HW124884   1.372   1.751   6.211  0.9182  1.2906 -1.3646
 4474SOL    HW224885   1.507   1.776   6.141  1.2248 -0.2664  0.6396
 4475SOL     OW24886   3.480   0.487  17.602 -0.1645 -0.0476  0.6038
 4475SOL    HW124887   3.438   0.421  17.547 -1.9078  1.4932  0.0784
 4475SOL    HW224888   3.555   0.447  17.645 -1.1291 -1.9976  0.4871
 4476SOL     OW24889   2.904   0.205   5.358  0.5371 -0.6004  0.0634
 4476SOL    HW124890   2.956   0.275   5.399 -1.7697  1.4268 -0.5181
 4476SOL    HW224891   2.972   0.137   5.355  1.4309  0.2703  0.2587
 4477SOL     OW24892   0.350   3.359   0.124 -0.2405 -0.0571 -0.4936
 4477SOL    HW124893   0.415   3.348   0.054  1.0292  0.4130  0.6299
 4477SOL    HW224894   0.270   3.396   0.086 -0.6741  0.4279  0.9129
 4478SOL     OW24895   2.849   2.508   2.355  0.4228  0.0491  0.9001
 4478SOL    HW124896   2.900   2.486   2.277  0.3272  0.6382  0.6704
 4478SOL    HW224897   2.762   2.495   2.317  0.9042 -1.8448  0.4325
 4479SOL     OW24898   4.488   3.917   1.803  0.4524 -0.1694  0.7630
 4479SOL    HW124899   4.545   3.946   1.732  1.5553 -0.0916  1.6650
 4479SOL    HW224900   4.489   3.822   1.794  0.4257 -0.2232  1.2838
 4480SOL     OW24901   4.516   3.888   4.747  0.7929 -0.2025  0.4702
 4480SOL    HW124902   4.522   3.897   4.843  0.4990  1.4657  0.3382
 4480SOL    HW224903   4.422   3.899   4.729  0.4849 -2.1986  0.8549
 4481SOL     OW24904   3.554   1.129   8.577  0.9585 -0.3863 -0.2208
 4481SOL    HW124905   3.547   1.134   8.672  0.7670  1.0164 -0.3162
 4481SOL    HW224906   3.527   1.040   8.554  0.5089  0.3748 -2.6368
 4482SOL     OW24907   3.400   4.320   5.854  0.7934 -0.1909 -0.0467
 4482SOL    HW124908   3.326   4.259   5.851  0.5379  0.2880 -2.7127
 4482SOL    HW224909   3.399   4.351   5.764  2.1842  0.6638  0.2306
 4483SOL     OW24910   1.682   2.024   7.466  0.5702 -0.2880  0.3136
 4483SOL    HW124911   1.741   2.034   7.541  1.0567  0.0242 -0.1047
 4483SOL    HW224912   1.711   1.942   7.428  1.6315  0.3470 -0.2448
 4484SOL     OW24913   2.515   4.507   7.321  0.8660  0.1864  0.0613
 4484SOL    HW124914   2.566   4.440   7.366  0.1825 -0.5735 -0.3121
 4484SOL    HW224915   2.523   4.587   7.373  0.5959  0.4395 -0.2861
 4485SOL     OW24916   2.757   1.681   2.264  0.0901 -0.3173 -0.1149
 4485SOL    HW124917   2.666   1.705   2.247 -0.3325 -1.3143  0.7916
 4485SOL    HW224918   2.811   1.756   2.239 -1.3200  0.6324 -0.3262
 4486SOL     OW24919   2.339   2.697   8.719  0.4308  0.1215  0.2804
 4486SOL    HW124920   2.373   2.608   8.729 -0.6191 -0.2930  0.1659
 4486SOL    HW224921   2.314   2.713   8.810  1.4945  0.7735  0.4554
 4487SOL     OW24922   0.793   3.334   8.079  0.4565  0.0624  0.1836
 4487SOL    HW124923   0.699   3.329   8.093  0.5301  0.4760  0.8293
 4487SOL    HW224924   0.832   3.325   8.166 -0.0209 -0.7744  0.3021
 4488SOL     OW24925   0.715   0.198  11.642 -0.0531 -0.2147 -0.3133
 4488SOL    HW124926   0.715   0.165  11.552 -2.0270 -1.8915  0.3027
 4488SOL    HW224927   0.647   0.148  11.686 -0.2629 -1.0759 -1.5990
 4489SOL     OW24928   0.187   3.611   6.371 -0.8767  0.3031  0.7441
 4489SOL    HW124929   0.174   3.683   6.432  0.5863  1.2510 -0.0620
 4489SOL    HW224930   0.279   3.594   6.388 -0.5114  2.5002  0.8442
 4490SOL     OW24931   0.872   4.610  15.733  0.1518  0.5965 -0.3598
 4490SOL    HW124932   0.902   4.664  15.806  1.3379 -0.9273  0.3024
 4490SOL    HW224933   0.924   4.643  15.659 -2.0488  0.3687 -2.0117
 4491SOL     OW24934   3.513   1.551   9.007 -0.1951  0.0318  0.0353
 4491SOL    HW124935   3.514   1.510   9.093  1.6543 -1.2547 -0.6100
 4491SOL    HW224936   3.449   1.622   9.018 -0.4167 -0.2133  0.3106
 4492SOL     OW24937   1.310   1.595   2.180 -0.4352 -0.7595 -0.3280
 4492SOL    HW124938   1.380   1.610   2.117 -1.9934  1.2002 -1.5506
 4492SOL    HW224939   1.257   1.531   2.133  0.2367 -0.8180 -1.0088
 4493SOL     OW24940   0.819   3.398   7.460 -0.1475  0.0345  0.3302
 4493SOL    HW124941   0.851   3.481   7.494  1.4084 -0.3906 -0.1019
 4493SOL    HW224942   0.790   3.360   7.544 -2.4621 -0.4395 -0.6787
 4494SOL     OW24943   3.552   1.135   3.492  0.1835  0.4065  0.0463
 4494SOL    HW124944   3.477   1.183   3.528  0.0514  1.2203 -1.3117
 4494SOL    HW224945   3.624   1.196   3.507  1.5335 -1.3837  0.9444
 4495SOL     OW24946   4.184   1.259  16.276 -0.0592  0.4462  0.2341
 4495SOL    HW124947   4.097   1.252  16.238 -0.2601  0.8366  0.6254
 4495SOL    HW224948   4.242   1.262  16.200 -2.5832 -1.5714 -1.7434
 4496SOL     OW24949   4.299   1.338   2.098 -0.1056  0.5534  0.0680
 4496SOL    HW124950   4.384   1.305   2.129 -0.3930 -0.1866  0.0617
 4496SOL    HW224951   4.247   1.349   2.177 -1.3106 -0.9006 -0.5245
 4497SOL     OW24952   1.602   1.401   9.104  0.0898 -0.0679 -0.3008
 4497SOL    HW124953   1.633   1.489   9.087  0.3976 -0.2420 -0.6284
 4497SOL    HW224954   1.516   1.418   9.142  1.4626 -0.5004  2.9614
 4498SOL     OW24955   3.307   4.623   7.738  0.0248 -0.6452 -0.1893
 4498SOL    HW124956   3.217   4.600   7.761 -0.9320  0.9223 -2.3698
 4498SOL    HW224957   3.355   4.552   7.780  1.7573  1.2682  1.0449
 4499SOL     OW24958   0.273   1.164   6.668  0.6845  0.5236 -0.0822
 4499SOL    HW124959   0.262   1.208   6.584 -4.8630 -0.1506  0.2451
 4499SOL    HW224960   0.245   1.082   6.627 -1.7006  1.1622  0.2311
 4500SOL     OW24961   2.841   2.827   5.187 -0.3890 -0.7076 -0.4823
 4500SOL    HW124962   2.873   2.856   5.272  0.5106 -1.1831 -0.6579
 4500SOL    HW224963   2.911   2.827   5.123  0.0151 -0.2020 -0.0318
 4501SOL     OW24964   1.635   4.017   6.341 -0.3783 -0.2173  0.2597
 4501SOL    HW124965   1.612   3.971   6.260 -0.1439 -0.0037  0.0744
 4501SOL    HW224966   1.648   4.102   6.300  0.2852 -0.0937  0.7407
 4502SOL     OW24967   2.934   1.478   5.711  0.4595  0.1864 -0.0337
 4502SOL    HW124968   2.905   1.388   5.693  0.9223  0.1522 -0.5956
 4502SOL    HW224969   2.889   1.490   5.795  1.5647  0.9376  0.4433
 4503SOL     OW24970   2.935   4.300   7.569 -0.2646 -0.0157  0.2474
 4503SOL    HW124971   2.924   4.293   7.474 -0.8518 -1.2179  0.4124
 4503SOL    HW224972   2.852   4.337   7.600  0.2868 -0.5725  2.3897
 4504SOL     OW24973   2.458   0.289   0.007  0.1008  0.9381  0.7151
 4504SOL    HW124974   2.536   0.331   0.043  0.8157 -0.1467  0.4433
 4504SOL    HW224975   2.414   0.268   0.090 -0.9943 -0.1953 -0.1551
 4505SOL     OW24976   2.456   3.147   8.935  0.2867 -0.1314  0.2236
 4505SOL    HW124977   2.477   3.218   8.875  0.2060  0.7753  1.2606
 4505SOL    HW224978   2.516   3.154   9.009 -1.8001 -1.1579  2.0207
 4506SOL     OW24979   3.423   4.445   5.523  0.1205  0.5059  0.4597
 4506SOL    HW124980   3.330   4.466   5.529 -0.1788 -0.6666 -0.1129
 4506SOL    HW224981   3.452   4.484   5.441  0.4028  1.1344  0.8544
 4507SOL     OW24982   4.693   3.177   1.742  0.5764  0.3909 -0.0515
 4507SOL    HW124983   4.676   3.144   1.654  1.4833 -0.7198  0.1807
 4507SOL    HW224984   4.707   3.269   1.722 -2.9393  1.0989  0.8744
 4508SOL     OW24985   0.506   1.506   8.627  0.1160  0.1385  0.1995
 4508SOL    HW124986   0.497   1.542   8.539  1.0419  1.3402  0.6010
 4508SOL    HW224987   0.493   1.583   8.682 -1.7950 -0.5595  0.7438
 4509SOL     OW24988   1.174   1.677   9.108  0.6223  0.4697  0.6062
 4509SOL    HW124989   1.190   1.768   9.131 -1.4805  0.3336  2.5440
 4509SOL    HW224990   1.082   1.674   9.133  0.1254  0.8859 -1.1446
 4510SOL     OW24991   1.625   4.683   2.236  0.2291 -0.2050  0.6523
 4510SOL    HW124992   1.549   4.677   2.293 -0.0987  2.5290  0.4806
 4510SOL    HW224993   1.584   4.635   2.164 -2.5988 -0.0414  2.1779
 4511SOL     OW24994   0.837   3.422   5.238  0.2356 -0.9983  0.1205
 4511SOL    HW124995   0.857   3.423   5.331  1.2348 -1.2291 -0.0873
 4511SOL    HW224996   0.898   3.489   5.210 -2.5981  2.0029  1.1897
 4512SOL     OW24997   1.976   2.119  15.592  0.3597  0.0876  0.3599
 4512SOL    HW124998   1.917   2.186  15.556  0.4254 -0.9805 -1.6819
 4512SOL    HW224999   1.918   2.047  15.616 -0.7777  1.1015  0.6829
 4513SOL     OW25000   2.884   1.432   4.681 -0.6819  0.3094 -0.7906
 4513SOL    HW125001   2.957   1.396   4.630 -1.3006  0.2685 -1.6431
 4513SOL    HW225002   2.895   1.525   4.660 -1.4794  0.4071 -0.7833
 4514SOL     OW25003   3.725   3.977   1.481 -0.6039 -0.1058 -0.3148
 4514SOL    HW125004   3.815   3.967   1.511  0.8893  0.5739 -4.5526
 4514SOL    HW225005   3.707   4.045   1.547  0.4037  1.2975 -1.4814
 4515SOL     OW25006   2.199   0.429   4.016 -0.2435  0.0094  0.1184
 4515SOL    HW125007   2.166   0.508   4.058  1.7561 -0.4790  2.5849
 4515SOL    HW225008   2.117   0.390   3.986  1.7763 -1.7972 -3.1913
 4516SOL     OW25009   1.507   4.062  17.441 -0.5788 -0.3678 -0.9019
 4516SOL    HW125010   1.445   4.120  17.396  1.4504  1.2468 -1.5801
 4516SOL    HW225011   1.469   3.974  17.439 -0.1266 -0.5575 -1.0731
 4517SOL     OW25012   0.960   2.524   6.150 -0.3664  0.7494 -0.5923
 4517SOL    HW125013   0.965   2.586   6.078 -1.0643  1.8000  0.2662
 4517SOL    HW225014   0.958   2.437   6.109  2.2010  0.3484  0.1644
 4518SOL     OW25015   1.801   1.545   7.007  0.2664  0.1570  0.4223
 4518SOL    HW125016   1.748   1.546   7.087  0.8575 -1.5346  0.8395
 4518SOL    HW225017   1.728   1.533   6.946  0.3434  2.0181 -0.0400
 4519SOL     OW25018   3.337   0.312   2.568  0.1957  0.1384  0.7949
 4519SOL    HW125019   3.326   0.255   2.492  2.4491  0.6783  0.0853
 4519SOL    HW225020   3.387   0.256   2.628 -2.1495 -1.5085  1.2162
 4520SOL     OW25021   1.569   2.261   3.178 -0.1657 -0.4077 -0.1894
 4520SOL    HW125022   1.605   2.175   3.157 -1.5983 -1.4105  1.4109
 4520SOL    HW225023   1.477   2.236   3.189  0.1480 -0.8805  1.3464
 4521SOL     OW25024   2.619   4.295  16.098 -0.1879  0.3006 -0.0028
 4521SOL    HW125025   2.535   4.312  16.141 -1.1410 -2.7049 -0.6845
 4521SOL    HW225026   2.588   4.258  16.016  0.1643 -1.4745  0.6581
 4522SOL     OW25027   2.801   2.041   9.158  0.7374 -0.6163  0.4208
 4522SOL    HW125028   2.769   2.110   9.216 -0.9122 -0.4407 -0.6817
 4522SOL    HW225029   2.821   2.084   9.075 -0.6647  2.4940  1.6891
 4523SOL     OW25030   3.677   1.123   0.527 -0.7711  0.0822 -0.4237
 4523SOL    HW125031   3.685   1.125   0.431  1.8222  0.6726 -0.2088
 4523SOL    HW225032   3.649   1.211   0.551 -0.2985 -0.4506  2.0408
 4524SOL     OW25033   4.527   1.447   8.129  0.3077  0.7982  0.6438
 4524SOL    HW125034   4.446   1.496   8.115 -0.7433 -1.1918 -0.2282
 4524SOL    HW225035   4.580   1.526   8.143  0.1462  0.5211  2.8028
 4525SOL     OW25036   2.535   4.357   5.213 -0.4259  0.0055  0.1777
 4525SOL    HW125037   2.513   4.410   5.290  2.2436 -0.3867  1.2140
 4525SOL    HW225038   2.578   4.278   5.245  0.7332  0.9580  0.9526
 4526SOL     OW25039   1.620   2.340  15.756 -0.0866  0.1507 -0.3012
 4526SOL    HW125040   1.620   2.326  15.851  1.5718  1.4180 -0.1121
 4526SOL    HW225041   1.570   2.262  15.731  2.2080 -0.9933 -1.3078
 4527SOL     OW25042   4.095   1.566  15.431  0.6698  0.3281 -0.0446
 4527SOL    HW125043   4.176   1.531  15.469  1.8317  1.6566 -1.2689
 4527SOL    HW225044   4.037   1.490  15.434  1.6351 -0.4300 -0.2931
 4528SOL     OW25045   2.209   2.247   0.075 -0.1962 -0.5148  0.4398
 4528SOL    HW125046   2.258   2.197   0.139  2.1606 -2.3558 -2.7758
 4528SOL    HW225047   2.120   2.226   0.104  0.1430 -0.3125  1.6109
 4529SOL     OW25048   4.225   1.931   0.816 -0.0160  0.8968 -0.7287
 4529SOL    HW125049   4.178   1.865   0.865 -0.1573  1.3648 -0.2327
 4529SOL    HW225050   4.201   1.925   0.723 -3.0066 -1.5087  0.2106
 4530SOL     OW25051   2.883   4.007   5.242 -0.0658  0.3722  0.1252
 4530SOL    HW125052   2.935   4.077   5.204  0.8574 -0.3465  0.0744
 4530SOL    HW225053   2.796   4.044   5.257  0.8058  2.4976 -0.0985
 4531SOL     OW25054   4.639   4.026   1.593  0.2797 -0.5079  0.4384
 4531SOL    HW125055   0.008   4.044   1.581  0.6330 -2.3426  0.4090
 4531SOL    HW225056   4.603   4.068   1.514  1.8148  1.1236  0.5934
 4532SOL     OW25057   2.357   2.378   5.415  0.2883  0.8858  0.2975
 4532SOL    HW125058   2.360   2.437   5.340  0.2525  0.3355 -0.1396
 4532SOL    HW225059   2.450   2.381   5.437 -0.1600 -0.3685  2.3137
 4533SOL     OW25060   1.630   1.831   4.153 -0.3845  0.6464 -0.2623
 4533SOL    HW125061   1.609   1.751   4.201 -0.9351  1.3691  0.6963
 4533SOL    HW225062   1.686   1.869   4.220 -0.1898  0.7638 -0.4922
 4534SOL     OW25063   4.096   1.644   3.476 -0.5056  0.4794  0.1692
 4534SOL    HW125064   4.158   1.590   3.525  0.8071 -0.2464 -2.2650
 4534SOL    HW225065   4.091   1.607   3.388  1.0159  2.4846 -0.7715
 4535SOL     OW25066   4.556   0.600  13.571 -0.2918 -0.9019  0.1055
 4535SOL    HW125067   4.467   0.636  13.568 -0.0491 -0.2460  0.8417
 4535SOL    HW225068   4.553   0.575  13.478  1.6742  1.3468 -0.5835
 4536SOL     OW25069   4.316   3.392   6.577 -0.0165  0.0759  0.2281
 4536SOL    HW125070   4.245   3.399   6.641  0.3680  1.6053  0.4751
 4536SOL    HW225071   4.271   3.411   6.494  2.3917  0.4269 -1.0000
 4537SOL     OW25072   0.442   2.621  13.606  0.6189 -0.4710 -0.0734
 4537SOL    HW125073   0.530   2.659  13.605  0.0736  0.8105  0.7418
 4537SOL    HW225074   0.395   2.650  13.528  1.5188 -2.0608 -1.2055
 4538SOL     OW25075   3.738   1.923   3.020 -0.6874  0.2046  0.3131
 4538SOL    HW125076   3.662   1.917   2.963  0.8206  0.8565 -1.7554
 4538SOL    HW225077   3.729   2.003   3.073 -1.1796  1.1287 -1.1949
 4539SOL     OW25078   3.021   0.928  10.798 -0.1650 -1.1937 -0.0488
 4539SOL    HW125079   3.052   0.882  10.720  0.6788 -2.1901  0.8704
 4539SOL    HW225080   2.962   0.862  10.833  0.1280 -1.8151 -0.7463
 4540SOL     OW25081   3.078   2.663  15.391 -0.7723 -0.0104  0.3775
 4540SOL    HW125082   3.145   2.596  15.377 -0.0438  0.9635 -0.8091
 4540SOL    HW225083   3.146   2.730  15.405  1.6065 -1.8989 -2.0667
 4541SOL     OW25084   1.487   2.264  10.955 -0.2087 -0.2924 -0.4436
 4541SOL    HW125085   1.402   2.291  10.989  0.2964  0.2991  0.3376
 4541SOL    HW225086   1.511   2.193  11.015 -0.3219 -0.0299 -0.0874
 4542SOL     OW25087   2.705   1.389   7.239  0.3263 -0.3107  0.6315
 4542SOL    HW125088   2.755   1.328   7.293 -1.3879 -2.8201 -0.6184
 4542SOL    HW225089   2.633   1.407   7.300  0.3194 -0.5446  0.6928
 4543SOL     OW25090   2.464   4.601  10.724  0.2489 -0.8999 -0.5454
 4543SOL    HW125091   2.388   4.587  10.780 -0.5563 -0.0129 -1.4189
 4543SOL    HW225092   2.504   4.514  10.719  1.0602 -0.5773  0.4018
 4544SOL     OW25093   2.280   4.065   7.698 -0.1737  0.4179 -0.1507
 4544SOL    HW125094   2.216   4.131   7.672  1.2795  1.0121 -2.2638
 4544SOL    HW225095   2.314   4.102   7.779  1.0130  1.2991 -1.0346
 4545SOL     OW25096   1.504   4.017   5.786 -0.2816 -0.3906  0.0085
 4545SOL    HW125097   1.555   3.941   5.758 -1.3395 -1.6566  1.5109
 4545SOL    HW225098   1.416   4.013   5.750  0.3232 -5.3519 -0.8079
 4546SOL     OW25099   4.615   1.574   3.010 -0.2844 -0.4315 -0.1474
 4546SOL    HW125100   4.630   1.632   2.935  2.0538 -0.5843  0.1927
 4546SOL    HW225101   4.533   1.539   2.977 -1.5887  2.0521  0.4509
 4547SOL     OW25102   3.543   1.170   0.920  0.3028 -0.3546  0.0811
 4547SOL    HW125103   3.541   1.257   0.960  0.0106 -0.7272  0.8778
 4547SOL    HW225104   3.462   1.161   0.871  0.0628  0.6262  0.2866
 4548SOL     OW25105   3.379   3.766   2.810  0.3626  0.0600  0.1124
 4548SOL    HW125106   3.372   3.771   2.905 -0.9259  0.3900 -0.0013
 4548SOL    HW225107   3.470   3.738   2.802  0.5448  1.0313 -1.2571
 4549SOL     OW25108   3.485   3.521   5.258 -0.1094 -0.3602 -0.3360
 4549SOL    HW125109   3.457   3.510   5.167 -0.2458  2.2951 -0.6174
 4549SOL    HW225110   3.402   3.514   5.305  1.5898  3.8268  3.3047
 4550SOL     OW25111   0.005   2.869   3.231  0.2948 -0.0428 -0.3023
 4550SOL    HW125112   0.007   2.783   3.188  0.3227 -0.0963 -0.1953
 4550SOL    HW225113   0.030   2.929   3.161  0.2589  1.1614  0.7272
 4551SOL     OW25114   3.102   4.110   9.049  0.2911  0.4839 -0.4222
 4551SOL    HW125115   3.189   4.132   9.082 -0.0151 -1.5541  1.7777
 4551SOL    HW225116   3.063   4.082   9.132 -2.3177  1.3595 -1.3327
 4552SOL     OW25117   2.556   0.197   8.264 -0.9473 -0.1447  0.1521
 4552SOL    HW125118   2.626   0.253   8.296 -0.6028 -1.2386  1.2837
 4552SOL    HW225119   2.594   0.118   8.224  0.5172  0.1291  1.0499
 4553SOL     OW25120   1.504   3.311   5.294  0.7014  0.0218 -0.0790
 4553SOL    HW125121   1.591   3.271   5.291  1.0065  0.5867  1.0824
 4553SOL    HW225122   1.501   3.361   5.212 -1.0929  1.5497  0.9184
 4554SOL     OW25123   2.918   1.951   7.601 -0.1624  0.1703 -0.2291
 4554SOL    HW125124   2.975   1.879   7.575 -1.3659 -0.5534 -0.8491
 4554SOL    HW225125   2.963   2.030   7.572  0.3224 -0.1728 -0.4123
 4555SOL     OW25126   3.487   2.478   4.780  0.3298  0.0965 -0.0638
 4555SOL    HW125127   3.501   2.558   4.729 -0.4681 -0.8897 -1.8386
 4555SOL    HW225128   3.400   2.445   4.756  0.3883 -0.0381 -0.0920
 4556SOL     OW25129   1.737   2.733   3.516  0.0586  0.3918 -0.2881
 4556SOL    HW125130   1.691   2.708   3.435 -1.6324  0.6145  0.5927
 4556SOL    HW225131   1.686   2.807   3.550 -0.9347  0.8355 -2.6885
 4557SOL     OW25132   4.358   2.327  13.029  0.2666 -0.3656 -0.3483
 4557SOL    HW125133   4.421   2.281  12.974 -1.0323 -2.6590  0.1106
 4557SOL    HW225134   4.303   2.364  12.960 -0.6368  1.1025  1.1605
 4558SOL     OW25135   1.767   1.926   4.615 -0.2505 -0.7315 -0.4351
 4558SOL    HW125136   1.851   1.961   4.645 -1.6564  3.5429 -1.5507
 4558SOL    HW225137   1.776   1.929   4.520  2.1172 -0.2658 -0.1863
 4559SOL     OW25138   0.452   1.930   1.995 -0.1037 -0.4963 -0.7195
 4559SOL    HW125139   0.401   2.004   1.961 -1.0153 -0.9112 -0.2326
 4559SOL    HW225140   0.526   1.933   1.933  0.7688 -1.3681  0.2866
 4560SOL     OW25141   0.159   3.668   0.142 -0.0147  0.1945  0.0964
 4560SOL    HW125142   0.147   3.594   0.201  1.2658  0.4470  0.6587
 4560SOL    HW225143   0.079   3.715   0.165 -0.5357 -2.0944  2.8169
 4561SOL     OW25144   1.902   3.967   5.026  0.2283  0.3649  0.7871
 4561SOL    HW125145   1.982   4.019   5.014 -0.5749  1.3004 -0.4966
 4561SOL    HW225146   1.940   3.894   5.075  0.7533  0.2041  0.1369
 4562SOL     OW25147   2.328   1.390   8.117 -0.2435 -0.2792 -0.2912
 4562SOL    HW125148   2.269   1.383   8.192  0.3628 -0.5925  0.1567
 4562SOL    HW225149   2.370   1.304   8.114 -0.7603 -0.4982 -1.4454
 4563SOL     OW25150   4.460   4.174   7.734  0.1136  0.5096 -0.1151
 4563SOL    HW125151   4.443   4.256   7.689 -0.6872  0.7791  0.6790
 4563SOL    HW225152   4.429   4.197   7.822  2.0592  0.8214  0.4840
 4564SOL     OW25153   0.365   4.043   2.833  0.6126  0.5689  0.0967
 4564SOL    HW125154   0.360   4.040   2.738  0.1674 -1.7290  0.2026
 4564SOL    HW225155   0.402   3.956   2.843 -1.6337 -0.4680 -0.5002
 4565SOL     OW25156   2.356   0.124   8.449 -0.3833 -0.4650  0.0830
 4565SOL    HW125157   2.408   0.155   8.375 -0.4629 -1.5538 -0.4342
 4565SOL    HW225158   2.408   0.052   8.484 -1.9116 -1.9443 -0.6474
 4566SOL     OW25159   1.580   3.310  13.547 -0.2592 -0.2094  0.3758
 4566SOL    HW125160   1.612   3.225  13.578 -1.7239 -0.2997  1.6816
 4566SOL    HW225161   1.485   3.295  13.539 -0.0573 -0.2109 -1.9612
 4567SOL     OW25162   0.968   1.224   4.890  0.4459 -1.0079  0.1762
 4567SOL    HW125163   1.000   1.168   4.819  2.3712  0.7479 -0.3685
 4567SOL    HW225164   1.001   1.309   4.859 -0.8398  0.5310  2.9877
 4568SOL     OW25165   2.591   3.294  17.207  0.0228  0.1262  0.0154
 4568SOL    HW125166   2.595   3.291  17.303  0.0600 -1.3690 -0.0409
 4568SOL    HW225167   2.498   3.276  17.195  0.9822 -3.3288 -2.2547
 4569SOL     OW25168   4.328   3.504   4.777  0.1355  0.2686 -0.3008
 4569SOL    HW125169   4.261   3.543   4.832  0.4995  0.1907  0.1932
 4569SOL    HW225170   4.380   3.457   4.842  0.9715 -0.0713 -1.1989
 4570SOL     OW25171   1.422   2.829   3.057 -0.2208 -0.4648  0.1723
 4570SOL    HW125172   1.353   2.841   2.991  0.9785  1.1611 -0.8057
 4570SOL    HW225173   1.391   2.873   3.136  1.5425  0.4799  0.3428
 4571SOL     OW25174   1.991   3.182   4.095 -0.5888  0.1691 -0.1986
 4571SOL    HW125175   1.954   3.094   4.100  1.8688 -0.9697 -2.4918
 4571SOL    HW225176   1.917   3.230   4.059 -0.0901  0.0392 -1.3915
 4572SOL     OW25177   4.526   3.405  15.969  0.3349  0.1879 -0.0141
 4572SOL    HW125178   4.515   3.375  16.059  4.0697  1.6908  0.9483
 4572SOL    HW225179   4.524   3.325  15.917 -0.1925  1.7915 -2.4729
 4573SOL     OW25180   4.418   0.562   7.756  0.0865  0.5706 -0.6274
 4573SOL    HW125181   4.379   0.476   7.772 -1.9477  2.0027  2.1397
 4573SOL    HW225182   4.436   0.584   7.848  0.1287 -0.7244 -0.3157
 4574SOL     OW25183   0.016   4.128  14.200 -0.6260 -0.3447 -0.4682
 4574SOL    HW125184   0.055   4.123  14.113 -0.4932 -2.9470 -0.2677
 4574SOL    HW225185   4.702   4.041  14.188 -0.0084 -0.3137 -2.6459
 4575SOL     OW25186   2.229   0.310  12.142 -0.4183 -0.2274 -0.5149
 4575SOL    HW125187   2.181   0.327  12.061 -1.8309  2.5166  0.8841
 4575SOL    HW225188   2.302   0.371  12.141 -1.5453  1.1321  0.9458
 4576SOL     OW25189   2.123   2.579   3.979 -0.3927 -0.0629  0.2775
 4576SOL    HW125190   2.045   2.617   4.017 -0.1910  1.0702 -0.4667
 4576SOL    HW225191   2.157   2.536   4.058 -0.7615  0.0567  0.4977
 4577SOL     OW25192   0.524   2.212   5.922  0.0258 -0.3327 -0.2268
 4577SOL    HW125193   0.567   2.164   5.992 -1.6155  1.3804  1.9666
 4577SOL    HW225194   0.598   2.224   5.862 -0.2403 -1.3774 -0.7602
 4578SOL     OW25195   0.294   2.081  15.272  0.0084  0.3560 -0.3868
 4578SOL    HW125196   0.219   2.114  15.223  0.6990  0.9627 -1.0360
 4578SOL    HW225197   0.245   2.051  15.349 -0.9988 -2.2090 -2.0316
 4579SOL     OW25198   2.106   0.688   6.769  0.0453  0.4412 -0.3001
 4579SOL    HW125199   2.169   0.705   6.839 -1.2112 -0.2160  0.9687
 4579SOL    HW225200   2.169   0.649   6.707  0.8566  1.5881 -0.1955
 4580SOL     OW25201   3.624   3.445   4.974 -0.0085  0.1382  0.1214
 4580SOL    HW125202   3.611   3.444   4.879 -3.5282 -1.5367  0.6368
 4580SOL    HW225203   3.662   3.360   4.994  1.5294  0.9853  0.8403
 4581SOL     OW25204   4.446   0.313   3.407 -0.1456 -0.0720 -0.0658
 4581SOL    HW125205   4.528   0.269   3.430  0.7063  2.4495  1.7624
 4581SOL    HW225206   4.466   0.338   3.317  0.9238 -1.7766 -0.2990
 4582SOL     OW25207   2.456   4.504   2.535 -0.3533  0.0934  0.1501
 4582SOL    HW125208   2.409   4.556   2.470  1.3409 -1.6473 -2.4796
 4582SOL    HW225209   2.550   4.520   2.533 -0.0979 -1.3751  0.1495
 4583SOL     OW25210   4.415   0.243   1.398  0.4164 -0.4252  0.1430
 4583SOL    HW125211   4.334   0.273   1.441  1.4099  0.8348  1.1317
 4583SOL    HW225212   4.470   0.197   1.461  1.3464  0.5576  0.0552
 4584SOL     OW25213   1.311   3.098  16.685  0.2026 -0.0580  0.1613
 4584SOL    HW125214   1.342   3.157  16.754 -0.2034 -0.4508  0.6789
 4584SOL    HW225215   1.221   3.124  16.666 -0.4095 -2.3211  0.0730
 4585SOL     OW25216   3.986   2.580   3.627 -0.2953  0.4748  0.5671
 4585SOL    HW125217   4.006   2.516   3.559  1.0847  0.6223  0.8317
 4585SOL    HW225218   3.952   2.519   3.692 -2.1634  1.1672  0.2126
 4586SOL     OW25219   3.951   0.923  14.477 -0.1074  0.5174 -0.0103
 4586SOL    HW125220   3.957   0.886  14.565  0.3273  0.3694 -0.1015
 4586SOL    HW225221   4.043   0.942  14.458 -0.1113 -1.0494 -1.5413
 4587SOL     OW25222   3.873   2.810   7.597  0.6901 -1.1785  0.3450
 4587SOL    HW125223   3.943   2.859   7.640  2.0568 -0.9617 -2.0692
 4587SOL    HW225224   3.920   2.748   7.541 -0.5253 -0.0033 -1.9795
 4588SOL     OW25225   0.130   0.365  14.179 -0.1228  0.4577  0.9304
 4588SOL    HW125226   0.210   0.404  14.215 -0.2927  1.6197  0.0635
 4588SOL    HW225227   0.076   0.381  14.256 -1.3545  2.0348 -0.2580
 4589SOL     OW25228   0.089   2.024   4.529 -0.3111 -0.0954  0.3601
 4589SOL    HW125229   0.027   1.966   4.486  1.4228 -0.2268 -1.9481
 4589SOL    HW225230   0.170   1.998   4.486  0.9589  2.5499  1.1380
 4590SOL     OW25231   2.626   0.437   8.016  0.2223 -0.5678 -0.0924
 4590SOL    HW125232   2.580   0.472   8.093 -0.6789 -0.1963 -0.8053
 4590SOL    HW225233   2.636   0.522   7.973 -0.7554 -0.2531  0.3002
 4591SOL     OW25234   4.697   3.910   8.963  0.2311  0.9045  0.1791
 4591SOL    HW125235   4.642   3.859   9.022 -0.4300  0.1397 -1.1017
 4591SOL    HW225236   4.665   3.998   8.984 -0.3574  0.4953  0.9854
 4592SOL     OW25237   4.681   1.654   8.226  0.5916 -0.1652  0.1459
 4592SOL    HW125238   4.690   1.745   8.197  1.9258 -0.3259  0.0255
 4592SOL    HW225239   0.045   1.620   8.205  0.3957 -0.4811 -0.1702
 4593SOL     OW25240   0.315   3.265   8.493  0.1082  0.3533 -0.2817
 4593SOL    HW125241   0.249   3.335   8.487  0.6978  0.9334  0.0280
 4593SOL    HW225242   0.383   3.317   8.534 -0.0223  0.9995 -0.8819
 4594SOL     OW25243   2.369   0.836   8.985 -0.6796 -0.3770  0.6449
 4594SOL    HW125244   2.326   0.752   9.002 -1.6027  0.0286  0.2913
 4594SOL    HW225245   2.311   0.909   9.007 -0.1186  0.8101 -1.7580
 4595SOL     OW25246   0.458   3.891   6.628 -0.4428  0.4781  0.2640
 4595SOL    HW125247   0.527   3.839   6.669  0.1833 -0.0789 -1.4761
 4595SOL    HW225248   0.507   3.938   6.560  1.7667 -0.9791  0.8688
 4596SOL     OW25249   3.533   3.802   7.268  0.2768 -0.1927 -0.2694
 4596SOL    HW125250   3.582   3.731   7.228 -2.6566 -1.2875 -1.9097
 4596SOL    HW225251   3.569   3.795   7.357  1.2908  1.4396 -0.5517
 4597SOL     OW25252   3.826   1.596   7.254  0.2023  0.3781 -0.3516
 4597SOL    HW125253   3.761   1.589   7.324 -0.7954  0.0247 -1.3006
 4597SOL    HW225254   3.857   1.506   7.247  1.0666  0.8934 -3.4362
 4598SOL     OW25255   2.286   1.826  11.053  0.0372 -0.0436 -0.2823
 4598SOL    HW125256   2.257   1.808  11.143  0.3684 -3.2858 -0.8055
 4598SOL    HW225257   2.216   1.878  11.012 -0.6728 -0.0124  0.9743
 4599SOL     OW25258   0.214   4.478   3.850  0.3661 -0.4966 -0.3662
 4599SOL    HW125259   0.271   4.492   3.926  0.5907 -2.4048 -0.1705
 4599SOL    HW225260   0.231   4.385   3.834 -0.4882 -0.9553  1.3872
 4600SOL     OW25261   1.427   2.255  16.659 -0.4540  0.3410 -0.2894
 4600SOL    HW125262   1.469   2.200  16.593 -0.9285  1.2801 -1.3886
 4600SOL    HW225263   1.443   2.208  16.740 -2.8701  3.4866  1.9884
 4601SOL     OW25264   3.634   1.975   9.458  0.5175  0.0151 -0.4912
 4601SOL    HW125265   3.574   1.951   9.528 -1.6273  0.3799 -2.2146
 4601SOL    HW225266   3.627   1.910   9.388 -0.1257  0.1748 -0.5750
 4602SOL     OW25267   3.227   2.397   2.129 -0.5063  0.2752  0.5219
 4602SOL    HW125268   3.182   2.432   2.053  1.1983  1.7196  0.1827
 4602SOL    HW225269   3.300   2.349   2.089 -0.0016  0.4984  1.1609
 4603SOL     OW25270   2.360   1.170   5.565  0.8060  0.0164  0.1379
 4603SOL    HW125271   2.431   1.107   5.550 -0.1454 -0.9356 -0.3256
 4603SOL    HW225272   2.295   1.116   5.609  1.1887  0.8010  1.6455
 4604SOL     OW25273   0.138   0.319   2.087  0.6277 -0.1331 -0.6576
 4604SOL    HW125274   0.175   0.407   2.083 -2.5860  1.3268  1.7408
 4604SOL    HW225275   0.224   0.277   2.086 -0.5334 -2.5474  0.6430
 4605SOL     OW25276   0.798   2.066   8.471  0.0368 -0.4078 -0.0764
 4605SOL    HW125277   0.780   2.047   8.563  0.4137 -1.8198 -0.2952
 4605SOL    HW225278   0.714   2.062   8.425  0.1042 -0.1399 -0.2184
 4606SOL     OW25279   0.967   2.399   4.343  0.1548 -0.4072  0.0075
 4606SOL    HW125280   1.042   2.346   4.317  0.1785  0.8314 -2.4306
 4606SOL    HW225281   0.934   2.342   4.412  2.0949  0.6613  1.8026
 4607SOL     OW25282   2.369   4.702   3.047  0.7424  0.3292 -0.0341
 4607SOL    HW125283   2.420   4.632   3.008 -0.6422  0.0010 -1.2435
 4607SOL    HW225284   2.296   4.703   2.985 -0.2280  1.0723  1.1298
 4608SOL     OW25285   0.449   4.056   5.216 -0.0056 -0.4875  0.2040
 4608SOL    HW125286   0.510   4.127   5.234 -1.1281  0.4357  0.3253
 4608SOL    HW225287   0.402   4.088   5.139  0.9189 -0.8845 -0.5283
 4609SOL     OW25288   0.738   1.590   6.921 -0.2120  0.3533  0.6060
 4609SOL    HW125289   0.764   1.542   7.000  0.4391 -2.2429 -1.1869
 4609SOL    HW225290   0.653   1.556   6.892 -0.5549 -0.7061  2.7912
 4610SOL     OW25291   4.668   1.341  16.590 -0.3457 -0.0483  0.2861
 4610SOL    HW125292   4.686   1.387  16.671 -1.2627 -2.4842  1.8690
 4610SOL    HW225293   4.680   1.412  16.526  0.4711 -1.3103 -0.9849
 4611SOL     OW25294   1.778   1.954   4.335  0.3297 -0.0421  0.1208
 4611SOL    HW125295   1.853   1.974   4.280 -0.0431 -1.0296 -0.7488
 4611SOL    HW225296   1.731   2.038   4.333  0.0075 -0.2561 -1.3030
 4612SOL     OW25297   3.155   1.194   7.450  0.3698  0.4835  0.1366
 4612SOL    HW125298   3.060   1.201   7.440  0.4909  4.0520  1.7136
 4612SOL    HW225299   3.160   1.220   7.542  0.9668  1.7283 -0.2536
 4613SOL     OW25300   4.148   1.423   4.621  0.5624  0.1940 -0.0170
 4613SOL    HW125301   4.145   1.518   4.633  1.2026 -0.0946  2.6572
 4613SOL    HW225302   4.118   1.382   4.703  2.7596  0.6852  1.0364
 4614SOL     OW25303   0.575   4.301   3.533 -0.3814  0.6104 -0.8005
 4614SOL    HW125304   0.639   4.348   3.587 -1.6596  1.8899 -0.3986
 4614SOL    HW225305   0.618   4.292   3.448 -1.3383 -0.7121 -1.1335
 4615SOL     OW25306   2.702   0.264   4.318  0.3107 -0.6157  0.3622
 4615SOL    HW125307   2.679   0.345   4.363  2.9540  0.6761 -0.5744
 4615SOL    HW225308   2.795   0.289   4.310 -0.0629  0.2456 -1.2375
 4616SOL     OW25309   3.403   2.862   5.833 -0.1768  0.7490 -0.6203
 4616SOL    HW125310   3.345   2.936   5.815 -0.8522  0.2252 -0.5739
 4616SOL    HW225311   3.343   2.808   5.884  1.7001 -1.6183 -0.9066
 4617SOL     OW25312   4.350   1.039  15.007  0.4444 -0.5780  0.0249
 4617SOL    HW125313   4.286   1.002  15.068  0.9274  0.9504  1.4445
 4617SOL    HW225314   4.421   1.058  15.068  0.4882  2.3233 -0.9706
 4618SOL     OW25315   4.089   0.365   3.604  0.4563  0.0574 -0.4911
 4618SOL    HW125316   4.131   0.289   3.565  1.9093  0.9046 -0.5590
 4618SOL    HW225317   4.158   0.426   3.629 -0.1997  1.4453 -2.0251
 4619SOL     OW25318   1.243   0.811   8.261  0.1078 -0.3624 -0.0084
 4619SOL    HW125319   1.213   0.720   8.261 -1.8381  0.2663 -0.0864
 4619SOL    HW225320   1.159   0.854   8.243 -0.3689 -1.4546 -0.4210
 4620SOL     OW25321   2.002   1.010  15.002 -0.1597  0.1140 -0.4795
 4620SOL    HW125322   1.970   0.977  14.918 -2.6791  0.8546  0.1824
 4620SOL    HW225323   2.051   1.086  14.971  2.6038 -1.9547 -1.1214
 4621SOL     OW25324   1.881   3.168   1.696 -0.1089  0.0305  0.0934
 4621SOL    HW125325   1.806   3.166   1.756  1.6998 -1.9745  2.2818
 4621SOL    HW225326   1.914   3.080   1.714 -0.0496  0.1056  0.3466
 4622SOL     OW25327   1.251   1.156   3.946 -0.0152 -0.3552  0.0133
 4622SOL    HW125328   1.181   1.147   3.882 -0.0086  2.1449 -0.3645
 4622SOL    HW225329   1.236   1.074   3.992 -0.2222  0.0427  0.6557
 4623SOL     OW25330   3.824   2.052   6.281 -0.0706  0.3036  0.1940
 4623SOL    HW125331   3.869   2.007   6.210  0.2801  0.9134  0.0247
 4623SOL    HW225332   3.901   2.086   6.328  0.8942 -2.4176  0.5431
 4624SOL     OW25333   2.858   3.559   7.748 -0.4476 -0.0027 -0.5389
 4624SOL    HW125334   2.918   3.593   7.815  0.6322 -0.2992 -1.3694
 4624SOL    HW225335   2.896   3.607   7.675 -1.9654 -1.0644 -2.0268
 4625SOL     OW25336   2.921   1.989   4.690 -0.1115 -0.2896 -0.5690
 4625SOL    HW125337   2.851   1.933   4.726 -0.4458 -1.7542 -3.5100
 4625SOL    HW225338   2.987   1.965   4.755  0.4784  0.2256 -0.9848
 4626SOL     OW25339   3.781   2.600   8.840 -0.4643 -0.0512 -0.1663
 4626SOL    HW125340   3.779   2.527   8.902 -0.9956  0.4961  0.4670
 4626SOL    HW225341   3.690   2.627   8.826 -0.5993 -0.3044  0.2034
 4627SOL     OW25342   4.139   0.609   3.413  0.0187 -0.0614  0.3162
 4627SOL    HW125343   4.084   0.555   3.470  0.8926 -2.1053 -0.7668
 4627SOL    HW225344   4.107   0.580   3.327 -0.1824 -0.7635  0.6299
 4628SOL     OW25345   0.119   4.566  17.338  0.2360  0.3541 -0.3874
 4628SOL    HW125346   0.149   4.564  17.429  1.3712 -0.8464 -0.7889
 4628SOL    HW225347   0.170   4.493  17.304 -0.5776 -0.3860  0.0007
 4629SOL     OW25348   3.114   3.206  11.479  0.0429  0.1884  0.4871
 4629SOL    HW125349   3.132   3.169  11.392 -1.5040  0.6553 -0.0369
 4629SOL    HW225350   3.108   3.299  11.460  2.2263  0.5911  1.8478
 4630SOL     OW25351   0.550   3.165   4.935  0.1613  0.0993  0.0026
 4630SOL    HW125352   0.476   3.193   4.883  0.5179 -1.1477 -1.1827
 4630SOL    HW225353   0.601   3.246   4.935 -0.2421  0.3415  2.4674
 4631SOL     OW25354   2.029   0.960   8.243  0.3412  0.4196 -1.0454
 4631SOL    HW125355   2.110   0.912   8.222 -0.3962 -0.0041 -2.8965
 4631SOL    HW225356   1.971   0.903   8.193  0.7347 -0.9896  0.0959
 4632SOL     OW25357   1.254   1.764   2.393 -0.1564 -0.6063 -0.1357
 4632SOL    HW125358   1.240   1.708   2.317  0.7135  1.2235 -1.6189
 4632SOL    HW225359   1.334   1.724   2.427 -0.1847  0.7435  1.5230
 4633SOL     OW25360   0.964   3.093   7.819 -0.1704 -0.4131  0.4818
 4633SOL    HW125361   1.050   3.107   7.777 -0.9614  0.5361 -0.8305
 4633SOL    HW225362   0.945   3.008   7.780 -1.2161  2.1480 -4.7157
 4634SOL     OW25363   4.189   1.707  15.760  0.2790 -0.0096 -0.4890
 4634SOL    HW125364   4.177   1.800  15.780  0.1933 -0.6153  2.2872
 4634SOL    HW225365   4.098   1.686  15.741 -0.3019  1.2633  0.8784
 4635SOL     OW25366   0.043   4.525   4.234 -0.4322 -0.2652  0.4279
 4635SOL    HW125367   0.108   4.529   4.303 -1.0011 -1.7252  1.0368
 4635SOL    HW225368   0.060   4.440   4.194  0.3908  1.0541 -2.0710
 4636SOL     OW25369   0.525   0.056   5.472  0.1540  0.1636 -0.2480
 4636SOL    HW125370   0.481   0.101   5.400 -0.8578 -0.6255 -0.1124
 4636SOL    HW225371   0.507   0.115   5.546 -0.3448  0.8373 -0.9146
 4637SOL     OW25372   2.816   4.063   7.683 -0.1445 -0.1871  0.0494
 4637SOL    HW125373   2.860   4.142   7.650  0.5404 -1.4104 -1.9516
 4637SOL    HW225374   2.727   4.095   7.668  0.8773  2.1152 -1.1296
 4638SOL     OW25375   0.905   4.648   3.392 -0.0052 -0.2381  0.1499
 4638SOL    HW125376   1.001   4.648   3.387 -0.0999  0.9435 -1.6003
 4638SOL    HW225377   0.893   4.576   3.454 -1.4279  0.3310  0.5350
 4639SOL     OW25378   3.447   0.069   4.195  0.0769  0.1396  0.4268
 4639SOL    HW125379   3.379   0.028   4.249  0.5113 -0.9996  0.1192
 4639SOL    HW225380   3.506   4.717   4.202 -0.5866 -0.5959 -1.9434
 4640SOL     OW25381   0.193   0.434  10.955 -0.0736  0.3464 -0.3504
 4640SOL    HW125382   0.286   0.452  10.969 -0.5696  1.8103  1.1211
 4640SOL    HW225383   0.168   0.526  10.945  0.9610  0.7364  0.7809
 4641SOL     OW25384   0.762   2.849   3.410  0.0143 -0.4103  0.4793
 4641SOL    HW125385   0.756   2.803   3.493  2.3850 -1.2096  0.1882
 4641SOL    HW225386   0.760   2.939   3.443  1.1982  0.0308 -0.6432
 4642SOL     OW25387   1.165   2.794   8.461  0.0522 -0.6542  0.0972
 4642SOL    HW125388   1.096   2.788   8.395  0.9611  2.8303 -1.1813
 4642SOL    HW225389   1.116   2.758   8.535 -0.1972 -1.2067 -0.3391
 4643SOL     OW25390   4.542   4.360  16.688  0.5663  0.2486 -0.2105
 4643SOL    HW125391   4.472   4.310  16.647  0.7268  1.3775 -1.8830
 4643SOL    HW225392   4.572   4.306  16.761 -1.9168 -0.0987  0.5645
 4644SOL     OW25393   1.874   2.817  16.567 -0.2705  0.0502  0.4806
 4644SOL    HW125394   1.881   2.912  16.554 -5.2190  0.2439 -0.4824
 4644SOL    HW225395   1.967   2.794  16.558 -0.9306 -1.6258 -2.0795
 4645SOL     OW25396   2.768   1.920   3.400  0.5576  0.0998  0.6214
 4645SOL    HW125397   2.798   1.840   3.356 -1.4072 -1.0889  1.4218
 4645SOL    HW225398   2.784   1.984   3.331  0.1325 -0.3756  0.0837
 4646SOL     OW25399   0.569   2.435   4.723  0.3654  0.0320 -0.0029
 4646SOL    HW125400   0.506   2.507   4.711 -1.8171 -1.4330  2.5589
 4646SOL    HW225401   0.542   2.388   4.644 -0.9180  0.0283  0.4309
 4647SOL     OW25402   1.658   4.531  13.551 -0.2046 -0.1447  0.3438
 4647SOL    HW125403   1.588   4.516  13.487  0.0984  0.0772 -0.0410
 4647SOL    HW225404   1.662   4.626  13.537 -0.1767  0.2405  3.0268
 4648SOL     OW25405   3.206   0.841  11.158  0.3900  0.0919 -0.1386
 4648SOL    HW125406   3.247   0.787  11.090 -2.0131  0.7828 -2.1091
 4648SOL    HW225407   3.248   0.817  11.241  1.6269  1.1839 -0.4565
 4649SOL     OW25408   2.163   2.585   9.175 -1.0335 -0.1429 -0.1611
 4649SOL    HW125409   2.103   2.658   9.161  0.2416  1.0389  0.5409
 4649SOL    HW225410   2.235   2.614   9.119  0.9529 -0.9030  2.0400
 4650SOL     OW25411   0.637   1.971   2.516 -0.4807  0.3435 -0.6346
 4650SOL    HW125412   0.594   2.055   2.529 -1.9034 -0.4988  0.1341
 4650SOL    HW225413   0.660   1.972   2.423  0.5917  0.4500 -0.3638
 4651SOL     OW25414   0.740   1.240  13.320 -0.3152 -0.2997 -0.0283
 4651SOL    HW125415   0.721   1.240  13.227 -0.4601  2.0866  0.0035
 4651SOL    HW225416   0.782   1.155  13.332 -1.3037 -0.5202  1.9310
 4652SOL     OW25417   1.302   2.266  14.513  0.1510  0.6995 -0.0716
 4652SOL    HW125418   1.272   2.335  14.455  0.7654  2.7755  2.0829
 4652SOL    HW225419   1.269   2.201  14.450 -0.6737  1.7357 -0.7146
 4653SOL     OW25420   0.446   1.753  12.848  0.4271  0.5647 -0.4051
 4653SOL    HW125421   0.411   1.761  12.759 -0.1574 -1.5180 -0.3597
 4653SOL    HW225422   0.433   1.845  12.871  1.0225  0.8944 -1.3713
 4654SOL     OW25423   4.529   3.670  13.077  0.2038 -0.2827  0.3904
 4654SOL    HW125424   4.463   3.608  13.109 -0.5075  1.6177  2.5724
 4654SOL    HW225425   4.610   3.620  13.089  1.6798  1.4885 -2.1185
 4655SOL     OW25426   3.913   1.209  16.196 -0.3391 -0.4091 -0.7341
 4655SOL    HW125427   3.866   1.139  16.151 -0.1590  0.5130 -2.3544
 4655SOL    HW225428   3.865   1.287  16.169  0.0823 -0.7429 -2.4254
 4656SOL     OW25429   0.398   4.361  14.146 -0.0064  0.5166  0.5756
 4656SOL    HW125430   0.388   4.389  14.055  0.0716 -0.3082  0.3119
 4656SOL    HW225431   0.473   4.301  14.146  0.4730  1.0964  2.6668
 4657SOL     OW25432   1.716   4.496   8.625 -0.6013  0.7068 -0.6283
 4657SOL    HW125433   1.662   4.531   8.696  0.5000  0.9842  0.0838
 4657SOL    HW225434   1.797   4.543   8.646 -0.8002  0.7316  0.0859
 4658SOL     OW25435   0.326   1.451  17.661 -0.1042 -0.2435 -0.0808
 4658SOL    HW125436   0.351   1.540  17.686  1.5561 -1.2273  1.7757
 4658SOL    HW225437   0.303   1.409   0.047 -0.3339  0.6101  0.2917
 4659SOL     OW25438   2.586   4.200  11.737 -0.3295 -0.5055 -0.0408
 4659SOL    HW125439   2.630   4.259  11.798  1.1521 -0.6202 -1.0182
 4659SOL    HW225440   2.502   4.246  11.727  0.0733  0.9078  3.0366
 4660SOL     OW25441   3.934   3.209   9.149 -0.0326  0.0405 -0.5966
 4660SOL    HW125442   3.898   3.296   9.163  0.6467  0.0588  0.9867
 4660SOL    HW225443   3.854   3.157   9.164  0.5178 -1.3960 -2.5650
 4661SOL     OW25444   3.812   0.945   8.864  0.1216  0.2621 -0.1406
 4661SOL    HW125445   3.855   0.928   8.780  0.3524  0.8126 -0.1385
 4661SOL    HW225446   3.890   0.948   8.919 -0.9659  0.7978  1.3750
 4662SOL     OW25447   0.094   1.563  14.950  0.0798 -0.1040 -0.2701
 4662SOL    HW125448   0.150   1.608  15.014  1.5817 -3.0254  0.5040
 4662SOL    HW225449   0.124   1.475  14.973 -1.3854 -1.0238 -1.9529
 4663SOL     OW25450   3.150   2.341   7.258  0.8572 -0.2255 -0.0093
 4663SOL    HW125451   3.100   2.361   7.178  1.1727 -0.5735 -0.2909
 4663SOL    HW225452   3.143   2.431   7.291  1.9030 -0.4480  0.7909
 4664SOL     OW25453   4.458   0.683   6.088 -0.1113  0.1132 -0.3865
 4664SOL    HW125454   4.405   0.613   6.127 -0.1000  0.2497 -0.1294
 4664SOL    HW225455   4.518   0.693   6.161 -1.8402 -2.6308  1.3852
 4665SOL     OW25456   2.332   0.149   7.213 -0.3262  0.3653  0.0233
 4665SOL    HW125457   2.302   0.223   7.265 -0.7353 -0.7886  1.4022
 4665SOL    HW225458   2.332   0.077   7.276 -1.8468 -0.4042 -0.8351
 4666SOL     OW25459   3.396   0.249   9.252 -0.1559 -0.0846 -0.6199
 4666SOL    HW125460   3.338   0.270   9.325 -0.8555 -0.0954 -1.1720
 4666SOL    HW225461   3.342   0.189   9.201  1.3906 -2.1744  0.1893
 4667SOL     OW25462   0.760   4.114   8.602 -0.1918  0.2159  0.2873
 4667SOL    HW125463   0.833   4.136   8.658 -1.3308  0.8861  1.5111
 4667SOL    HW225464   0.759   4.018   8.606  0.2743  0.1403 -1.3423
 4668SOL     OW25465   1.507   4.193   2.729  0.5805 -0.0754  0.1264
 4668SOL    HW125466   1.586   4.186   2.783  1.2087  0.5953 -0.6928
 4668SOL    HW225467   1.547   4.192   2.642 -1.4803  2.3395 -0.8446
 4669SOL     OW25468   1.136   4.698   0.555 -0.7581  0.4080  0.5167
 4669SOL    HW125469   1.076   0.012   0.619 -2.8709 -0.3217 -1.0365
 4669SOL    HW225470   1.218   4.682   0.602 -0.4606  1.4490  0.3547
 4670SOL     OW25471   3.554   1.606   5.832  0.1896 -0.4946  0.2690
 4670SOL    HW125472   3.582   1.534   5.888  0.4047 -0.6931 -0.0898
 4670SOL    HW225473   3.529   1.670   5.898  0.2405 -0.4398  0.2350
 4671SOL     OW25474   3.649   2.151   3.201 -0.4976 -0.7802 -0.6137
 4671SOL    HW125475   3.711   2.222   3.183 -1.6754  0.1112 -1.1212
 4671SOL    HW225476   3.698   2.112   3.273 -1.3312  1.0535  0.9455
 4672SOL     OW25477   2.859   4.051   2.322  0.0142  0.6043  0.2739
 4672SOL    HW125478   2.774   4.033   2.282  0.0735 -0.1002  0.4611
 4672SOL    HW225479   2.921   4.001   2.269  1.3221  1.1148  1.3332
 4673SOL     OW25480   2.140   4.625  11.403  0.3326 -0.6398 -0.3257
 4673SOL    HW125481   2.227   4.627  11.443  0.7989  1.2682 -1.4493
 4673SOL    HW225482   2.115   4.542  11.444 -0.2573 -0.7314 -0.8756
 4674SOL     OW25483   0.532   0.041  11.767  0.2816 -0.7900 -0.3872
 4674SOL    HW125484   0.453   0.046  11.821  0.7067  2.4888 -0.0921
 4674SOL    HW225485   0.494   0.043  11.678 -0.6455 -2.2870 -0.0278
 4675SOL     OW25486   4.442   3.282   5.482  0.8764 -0.4722 -0.1616
 4675SOL    HW125487   4.348   3.302   5.483  0.9737 -0.0028 -0.8668
 4675SOL    HW225488   4.481   3.362   5.515  1.6387  0.5104 -3.4305
 4676SOL     OW25489   1.263   1.039  13.718  0.0013  0.7524 -0.1484
 4676SOL    HW125490   1.200   1.086  13.665  0.3833 -0.1904 -1.4466
 4676SOL    HW225491   1.323   1.106  13.752 -1.1530  1.2765  0.8636
 4677SOL     OW25492   3.949   4.721   2.725  0.0305 -0.3388 -0.2696
 4677SOL    HW125493   3.968   0.091   2.724 -1.3872 -0.0029  2.1631
 4677SOL    HW225494   3.868   4.718   2.675 -0.2535 -1.3165  0.2559
 4678SOL     OW25495   0.751   2.306   1.555 -0.3166  0.9368 -0.6087
 4678SOL    HW125496   0.811   2.380   1.548  0.8265 -0.1105 -1.9849
 4678SOL    HW225497   0.818   2.244   1.585  0.1996  1.9447  0.3076
 4679SOL     OW25498   1.264   4.460   2.624 -0.0705 -0.5149 -0.0629
 4679SOL    HW125499   1.251   4.371   2.591  2.4252  0.1213 -2.7749
 4679SOL    HW225500   1.223   4.449   2.710 -3.0250 -3.4051 -1.8416
 4680SOL     OW25501   3.022   2.893   8.625 -0.3060  0.6410 -0.3766
 4680SOL    HW125502   3.072   2.945   8.562  0.4374 -0.5948 -0.7941
 4680SOL    HW225503   2.939   2.941   8.622  0.9290  2.7760 -0.8358
 4681SOL     OW25504   3.993   0.680   5.712  0.2550 -0.2970 -0.0123
 4681SOL    HW125505   3.961   0.712   5.627  2.1207  2.8073  0.4519
 4681SOL    HW225506   3.929   0.611   5.726 -1.2616  1.5747  2.2765
 4682SOL     OW25507   2.340   3.088  13.232 -0.1941  0.3592 -0.4158
 4682SOL    HW125508   2.399   3.112  13.161  0.1340  1.5808  0.2800
 4682SOL    HW225509   2.401   3.098  13.305 -1.3786  1.4859  0.4210
 4683SOL     OW25510   0.563   3.223  11.423  0.4611  0.1970 -0.3208
 4683SOL    HW125511   0.637   3.254  11.476  0.9001 -2.4972  0.6423
 4683SOL    HW225512   0.573   3.278  11.345 -0.7212  1.0035  0.0940
 4684SOL     OW25513   2.130   3.997  15.706  0.1600 -0.1973  0.1216
 4684SOL    HW125514   2.063   3.936  15.736  0.5339 -1.1764 -1.0286
 4684SOL    HW225515   2.177   3.933  15.652 -0.4646 -0.6862  0.1613
 4685SOL     OW25516   0.739   2.562  11.491 -0.7946  0.1896 -0.3590
 4685SOL    HW125517   0.644   2.552  11.486 -0.7584  0.8873 -2.2716
 4685SOL    HW225518   0.748   2.614  11.572  0.7132  0.0011 -0.3998
 4686SOL     OW25519   0.222   2.882  13.796  0.4047 -0.2119 -0.0081
 4686SOL    HW125520   0.167   2.958  13.776 -0.1340 -0.6630 -0.2025
 4686SOL    HW225521   0.162   2.809  13.781 -0.5957  0.7544 -0.7245
 4687SOL     OW25522   1.713   4.078   4.522 -0.5146 -0.0559  0.3671
 4687SOL    HW125523   1.655   4.153   4.508 -0.6061 -0.2250 -0.1688
 4687SOL    HW225524   1.753   4.097   4.607 -1.2885  2.6793  0.1319
 4688SOL     OW25525   2.463   2.681   9.205 -0.2137  0.0537  0.1592
 4688SOL    HW125526   2.491   2.764   9.244  0.6888 -0.7793  1.2766
 4688SOL    HW225527   2.435   2.636   9.284  0.5907 -1.3993 -0.3983
 4689SOL     OW25528   3.151   3.106   2.157  0.4844 -0.1190  0.3031
 4689SOL    HW125529   3.227   3.155   2.128  0.3723  1.0365  1.9703
 4689SOL    HW225530   3.100   3.177   2.195  2.8412  1.4644  0.4770
 4690SOL     OW25531   1.927   3.949   8.102  0.1073  0.0922  0.5306
 4690SOL    HW125532   1.855   3.889   8.083 -2.9522  3.3994  1.6670
 4690SOL    HW225533   1.930   3.994   8.017  2.1977  0.6241  0.8704
 4691SOL     OW25534   2.444   4.503   6.542 -0.5503 -0.1008  1.0152
 4691SOL    HW125535   2.375   4.505   6.476 -0.0717  0.1861  0.5301
 4691SOL    HW225536   2.505   4.449   6.492 -2.0079  0.0118 -0.8555
 4692SOL     OW25537   0.698   2.322   7.096 -0.2069 -1.0372  0.2518
 4692SOL    HW125538   0.765   2.302   7.030 -0.9077  1.6411 -1.2657
 4692SOL    HW225539   0.743   2.383   7.155 -1.5550  0.2585 -0.0789
 4693SOL     OW25540   2.238   4.463   7.216 -0.7640  0.2588 -0.0752
 4693SOL    HW125541   2.319   4.491   7.259  0.2186 -0.2410 -1.6106
 4693SOL    HW225542   2.260   4.374   7.189 -0.0953  0.1753  0.7669
 4694SOL     OW25543   2.029   1.125   1.005  0.5097 -0.1244  0.6779
 4694SOL    HW125544   2.083   1.201   0.987  0.3590  0.2003  1.5966
 4694SOL    HW225545   1.985   1.155   1.085 -3.1948  2.0441 -2.1863
 4695SOL     OW25546   2.761   2.776  11.797 -0.0871  0.2228 -0.5424
 4695SOL    HW125547   2.838   2.805  11.847  0.2652  0.3905 -1.1825
 4695SOL    HW225548   2.770   2.681  11.786 -2.9673 -0.0469 -0.5996
 4696SOL     OW25549   0.146   0.182   8.214  0.3275 -0.1988 -0.1479
 4696SOL    HW125550   0.151   0.166   8.308 -1.5065  1.3928  0.2181
 4696SOL    HW225551   0.054   0.208   8.207  0.1261 -0.9343 -0.2423
 4697SOL     OW25552   0.784   0.434   9.499 -0.2638  0.1298 -0.4921
 4697SOL    HW125553   0.836   0.461   9.423  1.2024  0.1458  0.5194
 4697SOL    HW225554   0.846   0.369   9.534 -0.6771 -1.1380 -2.0971
 4698SOL     OW25555   1.642   3.004   4.912 -0.1948  0.7926 -0.1276
 4698SOL    HW125556   1.575   3.013   4.980 -0.6619 -2.4565 -0.1541
 4698SOL    HW225557   1.700   3.080   4.914  0.0279  0.6039  0.6309
 4699SOL     OW25558   0.674   3.225   9.884 -0.6016  0.1509 -0.4754
 4699SOL    HW125559   0.588   3.253   9.914  0.4375  2.2433  0.5334
 4699SOL    HW225560   0.669   3.259   9.795  3.0817 -2.2470 -1.6126
 4700SOL     OW25561   0.981   4.253   3.504  0.2899  0.0848 -0.5160
 4700SOL    HW125562   0.915   4.230   3.439 -0.6169  3.1728 -0.6946
 4700SOL    HW225563   1.055   4.205   3.466 -1.3480 -1.3773 -1.8141
 4701SOL     OW25564   2.188   0.448   2.497  0.5893  0.2927  0.6318
 4701SOL    HW125565   2.197   0.457   2.402 -0.6819 -0.0486  0.4781
 4701SOL    HW225566   2.159   0.357   2.500  0.4980  0.2953  0.0090
 4702SOL     OW25567   0.039   1.352   4.926  0.0610 -0.3247 -0.2247
 4702SOL    HW125568   0.018   1.297   5.001  2.1182  0.5087  0.9648
 4702SOL    HW225569   4.672   1.357   4.896  0.0242  2.3575  0.3210
 4703SOL     OW25570   2.062   0.040  15.500  0.5894 -0.4101 -0.1234
 4703SOL    HW125571   2.048   4.683  15.549  0.8001 -2.0047 -2.6730
 4703SOL    HW225572   2.064   0.006  15.411 -2.4619 -0.3285 -0.2091
 4704SOL     OW25573   4.493   2.815   4.867 -0.3908 -0.0126 -0.2708
 4704SOL    HW125574   4.434   2.883   4.899  0.5075  0.3270  0.6655
 4704SOL    HW225575   4.490   2.764   4.948  2.0647 -0.5454 -0.5155
 4705SOL     OW25576   0.684   4.283   1.714 -0.6634 -0.1044  0.1002
 4705SOL    HW125577   0.671   4.283   1.619 -0.1580 -0.4384  0.0274
 4705SOL    HW225578   0.777   4.307   1.719 -1.2383  2.6599 -2.6435
 4706SOL     OW25579   2.653   2.369   0.666 -0.4603 -0.1062  0.3601
 4706SOL    HW125580   2.705   2.417   0.730 -1.0352  1.0512 -0.0368
 4706SOL    HW225581   2.714   2.298   0.646 -0.8296  0.5737 -3.2137
 4707SOL     OW25582   1.615   4.280   6.188 -0.9796 -0.3430  0.7790
 4707SOL    HW125583   1.576   4.367   6.192 -0.2533  0.0036  0.3991
 4707SOL    HW225584   1.556   4.246   6.120  0.0232 -0.6218  0.0378
 4708SOL     OW25585   1.016   1.199   3.782  0.0073  0.5629 -0.1076
 4708SOL    HW125586   0.921   1.211   3.777 -0.1361  0.2734  2.0161
 4708SOL    HW225587   1.046   1.198   3.691 -0.0992 -3.5021 -0.1007
 4709SOL     OW25588   3.745   2.975   3.000 -0.2657 -0.0534 -0.1819
 4709SOL    HW125589   3.723   2.962   3.092  2.8506 -2.1714  0.2617
 4709SOL    HW225590   3.662   3.005   2.964  0.8119  3.1428  0.0402
 4710SOL     OW25591   2.566   3.495  10.902  0.6318  0.4563  0.4572
 4710SOL    HW125592   2.646   3.546  10.892  1.0059 -0.4199 -1.0265
 4710SOL    HW225593   2.594   3.413  10.944  2.0125  0.5530 -0.2786
 4711SOL     OW25594   4.108   3.529  12.434 -0.3303  0.2077  0.5833
 4711SOL    HW125595   4.169   3.565  12.371  0.8726  1.2777  2.3724
 4711SOL    HW225596   4.129   3.596  12.498  2.4297 -2.5853  2.6175
 4712SOL     OW25597   2.364   2.226  16.633 -0.3783 -0.5435  0.2405
 4712SOL    HW125598   2.294   2.282  16.668 -0.9276 -0.7649 -0.4988
 4712SOL    HW225599   2.330   2.214  16.544 -2.5555 -1.0928  1.1569
 4713SOL     OW25600   1.018   1.637   9.457  0.3980 -0.0007  0.0255
 4713SOL    HW125601   1.073   1.559   9.458  2.6210  1.5676  1.1269
 4713SOL    HW225602   0.937   1.604   9.421 -1.1414  1.1557  2.3883
 4714SOL     OW25603   3.510   1.867  10.990 -0.1627  0.3622  0.6816
 4714SOL    HW125604   3.579   1.827  11.042  0.5945  0.7125 -0.0568
 4714SOL    HW225605   3.492   1.805  10.919  1.5379 -2.5669  2.8331
 4715SOL     OW25606   4.286   1.122  11.438 -0.2156 -0.2907 -0.5036
 4715SOL    HW125607   4.272   1.028  11.432 -2.0103 -0.2144  2.4179
 4715SOL    HW225608   4.248   1.129  11.526 -1.2049 -0.0715 -0.9602
 4716SOL     OW25609   3.324   4.017   8.275  0.1725 -0.4060  0.3580
 4716SOL    HW125610   3.340   4.054   8.188  0.6781  0.8717  0.9912
 4716SOL    HW225611   3.334   4.088   8.338 -0.5664  0.6288 -0.6697
 4717SOL     OW25612   1.119   3.379   7.376 -0.4489  0.1397 -0.0459
 4717SOL    HW125613   1.034   3.344   7.402  0.4926 -1.9365  0.2100
 4717SOL    HW225614   1.083   3.451   7.323 -0.0398  0.5720  0.2737
 4718SOL     OW25615   1.495   4.014   6.582 -0.0534  0.1009  0.6020
 4718SOL    HW125616   1.516   4.064   6.502  0.6044 -0.9215  0.1355
 4718SOL    HW225617   1.528   3.926   6.565 -1.3424 -0.3244  0.3025
 4719SOL     OW25618   2.350   2.725   6.285 -0.0419 -0.7844  0.8214
 4719SOL    HW125619   2.319   2.636   6.274  0.6764 -0.8374 -0.7616
 4719SOL    HW225620   2.274   2.774   6.255  0.2384 -1.3472 -0.8137
 4720SOL     OW25621   2.250   3.636   7.771 -0.0894  0.3599 -0.2679
 4720SOL    HW125622   2.246   3.732   7.763  1.1808  0.5589  1.4153
 4720SOL    HW225623   2.330   3.619   7.821  0.0147  0.6696 -0.3247
 4721SOL     OW25624   0.084   3.036   3.022 -0.0587 -0.3123 -0.1110
 4721SOL    HW125625   0.078   3.097   2.949 -2.0825  0.4240  0.6827
 4721SOL    HW225626   0.176   3.044   3.047 -0.1639 -0.4758  0.3421
 4722SOL     OW25627   3.969   2.718   1.594 -0.0124  0.5539 -0.7005
 4722SOL    HW125628   3.937   2.692   1.507 -1.4131 -2.5957  0.7489
 4722SOL    HW225629   4.064   2.723   1.582  0.1736 -1.6265 -0.1994
 4723SOL     OW25630   2.411   1.232   6.511  0.0722  0.0867  0.2311
 4723SOL    HW125631   2.439   1.308   6.561 -0.2317  0.9428 -0.9261
 4723SOL    HW225632   2.496   1.204   6.476  0.2929  0.3760  0.5348
 4724SOL     OW25633   3.381   2.992   2.353  0.4032  1.1578 -0.0490
 4724SOL    HW125634   3.382   2.911   2.302 -2.1675  2.0638 -1.5299
 4724SOL    HW225635   3.308   3.041   2.316  1.1947  1.7283 -0.8445
 4725SOL     OW25636   3.202   2.458   6.153 -0.3649 -0.2808  0.4176
 4725SOL    HW125637   3.123   2.492   6.110  0.3809  1.5583  0.4859
 4725SOL    HW225638   3.173   2.368   6.169  0.5107 -0.0314  3.4101
 4726SOL     OW25639   2.315   2.464   5.163  0.6102  0.1452 -0.0972
 4726SOL    HW125640   2.325   2.403   5.091 -3.9106  0.0739 -0.6788
 4726SOL    HW225641   2.340   2.548   5.123  1.2720 -0.2219 -0.4581
 4727SOL     OW25642   4.724   3.961   8.667 -0.0411 -0.2697  0.3777
 4727SOL    HW125643   0.063   4.024   8.703  1.6635 -1.7132 -0.0806
 4727SOL    HW225644   4.700   3.911   8.745  0.4236 -0.0412  0.6709
 4728SOL     OW25645   1.633   3.671   5.866  0.1717 -0.4126  0.0173
 4728SOL    HW125646   1.675   3.700   5.947 -0.9097 -2.0597  1.1748
 4728SOL    HW225647   1.550   3.629   5.890 -0.3625  1.1658  0.8879
 4729SOL     OW25648   4.473   2.280   7.689 -0.1160  0.8018 -0.0622
 4729SOL    HW125649   4.542   2.222   7.721 -1.4756 -0.5739  0.3710
 4729SOL    HW225650   4.515   2.365   7.700  1.4064 -0.0921  0.9699
 4730SOL     OW25651   4.110   1.914   1.356  0.5345  0.0722 -0.0895
 4730SOL    HW125652   4.079   1.993   1.312 -3.8905 -2.1294 -0.9635
 4730SOL    HW225653   4.176   1.871   1.302 -0.8191  0.4841 -2.0666
 4731SOL     OW25654   0.604   0.297   3.939  0.3645 -0.0343  0.1372
 4731SOL    HW125655   0.597   0.316   3.846  0.5588 -2.0460 -0.3028
 4731SOL    HW225656   0.513   0.272   3.951 -0.4281  1.6155 -2.4723
 4732SOL     OW25657   0.606   1.715   2.082 -0.0113 -0.0605  0.1985
 4732SOL    HW125658   0.546   1.789   2.069 -0.1519 -0.2834 -0.3903
 4732SOL    HW225659   0.684   1.745   2.036  0.4897  0.5809  1.4674
 4733SOL     OW25660   3.720   2.749   5.302 -0.3867 -0.3671  0.0557
 4733SOL    HW125661   3.730   2.842   5.324 -0.4463  0.4176 -3.3292
 4733SOL    HW225662   3.725   2.760   5.207  0.8345  2.4664  0.4308
 4734SOL     OW25663   0.207   1.698   0.090 -0.1338 -0.6587  0.7324
 4734SOL    HW125664   0.154   1.778   0.096  1.6171  0.5082  0.6271
 4734SOL    HW225665   0.168   1.662   0.011 -1.3898  2.3337 -0.0120
 4735SOL     OW25666   2.449   3.116  10.359 -0.0946  0.8688  0.1075
 4735SOL    HW125667   2.529   3.068  10.337 -2.6860 -3.4972 -0.0341
 4735SOL    HW225668   2.461   3.141  10.450  1.8462 -0.1644  0.1275
 4736SOL     OW25669   3.145   3.161  12.245  0.6850  0.3661 -0.3338
 4736SOL    HW125670   3.210   3.219  12.285  0.9216 -0.0779 -0.0736
 4736SOL    HW225671   3.069   3.218  12.232  1.7314  1.2995 -2.4953
 4737SOL     OW25672   1.099   3.049   8.277  0.0326  0.5984  0.3087
 4737SOL    HW125673   1.169   3.057   8.343  0.2653  1.3887 -0.0245
 4737SOL    HW225674   1.138   2.979   8.225 -0.5601  0.5174 -0.0221
 4738SOL     OW25675   1.417   1.880   7.660  0.0370 -0.0242 -0.1823
 4738SOL    HW125676   1.404   1.964   7.704 -1.9023 -0.0733 -0.6666
 4738SOL    HW225677   1.382   1.898   7.573 -0.2214  1.4014  0.2143
 4739SOL     OW25678   1.027   1.067  14.800  0.3791 -0.4182  0.0430
 4739SOL    HW125679   1.056   0.996  14.743  0.4137  0.4108 -0.9697
 4739SOL    HW225680   0.963   1.038  14.865 -0.4044  0.4824 -0.3129
 4740SOL     OW25681   2.843   2.772  17.028  0.1979 -0.3705  0.3023
 4740SOL    HW125682   2.781   2.834  17.068  0.1656  0.2173 -0.6534
 4740SOL    HW225683   2.837   2.788  16.934  1.2108 -1.6819  0.0312
 4741SOL     OW25684   2.773   1.380   8.676  0.1856 -0.8422  0.5031
 4741SOL    HW125685   2.725   1.448   8.629  3.3296  0.0938 -1.3865
 4741SOL    HW225686   2.817   1.429   8.746  1.4856 -0.5213 -0.5280
 4742SOL     OW25687   3.634   4.146   9.187  0.3168 -0.6678 -0.2333
 4742SOL    HW125688   3.597   4.088   9.253  0.8507 -0.8789 -0.1178
 4742SOL    HW225689   3.725   4.116   9.178  0.6118  0.2235 -0.2861
 4743SOL     OW25690   3.686   3.323  13.835 -0.1994 -0.0747 -0.2215
 4743SOL    HW125691   3.701   3.331  13.741 -2.3267 -1.2232 -0.6686
 4743SOL    HW225692   3.620   3.254  13.840 -0.0639 -0.0055  2.5502
 4744SOL     OW25693   3.125   3.025   7.279 -0.7280  0.9597  0.4252
 4744SOL    HW125694   3.115   2.929   7.282 -1.7189  0.9630 -3.2733
 4744SOL    HW225695   3.055   3.055   7.337 -0.5193 -0.6961  1.5391
 4745SOL     OW25696   2.259   1.196   4.818 -0.0803 -0.0509  0.2294
 4745SOL    HW125697   2.354   1.205   4.827 -0.3402  1.1815  1.7653
 4745SOL    HW225698   2.232   1.265   4.879  2.2008 -0.3663  1.6189
 4746SOL     OW25699   3.076   2.164   7.481 -0.2498 -0.0510 -0.8361
 4746SOL    HW125700   3.107   2.190   7.394  0.1276  0.2833 -0.6053
 4746SOL    HW225701   3.150   2.201   7.530 -0.5386  2.2062 -2.0920
 4747SOL     OW25702   3.183   1.701  11.128 -0.0918  0.1031 -0.3098
 4747SOL    HW125703   3.211   1.646  11.055  0.2817  0.6186 -0.5540
 4747SOL    HW225704   3.103   1.655  11.152 -0.0277  0.9728  1.5725
 4748SOL     OW25705   2.138   3.568  15.192 -0.2229 -0.4311  0.1592
 4748SOL    HW125706   2.141   3.558  15.287 -1.7896 -1.4696  0.1010
 4748SOL    HW225707   2.136   3.483  15.148  0.0132 -0.9345  1.1321
 4749SOL     OW25708   4.689   2.506   5.129  0.2946 -0.3156 -0.6835
 4749SOL    HW125709   0.034   2.499   5.195 -0.2757  0.0521 -0.0446
 4749SOL    HW225710   4.664   2.417   5.106  0.2609 -0.4105 -0.2821
 4750SOL     OW25711   0.611   0.125   2.995  0.2566  0.6962 -0.0793
 4750SOL    HW125712   0.610   0.192   2.927 -2.2885  2.0795  1.3115
 4750SOL    HW225713   0.632   0.182   3.070  1.0168 -2.0607  1.8180
 4751SOL     OW25714   3.453   2.384  10.276  0.0871 -0.1734 -0.2542
 4751SOL    HW125715   3.427   2.327  10.348 -1.9414 -1.8972 -2.3178
 4751SOL    HW225716   3.482   2.464  10.319 -0.2129 -0.6929  0.8932
 4752SOL     OW25717   0.056   1.197   2.982 -0.4685  0.2922  0.1606
 4752SOL    HW125718   0.086   1.277   3.024  1.6060  0.0512 -0.8332
 4752SOL    HW225719   0.021   1.234   2.902  1.5227 -1.0666 -1.3419
 4753SOL     OW25720   1.886   0.838   6.841 -0.4752 -0.4216  0.1292
 4753SOL    HW125721   1.953   0.780   6.805  0.3112  0.3977  0.2903
 4753SOL    HW225722   1.926   0.924   6.830  1.4417 -1.2921  0.3953
 4754SOL     OW25723   1.489   3.457   0.763 -0.5564  0.6561 -0.0889
 4754SOL    HW125724   1.530   3.470   0.677 -0.4027 -0.2964 -0.1630
 4754SOL    HW225725   1.452   3.373   0.737  0.6667  0.7713 -2.2459
 4755SOL     OW25726   1.657   4.321   3.011 -0.3236  0.2723  0.2417
 4755SOL    HW125727   1.573   4.366   3.005  0.0714  1.1655  1.4968
 4755SOL    HW225728   1.626   4.256   3.075  2.0331 -0.8135  0.2883
 4756SOL     OW25729   2.579   4.358  10.707 -0.1850 -0.2977  0.2205
 4756SOL    HW125730   2.641   4.369  10.634  0.5818  0.4565  0.9887
 4756SOL    HW225731   2.613   4.278  10.746 -0.3254  0.1919  1.3521
 4757SOL     OW25732   0.363   4.081   5.988 -0.1625  0.2153  0.1707
 4757SOL    HW125733   0.431   4.088   5.922  0.0922  1.1749  0.5346
 4757SOL    HW225734   0.305   4.017   5.947 -0.3651 -0.1259  0.9898
 4758SOL     OW25735   2.328   3.157   1.643 -0.2402  0.0128 -0.2549
 4758SOL    HW125736   2.396   3.091   1.658  0.1097  0.2355 -0.8538
 4758SOL    HW225737   2.287   3.135   1.559 -1.2183 -1.6140  0.6511
 4759SOL     OW25738   1.362   3.333   6.295 -0.0868 -0.3647  0.3654
 4759SOL    HW125739   1.376   3.322   6.389  0.8986 -0.5770  0.1995
 4759SOL    HW225740   1.451   3.323   6.261 -1.3027 -2.0459 -2.3406
 4760SOL     OW25741   3.065   0.045   8.617 -0.4452 -0.4711 -0.1925
 4760SOL    HW125742   3.043   0.132   8.651  0.1427 -0.8463  1.1716
 4760SOL    HW225743   3.011   0.039   8.538 -1.5308  1.3992  0.4000
 4761SOL     OW25744   3.747   4.645   6.438  0.0870 -0.3383 -0.3218
 4761SOL    HW125745   3.715   4.609   6.520 -2.0946 -4.0035 -2.7489
 4761SOL    HW225746   3.698   4.592   6.374  0.6149 -1.3545  0.1244
 4762SOL     OW25747   4.245   0.499  14.408 -0.1415 -0.5300 -0.1235
 4762SOL    HW125748   4.245   0.590  14.378 -0.5021 -0.4905 -0.0151
 4762SOL    HW225749   4.291   0.490  14.491  0.9636  2.5501 -0.4284
 4763SOL     OW25750   0.109   4.395   4.978 -0.5610 -0.1646 -0.0416
 4763SOL    HW125751   0.061   4.357   5.052  0.1453  0.1568  0.5937
 4763SOL    HW225752   0.071   4.361   4.897 -0.2688  0.8700 -0.6012
 4764SOL     OW25753   2.435   3.159  15.515 -0.4523  0.4323  0.0282
 4764SOL    HW125754   2.454   3.074  15.553  0.9750  1.0165  0.6066
 4764SOL    HW225755   2.481   3.228  15.563  1.0357 -0.3190 -0.3232
 4765SOL     OW25756   2.009   2.129   0.198  0.7172 -0.7833  0.1036
 4765SOL    HW125757   2.059   2.054   0.232  0.3059 -0.8495  0.5644
 4765SOL    HW225758   1.962   2.081   0.131 -1.7269  2.1938 -0.3177
 4766SOL     OW25759   2.666   4.317   5.683  0.8438 -0.2095 -0.6374
 4766SOL    HW125760   2.687   4.396   5.633 -0.8153 -0.1688 -1.2493
 4766SOL    HW225761   2.617   4.355   5.756  1.5443 -0.8444  0.1707
 4767SOL     OW25762   1.988   0.513   7.093 -0.4163 -0.0855 -0.1062
 4767SOL    HW125763   1.900   0.516   7.054  0.0678 -0.0337 -1.2079
 4767SOL    HW225764   2.043   0.536   7.018  0.9412 -1.5693  0.4515
 4768SOL     OW25765   1.558   0.837   9.068 -0.4659  0.0018  0.2713
 4768SOL    HW125766   1.563   0.875   8.980 -0.2659 -1.3513 -0.2991
 4768SOL    HW225767   1.593   0.914   9.113 -0.2629  0.6465 -0.9692
 4769SOL     OW25768   1.106   1.516   3.411  0.0640  0.4467  0.1321
 4769SOL    HW125769   1.031   1.545   3.464 -0.9274 -0.0283 -1.0121
 4769SOL    HW225770   1.071   1.521   3.322 -1.1209 -0.1885  0.5631
 4770SOL     OW25771   0.148   4.631  15.967  0.7806  0.1654 -0.8825
 4770SOL    HW125772   0.067   4.598  16.007  2.7053  1.0016  3.7520
 4770SOL    HW225773   0.132   4.594  15.880 -0.0178  0.8756 -1.0431
 4771SOL     OW25774   4.686   0.233   1.874  0.0556  0.1001  0.3782
 4771SOL    HW125775   4.640   0.228   1.790 -0.3327  0.0396  0.5921
 4771SOL    HW225776   0.044   0.279   1.854  0.1160 -1.0895 -2.0413
 4772SOL     OW25777   1.517   2.422   3.669 -0.5321  0.5717 -0.5380
 4772SOL    HW125778   1.519   2.518   3.674  1.0190  0.4669  1.1744
 4772SOL    HW225779   1.609   2.403   3.649 -0.0878  2.6882 -0.5746
 4773SOL     OW25780   4.442   0.503  14.653  0.0155 -0.0719  0.5805
 4773SOL    HW125781   4.524   0.473  14.692  2.5914  2.2523 -3.0539
 4773SOL    HW225782   4.480   0.557  14.584  1.1758 -0.4863  0.8950
 4774SOL     OW25783   4.413   1.671   2.265 -0.4633 -0.3446  0.3832
 4774SOL    HW125784   4.475   1.610   2.304 -1.7161 -2.0558 -0.2986
 4774SOL    HW225785   4.449   1.687   2.178  0.3558  0.5467  0.8778
 4775SOL     OW25786   2.850   2.635   7.412 -0.1190  0.0925  0.5025
 4775SOL    HW125787   2.801   2.696   7.357  0.4287  1.1349  1.1646
 4775SOL    HW225788   2.882   2.684   7.488 -0.3136 -0.0453  0.6747
 4776SOL     OW25789   2.573   2.046   7.021  0.2737  0.5059  0.4329
 4776SOL    HW125790   2.640   2.072   7.084  0.9172  3.3937 -1.4538
 4776SOL    HW225791   2.534   1.968   7.060 -2.2401  2.0944  1.0692
 4777SOL     OW25792   2.156   3.977   8.621  0.2916  0.3634  0.0369
 4777SOL    HW125793   2.096   3.999   8.549 -0.3513 -0.2956  0.3766
 4777SOL    HW225794   2.119   4.039   8.684  2.1803 -1.9195  3.3530
 4778SOL     OW25795   0.761   4.202   9.419 -0.1466 -0.6750  0.2857
 4778SOL    HW125796   0.810   4.267   9.470 -1.5159 -0.1204  0.8806
 4778SOL    HW225797   0.797   4.122   9.457  0.4305 -0.9291 -0.7804
 4779SOL     OW25798   4.184   1.597   7.494  0.0922  0.2715 -0.2816
 4779SOL    HW125799   4.191   1.668   7.430  1.4406  0.2302 -0.1664
 4779SOL    HW225800   4.098   1.609   7.535 -1.4251 -2.1366 -2.7343
 4780SOL     OW25801   4.002   0.993   4.850 -0.1396 -0.0964 -0.2444
 4780SOL    HW125802   3.921   1.008   4.898  1.7679  0.3759  2.8305
 4780SOL    HW225803   4.027   1.085   4.841 -1.1832  0.2313  0.2287
 4781SOL     OW25804   0.951   4.225  15.511 -0.1008  0.4394 -0.3608
 4781SOL    HW125805   0.889   4.286  15.551 -0.0584  0.7127 -0.7109
 4781SOL    HW225806   1.013   4.289  15.475  1.0073 -0.5337 -0.1792
 4782SOL     OW25807   3.357   4.277   2.903 -0.3848 -0.1742  0.2549
 4782SOL    HW125808   3.318   4.363   2.886  0.4783 -0.3149 -2.4799
 4782SOL    HW225809   3.439   4.296   2.949 -0.5761  1.3852 -0.0495
 4783SOL     OW25810   4.308   4.431   7.241 -0.1448  0.2538  0.5446
 4783SOL    HW125811   4.249   4.367   7.203  1.3102 -1.5572  1.3407
 4783SOL    HW225812   4.334   4.382   7.319 -0.6071  0.0375  0.5584
 4784SOL     OW25813   3.902   0.055   4.725  0.2745  0.0250 -0.0553
 4784SOL    HW125814   3.841   0.008   4.668  0.0531 -0.7514  0.8306
 4784SOL    HW225815   3.853   0.101   4.792  0.6073 -0.5699  0.5931
 4785SOL     OW25816   0.449   0.292   1.022  0.0192 -0.5437  0.3331
 4785SOL    HW125817   0.491   0.208   1.042 -0.6139 -0.5442  1.6274
 4785SOL    HW225818   0.383   0.315   1.087 -0.0828  0.4484 -0.1172
 4786SOL     OW25819   2.809   1.948   6.556 -0.7648 -0.4444 -0.1997
 4786SOL    HW125820   2.742   1.903   6.504 -0.7203  0.2318 -0.8576
 4786SOL    HW225821   2.806   1.906   6.642  0.7173 -0.9968 -0.4140
 4787SOL     OW25822   0.648   0.941   4.626 -0.5380  0.1047 -0.2022
 4787SOL    HW125823   0.689   1.000   4.563  2.8580 -3.1131 -1.0187
 4787SOL    HW225824   0.562   0.935   4.585 -0.8728  2.2669  0.1578
 4788SOL     OW25825   2.758   2.599   7.066 -0.3169  0.3244 -0.5507
 4788SOL    HW125826   2.693   2.655   7.023 -0.1240  2.0306  1.3994
 4788SOL    HW225827   2.687   2.560   7.117 -0.1384  0.0255 -0.5325
 4789SOL     OW25828   4.207   1.052   0.021 -1.2289  0.3620 -0.0852
 4789SOL    HW125829   4.233   0.962   0.039 -1.8138  0.1894 -0.1145
 4789SOL    HW225830   4.295   1.087   0.009 -0.4743 -0.8629  1.9621
 4790SOL     OW25831   0.214   2.469  13.482 -0.0370 -0.1047 -0.1977
 4790SOL    HW125832   0.131   2.472  13.531 -0.7281  0.0241 -1.3772
 4790SOL    HW225833   0.284   2.496  13.542 -0.5564  0.5424  0.1220
 4791SOL     OW25834   0.388   3.817   8.644  0.6168 -0.1522  0.1126
 4791SOL    HW125835   0.446   3.803   8.719  0.1509 -1.0333  0.3073
 4791SOL    HW225836   0.308   3.856   8.679  1.7584  1.6529  0.7514
 4792SOL     OW25837   2.885   0.245  10.106 -0.9420  0.3285 -0.0785
 4792SOL    HW125838   2.836   0.318  10.144 -1.6368 -0.6068  0.8083
 4792SOL    HW225839   2.830   0.207  10.037 -0.5975 -2.2094  1.0296
 4793SOL     OW25840   3.535   3.350   6.572  0.4753  0.0834  0.2254
 4793SOL    HW125841   3.604   3.311   6.626  0.5690  2.3038  1.7383
 4793SOL    HW225842   3.494   3.267   6.550 -0.8111  0.9922 -0.8164
 4794SOL     OW25843   4.357   4.662   4.118 -0.4093  0.2419 -0.0200
 4794SOL    HW125844   4.329   4.583   4.164 -1.5740  0.7496  0.1492
 4794SOL    HW225845   4.358   4.723   4.192  3.5100 -0.7006  0.7027
 4795SOL     OW25846   2.826   0.289   8.832  0.2397 -0.0871  0.4825
 4795SOL    HW125847   2.895   0.289   8.764  0.0326  0.7588  0.2716
 4795SOL    HW225848   2.821   0.196   8.853  0.2507  0.3555  2.4488
 4796SOL     OW25849   4.546   1.136   6.615  0.0309  0.0372 -0.2789
 4796SOL    HW125850   4.558   1.081   6.538  3.1162 -0.5402  0.6296
 4796SOL    HW225851   4.543   1.226   6.582  0.6696 -0.4075 -1.5636
 4797SOL     OW25852   2.258   2.808  11.583 -0.9553  0.0800  0.9814
 4797SOL    HW125853   2.228   2.856  11.506 -0.1797  1.3448  1.4701
 4797SOL    HW225854   2.208   2.849  11.654 -0.3364  0.0413  1.4436
 4798SOL     OW25855   2.503   4.567   6.939  0.3175  0.0986  0.5299
 4798SOL    HW125856   2.467   4.491   6.892 -1.1748  0.0880  1.6730
 4798SOL    HW225857   2.559   4.519   7.000 -0.5126 -1.3957  0.1324
 4799SOL     OW25858   0.820   2.974  11.559 -0.5074 -0.0801  0.1407
 4799SOL    HW125859   0.859   3.026  11.489 -2.0897 -1.7963 -2.0420
 4799SOL    HW225860   0.900   2.950  11.605 -1.0685 -2.8060 -0.3263
 4800SOL     OW25861   2.181   3.456   9.249 -0.4389 -0.0363  0.1383
 4800SOL    HW125862   2.116   3.477   9.316 -0.3986 -0.7647  0.4051
 4800SOL    HW225863   2.252   3.499   9.295 -0.9287 -0.8140  1.6188
 4801SOL     OW25864   4.157   0.408  16.483 -0.9296 -0.1328 -0.1830
 4801SOL    HW125865   4.234   0.439  16.530 -1.0578 -1.0746  0.6730
 4801SOL    HW225866   4.089   0.413  16.551  1.7709 -0.8234  2.5594
 4802SOL     OW25867   1.021   2.101   9.409  0.1612  0.1489 -0.2591
 4802SOL    HW125868   1.026   2.060   9.323  3.3978  2.1281 -1.0136
 4802SOL    HW225869   1.021   2.194   9.387  1.3910  0.3552  0.5940
 4803SOL     OW25870   2.111   4.661   6.504 -0.1635 -0.7775  0.2901
 4803SOL    HW125871   2.190   4.686   6.551 -1.5373  2.3745  0.9349
 4803SOL    HW225872   2.091   0.026   6.474  0.8101  0.1552  2.4205
 4804SOL     OW25873   3.879   1.465  13.333 -0.0360  0.3014 -0.3516
 4804SOL    HW125874   3.821   1.484  13.260  0.6373 -1.0655 -1.2464
 4804SOL    HW225875   3.901   1.551  13.369  2.2185 -0.9584  1.3050
 4805SOL     OW25876   2.435   0.924  10.743  0.2666  0.0361 -0.2687
 4805SOL    HW125877   2.524   0.901  10.772  0.2163  0.1612 -0.0187
 4805SOL    HW225878   2.436   0.884  10.655 -1.2962  1.5169 -0.9508
 4806SOL     OW25879   0.006   3.485   5.337  0.1050 -0.0698  0.3368
 4806SOL    HW125880   4.637   3.498   5.317  0.0509  0.2491  0.8043
 4806SOL    HW225881   0.054   3.513   5.259 -1.7262 -2.3170 -1.5949
 4807SOL     OW25882   3.353   3.267   1.338  0.0320  0.4832 -0.2963
 4807SOL    HW125883   3.274   3.311   1.306  0.0683  0.0893 -0.9355
 4807SOL    HW225884   3.356   3.316   1.420 -3.4297 -0.7258  0.5369
 4808SOL     OW25885   3.263   0.867  12.866  0.3363 -0.6478 -0.3711
 4808SOL    HW125886   3.248   0.844  12.958 -0.2257  1.6060  0.1102
 4808SOL    HW225887   3.234   0.789  12.819 -1.4760 -1.0495  1.4464
 4809SOL     OW25888   3.714   2.284   1.224 -0.0485  0.2171  0.0160
 4809SOL    HW125889   3.642   2.341   1.195 -1.7489 -2.6323 -1.3110
 4809SOL    HW225890   3.666   2.204   1.247  0.0371  0.9507  2.8219
 4810SOL     OW25891   1.884   2.743  16.002 -0.1234 -0.1233 -0.8347
 4810SOL    HW125892   1.944   2.671  16.018  1.5864  0.6353 -3.9381
 4810SOL    HW225893   1.838   2.720  15.922  0.7454 -1.3353 -0.9828
 4811SOL     OW25894   0.897   0.182   3.499  0.0885 -0.1418 -0.6409
 4811SOL    HW125895   0.903   0.112   3.434  0.6043 -2.7213  2.2246
 4811SOL    HW225896   0.979   0.228   3.481 -0.5621  1.8645  1.5050
 4812SOL     OW25897   3.035   4.515   6.921  0.3927 -0.0522  0.4121
 4812SOL    HW125898   3.057   4.593   6.971 -0.2703  0.9306 -0.8534
 4812SOL    HW225899   3.119   4.491   6.882  0.6479  1.6867 -0.1061
 4813SOL     OW25900   0.042   2.444   6.550  0.4317 -0.2287 -0.0446
 4813SOL    HW125901   0.079   2.523   6.509 -0.4750  0.3613  0.2801
 4813SOL    HW225902   0.079   2.459   6.638 -0.5435 -0.8162  0.4550
 4814SOL     OW25903   4.630   3.863  11.556  0.1731  0.1485 -0.2823
 4814SOL    HW125904   4.688   3.840  11.483  0.1373  0.7575 -0.4989
 4814SOL    HW225905   4.676   3.933  11.602  0.8364 -0.6279  0.2386
 4815SOL     OW25906   3.678   2.552   6.028  0.0420  0.2371 -1.1482
 4815SOL    HW125907   3.769   2.544   6.001  0.6090 -0.2873  0.8981
 4815SOL    HW225908   3.671   2.647   6.016 -0.5747  0.1546 -1.4475
 4816SOL     OW25909   3.079   1.283  10.902 -0.3386  0.0924 -0.9427
 4816SOL    HW125910   3.150   1.278  10.838  0.7840 -0.2402  0.3363
 4816SOL    HW225911   3.114   1.235  10.977 -1.0458  1.6606  0.4005
 4817SOL     OW25912   1.011   2.679   8.278  0.0049  0.1876  0.4291
 4817SOL    HW125913   0.959   2.607   8.314 -0.5060 -0.6776 -2.0651
 4817SOL    HW225914   0.966   2.683   8.194 -0.7822 -1.4464  0.7660
 4818SOL     OW25915   0.860   0.864   0.273  0.1153  0.0697 -0.1121
 4818SOL    HW125916   0.825   0.953   0.273  0.3635  0.1665  0.5553
 4818SOL    HW225917   0.954   0.879   0.280  0.3732 -0.6165 -1.8357
 4819SOL     OW25918   3.220   1.311   5.941  0.2911 -0.6668 -0.0190
 4819SOL    HW125919   3.158   1.382   5.923  2.1693  0.8047 -0.6652
 4819SOL    HW225920   3.302   1.353   5.969  0.9126 -1.5015 -0.5968
 4820SOL     OW25921   1.465   2.378   9.826 -0.3212  0.1117  0.1761
 4820SOL    HW125922   1.514   2.308   9.784 -0.1131  1.6241 -2.1056
 4820SOL    HW225923   1.528   2.389   9.897 -0.5715 -1.6019  0.6596
 4821SOL     OW25924   3.757   3.199  15.245 -1.2818  1.0249  1.0023
 4821SOL    HW125925   3.814   3.151  15.306  0.6102  0.1685 -1.4292
 4821SOL    HW225926   3.726   3.263  15.309  0.5757  0.5702  2.3664
 4822SOL     OW25927   4.695   1.883   8.528 -0.9838  0.8860  0.1744
 4822SOL    HW125928   4.618   1.865   8.475  0.0538  0.3347 -1.1571
 4822SOL    HW225929   4.716   1.805   8.581 -0.9631  2.0023  1.8179
 4823SOL     OW25930   1.285   1.058   3.629 -0.1622 -0.1000  0.2029
 4823SOL    HW125931   1.257   1.139   3.586  0.5312 -1.5005 -2.8812
 4823SOL    HW225932   1.300   1.007   3.549  0.4259  1.5713 -0.7545
 4824SOL     OW25933   4.280   0.445  16.203 -0.8390 -0.0994  0.5614
 4824SOL    HW125934   4.204   0.433  16.261 -2.1094  4.1181 -0.2399
 4824SOL    HW225935   4.348   0.406  16.257 -0.0257 -0.1541 -0.5070
 4825SOL     OW25936   3.323   3.050   1.895  0.1291 -0.4509  0.0451
 4825SOL    HW125937   3.250   3.054   1.834 -0.0072 -1.3809  0.1484
 4825SOL    HW225938   3.365   2.970   1.864  0.0144  0.7976 -3.3421
 4826SOL     OW25939   4.476   1.498   7.292 -0.3474 -0.2755  0.6888
 4826SOL    HW125940   4.433   1.413   7.299  0.2917 -0.7015 -0.5220
 4826SOL    HW225941   4.510   1.520   7.379  1.9018 -0.3445 -0.1701
 4827SOL     OW25942   1.588   3.854   7.378 -0.3279  0.1522  0.2563
 4827SOL    HW125943   1.675   3.879   7.410  0.3195 -1.6478 -0.1216
 4827SOL    HW225944   1.535   3.934   7.380  2.6911  2.1683 -1.0159
 4828SOL     OW25945   4.411   4.174   8.011  0.8433  0.2238 -0.2418
 4828SOL    HW125946   4.379   4.249   8.061  2.1691  1.0462 -0.6306
 4828SOL    HW225947   4.368   4.104   8.060  1.1024 -0.6591 -1.2699
 4829SOL     OW25948   4.238   2.223   7.027  0.0716 -0.6595  0.4281
 4829SOL    HW125949   4.306   2.216   6.960  1.8621  0.1351  2.1713
 4829SOL    HW225950   4.205   2.312   7.015 -3.1565 -1.7744  1.0953
 4830SOL     OW25951   1.714   0.851   4.601 -0.3190 -0.0341 -0.5794
 4830SOL    HW125952   1.671   0.924   4.557 -0.0700 -0.2715 -1.2119
 4830SOL    HW225953   1.804   0.884   4.592  0.0363 -0.8283 -0.0035
 4831SOL     OW25954   1.336   4.195  11.839  0.0112  0.3180 -0.0593
 4831SOL    HW125955   1.269   4.243  11.887  1.7716 -0.3898  3.0485
 4831SOL    HW225956   1.339   4.235  11.752 -1.4042  0.6978  0.0637
 4832SOL     OW25957   2.212   1.945   2.813 -0.3043  0.2159  0.4793
 4832SOL    HW125958   2.286   1.919   2.758  0.1458 -0.1496  1.2542
 4832SOL    HW225959   2.144   1.895   2.769 -0.4011  0.0430  0.8211
 4833SOL     OW25960   4.212   1.218   5.809 -0.3857 -0.9076  0.1682
 4833SOL    HW125961   4.192   1.228   5.716  1.0128 -1.9012 -0.2546
 4833SOL    HW225962   4.186   1.127   5.822  1.4503 -1.3757  0.6238
 4834SOL     OW25963   0.815   2.811   3.890  0.2209 -0.2116 -1.0234
 4834SOL    HW125964   0.792   2.720   3.906  0.1535 -0.0370 -0.0961
 4834SOL    HW225965   0.894   2.821   3.943 -0.2575  2.0003 -0.6876
 4835SOL     OW25966   1.635   1.363  12.827 -0.2086 -0.3042 -0.2059
 4835SOL    HW125967   1.612   1.298  12.761 -4.6901  0.0935  0.9636
 4835SOL    HW225968   1.555   1.414  12.817  0.0771  0.1779 -0.0520
 4836SOL     OW25969   0.415   4.225   2.227 -0.3144 -0.0951  0.3906
 4836SOL    HW125970   0.450   4.139   2.248 -0.1415  0.2811  1.6563
 4836SOL    HW225971   0.466   4.275   2.290 -1.3886 -0.4533  1.5376
 4837SOL     OW25972   1.110   3.516  16.503 -0.2217  0.2648  0.3054
 4837SOL    HW125973   1.193   3.477  16.528 -2.2143 -2.8684  2.0534
 4837SOL    HW225974   1.131   3.538  16.412  1.7460  1.9905  1.1874
 4838SOL     OW25975   2.022   3.883   7.602 -0.6742  0.5741 -0.0262
 4838SOL    HW125976   2.057   3.971   7.620  2.3068 -0.1619 -2.2259
 4838SOL    HW225977   2.000   3.837   7.683 -2.1861 -0.2928 -0.9275
 4839SOL     OW25978   0.195   4.300   8.489  0.1778  0.4591 -0.1438
 4839SOL    HW125979   0.280   4.256   8.491  0.5616  1.2581  1.5737
 4839SOL    HW225980   0.147   4.270   8.566  0.2332 -0.1151 -0.3332
 4840SOL     OW25981   4.252   1.464   7.727  0.2825  0.5089  0.0301
 4840SOL    HW125982   4.233   1.522   7.653  1.2278  0.8330  0.0409
 4840SOL    HW225983   4.223   1.384   7.684 -1.3658  1.2452 -0.2217
 4841SOL     OW25984   2.354   2.792   4.105  0.5166  0.0608 -0.1420
 4841SOL    HW125985   2.341   2.773   4.198  1.2323 -0.4197 -0.1310
 4841SOL    HW225986   2.390   2.880   4.112  0.6568 -0.0750  0.8540
 4842SOL     OW25987   4.386   0.199   4.670 -0.1940 -0.3986  0.5189
 4842SOL    HW125988   4.311   0.140   4.667  0.4916 -1.0894 -3.2677
 4842SOL    HW225989   4.350   0.258   4.604  0.6191  1.2872  1.5819
 4843SOL     OW25990   0.147   2.877   3.531  0.2874 -0.0854 -0.0255
 4843SOL    HW125991   0.176   2.786   3.523 -1.8364 -0.7808  0.2730
 4843SOL    HW225992   0.185   2.915   3.452 -0.4235 -1.4651 -1.0314
 4844SOL     OW25993   0.665   2.857   3.141  0.3175 -0.1051  0.4629
 4844SOL    HW125994   0.701   2.859   3.230  0.6434 -0.1576  0.3329
 4844SOL    HW225995   0.695   2.944   3.113 -1.6850  0.6625  0.6755
 4845SOL     OW25996   2.789   1.886   1.386  0.5288  0.1922  0.5589
 4845SOL    HW125997   2.753   1.834   1.459 -0.1601 -0.3836 -0.1862
 4845SOL    HW225998   2.791   1.977   1.417  1.3610  0.3871 -0.0730
 4846SOL     OW25999   2.268   3.292   0.911  0.0814 -0.0238  0.4260
 4846SOL    HW126000   2.222   3.240   0.977 -3.3677  0.9677 -1.2170
 4846SOL    HW226001   2.322   3.224   0.871 -2.0522 -1.2216 -0.3745
 4847SOL     OW26002   2.156   0.070   8.814  0.1193  0.1352 -0.2316
 4847SOL    HW126003   2.064   0.086   8.835  0.5189  1.5549  0.4478
 4847SOL    HW226004   2.195   0.136   8.872 -3.0326  2.2331 -0.5410
 4848SOL     OW26005   0.818   3.883   9.164  0.4925 -0.7815  0.3822
 4848SOL    HW126006   0.905   3.855   9.138  0.3261  1.2154 -2.3782
 4848SOL    HW226007   0.765   3.803   9.162  0.3489 -0.6514 -1.2680
 4849SOL     OW26008   2.221   0.720  14.180  0.8613 -0.2924  0.7432
 4849SOL    HW126009   2.206   0.659  14.108 -1.6063  1.6052 -0.3339
 4849SOL    HW226010   2.277   0.667  14.237  0.5154  0.1888  1.5318
 4850SOL     OW26011   3.912   2.573   4.263 -0.2567  0.1472 -0.0390
 4850SOL    HW126012   3.934   2.542   4.175  0.1050  0.8325 -0.1872
 4850SOL    HW226013   3.965   2.651   4.274  0.1688  0.4179 -3.9136
 4851SOL     OW26014   2.566   1.447   6.290  0.2764 -0.0046 -0.4894
 4851SOL    HW126015   2.494   1.395   6.256 -0.9921  1.1661  0.4133
 4851SOL    HW226016   2.530   1.536   6.293 -2.8538 -1.2435 -2.2475
 4852SOL     OW26017   1.584   3.696  14.372  0.4336 -0.8802 -0.6387
 4852SOL    HW126018   1.608   3.612  14.412  0.0617 -0.5934  0.1654
 4852SOL    HW226019   1.490   3.678  14.362  0.1522  0.4906 -0.3419
 4853SOL     OW26020   1.543   4.062   1.872 -0.2839 -0.1102  0.0486
 4853SOL    HW126021   1.582   4.097   1.952  0.0867  0.0083 -0.1850
 4853SOL    HW226022   1.608   4.098   1.811  0.6852 -0.1065  1.0926
 4854SOL     OW26023   4.222   0.889   7.399  0.2312  0.1406 -0.4878
 4854SOL    HW126024   4.264   0.934   7.472  0.1910  1.9243 -1.5597
 4854SOL    HW226025   4.211   0.803   7.439  0.3429  0.1041 -0.5356
 4855SOL     OW26026   1.022   1.941   9.184 -0.4171 -0.1546 -0.0732
 4855SOL    HW126027   0.999   1.951   9.092 -0.9623 -2.3483 -0.1739
 4855SOL    HW226028   0.960   1.874   9.213  0.1188 -0.4250  0.4567
 4856SOL     OW26029   3.967   3.082   6.217 -0.0901  0.3639 -0.2237
 4856SOL    HW126030   3.890   3.139   6.215  0.7186  1.4698 -0.0903
 4856SOL    HW226031   4.019   3.129   6.151  0.9395 -0.9931 -0.3802
 4857SOL     OW26032   3.941   4.397  15.745 -0.2997 -0.3784  0.5419
 4857SOL    HW126033   3.928   4.335  15.817 -2.7577  1.1749  1.4310
 4857SOL    HW226034   4.013   4.436  15.794 -0.8570  2.7247 -1.0841
 4858SOL     OW26035   0.439   1.923   4.011 -0.2279 -0.0788  0.3858
 4858SOL    HW126036   0.380   1.998   4.009  0.9429  0.8532  1.6149
 4858SOL    HW226037   0.486   1.931   3.928 -0.1888 -1.2397  0.2944
 4859SOL     OW26038   1.136   0.327  12.344 -0.1550 -0.6127  0.3836
 4859SOL    HW126039   1.167   0.242  12.314  2.6214  0.8910 -1.0782
 4859SOL    HW226040   1.151   0.315  12.437 -2.3748  1.2088  0.9694
 4860SOL     OW26041   2.107   0.699   2.082  0.0868  0.5566  0.0721
 4860SOL    HW126042   2.070   0.621   2.041  0.1346  1.1079 -1.0408
 4860SOL    HW226043   2.142   0.743   2.004  0.3056 -0.9132 -0.6524
 4861SOL     OW26044   0.491   0.381  11.892 -0.3139  0.4831  0.1194
 4861SOL    HW126045   0.507   0.475  11.894 -0.0934  0.4318  0.7968
 4861SOL    HW226046   0.573   0.347  11.855 -0.1671  2.0702 -1.0564
 4862SOL     OW26047   2.418   4.239  14.266 -0.2460 -0.0650  0.3636
 4862SOL    HW126048   2.463   4.321  14.243  2.2549 -1.1992  1.2178
 4862SOL    HW226049   2.369   4.275  14.340  0.0792  1.3813 -0.1158
 4863SOL     OW26050   1.554   0.362   0.337 -0.0882  0.1764  0.0372
 4863SOL    HW126051   1.571   0.330   0.249  1.0805  0.6290  0.1012
 4863SOL    HW226052   1.490   0.430   0.317  1.1958  2.2914  3.0436
 4864SOL     OW26053   3.236   3.142   2.805  0.2312  0.5902  0.7808
 4864SOL    HW126054   3.290   3.217   2.780 -1.4430  1.7024  0.5410
 4864SOL    HW226055   3.177   3.129   2.730 -0.4427  0.0138  1.4152
 4865SOL     OW26056   2.666   0.929   8.107 -0.5944  0.2450  0.3738
 4865SOL    HW126057   2.641   0.889   8.190  0.8466 -1.7543 -0.1596
 4865SOL    HW226058   2.669   0.860   8.042 -0.2279  0.8798 -0.2800
 4866SOL     OW26059   2.655   0.460   3.396 -0.3196  0.3210 -0.0033
 4866SOL    HW126060   2.624   0.546   3.423  1.0120  1.0711 -0.8568
 4866SOL    HW226061   2.671   0.424   3.483 -0.7094 -1.7781 -0.7903
 4867SOL     OW26062   0.076   4.085   2.451 -0.1365  0.3273  0.0147
 4867SOL    HW126063   4.716   4.061   2.414  0.3292 -1.2433 -0.0241
 4867SOL    HW226064   0.115   4.148   2.390 -1.6576  0.4155 -0.8564
 4868SOL     OW26065   3.683   4.469   3.195  0.3038  0.4153 -0.1962
 4868SOL    HW126066   3.734   4.433   3.267  0.4695  1.2522  0.1071
 4868SOL    HW226067   3.725   4.553   3.175  1.2750  0.1102  0.5505
 4869SOL     OW26068   2.662   4.541   5.518 -0.0811  0.5191 -0.0578
 4869SOL    HW126069   2.656   4.636   5.523 -0.3192  0.4795  0.4138
 4869SOL    HW226070   2.573   4.525   5.488 -1.1179 -0.7800  3.7699
 4870SOL     OW26071   2.907   4.340   7.293  0.1684  0.1707  0.3218
 4870SOL    HW126072   2.854   4.363   7.217 -1.9776 -1.4585  1.3290
 4870SOL    HW226073   2.975   4.408   7.295 -0.6854  1.0257 -0.0125
 4871SOL     OW26074   0.727   3.587   3.462 -0.3251 -0.7243  0.6518
 4871SOL    HW126075   0.814   3.607   3.428  0.1537  0.7948  2.7687
 4871SOL    HW226076   0.693   3.676   3.474 -0.3239 -0.5697 -0.5518
 4872SOL     OW26077   2.862   3.585   0.554 -0.4975  0.1468  0.5728
 4872SOL    HW126078   2.821   3.514   0.603 -1.8453  0.8137  0.4209
 4872SOL    HW226079   2.926   3.531   0.508  1.5605  2.3771  0.8089
 4873SOL     OW26080   3.229   0.685  15.400  0.4977  0.4788 -0.1580
 4873SOL    HW126081   3.266   0.732  15.325 -0.5771 -1.6086 -1.9980
 4873SOL    HW226082   3.145   0.658  15.362  1.6760 -0.8144 -1.8745
 4874SOL     OW26083   3.881   4.701   7.114  0.2399 -0.6285  0.1136
 4874SOL    HW126084   3.933   4.669   7.188  1.7062 -0.0301 -0.6740
 4874SOL    HW226085   3.808   0.022   7.158  0.5919  0.7283 -0.6993
 4875SOL     OW26086   4.090   2.913  16.811  0.0393 -0.0755 -0.1490
 4875SOL    HW126087   4.124   2.928  16.899 -0.8725 -1.0603  0.3780
 4875SOL    HW226088   4.029   2.841  16.828  0.2108 -0.1598  0.1160
 4876SOL     OW26089   2.679   2.387  15.538 -0.2886  0.2807 -0.3341
 4876SOL    HW126090   2.737   2.459  15.512  0.2124 -0.2645 -0.7293
 4876SOL    HW226091   2.672   2.379  15.633 -0.2454  0.5289 -0.3091
 4877SOL     OW26092   2.708   3.574   8.508  0.0758  0.3944 -0.1063
 4877SOL    HW126093   2.801   3.593   8.495  0.1422  0.5783  0.6640
 4877SOL    HW226094   2.704   3.478   8.512 -0.3369  0.5938  4.6232
 4878SOL     OW26095   0.069   0.657   4.205  0.1457 -0.4174 -0.1456
 4878SOL    HW126096   0.012   0.716   4.156  1.5339  0.0586 -1.1727
 4878SOL    HW226097   0.009   0.633   4.276  1.9893  0.6817  1.7587
 4879SOL     OW26098   4.341   2.746   7.503  0.3794  0.1369  0.1647
 4879SOL    HW126099   4.390   2.668   7.477 -0.3141  0.2642 -1.5302
 4879SOL    HW226100   4.410   2.802   7.539 -1.4084  1.1871  1.9593
 4880SOL     OW26101   4.037   4.577   3.168 -0.2075  0.1774  0.0084
 4880SOL    HW126102   3.983   4.644   3.128 -0.8848  1.6781  3.4471
 4880SOL    HW226103   4.109   4.627   3.206 -0.4353  0.0732  0.5697
 4881SOL     OW26104   1.404   4.519  10.545  0.3404  0.1612  0.3893
 4881SOL    HW126105   1.487   4.487  10.510  0.6235  1.5729 -0.2290
 4881SOL    HW226106   1.358   4.439  10.569 -0.5599  0.5356 -0.0775
 4882SOL     OW26107   0.097   3.352  12.251  0.0227 -0.2206  0.0125
 4882SOL    HW126108   0.022   3.376  12.305  0.7612 -1.0186  1.4141
 4882SOL    HW226109   0.166   3.327  12.313  2.2855  4.1982 -0.7331
 4883SOL     OW26110   4.695   1.786   4.463  0.0755  0.2760 -0.2950
 4883SOL    HW126111   4.608   1.748   4.453  0.0060  0.7542 -1.4655
 4883SOL    HW226112   0.014   1.724   4.522 -0.3920 -2.0414 -2.3609
 4884SOL     OW26113   1.024   0.741   2.520 -0.2271  0.3401 -0.3698
 4884SOL    HW126114   1.039   0.733   2.614 -1.6993 -0.0899 -0.1689
 4884SOL    HW226115   1.117   0.744   2.497 -0.1769  0.4238 -0.1551
 4885SOL     OW26116   4.028   1.077   2.852  0.0455 -0.6146  0.3554
 4885SOL    HW126117   4.064   1.024   2.924  1.7177  0.0391  0.0060
 4885SOL    HW226118   3.947   1.113   2.888  0.7565 -1.1017  2.4749
 4886SOL     OW26119   2.629   3.775  13.161 -0.0431 -0.1322 -0.2661
 4886SOL    HW126120   2.642   3.843  13.227 -1.6253  0.1939 -0.2888
 4886SOL    HW226121   2.572   3.706  13.196 -1.2007  1.4534  0.9587
 4887SOL     OW26122   4.108   1.017  16.877 -0.3375  0.1934  0.0300
 4887SOL    HW126123   4.069   0.933  16.853  0.0943 -0.7034  2.4745
 4887SOL    HW226124   4.036   1.063  16.921 -1.3838  0.0049 -1.4809
 4888SOL     OW26125   2.729   2.331   5.848 -0.1047  0.3075  0.7619
 4888SOL    HW126126   2.812   2.360   5.885 -0.2036  0.5775  0.7693
 4888SOL    HW226127   2.756   2.306   5.759  2.2529  1.9204  1.0493
 4889SOL     OW26128   2.953   1.070  17.453  0.1354  0.0641  0.6787
 4889SOL    HW126129   3.047   1.056  17.441  0.0686 -0.0708  0.2918
 4889SOL    HW226130   2.937   1.069  17.547 -2.4166 -0.2556  0.2618
 4890SOL     OW26131   1.766   0.916   5.783 -0.1339 -0.3937 -0.7837
 4890SOL    HW126132   1.826   0.842   5.793 -0.7055 -0.8036 -0.4128
 4890SOL    HW226133   1.746   0.894   5.693  0.7293  1.6829 -1.4930
 4891SOL     OW26134   2.634   2.760   2.441  0.6311 -0.2708 -0.3484
 4891SOL    HW126135   2.556   2.731   2.394  1.0133 -0.8658 -0.6184
 4891SOL    HW226136   2.624   2.703   2.517  2.7048 -1.4540 -0.9608
 4892SOL     OW26137   3.823   4.218   7.474 -0.0438 -0.1581  0.7233
 4892SOL    HW126138   3.911   4.184   7.459  0.1843  0.8767 -0.2646
 4892SOL    HW226139   3.825   4.304   7.432  0.1045 -0.8214 -0.6489
 4893SOL     OW26140   1.470   1.716   8.313 -0.2789  0.2972 -0.1850
 4893SOL    HW126141   1.516   1.668   8.245 -0.1835 -0.7696  0.6418
 4893SOL    HW226142   1.415   1.648   8.352  0.7869 -0.2097  0.4306
 4894SOL     OW26143   0.363   2.918   7.428  0.1813 -0.1432 -0.1107
 4894SOL    HW126144   0.316   2.986   7.478 -2.5950 -0.8557 -1.7567
 4894SOL    HW226145   0.343   2.950   7.340  1.7114  0.6294 -0.1906
 4895SOL     OW26146   0.761   4.178   4.673  1.0229  0.2536  0.4636
 4895SOL    HW126147   0.732   4.107   4.615 -1.1859  0.8360  0.8297
 4895SOL    HW226148   0.785   4.245   4.609  1.1279  0.1339  0.3779
 4896SOL     OW26149   4.253   2.558   8.858  0.7109 -0.1120  0.5226
 4896SOL    HW126150   4.260   2.570   8.952 -3.2044 -2.0393  1.0782
 4896SOL    HW226151   4.165   2.583   8.830  0.8248 -0.2646  0.0260
 4897SOL     OW26152   1.975   3.933   5.711  0.1733  0.4407 -0.5815
 4897SOL    HW126153   1.885   3.912   5.687  0.0148  0.1209  0.2747
 4897SOL    HW226154   2.004   3.844   5.730  0.0094  0.0283 -2.2884
 4898SOL     OW26155   2.285   3.681  16.701 -0.5448  0.0322  0.2443
 4898SOL    HW126156   2.345   3.698  16.774  0.1514 -1.0870 -0.0522
 4898SOL    HW226157   2.346   3.667  16.628 -2.0795 -2.8139 -0.4833
 4899SOL     OW26158   3.619   4.022   5.651  0.3212 -0.0889 -0.3878
 4899SOL    HW126159   3.525   4.008   5.663  0.2626  0.8509  0.2285
 4899SOL    HW226160   3.635   4.092   5.588 -0.1341  0.3111 -0.0566
 4900SOL     OW26161   2.344   2.264   1.064 -0.1562  0.0355  0.2629
 4900SOL    HW126162   2.389   2.181   1.078 -1.1372 -0.3802  0.9826
 4900SOL    HW226163   2.417   2.323   1.044 -1.9121  2.0111 -0.3889
 4901SOL     OW26164   3.465   1.582  12.621  0.4984 -0.1776 -0.2630
 4901SOL    HW126165   3.557   1.558  12.612  1.0299  0.3558  3.5479
 4901SOL    HW226166   3.452   1.624  12.536  3.2001  0.7579 -0.1925
 4902SOL     OW26167   0.563   3.811   8.025  0.3258 -0.2494  0.4751
 4902SOL    HW126168   0.504   3.860   8.083  0.8767  0.5680  0.3425
 4902SOL    HW226169   0.633   3.776   8.080  0.8653  0.9137  0.5301
 4903SOL     OW26170   2.492   4.709   9.116  0.3786 -0.6201 -0.2610
 4903SOL    HW126171   2.526   0.011   9.201  0.0089 -2.8243  0.5594
 4903SOL    HW226172   2.488   0.071   9.074 -0.9711 -0.9355 -0.7611
 4904SOL     OW26173   2.885   0.920   6.699 -0.5654 -0.2520  0.3145
 4904SOL    HW126174   2.870   0.880   6.614  2.9214 -0.0069 -0.4395
 4904SOL    HW226175   2.888   0.839   6.750  0.1557 -0.7926 -0.5874
 4905SOL     OW26176   0.576   3.776   8.840  1.1088  0.4393  0.1406
 4905SOL    HW126177   0.664   3.810   8.822 -0.1923  2.7462 -1.9218
 4905SOL    HW226178   0.596   3.685   8.863  1.9268  0.6491  0.2711
 4906SOL     OW26179   4.561   1.089  15.960 -0.2399  0.1380  0.7939
 4906SOL    HW126180   4.526   1.171  15.926  0.1005 -0.1982 -0.3345
 4906SOL    HW226181   4.505   1.072  16.036  0.8055  1.1043  1.7809
 4907SOL     OW26182   1.259   0.953   9.540 -0.1479  0.2384 -0.0555
 4907SOL    HW126183   1.239   1.011   9.466 -2.8436 -0.2396  0.3250
 4907SOL    HW226184   1.318   0.889   9.500  0.8043 -1.0712  3.4444
 4908SOL     OW26185   0.335   3.543   8.296 -0.0040  0.4115 -0.1619
 4908SOL    HW126186   0.333   3.605   8.224  0.9348  2.7134  1.7893
 4908SOL    HW226187   0.345   3.601   8.371 -0.1460  2.2434 -1.5770
 4909SOL     OW26188   2.163   4.105   4.513  0.1531 -0.5338 -0.4435
 4909SOL    HW126189   2.213   4.103   4.431 -0.2047 -0.8587 -0.6537
 4909SOL    HW226190   2.154   4.199   4.524  1.5873 -0.4152 -0.3168
 4910SOL     OW26191   0.369   3.889   9.187 -0.0711  0.1057 -0.4175
 4910SOL    HW126192   0.446   3.920   9.233 -1.1295  1.3360  0.5181
 4910SOL    HW226193   0.324   3.862   9.266  0.0042 -0.6219 -0.6220
 4911SOL     OW26194   4.023   0.750   8.239  0.7062 -0.3183  0.1885
 4911SOL    HW126195   4.015   0.824   8.179 -0.1451 -0.3053  0.3057
 4911SOL    HW226196   4.075   0.790   8.309 -2.2394  0.7854  1.7407
 4912SOL     OW26197   2.833   4.182  16.575  0.1529  0.5237 -0.5626
 4912SOL    HW126198   2.778   4.155  16.648  1.5637  1.3997  0.8190
 4912SOL    HW226199   2.873   4.102  16.541  0.1605  0.1512  0.3316
 4913SOL     OW26200   3.636   3.585   9.121  0.3209  0.2820 -0.0723
 4913SOL    HW126201   3.584   3.663   9.142  0.4905  0.2221  0.5778
 4913SOL    HW226202   3.600   3.522   9.184 -0.8164  0.5500 -0.4453
 4914SOL     OW26203   0.503   3.988   2.336 -0.5357  0.2827 -0.1087
 4914SOL    HW126204   0.592   3.957   2.353 -0.4236 -0.6312 -2.4101
 4914SOL    HW226205   0.467   3.911   2.291  4.1522 -2.1561  0.3814
 4915SOL     OW26206   3.332   1.031  13.858  0.5828  0.6824 -0.0880
 4915SOL    HW126207   3.407   0.973  13.843  1.3357  1.2938  1.3244
 4915SOL    HW226208   3.373   1.097  13.915  1.0269  1.5215 -1.3747
 4916SOL     OW26209   2.134   2.339  13.434 -0.8452 -0.1952  0.8562
 4916SOL    HW126210   2.212   2.360  13.485 -1.3294 -1.1276  1.9784
 4916SOL    HW226211   2.072   2.406  13.463  1.0446  0.8483  2.4641
 4917SOL     OW26212   2.266   2.086   5.998 -0.3074  0.0605  0.2321
 4917SOL    HW126213   2.216   2.046   6.069  1.7074 -2.6918  0.1201
 4917SOL    HW226214   2.311   2.008   5.964 -2.2787 -0.3502 -1.4495
 4918SOL     OW26215   2.549   0.355   4.068  0.2620 -0.4528  0.2142
 4918SOL    HW126216   2.573   0.297   4.140  0.7715 -2.3948 -1.4859
 4918SOL    HW226217   2.495   0.419   4.114 -2.3993 -1.9871 -0.7540
 4919SOL     OW26218   0.829   3.016   5.206  0.1414  0.5462 -0.2004
 4919SOL    HW126219   0.917   3.016   5.244  0.8287 -0.0352 -1.7534
 4919SOL    HW226220   0.806   2.923   5.206  1.0670  0.3121 -0.0725
 4920SOL     OW26221   1.174   4.274   5.661 -0.2007 -0.4326 -0.2420
 4920SOL    HW126222   1.187   4.334   5.735  0.0672  2.9960 -3.1082
 4920SOL    HW226223   1.217   4.321   5.590  1.9340 -0.0878  1.2592
 4921SOL     OW26224   4.257   1.874  17.010 -0.5529 -0.1885  0.3921
 4921SOL    HW126225   4.190   1.906  17.071 -1.6891 -0.5487 -0.6769
 4921SOL    HW226226   4.319   1.947  17.012  0.1015 -0.7877  2.4991
 4922SOL     OW26227   3.927   1.401   1.177 -0.1177 -0.4526 -0.5235
 4922SOL    HW126228   3.898   1.374   1.264  2.0958  0.8724  0.6317
 4922SOL    HW226229   3.915   1.496   1.184 -0.0895 -0.4559 -0.4345
 4923SOL     OW26230   3.086   3.341  16.195 -0.2050 -0.4085 -0.0266
 4923SOL    HW126231   2.992   3.330  16.213  0.2248 -1.0593  1.7922
 4923SOL    HW226232   3.094   3.425  16.150 -0.4862  0.4936  1.6218
 4924SOL     OW26233   0.627   4.260   8.431 -0.1041  0.7484  0.1208
 4924SOL    HW126234   0.554   4.279   8.491 -0.5654 -2.4206  0.5669
 4924SOL    HW226235   0.690   4.210   8.483  0.7977  0.2247 -1.5029
 4925SOL     OW26236   3.283   3.092   5.794  0.1230 -0.3332 -0.1784
 4925SOL    HW126237   3.212   3.124   5.849 -2.3420 -1.9522 -2.4123
 4925SOL    HW226238   3.315   3.168   5.745  1.9068 -0.5386  0.6369
 4926SOL     OW26239   3.796   1.112   0.841 -0.0908  0.8429 -0.0899
 4926SOL    HW126240   3.714   1.125   0.887 -0.2210 -0.5471  0.0681
 4926SOL    HW226241   3.856   1.161   0.897  0.5499 -1.7749  1.5050
 4927SOL     OW26242   1.150   0.542   8.194  0.0701 -0.1282  0.3000
 4927SOL    HW126243   1.242   0.522   8.176  0.2274  2.6879 -1.9321
 4927SOL    HW226244   1.119   0.462   8.237 -1.8063  1.4430  1.8615
 4928SOL     OW26245   4.228   2.275   2.048 -0.3391 -0.2983 -0.2897
 4928SOL    HW126246   4.297   2.239   1.991 -1.0979 -1.0725 -0.7289
 4928SOL    HW226247   4.156   2.286   1.987 -1.9504 -2.1700  1.2787
 4929SOL     OW26248   3.900   2.763  10.208  0.3299 -0.0450 -0.1109
 4929SOL    HW126249   3.864   2.762  10.297  2.5139 -0.5320  0.7709
 4929SOL    HW226250   3.902   2.856  10.189 -0.7063  0.4162  2.0216
 4930SOL     OW26251   4.592   3.027   2.147  0.2292  0.3017  0.3447
 4930SOL    HW126252   4.614   3.102   2.091 -1.8845 -0.9509 -2.1090
 4930SOL    HW226253   4.663   2.966   2.128  1.0001  1.0475  0.8057
 4931SOL     OW26254   1.157   3.240   9.719  0.5671  0.3348 -0.0201
 4931SOL    HW126255   1.147   3.165   9.660 -0.2213  0.0387  0.4806
 4931SOL    HW226256   1.067   3.230   9.750 -0.3020 -0.4659 -2.7894
 4932SOL     OW26257   1.984   3.248  10.353 -0.5381 -0.1475 -0.2673
 4932SOL    HW126258   1.924   3.323  10.353 -0.8298 -0.3787  1.2995
 4932SOL    HW226259   2.074   3.279  10.342  0.2917 -2.1459  1.0557
 4933SOL     OW26260   0.850   3.423   9.073 -0.0702 -0.0141  0.3003
 4933SOL    HW126261   0.887   3.375   9.146 -0.5821 -0.8574  0.0022
 4933SOL    HW226262   0.927   3.425   9.016  0.0176 -0.3254  0.4094
 4934SOL     OW26263   2.261   0.742   6.354  0.1215 -0.1640 -0.0667
 4934SOL    HW126264   2.188   0.766   6.297  1.0372  2.4408 -0.1294
 4934SOL    HW226265   2.307   0.825   6.365  1.7355 -1.0921  0.1649
 4935SOL     OW26266   4.506   3.951   1.266  0.1804 -0.3119  0.2419
 4935SOL    HW126267   4.473   4.040   1.255  0.1321 -0.3407  0.1541
 4935SOL    HW226268   4.441   3.903   1.214  0.0999  0.2133 -0.1369
 4936SOL     OW26269   1.143   0.292   3.444 -0.1196 -0.0091  0.0075
 4936SOL    HW126270   1.181   0.341   3.516 -0.9083 -0.5259  0.7897
 4936SOL    HW226271   1.208   0.224   3.429  0.4496  0.4805  0.2902
 4937SOL     OW26272   2.787   1.381   4.958  0.2523  0.0802  0.1200
 4937SOL    HW126273   2.848   1.336   4.901  1.5404 -0.4937  1.9610
 4937SOL    HW226274   2.848   1.427   5.016 -1.2246  1.1897  0.8222
 4938SOL     OW26275   3.912   2.465   8.429 -0.3665 -0.3136  0.7126
 4938SOL    HW126276   3.936   2.446   8.520  2.3934  2.5164  0.5587
 4938SOL    HW226277   3.985   2.521   8.402  1.4308 -3.2589 -0.4105
 4939SOL     OW26278   0.229   0.095   4.780  0.1584  0.2828  0.0468
 4939SOL    HW126279   0.173   0.052   4.715  2.5994 -1.4975 -0.8817
 4939SOL    HW226280   0.176   0.173   4.791  1.1033  0.6986  1.6500
 4940SOL     OW26281   0.956   1.887   8.140  0.1100 -0.4060  0.1651
 4940SOL    HW126282   0.939   1.857   8.051 -0.3215 -2.3537  0.9143
 4940SOL    HW226283   1.052   1.881   8.145  0.1050  0.3680  1.4102
 4941SOL     OW26284   0.354   2.635   2.948  0.8241  0.6598  0.2559
 4941SOL    HW126285   0.322   2.704   2.890 -0.1400 -0.1612 -0.1716
 4941SOL    HW226286   0.421   2.692   2.988 -0.9542  1.8156  1.5684
 4942SOL     OW26287   0.230   3.709   3.731  0.0704 -0.5807 -0.2491
 4942SOL    HW126288   0.275   3.678   3.809 -0.5773 -0.0351  0.3307
 4942SOL    HW226289   0.283   3.788   3.716 -1.4018  0.7510  1.7566
 4943SOL     OW26290   1.192   1.137   9.335 -0.2113 -0.4585  0.3914
 4943SOL    HW126291   1.164   1.224   9.309  0.5466 -0.8818 -1.8182
 4943SOL    HW226292   1.117   1.083   9.309 -1.0456  1.4011 -1.0046
 4944SOL     OW26293   1.947   0.969   4.484  0.0557 -0.2389  0.0924
 4944SOL    HW126294   1.974   1.047   4.532  1.2775 -0.0625 -0.8938
 4944SOL    HW226295   2.008   0.900   4.509  0.2212  0.5727  1.8803
 4945SOL     OW26296   4.585   4.360   5.759 -0.2134  0.0558 -0.0871
 4945SOL    HW126297   4.576   4.345   5.853 -2.2186 -1.0513 -0.4619
 4945SOL    HW226298   4.571   4.272   5.724 -0.0875  0.5446 -1.3529
 4946SOL     OW26299   4.576   0.627   1.818  0.0517 -0.3740 -0.6095
 4946SOL    HW126300   4.660   0.619   1.864 -0.2654  1.0051  0.1964
 4946SOL    HW226301   4.604   0.604   1.730 -1.1329 -1.7330 -0.6165
 4947SOL     OW26302   2.950   2.229   9.720 -0.2961  0.0604 -0.1072
 4947SOL    HW126303   3.035   2.221   9.761  1.0267  1.3333 -2.5935
 4947SOL    HW226304   2.970   2.181   9.639  0.0446 -0.7906  0.4842
 4948SOL     OW26305   2.959   4.722  11.880 -0.3259  0.1321  0.3261
 4948SOL    HW126306   3.003   4.674  11.950  2.0269  2.7178  0.6036
 4948SOL    HW226307   2.877   0.009  11.928  0.0527  0.9381  0.7930
 4949SOL     OW26308   0.615   3.728  15.510 -0.0506  0.3394 -0.2102
 4949SOL    HW126309   0.590   3.707  15.420  0.9364  2.5377 -0.9722
 4949SOL    HW226310   0.572   3.813  15.520  0.3254  0.5558 -0.4397
 4950SOL     OW26311   1.199   0.902   5.901  0.4964  0.0344  0.3451
 4950SOL    HW126312   1.108   0.873   5.897  0.2447  1.0441 -1.1198
 4950SOL    HW226313   1.219   0.890   5.994 -0.7488  4.2706  1.1674
 4951SOL     OW26314   3.861   3.809   6.904 -0.4547  0.3510  0.0519
 4951SOL    HW126315   3.781   3.759   6.888 -0.7485  0.3122  1.6359
 4951SOL    HW226316   3.888   3.838   6.817  0.4408  0.8602  0.4952
 4952SOL     OW26317   0.061   0.798   1.377  0.0590  0.8905 -0.3674
 4952SOL    HW126318   0.060   0.860   1.450 -1.0404  0.7705 -0.2806
 4952SOL    HW226319   0.142   0.834   1.340  1.8385 -1.0199  1.7243
 4953SOL     OW26320   2.297   1.895   8.792 -0.0902  0.5441  0.2360
 4953SOL    HW126321   2.213   1.914   8.834 -1.2948 -2.2074 -0.8949
 4953SOL    HW226322   2.276   1.860   8.705  0.3631 -1.6483  1.0168
 4954SOL     OW26323   4.206   2.074   1.559 -0.5634 -0.2203 -0.3378
 4954SOL    HW126324   4.160   2.029   1.489 -2.1231 -0.6653  0.9584
 4954SOL    HW226325   4.279   2.120   1.517 -0.5305  0.1821  0.1605
 4955SOL     OW26326   2.749   1.117   6.856 -0.7865  0.0315 -0.1113
 4955SOL    HW126327   2.804   1.045   6.828  0.5754  0.1152  2.3795
 4955SOL    HW226328   2.759   1.178   6.782 -1.7261 -0.1959 -0.4240
 4956SOL     OW26329   0.069   1.081  16.493  0.3333  0.3180  0.0082
 4956SOL    HW126330   0.046   1.173  16.500 -0.7832  0.0489 -0.2151
 4956SOL    HW226331   0.107   1.051  16.575 -2.6473 -1.6510  0.6440
 4957SOL     OW26332   0.106   0.790   3.545  0.1015  0.1744 -0.2035
 4957SOL    HW126333   0.162   0.794   3.623  0.1630 -0.3968 -0.2150
 4957SOL    HW226334   0.054   0.713   3.567 -0.2019  0.1762 -0.9473
 4958SOL     OW26335   0.580   1.874   5.216  0.0137 -0.4180  0.3991
 4958SOL    HW126336   0.558   1.781   5.220 -2.6717  0.1685 -1.1277
 4958SOL    HW226337   0.651   1.878   5.151 -0.0716  1.9828  0.4664
 4959SOL     OW26338   1.885   3.496   7.721  0.1018 -0.4644 -0.2156
 4959SOL    HW126339   1.958   3.488   7.659  0.0396 -0.1071 -0.3355
 4959SOL    HW226340   1.927   3.491   7.807 -2.8782  0.1991  1.2827
 4960SOL     OW26341   2.667   3.691  16.858  0.1924  0.7430  0.5239
 4960SOL    HW126342   2.696   3.634  16.929 -1.9655 -0.5362  0.3858
 4960SOL    HW226343   2.579   3.703  16.894  0.3543 -1.1796  1.5755
 4961SOL     OW26344   2.604   4.469  15.822 -0.3024  0.1077  0.4171
 4961SOL    HW126345   2.636   4.532  15.887 -1.0593 -0.7728  1.6388
 4961SOL    HW226346   2.680   4.413  15.808 -1.0019 -0.7733  0.1351
 4962SOL     OW26347   3.894   1.030  11.727  0.0040  0.0925 -0.2930
 4962SOL    HW126348   3.862   0.949  11.689 -0.0830 -0.8475  1.7859
 4962SOL    HW226349   3.833   1.057  11.796  1.3639  0.3359  0.8336
 4963SOL     OW26350   2.171   2.249   6.565 -0.9870  0.5250  0.2173
 4963SOL    HW126351   2.150   2.203   6.646  0.1486 -0.2158  0.0938
 4963SOL    HW226352   2.211   2.326   6.606 -0.4247  0.8814 -1.0147
 4964SOL     OW26353   4.522   3.981   8.219 -0.1023 -0.6034  0.0451
 4964SOL    HW126354   4.610   4.013   8.201 -0.1538  0.5391  1.8557
 4964SOL    HW226355   4.528   3.957   8.312 -1.7580  0.0876  0.3334
 4965SOL     OW26356   0.855   2.917   4.740 -0.6003  0.2876 -0.6796
 4965SOL    HW126357   0.888   3.000   4.706  0.2401  0.3039  0.1874
 4965SOL    HW226358   0.762   2.938   4.749 -1.6972 -4.0197 -1.8863
 4966SOL     OW26359   3.310   0.097   3.967  0.3241 -0.2850  0.1689
 4966SOL    HW126360   3.357   0.093   4.050 -0.0681 -1.1645  0.3447
 4966SOL    HW226361   3.245   0.033   3.995  0.1880  0.0859  0.7034
 4967SOL     OW26362   2.694   2.512  12.143 -0.1186  0.0881 -0.0921
 4967SOL    HW126363   2.768   2.550  12.096  0.1991  0.6864  0.9078
 4967SOL    HW226364   2.655   2.450  12.080  3.1806 -1.8534 -0.1848
 4968SOL     OW26365   0.601   4.577   4.130 -0.1118  0.6886  0.4348
 4968SOL    HW126366   0.656   4.630   4.187 -1.6636  3.8887 -1.0965
 4968SOL    HW226367   0.616   4.603   4.039 -2.2443  2.1381  0.4880
 4969SOL     OW26368   1.072   1.467   3.908  0.1991 -0.3141  0.1674
 4969SOL    HW126369   1.166   1.488   3.906 -0.1732  1.1259 -2.9256
 4969SOL    HW226370   1.059   1.372   3.906  1.1735 -0.4870  2.6072
 4970SOL     OW26371   0.813   0.461  11.057 -0.0942  0.2857 -0.1232
 4970SOL    HW126372   0.886   0.515  11.028  0.6219  0.5286  2.1274
 4970SOL    HW226373   0.742   0.524  11.041 -1.2635 -1.2888 -1.0763
 4971SOL     OW26374   3.885   3.974   9.090  0.3608  0.3911  0.1312
 4971SOL    HW126375   3.870   3.906   9.024 -0.8859 -0.2101  1.0223
 4971SOL    HW226376   3.961   4.021   9.057  0.8410 -1.9925 -2.1936
 4972SOL     OW26377   0.673   3.572  10.973  0.1362 -0.2385 -0.2621
 4972SOL    HW126378   0.599   3.628  10.950 -1.0543 -0.9461  1.8684
 4972SOL    HW226379   0.652   3.485  10.938 -1.2451  0.2297 -0.6074
 4973SOL     OW26380   0.532   4.336   9.364 -0.4282 -0.3710 -0.1925
 4973SOL    HW126381   0.589   4.411   9.350 -0.1558 -0.6368 -0.5078
 4973SOL    HW226382   0.594   4.262   9.366 -0.4642 -0.4075 -0.4021
 4974SOL     OW26383   0.848   0.245   8.092 -0.2683  0.2941 -0.1051
 4974SOL    HW126384   0.913   0.186   8.131 -0.5687 -0.8109 -1.2669
 4974SOL    HW226385   0.909   0.286   8.030  1.8703 -2.7149 -0.0323
 4975SOL     OW26386   1.226   2.804   8.785 -0.0231  0.5344 -0.7389
 4975SOL    HW126387   1.195   2.720   8.818  2.5380  0.6708  1.9177
 4975SOL    HW226388   1.163   2.852   8.839  1.1447  3.1592 -1.7090
 4976SOL     OW26389   0.544   4.688   6.917  0.0909 -0.7092 -0.4150
 4976SOL    HW126390   0.580   4.601   6.903 -3.5071 -2.4695  1.3221
 4976SOL    HW226391   0.467   4.682   6.861 -0.1341  1.2219 -0.3274
 4977SOL     OW26392   3.021   3.370   9.235 -0.4671 -0.2981 -0.0224
 4977SOL    HW126393   3.006   3.293   9.289 -3.7423 -0.1327 -0.6892
 4977SOL    HW226394   2.979   3.436   9.290 -0.4195 -1.5519  1.5248
 4978SOL     OW26395   4.484   0.174   6.421  0.0715 -0.0076 -0.3460
 4978SOL    HW126396   4.567   0.136   6.395 -0.3499 -1.9374  1.1191
 4978SOL    HW226397   4.496   0.203   6.512  1.6570  0.6908 -0.7898
 4979SOL     OW26398   2.034   2.102  15.864 -0.7391  0.6235 -0.4125
 4979SOL    HW126399   2.090   2.024  15.866 -3.7802 -1.4595  2.8158
 4979SOL    HW226400   1.996   2.103  15.776  1.0025 -4.4066 -1.2085
 4980SOL     OW26401   1.452   3.733   7.982 -0.0760  0.4827  0.3994
 4980SOL    HW126402   1.395   3.657   7.995 -1.1943  1.3549  0.6022
 4980SOL    HW226403   1.376   3.792   7.985 -0.2163  0.3139  0.1490
 4981SOL     OW26404   0.507   2.283  11.009 -0.4373  0.1018 -0.3441
 4981SOL    HW126405   0.494   2.365  11.057  0.5329  0.9220 -1.4710
 4981SOL    HW226406   0.537   2.329  10.930  0.7290 -1.1567 -0.6224
 4982SOL     OW26407   0.596   4.212  12.015 -0.0493  0.4576 -0.3137
 4982SOL    HW126408   0.554   4.181  12.095  0.5173 -0.9787 -0.5785
 4982SOL    HW226409   0.670   4.153  12.020  1.3639  2.3483  1.2242
 4983SOL     OW26410   3.653   3.975   7.445  0.6800  0.1491 -0.0482
 4983SOL    HW126411   3.573   4.020   7.418 -0.1833 -2.0725 -1.2216
 4983SOL    HW226412   3.706   4.055   7.444 -1.1459  1.3485 -1.8993
 4984SOL     OW26413   2.691   4.195   5.389 -0.1075 -0.4008  0.0116
 4984SOL    HW126414   2.765   4.229   5.439  0.6925 -3.2707  0.7545
 4984SOL    HW226415   2.625   4.171   5.453 -1.0081  1.3843 -0.2397
 4985SOL     OW26416   4.615   2.170   6.586  0.3478  0.4517 -0.4721
 4985SOL    HW126417   4.683   2.126   6.535 -1.1554 -2.4418  0.0188
 4985SOL    HW226418   4.639   2.262   6.576 -0.6603  0.6248 -1.3249
 4986SOL     OW26419   3.970   1.462  13.821  0.1622  0.1087 -0.0275
 4986SOL    HW126420   3.975   1.445  13.915  0.0035 -0.2421 -0.0788
 4986SOL    HW226421   4.063   1.467  13.799 -0.3377 -0.1127 -2.1901
 4987SOL     OW26422   2.594   3.539   3.363  0.0789  0.0428  0.2644
 4987SOL    HW126423   2.620   3.523   3.272 -0.9956 -3.8981  0.6784
 4987SOL    HW226424   2.499   3.539   3.350  0.2634  0.7867 -1.1398
 4988SOL     OW26425   3.270   0.620   7.067  0.1382 -0.0573 -0.0564
 4988SOL    HW126426   3.225   0.595   7.148  0.0840 -0.4808 -0.2191
 4988SOL    HW226427   3.343   0.558   7.066  0.6312  0.5959 -2.9515
 4989SOL     OW26428   4.255   3.286   1.525 -0.2190 -0.1291 -0.1259
 4989SOL    HW126429   4.278   3.243   1.442 -2.2971  0.0623 -0.7974
 4989SOL    HW226430   4.274   3.213   1.583 -1.3961  0.1368  0.5739
 4990SOL     OW26431   2.954   4.570  11.289  0.9105 -0.2659 -0.1645
 4990SOL    HW126432   3.000   4.603  11.367 -0.0919  0.2635  0.1956
 4990SOL    HW226433   3.012   4.605  11.221  0.3457 -1.4750 -1.2552
 4991SOL     OW26434   2.165   2.154  15.375 -0.0011  0.0043 -0.1533
 4991SOL    HW126435   2.132   2.174  15.463  0.1443  1.2254 -0.3846
 4991SOL    HW226436   2.114   2.212  15.319 -1.4167 -0.4484  0.6847
 4992SOL     OW26437   2.660   1.448   9.016 -0.4361 -0.1163  0.1458
 4992SOL    HW126438   2.727   1.485   8.959  0.8174 -1.2918  0.8642
 4992SOL    HW226439   2.696   1.360   9.030  0.4796  0.1642 -0.4702
 4993SOL     OW26440   2.846   1.675  15.941 -0.0513  0.4608 -0.0056
 4993SOL    HW126441   2.795   1.748  15.977 -0.6100 -0.0489  0.2389
 4993SOL    HW226442   2.889   1.716  15.866 -1.9158 -0.3088 -1.4761
 4994SOL     OW26443   3.013   1.902   8.972  0.4408 -0.1541  0.0577
 4994SOL    HW126444   2.956   1.854   8.912  0.0506 -1.7030  1.6971
 4994SOL    HW226445   2.973   1.989   8.982 -0.3419 -0.6488  1.1988
 4995SOL     OW26446   1.270   2.933   4.147  0.4158  0.2807  0.1712
 4995SOL    HW126447   1.268   3.002   4.214  2.2058 -0.2826  0.8032
 4995SOL    HW226448   1.344   2.876   4.164  1.4368  1.9285  1.2678
 4996SOL     OW26449   4.256   1.796   0.555 -0.6032 -0.0739 -0.4050
 4996SOL    HW126450   4.238   1.703   0.538 -2.3861  0.2379 -0.2409
 4996SOL    HW226451   4.351   1.796   0.543 -0.7759 -1.0954 -1.8841
 4997SOL     OW26452   2.220   2.179   1.734  0.1717 -0.0637 -0.2862
 4997SOL    HW126453   2.186   2.263   1.702  0.8604 -0.8553 -3.0556
 4997SOL    HW226454   2.277   2.147   1.664 -1.4879  1.2549 -2.2574
 4998SOL     OW26455   2.314   1.486   3.967 -0.8250  0.3534 -0.0617
 4998SOL    HW126456   2.237   1.513   3.915 -1.2032  2.1642  1.4412
 4998SOL    HW226457   2.382   1.540   3.928  0.1028 -0.3982  0.5395
 4999SOL     OW26458   0.948   2.224   3.295  0.1481  0.1575  0.2954
 4999SOL    HW126459   0.956   2.175   3.377 -0.4422  1.4679  1.1244
 4999SOL    HW226460   0.865   2.199   3.252  1.9613 -0.5707 -2.8109
 5000SOL     OW26461   4.530   3.048   8.842 -0.6417  0.2866  0.4427
 5000SOL    HW126462   4.569   3.063   8.756  0.8522 -0.5755  0.9500
 5000SOL    HW226463   4.594   3.090   8.899 -1.9177 -1.5662  3.2828
 5001SOL     OW26464   3.631   0.583   4.675 -0.8359 -0.1469 -0.0727
 5001SOL    HW126465   3.708   0.610   4.725 -2.0219 -1.5996  2.5043
 5001SOL    HW226466   3.663   0.510   4.622  2.1751  0.8938  0.3345
 5002SOL     OW26467   1.579   0.394   3.557 -0.5156  0.2186  0.5460
 5002SOL    HW126468   1.489   0.411   3.584  0.5538  1.6348  3.2423
 5002SOL    HW226469   1.622   0.476   3.579 -0.6801 -0.0217  1.7334
 5003SOL     OW26470   2.272   4.259   7.060 -0.6178 -0.0479  0.1542
 5003SOL    HW126471   2.244   4.285   6.972  0.4586  1.8795  0.3826
 5003SOL    HW226472   2.262   4.165   7.051  0.7940 -0.3753  1.9537
 5004SOL     OW26473   2.545   1.587   3.880 -0.4025  0.4092  0.5319
 5004SOL    HW126474   2.572   1.663   3.828  2.2645  0.2418  1.6352
 5004SOL    HW226475   2.594   1.509   3.853  0.4538  0.5112  1.7817
 5005SOL     OW26476   1.243   4.172   5.076  0.3335 -0.1666  0.1380
 5005SOL    HW126477   1.256   4.112   5.150  0.2727 -0.6256 -0.2220
 5005SOL    HW226478   1.193   4.245   5.113  0.8566  0.6619 -0.7815
 5006SOL     OW26479   0.273   3.229   1.444  0.1639 -0.4635  0.1193
 5006SOL    HW126480   0.187   3.243   1.405 -0.1780 -2.6534  0.0648
 5006SOL    HW226481   0.289   3.137   1.421 -1.9393 -1.0489  0.9765
 5007SOL     OW26482   2.554   1.126   7.152 -0.1534 -0.3726  0.8459
 5007SOL    HW126483   2.611   1.124   7.229  0.3712 -1.6201  0.4304
 5007SOL    HW226484   2.598   1.192   7.098 -1.2565  2.5721  3.5471
 5008SOL     OW26485   0.977   3.322   4.822  0.4254  0.2355 -0.2126
 5008SOL    HW126486   0.999   3.411   4.852  1.2587 -0.1885  0.4629
 5008SOL    HW226487   0.973   3.269   4.902  2.2409  1.9723  1.0543
 5009SOL     OW26488   3.179   4.439  10.856  0.4333 -0.0405 -0.3251
 5009SOL    HW126489   3.254   4.489  10.889  0.8619 -1.6388  1.1151
 5009SOL    HW226490   3.196   4.469  10.767 -1.4958  2.5621  0.1545
 5010SOL     OW26491   3.809   1.347  13.599 -0.1898  0.0746  0.1841
 5010SOL    HW126492   3.859   1.392  13.666 -0.7332  1.3629 -0.2735
 5010SOL    HW226493   3.843   1.376  13.514  0.5034  0.9410  0.7649
 5011SOL     OW26494   4.632   4.295   5.152  0.1478 -1.0799  0.2552
 5011SOL    HW126495   4.625   4.224   5.215  0.5303 -0.5027  0.9452
 5011SOL    HW226496   4.593   4.366   5.204  2.1524  1.7876 -2.1194
 5012SOL     OW26497   3.038   2.929   4.097 -0.1326 -0.1440 -0.1859
 5012SOL    HW126498   3.070   2.981   4.170 -1.2254 -0.6319  0.6393
 5012SOL    HW226499   3.074   2.842   4.115  0.2841  0.1412  0.3699
 5013SOL     OW26500   1.040   3.951   4.582 -0.3273 -0.4965  0.1810
 5013SOL    HW126501   1.089   4.018   4.629 -0.4635  1.1178 -1.9665
 5013SOL    HW226502   1.053   3.883   4.648 -1.1253 -1.8190 -1.0263
 5014SOL     OW26503   4.710   0.093   9.038 -0.0706  0.5611  0.0439
 5014SOL    HW126504   0.035   0.172   9.061  2.3021 -0.6881 -0.6878
 5014SOL    HW226505   0.059   0.041   9.005 -0.8811 -0.8082  0.4068
 5015SOL     OW26506   1.209   3.867   2.131 -0.0593 -0.1940 -0.3304
 5015SOL    HW126507   1.218   3.911   2.047 -0.0716 -0.0397 -0.2527
 5015SOL    HW226508   1.264   3.789   2.125 -0.6733 -0.6377 -0.2102
 5016SOL     OW26509   0.176   3.879  13.826  0.2537  0.4576 -0.0712
 5016SOL    HW126510   0.098   3.833  13.796 -1.2009  2.6883  0.3484
 5016SOL    HW226511   0.240   3.809  13.808 -0.0477  0.1139  0.2001
 5017SOL     OW26512   0.110   2.972   4.447  0.1228  0.1796 -0.0682
 5017SOL    HW126513   0.036   2.958   4.507 -1.4378  1.4807 -1.6800
 5017SOL    HW226514   0.184   2.991   4.505 -0.3219  3.5371 -0.6213
 5018SOL     OW26515   2.285   4.131   2.296  0.8533  0.2923 -0.1087
 5018SOL    HW126516   2.272   4.130   2.202  2.0655  1.6427 -0.2876
 5018SOL    HW226517   2.211   4.189   2.310 -1.5400 -1.8529 -3.9118
 5019SOL     OW26518   3.425   3.333   8.951  0.2462 -0.2862 -0.4091
 5019SOL    HW126519   3.389   3.399   9.010  1.5329  0.7188 -0.7528
 5019SOL    HW226520   3.346   3.321   8.899  0.1574 -0.1192 -0.3100
 5020SOL     OW26521   4.231   3.292   7.576  0.3358 -0.6376 -0.7279
 5020SOL    HW126522   4.208   3.320   7.487  0.8281  1.5459 -0.1644
 5020SOL    HW226523   4.142   3.289   7.612  0.2027  1.2049 -0.8808
 5021SOL     OW26524   0.665   4.679   8.528  0.1407 -0.3668 -0.2122
 5021SOL    HW126525   0.623   4.684   8.614  0.8088 -1.2248  0.1533
 5021SOL    HW226526   0.601   0.001   8.473  1.0634  0.6800 -0.4242
 5022SOL     OW26527   1.271   3.435  14.635  0.2971  0.3474  0.2162
 5022SOL    HW126528   1.229   3.396  14.558  0.5143 -1.0563  0.8127
 5022SOL    HW226529   1.206   3.404  14.698 -0.3246 -2.0270 -1.6049
 5023SOL     OW26530   3.037   0.016   7.063  0.5268  0.1728  0.5583
 5023SOL    HW126531   2.963   0.073   7.083 -0.7433 -1.8919  1.8523
 5023SOL    HW226532   3.084   0.077   7.006 -0.9916  0.5457 -0.2977
 5024SOL     OW26533   2.702   3.817   2.087  0.3147 -0.0932 -0.1566
 5024SOL    HW126534   2.768   3.751   2.067 -0.4062 -0.7386 -0.4109
 5024SOL    HW226535   2.671   3.786   2.172 -0.4899 -1.2524 -0.8751
 5025SOL     OW26536   1.976   2.315   7.418  0.0634  0.5049 -0.5844
 5025SOL    HW126537   1.993   2.314   7.512  0.2473 -1.0893 -0.6302
 5025SOL    HW226538   1.990   2.221   7.404  1.7703  0.5827  0.6708
 5026SOL     OW26539   3.240   0.181  17.597 -0.0440  0.0125  0.3063
 5026SOL    HW126540   3.260   0.230  17.518 -1.7832 -2.0411 -1.4288
 5026SOL    HW226541   3.321   0.178  17.648  0.5735 -0.4118 -0.7093
 5027SOL     OW26542   0.036   3.812   0.799 -0.3982 -0.5551  0.0567
 5027SOL    HW126543   0.104   3.876   0.781 -1.1277  0.2112  0.0493
 5027SOL    HW226544   0.040   3.795   0.894 -0.2310 -1.6276 -0.1369
 5028SOL     OW26545   1.876   2.667   4.134  0.4066 -0.2101  0.3488
 5028SOL    HW126546   1.914   2.755   4.139  0.4979 -0.1725 -1.1194
 5028SOL    HW226547   1.873   2.656   4.229 -2.0547  0.6264  0.3608
 5029SOL     OW26548   2.038   4.115   8.805 -0.6859  0.1367  0.2184
 5029SOL    HW126549   2.049   4.210   8.805 -1.4801  0.2306  0.0294
 5029SOL    HW226550   1.988   4.101   8.885  0.7388 -1.6402  0.7823
 5030SOL     OW26551   4.103   3.106   4.186  0.4182  0.6497 -0.0537
 5030SOL    HW126552   4.101   3.166   4.111  0.4110 -0.0945 -0.6511
 5030SOL    HW226553   4.162   3.154   4.244  2.0284 -2.5274  0.8938
 5031SOL     OW26554   2.664   4.545  11.613  0.1459  0.5530  0.0044
 5031SOL    HW126555   2.651   4.509  11.701 -0.2868  1.8127  0.4578
 5031SOL    HW226556   2.758   4.557  11.624  0.2593 -0.0324 -0.3338
 5032SOL     OW26557   4.384   0.010   5.283  0.0247  0.3776  0.2373
 5032SOL    HW126558   4.326   4.661   5.260 -0.1899 -0.1445  2.4473
 5032SOL    HW226559   4.471   4.696   5.268  1.1650  1.9684  2.9393
 5033SOL     OW26560   2.863   4.153  15.075 -0.3317  0.2831  0.0155
 5033SOL    HW126561   2.769   4.138  15.088 -0.3882  0.1430 -0.5309
 5033SOL    HW226562   2.895   4.177  15.161  0.7965  0.4364 -0.4546
 5034SOL     OW26563   1.632   0.381   9.054  0.1432 -0.0625 -0.4139
 5034SOL    HW126564   1.664   0.470   9.071 -1.0770  0.2030  0.5217
 5034SOL    HW226565   1.709   0.331   9.080  0.3840  1.6967  2.2923
 5035SOL     OW26566   3.423   1.169   2.009 -0.3606 -0.1532  0.3073
 5035SOL    HW126567   3.400   1.260   2.026  2.0903  0.7795 -1.4482
 5035SOL    HW226568   3.441   1.141   2.099  0.0594  0.9477  0.5552
 5036SOL     OW26569   0.850   2.477   8.394  0.1670  0.2998  0.1018
 5036SOL    HW126570   0.890   2.430   8.467  2.0730  0.6364 -0.7307
 5036SOL    HW226571   0.812   2.413   8.333 -0.5756  0.9098 -0.0798
 5037SOL     OW26572   0.393   0.612   9.621 -0.5362 -0.3316  0.0187
 5037SOL    HW126573   0.368   0.605   9.529  0.9471  0.2666 -0.4284
 5037SOL    HW226574   0.417   0.522   9.643  0.8421 -0.1860 -0.9065
 5038SOL     OW26575   1.256   4.311   4.703  0.4853 -0.0106  0.2010
 5038SOL    HW126576   1.346   4.339   4.719 -0.0126  0.9025  1.4695
 5038SOL    HW226577   1.258   4.215   4.705 -0.6071 -0.0479 -0.8190
 5039SOL     OW26578   2.307   1.444   4.960 -0.0630  0.0877  0.8087
 5039SOL    HW126579   2.256   1.413   5.034 -1.6923 -0.8626 -0.7117
 5039SOL    HW226580   2.346   1.524   4.996 -4.5313  1.5136  2.3865
 5040SOL     OW26581   4.700   0.988   9.162 -0.0255  0.7830  0.0521
 5040SOL    HW126582   4.719   0.915   9.103  0.7369  0.6843  0.4096
 5040SOL    HW226583   4.605   0.991   9.166 -0.0027 -0.6284  1.8658
 5041SOL     OW26584   3.687   1.557   1.608  0.3501 -0.5170  0.0267
 5041SOL    HW126585   3.605   1.532   1.565 -1.2047  0.5263  2.3816
 5041SOL    HW226586   3.720   1.641   1.576 -1.4980 -0.2271 -1.1253
 5042SOL     OW26587   1.795   2.961   6.446 -0.5327  0.2513  0.1787
 5042SOL    HW126588   1.806   2.867   6.461 -0.7096  0.3883  1.1438
 5042SOL    HW226589   1.887   2.985   6.435 -0.6977  1.5589  1.6495
 5043SOL     OW26590   2.984   3.742   6.962  0.1767  0.7609  0.1274
 5043SOL    HW126591   3.067   3.696   6.956 -0.9803 -1.2924 -0.1269
 5043SOL    HW226592   2.997   3.804   7.034 -0.6057  0.3821  0.6018
 5044SOL     OW26593   4.470   1.164  16.570 -0.7445  0.5353  0.2140
 5044SOL    HW126594   4.493   1.081  16.613 -1.5787  1.0775  1.7196
 5044SOL    HW226595   4.549   1.217  16.585 -1.4429  1.3714  0.9621
 5045SOL     OW26596   2.100   2.953   7.701  0.3591  0.2505  0.4876
 5045SOL    HW126597   2.053   3.009   7.763 -1.9259 -0.5316 -0.5371
 5045SOL    HW226598   2.150   2.893   7.757  2.0672 -0.0102 -1.3621
 5046SOL     OW26599   4.130   4.272   6.590  0.4301  0.1413  0.1741
 5046SOL    HW126600   4.078   4.226   6.524  1.0283  1.2955 -1.1087
 5046SOL    HW226601   4.076   4.344   6.623  0.1606  0.1878 -0.3708
 5047SOL     OW26602   0.226   1.810  15.816  0.1730 -0.3744 -0.1664
 5047SOL    HW126603   0.189   1.894  15.844 -0.2402 -0.3310 -0.8258
 5047SOL    HW226604   0.318   1.835  15.822 -0.8678  3.6931 -1.0265
 5048SOL     OW26605   3.114   0.793  11.956 -0.1410 -0.5057 -0.2517
 5048SOL    HW126606   3.145   0.734  12.025  0.8265  0.6234  0.2678
 5048SOL    HW226607   3.090   0.868  12.011  0.9401 -1.5758  1.6973
 5049SOL     OW26608   1.376   4.337  13.539 -0.7395 -0.1958 -0.3586
 5049SOL    HW126609   1.435   4.322  13.465  0.5035  0.2946  0.5229
 5049SOL    HW226610   1.390   4.254  13.583 -2.1362 -0.3871 -0.2793
 5050SOL     OW26611   3.992   4.538   6.005  0.2431  0.3611  0.4395
 5050SOL    HW126612   3.922   4.472   6.011 -0.8063  1.4528  0.1334
 5050SOL    HW226613   4.063   4.488   6.046  0.9562  1.9451  1.1408
 5051SOL     OW26614   3.036   2.968  13.643  0.3277 -0.1158 -0.1944
 5051SOL    HW126615   3.013   2.931  13.558  1.3927  1.1854 -1.0426
 5051SOL    HW226616   3.022   3.062  13.633 -1.1496  0.0970  3.6230
 5052SOL     OW26617   2.901   2.960   7.093 -0.6438  0.0078 -0.2451
 5052SOL    HW126618   2.845   2.884   7.112  0.8069 -0.7998  0.8665
 5052SOL    HW226619   2.983   2.936   7.137 -0.8686  0.1193  0.2369
 5053SOL     OW26620   1.827   2.998   9.341  0.7671  0.1482  0.2653
 5053SOL    HW126621   1.830   3.037   9.254 -1.9047  1.3114  0.6773
 5053SOL    HW226622   1.792   3.071   9.392  1.5760 -1.3226  2.9522
 5054SOL     OW26623   0.605   1.867   3.796  0.3387 -0.1418  0.6925
 5054SOL    HW126624   0.682   1.885   3.742 -0.8943  1.9545 -0.3571
 5054SOL    HW226625   0.634   1.785   3.837  1.1261 -0.8038 -1.1933
 5055SOL     OW26626   3.307   2.103   6.616  1.0324 -0.6148 -0.7568
 5055SOL    HW126627   3.381   2.123   6.558  0.5632 -0.5954 -1.3445
 5055SOL    HW226628   3.239   2.159   6.579 -0.3911 -1.9703 -0.1813
 5056SOL     OW26629   4.130   0.887   3.036  0.5535 -0.3708 -0.0624
 5056SOL    HW126630   4.224   0.882   3.054  0.4763  1.3772  0.8357
 5056SOL    HW226631   4.092   0.879   3.123  2.1324  1.7121  0.8146
 5057SOL     OW26632   3.274   3.028   4.935  0.6636  0.3754  0.0596
 5057SOL    HW126633   3.299   2.961   4.872 -3.3653 -0.8724 -0.1578
 5057SOL    HW226634   3.360   3.045   4.975 -0.2364  1.8555  1.3717
 5058SOL     OW26635   3.523   1.580  11.705  0.0317 -0.6892  0.4505
 5058SOL    HW126636   3.618   1.571  11.714  0.1497 -0.0598 -0.1196
 5058SOL    HW226637   3.518   1.652  11.642  0.0957 -1.1132 -0.0429
 5059SOL     OW26638   1.750   2.011  16.001  1.3995 -0.4668  0.3813
 5059SOL    HW126639   1.843   2.001  15.983  1.6824  1.6271  0.6848
 5059SOL    HW226640   1.738   2.100  16.035  0.5947 -0.7735  0.8886
 5060SOL     OW26641   0.272   4.487   7.090 -0.1710  0.1610  0.0117
 5060SOL    HW126642   0.289   4.512   7.180 -2.7110 -2.4272  1.2146
 5060SOL    HW226643   0.180   4.460   7.096  0.0937 -1.0788 -1.4522
 5061SOL     OW26644   1.632   1.353  14.122 -0.6962  0.8062 -0.3395
 5061SOL    HW126645   1.581   1.280  14.157 -1.4634  1.3851 -0.2609
 5061SOL    HW226646   1.582   1.425  14.159 -1.1732  0.5507 -0.4782
 5062SOL     OW26647   3.556   3.444  17.652  0.1660  0.2983  0.2122
 5062SOL    HW126648   3.471   3.457  17.696 -0.0375  1.4210 -0.5106
 5062SOL    HW226649   3.609   3.461   0.033  0.6529  3.5675 -0.8301
 5063SOL     OW26650   4.299   2.566   5.218 -0.1744  0.4770  0.2249
 5063SOL    HW126651   4.371   2.623   5.194  2.7116 -3.1076  0.3967
 5063SOL    HW226652   4.233   2.599   5.157 -0.4524  0.7145  0.6485
 5064SOL     OW26653   0.092   1.897   0.806 -0.1216 -0.0292 -0.0176
 5064SOL    HW126654   0.062   1.829   0.746 -0.4469 -0.0662  0.1867
 5064SOL    HW226655   0.023   1.962   0.799 -0.2791 -0.1146  0.7347
 5065SOL     OW26656   0.046   3.240   3.633 -0.9984  0.3646 -0.2897
 5065SOL    HW126657   0.023   3.148   3.624  0.0559  0.0760 -0.0380
 5065SOL    HW226658   4.680   3.268   3.619 -1.3666  0.3151  2.0234
 5066SOL     OW26659   2.213   1.295   4.108 -0.0309  0.0524  0.0781
 5066SOL    HW126660   2.255   1.367   4.061 -0.3848 -1.5649 -2.7238
 5066SOL    HW226661   2.290   1.275   4.160 -0.7145 -1.2852  0.5717
 5067SOL     OW26662   1.719   1.653  14.217 -0.2641  0.2147 -0.4004
 5067SOL    HW126663   1.738   1.616  14.131  1.4266  0.0143  0.0477
 5067SOL    HW226664   1.739   1.579  14.275  1.7030  1.0277 -0.0450
 5068SOL     OW26665   2.962   1.071   0.024  0.3579 -0.1615 -0.5124
 5068SOL    HW126666   2.910   1.111   0.094 -0.3834  0.6773 -1.5496
 5068SOL    HW226667   2.954   0.978   0.045  0.7429 -0.2074 -0.5594
 5069SOL     OW26668   3.330   2.857   6.435  0.0020 -0.4196  0.5459
 5069SOL    HW126669   3.346   2.819   6.349 -1.4457 -0.7635  0.4279
 5069SOL    HW226670   3.235   2.846   6.433 -0.0132  0.3902 -2.2421
 5070SOL     OW26671   2.935   4.587   6.673  0.4063  0.6492 -0.1849
 5070SOL    HW126672   2.921   4.500   6.635  0.0128 -0.5198  2.6426
 5070SOL    HW226673   2.949   4.571   6.766  0.3342  0.6493 -0.1738
 5071SOL     OW26674   3.787   3.268   6.233 -0.1624  0.0863 -0.0202
 5071SOL    HW126675   3.833   3.334   6.180  0.3538  0.5249  0.9812
 5071SOL    HW226676   3.700   3.273   6.194  0.4027 -0.0667 -1.3155
 5072SOL     OW26677   2.429   2.907   3.654  0.2812  0.7106 -0.2688
 5072SOL    HW126678   2.518   2.935   3.630  1.6795 -1.3444  2.4632
 5072SOL    HW226679   2.374   2.985   3.650  2.7486  2.4577 -0.1560
 5073SOL     OW26680   4.702   0.621   5.862 -0.2155  0.3543 -0.3548
 5073SOL    HW126681   4.641   0.570   5.915  1.7784 -2.7470 -1.0192
 5073SOL    HW226682   4.688   0.566   5.785 -0.3869 -0.1354  0.0240
 5074SOL     OW26683   1.682   2.784  13.594 -0.5968  0.0961 -0.2026
 5074SOL    HW126684   1.688   2.779  13.689  1.5461 -0.2668 -0.3446
 5074SOL    HW226685   1.765   2.828  13.573 -0.9078  1.4374  1.4498
 5075SOL     OW26686   2.697   2.638   8.776  0.4497  0.4040  0.3926
 5075SOL    HW126687   2.747   2.587   8.712 -0.4387 -0.3615  0.3065
 5075SOL    HW226688   2.612   2.595   8.765 -0.0257  1.2340  0.8496
 5076SOL     OW26689   2.229   1.238  14.569  0.3486  0.7596 -0.6077
 5076SOL    HW126690   2.224   1.257  14.476  2.5415  0.1959 -0.8488
 5076SOL    HW226691   2.299   1.296  14.600  1.2608 -0.6952  0.0705
 5077SOL     OW26692   0.381   0.509   1.430 -0.1445 -0.1200  0.1988
 5077SOL    HW126693   0.456   0.511   1.371  0.7424 -1.0645  1.2707
 5077SOL    HW226694   0.368   0.414   1.425 -0.2000 -0.0691 -0.5410
 5078SOL     OW26695   3.994   0.423   5.461 -0.1973  0.0037 -0.1003
 5078SOL    HW126696   4.045   0.345   5.437  0.0638  0.1092  0.1131
 5078SOL    HW226697   3.987   0.416   5.556  1.3392 -0.5557 -0.0151
 5079SOL     OW26698   0.583   2.091   7.168  0.2135 -0.2659  0.2815
 5079SOL    HW126699   0.562   2.079   7.075  0.3343 -0.2635  0.2535
 5079SOL    HW226700   0.638   2.169   7.160 -1.1367  0.6853  0.3101
 5080SOL     OW26701   3.540   2.299   8.154  0.1342 -0.6800  0.3345
 5080SOL    HW126702   3.585   2.343   8.082 -1.0965 -0.8528 -0.5359
 5080SOL    HW226703   3.522   2.374   8.210  0.1161 -0.7918  0.4784
 5081SOL     OW26704   2.297   4.169  16.767 -0.4074  0.2508 -0.5240
 5081SOL    HW126705   2.356   4.141  16.837 -0.9333  0.0969 -0.1486
 5081SOL    HW226706   2.310   4.098  16.704 -0.5486 -0.0905 -0.1653
 5082SOL     OW26707   2.772   4.189   5.022 -0.4378  0.6544  0.1341
 5082SOL    HW126708   2.704   4.126   5.043  0.2494  0.1595  0.8428
 5082SOL    HW226709   2.823   4.127   4.971 -0.4052  1.2776 -0.6016
 5083SOL     OW26710   2.643   1.291   4.627 -0.0113  0.0363  0.4589
 5083SOL    HW126711   2.654   1.210   4.577 -2.9208 -2.2004  3.4298
 5083SOL    HW226712   2.732   1.326   4.626 -0.4236  1.0386 -1.7035
 5084SOL     OW26713   3.985   4.709   6.353 -0.5946  0.0119 -0.2010
 5084SOL    HW126714   3.913   4.654   6.383  0.6935 -1.9373 -0.6981
 5084SOL    HW226715   4.016   0.014   6.439  0.4216 -1.5060 -0.0489
 5085SOL     OW26716   0.054   2.693  16.900 -0.3278  0.2867 -0.1891
 5085SOL    HW126717   4.694   2.738  16.889  0.3275  1.0715 -1.8346
 5085SOL    HW226718   0.117   2.744  16.849  0.6329  0.9740  1.6705
 5086SOL     OW26719   3.099   0.961   8.889 -0.0026  0.0884 -0.4284
 5086SOL    HW126720   3.044   0.909   8.948  0.9031  1.6998  1.8120
 5086SOL    HW226721   3.163   0.996   8.951 -1.3800  0.0870  1.0021
 5087SOL     OW26722   4.019   0.065   8.024  0.4372  0.0728 -0.1400
 5087SOL    HW126723   4.004   4.703   8.064  1.3984 -0.1080 -0.1833
 5087SOL    HW226724   3.933   0.094   7.994 -0.2224 -0.1705  1.4960
 5088SOL     OW26725   3.982   0.241   7.059  0.0742 -0.8451 -0.1472
 5088SOL    HW126726   4.042   0.177   7.020  0.1381  0.4516 -2.1968
 5088SOL    HW226727   3.927   0.178   7.105 -0.0339 -0.9537 -0.4267
 5089SOL     OW26728   2.655   1.153   6.408  0.1387  0.1505 -0.4320
 5089SOL    HW126729   2.665   1.210   6.331 -1.9555  1.8650  0.5767
 5089SOL    HW226730   2.741   1.169   6.448 -1.7427  2.0997  2.8201
 5090SOL     OW26731   3.600   1.032   6.172  0.0087 -0.1976 -0.1067
 5090SOL    HW126732   3.583   1.111   6.223  0.9189 -1.5894  2.3646
 5090SOL    HW226733   3.552   1.052   6.092 -1.5254  0.3243  0.9347
 5091SOL     OW26734   1.459   3.071   8.905  0.1471  0.0943  0.5450
 5091SOL    HW126735   1.521   3.105   8.969  1.8129  1.7462 -1.9233
 5091SOL    HW226736   1.392   3.028   8.959  1.4655 -1.5262  0.8869
 5092SOL     OW26737   2.483   3.158   0.768 -0.1916 -0.1036 -1.0686
 5092SOL    HW126738   2.566   3.127   0.730 -0.1737 -0.2782 -0.8816
 5092SOL    HW226739   2.453   3.206   0.691 -0.0847 -0.8140 -1.5566
 5093SOL     OW26740   4.559   0.248  10.586 -0.3727  0.6784  0.4038
 5093SOL    HW126741   4.538   0.340  10.604  1.0227  0.7136  1.8298
 5093SOL    HW226742   4.651   0.261  10.566  0.0193 -0.6966  1.3085
 5094SOL     OW26743   0.238   2.610   5.701 -0.3074  0.7325 -0.0167
 5094SOL    HW126744   0.249   2.525   5.657 -0.7868  0.8248 -0.3154
 5094SOL    HW226745   0.331   2.631   5.707 -0.4051  2.1848 -3.2553
 5095SOL     OW26746   1.063   4.232   3.931 -0.0996  0.0344  0.1916
 5095SOL    HW126747   1.150   4.256   3.899  0.6190 -1.3211  1.1313
 5095SOL    HW226748   1.007   4.245   3.854  0.6405  0.9007 -0.2135
 5096SOL     OW26749   0.623   3.874   5.394 -0.2570 -0.0051 -0.1330
 5096SOL    HW126750   0.615   3.961   5.433 -1.3293 -0.4754  0.7026
 5096SOL    HW226751   0.680   3.825   5.454  0.9564  0.6478 -0.7457
 5097SOL     OW26752   2.539   0.819  15.037  0.3397 -0.1510 -0.2729
 5097SOL    HW126753   2.534   0.824  15.133  0.2867  0.9655 -0.3352
 5097SOL    HW226754   2.455   0.857  15.014  1.8251  2.3069 -1.6130
 5098SOL     OW26755   0.046   1.954   3.966 -0.0637  0.2796  0.0062
 5098SOL    HW126756   0.065   1.933   4.058  0.1403 -0.4092 -0.1965
 5098SOL    HW226757   4.701   1.888   3.964 -2.1288  2.4097  0.6633
 5099SOL     OW26758   1.633   0.092  14.919  0.1738  0.3867 -0.5128
 5099SOL    HW126759   1.538   0.094  14.926  0.2725  2.4764  0.1017
 5099SOL    HW226760   1.658   0.184  14.929  1.0871  0.0729  0.1434
 5100SOL     OW26761   2.567   3.089  13.049  0.8508  0.2991  0.8482
 5100SOL    HW126762   2.662   3.096  13.062  1.1491  0.2277 -1.2998
 5100SOL    HW226763   2.537   3.180  13.047  1.9955  0.6986  1.5713
 5101SOL     OW26764   0.779   0.297   6.640 -0.0505 -0.0464  0.5211
 5101SOL    HW126765   0.684   0.293   6.633 -0.0626 -0.7019  1.1290
 5101SOL    HW226766   0.788   0.256   6.726 -1.3228 -2.5757 -0.5552
 5102SOL     OW26767   4.439   0.117  16.858 -0.1159  0.3624  0.0820
 5102SOL    HW126768   4.503   0.172  16.902  1.2376 -0.3108 -1.0458
 5102SOL    HW226769   4.495   0.050  16.820  0.7452  0.6991  0.7652
 5103SOL     OW26770   4.408   1.441   2.867 -0.0481  0.0351 -0.2687
 5103SOL    HW126771   4.348   1.451   2.793 -0.5474 -0.1582  0.1037
 5103SOL    HW226772   4.405   1.345   2.873  0.8761  0.1026  1.2720
 5104SOL     OW26773   2.454   2.688   3.833 -0.4139  0.3179  0.0728
 5104SOL    HW126774   2.408   2.692   3.917  1.9684  1.0531  1.3213
 5104SOL    HW226775   2.425   2.762   3.779 -0.2184  0.7377  0.5439
 5105SOL     OW26776   1.344   0.180   7.923 -0.0669  0.6795 -0.4578
 5105SOL    HW126777   1.325   0.105   7.867 -0.6003  0.0911  0.5061
 5105SOL    HW226778   1.420   0.221   7.882  0.6606  0.4799  0.6965
 5106SOL     OW26779   0.521   3.368   8.618 -0.5737  0.1798 -0.1665
 5106SOL    HW126780   0.599   3.414   8.649 -0.5363 -0.7659  1.1517
 5106SOL    HW226781   0.466   3.399   8.691 -1.1089  1.8377 -1.2631
 5107SOL     OW26782   0.432   4.228   8.019  0.0081 -0.4525  0.3423
 5107SOL    HW126783   0.467   4.299   8.073  1.5078 -1.0671  0.1840
 5107SOL    HW226784   0.441   4.267   7.932  0.4024 -3.1804 -0.8434
 5108SOL     OW26785   0.799   3.961  16.876 -0.9414  0.2880  0.2978
 5108SOL    HW126786   0.871   3.976  16.815 -2.3066 -1.8881 -1.8781
 5108SOL    HW226787   0.787   4.045  16.920  1.7518  0.8625 -0.0898
 5109SOL     OW26788   0.117   1.324   4.544  0.4887 -0.4402 -0.2529
 5109SOL    HW126789   0.174   1.261   4.500  1.1789  1.7451 -2.4444
 5109SOL    HW226790   0.062   1.257   4.585 -1.6699  0.4749 -1.6316
 5110SOL     OW26791   3.089   4.652   6.440 -0.2370  0.1560 -0.4069
 5110SOL    HW126792   3.009   4.633   6.490  0.7874 -1.1537  0.7112
 5110SOL    HW226793   3.095   0.022   6.422 -0.3851  0.7414  2.6796
 5111SOL     OW26794   0.782   4.489   7.363 -0.2814 -0.2730 -0.2383
 5111SOL    HW126795   0.713   4.460   7.303 -0.3394 -0.6198 -0.0041
 5111SOL    HW226796   0.793   4.413   7.421  0.3402 -0.0120 -0.0092
 5112SOL     OW26797   0.259   3.210   4.379 -0.0023 -0.3757 -0.3515
 5112SOL    HW126798   0.304   3.175   4.302 -0.1087  1.6920 -1.3351
 5112SOL    HW226799   0.325   3.234   4.444 -1.9862  0.4228  1.3489
 5113SOL     OW26800   3.774   0.073   7.590 -0.4224 -0.3018 -0.5591
 5113SOL    HW126801   3.731   0.082   7.675 -2.6563 -2.2365 -1.4856
 5113SOL    HW226802   3.852   0.020   7.600  0.7114  0.8191 -3.6434
 5114SOL     OW26803   2.343   4.292  12.962 -0.0400 -0.7093  0.2545
 5114SOL    HW126804   2.300   4.322  12.882  0.7886 -1.8932 -0.6283
 5114SOL    HW226805   2.424   4.263  12.921 -0.7191  0.7030 -2.1056
 5115SOL     OW26806   1.123   3.468   1.447 -0.1506  0.0281 -0.4874
 5115SOL    HW126807   1.183   3.488   1.376 -1.2458 -0.7407 -1.6099
 5115SOL    HW226808   1.043   3.506   1.411 -1.1501 -0.3371  1.2992
 5116SOL     OW26809   0.845   4.510   0.741  1.2730  0.2026 -0.0515
 5116SOL    HW126810   0.774   4.474   0.688  1.3459 -0.0915  0.0547
 5116SOL    HW226811   0.877   4.582   0.687  1.3677  2.4557  2.9673
 5117SOL     OW26812   4.002   3.288   0.259 -0.4442  0.9146 -0.8201
 5117SOL    HW126813   4.025   3.330   0.342 -0.1555 -2.8213  1.0177
 5117SOL    HW226814   4.045   3.202   0.263  0.0698  1.2298  0.3381
 5118SOL     OW26815   0.523   0.139   6.345 -0.4780 -0.3434  0.2993
 5118SOL    HW126816   0.568   0.066   6.303  2.1955  0.8010  1.1645
 5118SOL    HW226817   0.515   0.187   6.263 -1.8117  1.1095  1.2867
 5119SOL     OW26818   2.184   0.230   3.363 -0.0294 -0.3936 -0.2381
 5119SOL    HW126819   2.113   0.184   3.319 -0.8074 -0.9750  1.6203
 5119SOL    HW226820   2.267   0.193   3.333  0.0964 -0.1839 -0.1513
 5120SOL     OW26821   4.668   1.715  10.547  0.1796 -0.8760  0.3505
 5120SOL    HW126822   4.686   1.664  10.469 -3.5269  2.0466 -2.4077
 5120SOL    HW226823   4.719   1.795  10.528  1.1859 -1.1732  1.7450
 5121SOL     OW26824   1.390   4.638   2.374  0.6957 -0.2339 -0.4079
 5121SOL    HW126825   1.316   4.578   2.379  0.4371  0.4243  3.5001
 5121SOL    HW226826   1.359   4.706   2.434  0.0166  0.2201 -1.2646
 5122SOL     OW26827   3.619   3.456   2.802  0.4408 -0.4482 -0.4830
 5122SOL    HW126828   3.651   3.392   2.739  1.4503 -1.1594  0.7450
 5122SOL    HW226829   3.660   3.419   2.880  1.1214 -0.9235 -1.0582
 5123SOL     OW26830   3.968   3.960   6.147 -0.4711  0.1876 -0.2507
 5123SOL    HW126831   3.993   4.041   6.191 -1.0900 -0.6931  1.6969
 5123SOL    HW226832   3.875   3.951   6.168 -0.2706 -0.0247  0.5485
 5124SOL     OW26833   2.832   2.333   3.793 -0.1880 -0.7985 -0.0590
 5124SOL    HW126834   2.771   2.265   3.764  0.9558 -1.8678  0.0191
 5124SOL    HW226835   2.775   2.409   3.783 -1.6864 -1.9559 -0.2711
 5125SOL     OW26836   0.436   1.183   4.658  0.2243  0.1172 -0.0860
 5125SOL    HW126837   0.380   1.204   4.732 -1.0149 -0.1706 -0.9370
 5125SOL    HW226838   0.525   1.209   4.681 -0.6245  1.2134  1.9879
 5126SOL     OW26839   0.993   3.496  15.324  0.0457 -0.4917 -0.5540
 5126SOL    HW126840   1.024   3.444  15.398  1.0655  0.3610 -0.3879
 5126SOL    HW226841   0.957   3.572  15.370  0.0511 -0.0589 -1.2685
 5127SOL     OW26842   3.263   0.679  14.206  0.0104 -0.0548  0.1928
 5127SOL    HW126843   3.347   0.720  14.224  0.1086 -0.2324  0.1328
 5127SOL    HW226844   3.287   0.587  14.204  0.5638  0.0915  0.3476
 5128SOL     OW26845   1.080   1.605  15.379 -0.2384 -0.3209 -0.4449
 5128SOL    HW126846   1.119   1.535  15.325 -1.3328 -1.3379  0.0853
 5128SOL    HW226847   1.098   1.685  15.330  0.4649 -0.4094 -0.3387
 5129SOL     OW26848   1.275   3.835   3.426 -0.3430 -0.4731  0.1516
 5129SOL    HW126849   1.290   3.869   3.514  2.5390 -0.2548 -0.4303
 5129SOL    HW226850   1.358   3.793   3.405  0.3744  0.7376  0.5447
 5130SOL     OW26851   1.145   0.179   7.669  0.1912  1.0281 -0.2253
 5130SOL    HW126852   1.167   0.249   7.607 -0.2376  1.6777  0.3555
 5130SOL    HW226853   1.134   0.110   7.604 -2.6072  0.9437  0.3592
 5131SOL     OW26854   3.455   4.246   0.607  0.0539 -0.7216 -0.4943
 5131SOL    HW126855   3.521   4.240   0.538  0.8348 -0.8309  0.2637
 5131SOL    HW226856   3.407   4.326   0.587  2.1602  0.9209  1.0316
 5132SOL     OW26857   3.782   2.672  15.641 -0.3856  0.2607 -0.1344
 5132SOL    HW126858   3.799   2.587  15.680  1.1679  0.9911  0.7808
 5132SOL    HW226859   3.859   2.724  15.663 -0.8208  0.9245 -0.1592
 5133SOL     OW26860   0.490   3.105   0.416 -0.1192  0.2091  0.2133
 5133SOL    HW126861   0.574   3.061   0.412 -0.0051  0.4868 -0.4008
 5133SOL    HW226862   0.499   3.162   0.493  0.2529  1.8892 -1.0763
 5134SOL     OW26863   1.962   2.783   9.146  0.7497  0.3596 -0.1666
 5134SOL    HW126864   1.965   2.859   9.204 -1.9193 -0.6249  1.2651
 5134SOL    HW226865   1.929   2.822   9.065  0.5265  1.7680  0.6098
 5135SOL     OW26866   4.628   2.392   8.313 -0.0434  1.2434 -0.0748
 5135SOL    HW126867   4.563   2.431   8.372  0.8011 -1.2538  2.5186
 5135SOL    HW226868   4.665   2.475   8.282  0.4303  0.7996 -0.6902
 5136SOL     OW26869   2.180   2.740   9.764 -0.2745 -0.0077 -1.1338
 5136SOL    HW126870   2.111   2.805   9.757 -0.0898  0.3678  0.5358
 5136SOL    HW226871   2.223   2.753   9.849 -0.2637 -0.8599 -1.0044
 5137SOL     OW26872   2.404   2.693   2.326  0.2032 -0.4394  0.5999
 5137SOL    HW126873   2.399   2.718   2.233 -0.6116  0.5346  0.9010
 5137SOL    HW226874   2.380   2.601   2.317  1.8386 -0.8570  0.6033
 5138SOL     OW26875   1.974   3.828   8.826 -0.2431  0.1234  0.0084
 5138SOL    HW126876   2.025   3.787   8.896  1.5983 -0.8762 -1.9536
 5138SOL    HW226877   2.017   3.910   8.802  2.6264 -1.5506 -0.5618
 5139SOL     OW26878   4.409   3.884   4.444 -0.6094  0.1255  0.0877
 5139SOL    HW126879   4.461   3.944   4.390  1.1902 -1.2002  0.3582
 5139SOL    HW226880   4.383   3.834   4.366  1.6748 -1.4521  0.3515
 5140SOL     OW26881   2.016   3.229   7.138  0.6442 -0.4302 -0.3524
 5140SOL    HW126882   2.008   3.315   7.180 -2.0182  0.0972 -1.9264
 5140SOL    HW226883   2.109   3.221   7.160  0.1609 -1.4270  1.3890
 5141SOL     OW26884   3.494   3.999   9.352  0.1279  0.1015 -0.9654
 5141SOL    HW126885   3.473   4.081   9.396  1.7138 -0.0963  0.1790
 5141SOL    HW226886   3.415   3.947   9.367  0.2582 -0.1354 -1.0976
 5142SOL     OW26887   2.181   3.517   5.465  0.5482  0.2000  0.5827
 5142SOL    HW126888   2.210   3.482   5.550 -0.9105 -1.0952  0.5437
 5142SOL    HW226889   2.087   3.502   5.466  0.7007 -0.8958 -1.7455
 5143SOL     OW26890   4.596   2.711   3.508  0.3516 -0.3296  0.4865
 5143SOL    HW126891   4.524   2.721   3.569 -0.3392 -1.3498 -0.1702
 5143SOL    HW226892   4.575   2.639   3.449  0.1589  0.7739 -0.7984
 5144SOL     OW26893   2.434   1.791   5.928  0.5746 -0.0409  0.0385
 5144SOL    HW126894   2.402   1.727   5.992  0.5797 -0.0914 -0.0091
 5144SOL    HW226895   2.377   1.771   5.854  0.1024  0.6142  0.2254
 5145SOL     OW26896   1.420   4.143  10.304  0.2809  0.1711 -0.1067
 5145SOL    HW126897   1.486   4.081  10.272  1.8772  0.9497  1.6575
 5145SOL    HW226898   1.389   4.172  10.218  0.2483 -3.0990 -1.1791
 5146SOL     OW26899   3.391   2.941   3.258  0.1824  0.2706  0.0881
 5146SOL    HW126900   3.367   2.883   3.186 -1.1508 -0.7132  1.3108
 5146SOL    HW226901   3.309   2.941   3.307  0.5194  0.7019  0.6510
 5147SOL     OW26902   1.513   0.756   3.835  0.4457 -0.2054 -0.8191
 5147SOL    HW126903   1.475   0.841   3.813  1.5875  0.2666 -0.9628
 5147SOL    HW226904   1.498   0.750   3.930 -0.2308 -0.6638 -0.9525
 5148SOL     OW26905   0.392   2.864   6.787 -0.7916  0.3990  0.1153
 5148SOL    HW126906   0.373   2.770   6.786  1.3280 -0.0543  2.1905
 5148SOL    HW226907   0.345   2.884   6.706  0.5188  0.6814 -0.5846
 5149SOL     OW26908   2.775   3.260   4.688  0.1238 -0.2238 -0.7519
 5149SOL    HW126909   2.814   3.202   4.624  1.7221 -1.1189  1.0402
 5149SOL    HW226910   2.786   3.209   4.769 -2.5026  1.0689  0.4459
 5150SOL     OW26911   1.939   0.385   3.389  0.4921  0.1943 -0.1889
 5150SOL    HW126912   1.917   0.386   3.482 -3.5016 -1.0627 -1.0938
 5150SOL    HW226913   2.024   0.343   3.400  0.7282  1.1276  1.4212
 5151SOL     OW26914   0.380   0.567   3.247 -0.2649 -0.4442  0.4059
 5151SOL    HW126915   0.472   0.543   3.251 -0.4111 -1.2526 -1.2298
 5151SOL    HW226916   0.385   0.606   3.160  1.7421  1.4479  1.3742
 5152SOL     OW26917   3.369   3.420   6.979 -0.7567 -0.5873 -0.3435
 5152SOL    HW126918   3.292   3.372   7.011 -0.5978 -0.3355  0.4194
 5152SOL    HW226919   3.432   3.374   7.033  1.0170  1.2147 -0.8969
 5153SOL     OW26920   0.024   3.781   1.364  0.2523  0.1595 -0.4272
 5153SOL    HW126921   4.677   3.837   1.333 -0.2331  0.0367  0.4659
 5153SOL    HW226922   0.028   3.785   1.459 -0.9742 -0.9432 -0.3307
 5154SOL     OW26923   1.883   0.427   3.680  0.3719 -0.5787  0.4674
 5154SOL    HW126924   1.895   0.340   3.717 -0.0488 -0.4256  0.9539
 5154SOL    HW226925   1.866   0.477   3.759  2.0047 -1.4295  1.3542
 5155SOL     OW26926   0.066   4.410  10.646 -0.4937 -0.3338 -0.3822
 5155SOL    HW126927   0.057   4.431  10.739 -2.4296 -0.3205 -0.5846
 5155SOL    HW226928   0.116   4.484  10.611 -0.5856 -0.6389 -1.1600
 5156SOL     OW26929   1.223   3.155   7.755  0.3686 -0.1375  0.5154
 5156SOL    HW126930   1.272   3.149   7.838 -0.1869 -0.3503  0.8250
 5156SOL    HW226931   1.209   3.249   7.745  1.4737 -0.2379 -1.9136
 5157SOL     OW26932   3.142   1.131  10.659  0.0326 -0.4252 -0.0701
 5157SOL    HW126933   3.074   1.087  10.711 -1.5659  3.2208  0.9332
 5157SOL    HW226934   3.151   1.067  10.588 -2.8761 -1.0560  0.1430
 5158SOL     OW26935   0.499   1.328  16.915 -0.0649 -0.8265 -0.2122
 5158SOL    HW126936   0.477   1.419  16.894 -0.9030 -0.7624  0.9103
 5158SOL    HW226937   0.495   1.320  17.011  1.3309 -1.6658 -0.2216
 5159SOL     OW26938   0.228   0.357   5.316 -0.6403  0.1115 -0.2510
 5159SOL    HW126939   0.241   0.411   5.394  0.4657  0.1827 -0.4821
 5159SOL    HW226940   0.156   0.295   5.318  1.5278 -2.2931  2.9548
 5160SOL     OW26941   0.166   4.291   3.229  0.2739 -0.1085  0.1315
 5160SOL    HW126942   0.243   4.330   3.272 -0.2315  1.3864 -0.3624
 5160SOL    HW226943   0.180   4.201   3.259  0.3173 -0.1336  0.0360
 5161SOL     OW26944   0.985   0.907   8.208 -0.1386  0.3476  0.7171
 5161SOL    HW126945   0.991   0.979   8.145  5.1836  1.4290  2.4577
 5161SOL    HW226946   0.985   0.954   8.291 -0.0966  3.1290 -0.8502
 5162SOL     OW26947   3.352   1.475  11.062  0.2563  0.1394 -0.3350
 5162SOL    HW126948   3.425   1.435  11.110 -1.5061 -1.7810  0.7497
 5162SOL    HW226949   3.323   1.406  11.002 -1.4107 -0.8197  1.5868
 5163SOL     OW26950   1.680   3.572   5.064 -0.7988 -0.0032 -0.2420
 5163SOL    HW126951   1.691   3.529   4.979  0.0088 -1.9406  0.8581
 5163SOL    HW226952   1.584   3.579   5.069 -0.6526  1.0046  1.1909
 5164SOL     OW26953   3.802   3.962   4.283  0.2539 -0.0296 -0.5744
 5164SOL    HW126954   3.712   3.961   4.315  0.4522 -0.7552 -0.0192
 5164SOL    HW226955   3.835   4.014   4.356 -0.6928 -1.8474  1.1453
 5165SOL     OW26956   1.164   4.669  11.862  0.5505 -0.4252 -0.2474
 5165SOL    HW126957   1.248   4.713  11.859 -0.0887  0.9295  1.4022
 5165SOL    HW226958   1.111   4.714  11.796  0.7838 -0.5216 -0.4972
 5166SOL     OW26959   0.903   1.817   4.310  0.1703  0.1566  0.4414
 5166SOL    HW126960   0.825   1.796   4.258  0.6786  1.8449 -0.9864
 5166SOL    HW226961   0.900   1.911   4.293  0.0073  0.2012  0.7216
 5167SOL     OW26962   2.882   1.206   9.627 -0.1468  0.0885  0.2605
 5167SOL    HW126963   2.858   1.297   9.642 -1.4293 -0.1981 -0.0574
 5167SOL    HW226964   2.833   1.164   9.698 -0.4001  0.9652  0.6022
 5168SOL     OW26965   0.984   0.134  11.784 -0.1305  0.0418  0.4012
 5168SOL    HW126966   0.966   0.150  11.876 -1.9293 -1.9320  0.4115
 5168SOL    HW226967   0.902   0.163  11.744 -0.9358 -1.8237  0.6557
 5169SOL     OW26968   2.331   3.243  13.601 -0.8564 -0.4923  0.0040
 5169SOL    HW126969   2.406   3.223  13.545  0.6933  1.9835  1.1368
 5169SOL    HW226970   2.377   3.270  13.681 -1.0823  2.1381 -0.7259
 5170SOL     OW26971   3.647   2.291  15.198 -0.4697 -0.5261  0.0432
 5170SOL    HW126972   3.649   2.360  15.131 -1.8336 -0.8952 -0.3729
 5170SOL    HW226973   3.649   2.210  15.147 -0.9093 -1.1153  0.9616
 5171SOL     OW26974   0.794   1.115   5.545 -0.1411  0.1788 -0.0611
 5171SOL    HW126975   0.792   1.058   5.468 -2.1541  0.6909 -0.3774
 5171SOL    HW226976   0.711   1.162   5.538 -0.2274  0.1626  0.8776
 5172SOL     OW26977   3.621   0.495   5.537  0.1521 -0.3539  0.0143
 5172SOL    HW126978   3.545   0.553   5.537 -1.0496 -1.9148  0.3971
 5172SOL    HW226979   3.639   0.533   5.623 -0.2518 -3.2600  1.4064
 5173SOL     OW26980   0.209   1.125  17.381  0.1813 -0.1645 -0.1401
 5173SOL    HW126981   0.280   1.162  17.434 -0.8504 -0.3673  1.3716
 5173SOL    HW226982   0.244   1.050  17.334 -1.0386 -1.6079  1.2796
 5174SOL     OW26983   4.678   0.490   8.410 -0.4987 -0.1532  0.3347
 5174SOL    HW126984   4.609   0.424   8.413  0.2414 -0.9646 -0.5142
 5174SOL    HW226985   4.634   0.543   8.343  0.4670 -0.5241 -0.5936
 5175SOL     OW26986   3.004   1.734   2.597 -0.5865 -0.5599 -0.8719
 5175SOL    HW126987   3.095   1.704   2.598  0.0121  1.3332  1.1533
 5175SOL    HW226988   2.999   1.766   2.507 -1.1676  1.7432 -0.0083
 5176SOL     OW26989   0.319   4.285   1.200 -0.0848 -0.6714  0.1662
 5176SOL    HW126990   0.404   4.244   1.186 -1.0408 -2.7253  0.4449
 5176SOL    HW226991   0.261   4.209   1.191  0.9444 -1.6875  2.1570
 5177SOL     OW26992   2.157   4.381   9.166 -0.4043  0.2226 -0.8848
 5177SOL    HW126993   2.158   4.302   9.221 -1.2231  0.8454  0.0308
 5177SOL    HW226994   2.070   4.382   9.128 -1.0016  0.2139  0.4650
 5178SOL     OW26995   4.077   0.925   2.634 -0.5457 -0.0551 -0.4647
 5178SOL    HW126996   4.051   0.979   2.709 -1.0274  2.7794 -2.6770
 5178SOL    HW226997   3.985   0.906   2.615 -0.5117  0.3409 -1.0120
 5179SOL     OW26998   0.595   0.090  12.014  0.8050 -0.8117  0.4985
 5179SOL    HW126999   0.679   0.133  11.997  0.0057  0.6045  0.1013
 5179SOL    HW227000   0.574   0.067  11.924  3.5420 -1.6237  0.0645
 5180SOL     OW27001   0.989   4.299   2.214  0.2264 -0.3837  0.6032
 5180SOL    HW127002   0.964   4.389   2.192 -0.2589 -0.3336  1.3731
 5180SOL    HW227003   1.021   4.274   2.128 -3.2376 -1.9132 -0.2234
 5181SOL     OW27004   1.544   4.678   4.598  0.3381 -0.0455 -0.3815
 5181SOL    HW127005   1.574   0.028   4.651 -1.1663 -1.4698  2.4716
 5181SOL    HW227006   1.583   4.603   4.643  0.9714  0.0503 -0.7715
 5182SOL     OW27007   0.481   3.494  12.359  0.8196  0.0080 -0.2182
 5182SOL    HW127008   0.427   3.420  12.387 -1.4460  1.2593 -1.2411
 5182SOL    HW227009   0.526   3.449  12.288  1.8238  1.3246 -0.4277
 5183SOL     OW27010   0.554   1.677  16.905  0.0692 -0.3375  0.3989
 5183SOL    HW127011   0.575   1.707  16.816  0.9124  0.6576  0.9288
 5183SOL    HW227012   0.469   1.715  16.926 -0.5081 -1.2725 -0.2468
 5184SOL     OW27013   4.366   4.057  14.473 -0.0396  0.1775  0.2345
 5184SOL    HW127014   4.309   4.057  14.396  1.0686  4.3069 -0.5566
 5184SOL    HW227015   4.435   4.116  14.443 -1.4294  0.5845 -2.1291
 5185SOL     OW27016   0.734   3.325  13.103  0.7419 -0.1011 -0.3133
 5185SOL    HW127017   0.688   3.392  13.053 -2.2388 -3.6653 -2.3245
 5185SOL    HW227018   0.789   3.377  13.162 -0.5225  0.0464  0.7577
 5186SOL     OW27019   4.679   2.093   6.090  0.1561 -0.0896  0.3385
 5186SOL    HW127020   0.018   2.121   6.156 -1.1224  0.2765  1.4079
 5186SOL    HW227021   4.715   2.124   6.007  0.9398 -3.0118 -0.4354
 5187SOL     OW27022   4.092   2.330   1.543  0.0177  0.1933 -0.0407
 5187SOL    HW127023   4.025   2.330   1.474 -0.5062  1.3814  0.4697
 5187SOL    HW227024   4.111   2.237   1.547 -1.1692 -0.1161 -1.5064
 5188SOL     OW27025   0.363   3.067   9.153  0.3045 -0.3378 -0.1282
 5188SOL    HW127026   0.459   3.071   9.152  0.3897 -2.4390 -0.7725
 5188SOL    HW227027   0.360   2.972   9.160  0.2021 -0.4432 -1.6661
 5189SOL     OW27028   0.193   0.560   8.243 -0.2173 -0.2417 -0.3567
 5189SOL    HW127029   0.214   0.495   8.176  3.9835  0.7338 -0.0207
 5189SOL    HW227030   0.134   0.514   8.303 -0.9207  0.7559 -0.2918
 5190SOL     OW27031   0.077   2.519   0.793  0.0512 -0.1308 -0.2047
 5190SOL    HW127032   0.135   2.594   0.809 -0.2865 -0.2074  1.3580
 5190SOL    HW227033   0.073   2.472   0.877 -0.1695  0.6788  0.2356
 5191SOL     OW27034   4.078   3.823   4.491  0.1158 -0.1355 -0.1460
 5191SOL    HW127035   4.026   3.897   4.523 -0.5201 -0.3485 -0.6756
 5191SOL    HW227036   4.100   3.857   4.404  1.9790  0.1991  0.4605
 5192SOL     OW27037   0.237   0.892  14.391 -0.3123 -0.3186 -0.1151
 5192SOL    HW127038   0.217   0.933  14.475  1.4777  0.3457 -0.0191
 5192SOL    HW227039   0.331   0.885  14.375 -0.3084 -1.2369  0.3472
 5193SOL     OW27040   2.870   0.814   2.523 -0.1176  0.5788 -0.5033
 5193SOL    HW127041   2.845   0.809   2.431  1.6991  3.1068 -1.1262
 5193SOL    HW227042   2.890   0.908   2.526  3.4760 -0.1652 -0.9619
 5194SOL     OW27043   4.145   1.008   3.585  0.2738  0.3856  0.4360
 5194SOL    HW127044   4.051   1.029   3.583 -0.1000 -0.8858  3.7721
 5194SOL    HW227045   4.155   1.032   3.677  1.1608 -1.1945  0.7512
 5195SOL     OW27046   0.749   3.345  11.624 -0.2466 -1.1452 -0.3479
 5195SOL    HW127047   0.795   3.427  11.611 -2.7926  0.2066 -0.9630
 5195SOL    HW227048   0.664   3.388  11.637  1.1552  1.6166 -0.4917
 5196SOL     OW27049   1.924   2.585   4.712  0.0161 -0.7151 -0.2340
 5196SOL    HW127050   1.929   2.626   4.799  0.3497  0.4329 -0.8043
 5196SOL    HW227051   2.017   2.586   4.690  0.1397 -1.2732  0.2568
 5197SOL     OW27052   1.154   4.522   3.442 -0.2029 -0.1273  0.0808
 5197SOL    HW127053   1.144   4.447   3.501  0.7484  1.0533  1.7588
 5197SOL    HW227054   1.192   4.590   3.497 -0.6063  0.5770 -0.5157
 5198SOL     OW27055   1.212   1.185   7.440  0.0310 -0.2590  0.3944
 5198SOL    HW127056   1.239   1.277   7.434 -1.3760 -0.0785 -3.3976
 5198SOL    HW227057   1.255   1.152   7.361 -0.2277 -1.4012  0.7237
 5199SOL     OW27058   4.370   2.821  16.320  0.0291  0.3649  0.3081
 5199SOL    HW127059   4.431   2.859  16.383 -1.2414 -0.0207  1.7630
 5199SOL    HW227060   4.307   2.798  16.389  1.0073 -0.2821  0.9822
 5200SOL     OW27061   2.318   0.986   7.142 -0.0487  0.0669 -0.1177
 5200SOL    HW127062   2.247   1.050   7.149 -1.5501 -1.7687  1.5176
 5200SOL    HW227063   2.392   1.040   7.168 -0.9964  2.0014 -1.3902
 5201SOL     OW27064   3.280   4.099  13.050  0.1063  0.2721  0.1647
 5201SOL    HW127065   3.368   4.064  13.054  0.4270  1.1212  0.5684
 5201SOL    HW227066   3.244   4.066  12.967 -0.5304  2.5176 -0.4713
 5202SOL     OW27067   0.626   4.677   6.196 -0.5673  0.2625 -0.0728
 5202SOL    HW127068   0.706   4.625   6.196  0.9681  2.6444  2.4132
 5202SOL    HW227069   0.579   4.650   6.117  0.4356 -0.9632 -0.2518
 5203SOL     OW27070   0.127   4.571   5.743  0.4448  0.3605 -0.4660
 5203SOL    HW127071   0.208   4.531   5.709 -1.2667 -1.8492 -1.9413
 5203SOL    HW227072   0.060   4.511   5.710  1.1779 -1.2076  0.8693
 5204SOL     OW27073   2.520   1.347   9.349 -0.2035 -0.1161 -0.0953
 5204SOL    HW127074   2.598   1.376   9.302  1.1617 -1.1125  1.5231
 5204SOL    HW227075   2.521   1.410   9.421  2.0624 -2.4028  1.8962
 5205SOL     OW27076   0.612   3.246   4.208 -0.2915  0.2874 -0.0512
 5205SOL    HW127077   0.705   3.230   4.191 -0.2834  3.8705 -3.1360
 5205SOL    HW227078   0.623   3.276   4.299 -0.4619  1.6191 -0.4772
 5206SOL     OW27079   4.462   1.029  16.191  0.4747 -0.0501 -0.6405
 5206SOL    HW127080   4.466   0.935  16.203  2.3726  0.0323 -0.5711
 5206SOL    HW227081   4.401   1.052  16.260 -0.2746 -2.6742 -0.4489
 5207SOL     OW27082   2.082   0.949   2.906 -0.2916  0.3351  0.2663
 5207SOL    HW127083   2.057   0.936   2.815  0.4385 -0.3437  0.1594
 5207SOL    HW227084   2.002   0.979   2.949 -0.8194 -0.6702 -0.0138
 5208SOL     OW27085   4.307   3.608   9.530 -0.1295  0.0963  0.4052
 5208SOL    HW127086   4.248   3.675   9.565  0.3724  0.8923 -0.2549
 5208SOL    HW227087   4.311   3.548   9.604  0.9369 -0.3384 -0.0108
 5209SOL     OW27088   3.463   1.299   3.706  0.5834 -0.0092 -0.7065
 5209SOL    HW127089   3.546   1.347   3.712  1.5892 -1.5775 -2.0514
 5209SOL    HW227090   3.474   1.229   3.770 -0.4214 -3.2223 -4.0544
 5210SOL     OW27091   1.088   1.119   6.657 -0.6267 -0.4324  0.2567
 5210SOL    HW127092   1.040   1.121   6.574  0.6752  1.8601 -0.4369
 5210SOL    HW227093   1.052   1.193   6.706  1.5730  0.2474  0.8584
 5211SOL     OW27094   1.022   4.299   7.192 -0.4190 -0.6789  0.4062
 5211SOL    HW127095   0.951   4.236   7.205  1.7263 -2.7278  2.3082
 5211SOL    HW227096   1.077   4.248   7.132  0.6332  1.3830 -0.3948
 5212SOL     OW27097   3.375   2.248   5.197  0.2260 -0.5268  0.3309
 5212SOL    HW127098   3.439   2.308   5.158 -0.9864 -0.2573 -1.2339
 5212SOL    HW227099   3.395   2.171   5.144  0.1972  0.0439 -0.4981
 5213SOL     OW27100   0.746   3.191   3.892 -0.1463  0.1011 -0.3149
 5213SOL    HW127101   0.750   3.237   3.976 -1.1727 -0.2599 -0.0719
 5213SOL    HW227102   0.659   3.216   3.860  0.6106  1.4352 -1.3499
 5214SOL     OW27103   4.118   3.677  10.214 -0.2060  0.3366  0.5930
 5214SOL    HW127104   4.186   3.731  10.173 -0.8554 -0.8899 -2.1140
 5214SOL    HW227105   4.046   3.738  10.227 -0.4797  0.5475 -1.9700
 5215SOL     OW27106   4.599   1.413   6.923 -0.1576 -0.1575 -0.1152
 5215SOL    HW127107   4.688   1.435   6.953  0.0317  1.8761 -2.1527
 5215SOL    HW227108   4.584   1.484   6.861 -0.7590 -0.9504 -0.8642
 5216SOL     OW27109   2.855   3.594   2.408 -0.3572  0.4970  0.1652
 5216SOL    HW127110   2.820   3.509   2.385 -2.6509  1.4832 -0.0292
 5216SOL    HW227111   2.783   3.657   2.396 -2.0346 -1.2170  1.2476
 5217SOL     OW27112   2.966   4.578   8.776 -0.2908  0.1172 -0.1771
 5217SOL    HW127113   3.047   4.529   8.790  0.1997  1.1375  0.5751
 5217SOL    HW227114   2.996   4.661   8.738 -1.4229  0.4202 -0.3942
 5218SOL     OW27115   2.553   2.083   2.898 -0.2935 -0.3227 -0.1286
 5218SOL    HW127116   2.591   2.161   2.939 -2.9112  0.0054  1.6520
 5218SOL    HW227117   2.467   2.122   2.884 -0.6834 -0.3039  2.2936
 5219SOL     OW27118   1.825   3.569  14.034  0.3168 -0.0908 -0.5302
 5219SOL    HW127119   1.905   3.581  13.984  0.1116 -0.0726 -0.8568
 5219SOL    HW227120   1.836   3.483  14.076 -0.4025  0.3747  0.6009
 5220SOL     OW27121   1.668   3.831   3.279  0.2499 -0.1543  0.2709
 5220SOL    HW127122   1.647   3.756   3.335  0.7159 -0.9931 -0.6730
 5220SOL    HW227123   1.677   3.902   3.342  0.3166 -1.6318  1.9105
 5221SOL     OW27124   3.884   2.483  14.882  0.3123 -0.6558  0.1703
 5221SOL    HW127125   3.802   2.477  14.932  0.8155 -0.9528  0.9489
 5221SOL    HW227126   3.863   2.557  14.825  0.8633  0.6304  1.6339
 5222SOL     OW27127   1.543   0.795  10.337  0.3285 -0.1036  0.3421
 5222SOL    HW127128   1.581   0.822  10.420  0.5113  0.2198  0.1517
 5222SOL    HW227129   1.480   0.731  10.372 -0.5455 -0.5116 -1.9965
 5223SOL     OW27130   2.493   0.667   4.102  0.1694 -0.1669 -0.1299
 5223SOL    HW127131   2.431   0.612   4.149  1.8735 -0.6294  1.5748
 5223SOL    HW227132   2.549   0.700   4.172 -1.2503  1.4436  0.2328
 5224SOL     OW27133   3.936   3.426   5.058  0.1504 -0.3945 -0.1308
 5224SOL    HW127134   3.911   3.429   5.150  1.8915  0.2260  0.3216
 5224SOL    HW227135   3.897   3.502   5.015 -0.4163 -0.2630  0.6095
 5225SOL     OW27136   2.373   2.179  16.140 -0.7842 -0.1398 -0.1201
 5225SOL    HW127137   2.383   2.212  16.050  1.5782  0.0932  0.2289
 5225SOL    HW227138   2.457   2.211  16.172 -0.4128  0.9233 -2.1771
 5226SOL     OW27139   1.851   1.997   7.720  0.1841  0.0230 -0.4802
 5226SOL    HW127140   1.899   1.945   7.657  2.4830  1.6316 -0.0466
 5226SOL    HW227141   1.919   2.033   7.776  0.7672 -0.4215 -0.9054
 5227SOL     OW27142   1.718   2.560   5.525 -0.4227 -0.4270 -0.2484
 5227SOL    HW127143   1.781   2.493   5.497 -0.0042  0.1162 -0.6101
 5227SOL    HW227144   1.772   2.639   5.522  2.3902 -2.3586 -0.2205
 5228SOL     OW27145   3.709   0.507   6.210 -0.1712  0.0467  0.1810
 5228SOL    HW127146   3.682   0.491   6.301  0.3123 -0.7326  0.1898
 5228SOL    HW227147   3.639   0.562   6.176  1.0339  1.2029 -0.4388
 5229SOL     OW27148   1.846   0.268   3.159 -0.2399 -0.5710  0.0076
 5229SOL    HW127149   1.869   0.303   3.245  1.1491  0.2254 -0.6893
 5229SOL    HW227150   1.876   0.339   3.102 -1.3304  0.6854  0.9977
 5230SOL     OW27151   2.859   1.201   7.362 -0.7934  0.1371 -0.2598
 5230SOL    HW127152   2.891   1.188   7.272  1.6879 -3.9303  1.1802
 5230SOL    HW227153   2.798   1.128   7.377 -1.9696  1.7302  2.6308
 5231SOL     OW27154   4.112   0.247  14.356  0.0555  0.3659  0.2321
 5231SOL    HW127155   4.143   0.331  14.390  0.1807  0.2431  0.4199
 5231SOL    HW227156   4.131   0.191  14.431  1.0977  2.4387  1.5135
 5232SOL     OW27157   4.009   3.419   6.540 -0.8019  0.4814  0.0304
 5232SOL    HW127158   3.962   3.455   6.615  1.9024  1.5651  1.2140
 5232SOL    HW227159   3.981   3.328   6.536  1.0791 -0.0752 -0.4560
 5233SOL     OW27160   1.312   3.857   6.922  0.4414 -0.2107 -0.1187
 5233SOL    HW127161   1.350   3.793   6.983 -0.4376  1.0600  1.7468
 5233SOL    HW227162   1.310   3.819   6.834 -2.2485 -0.2351 -0.0510
 5234SOL     OW27163   4.071   0.636   2.189 -0.1635 -0.0404 -0.0386
 5234SOL    HW127164   4.044   0.549   2.220 -0.7274  1.1414  2.7225
 5234SOL    HW227165   4.035   0.614   2.103  0.6383 -1.0433 -0.1229
 5235SOL     OW27166   1.306   2.512   2.847 -0.2430 -0.2009 -0.2621
 5235SOL    HW127167   1.216   2.542   2.839 -0.1123  0.1294 -0.5076
 5235SOL    HW227168   1.338   2.533   2.760 -1.0718  1.8540 -0.0612
 5236SOL     OW27169   1.190   1.863  17.299 -0.3216  0.1381  0.4519
 5236SOL    HW127170   1.151   1.938  17.344  0.1652  0.8477 -0.3215
 5236SOL    HW227171   1.245   1.899  17.230 -1.9561 -0.6100 -1.2463
 5237SOL     OW27172   0.201   1.695  14.342 -0.0374 -0.4254  0.2387
 5237SOL    HW127173   0.274   1.701  14.281 -0.3877 -1.7346 -0.3213
 5237SOL    HW227174   0.129   1.739  14.299 -0.6902 -0.5600  1.1929
 5238SOL     OW27175   2.685   1.263  17.585 -0.3198 -0.2887 -0.4106
 5238SOL    HW127176   2.759   1.312  17.549 -0.6958  0.4272 -0.2127
 5238SOL    HW227177   2.733   1.220  17.656 -2.4200 -3.2159 -0.7481
 5239SOL     OW27178   3.033   3.657  13.068  0.0870 -0.0307 -0.0779
 5239SOL    HW127179   3.025   3.747  13.037 -0.1241 -0.6695 -1.8841
 5239SOL    HW227180   2.939   3.642  13.062 -0.2777  2.1254  0.3030
 5240SOL     OW27181   0.213   0.966  15.428 -0.2017  0.1757 -1.0559
 5240SOL    HW127182   0.165   0.886  15.449 -1.1763  1.2467  0.7940
 5240SOL    HW227183   0.203   1.026  15.502  0.2257 -0.9194 -0.1062
 5241SOL     OW27184   2.909   3.937  14.885 -0.3941  0.3550 -0.0562
 5241SOL    HW127185   2.893   4.010  14.945  1.3919  0.5216  0.2151
 5241SOL    HW227186   2.902   3.860  14.940 -0.9900  0.8512  0.5623
 5242SOL     OW27187   2.432   1.890   2.638 -0.8522 -0.2457  0.6105
 5242SOL    HW127188   2.461   1.812   2.591 -0.0178  0.5963 -0.2845
 5242SOL    HW227189   2.506   1.912   2.695 -2.4012  1.6509  1.8794
 5243SOL     OW27190   2.773   0.988   8.927  0.2928  0.7078 -0.9916
 5243SOL    HW127191   2.801   0.898   8.912  0.5616  0.7074 -0.4823
 5243SOL    HW227192   2.753   1.023   8.840 -0.9638  0.2279 -0.9066
 5244SOL     OW27193   3.335   4.546  13.995  0.2871 -0.6095  0.2976
 5244SOL    HW127194   3.347   4.451  13.993 -1.3810 -0.8469  1.1172
 5244SOL    HW227195   3.240   4.550  13.978  0.1211  0.6161  1.4970
 5245SOL     OW27196   2.331   2.064  15.676  0.2402  0.1205 -0.0394
 5245SOL    HW127197   2.240   2.052  15.648 -0.1324 -0.0969  1.2612
 5245SOL    HW227198   2.368   2.021  15.599  0.7321 -1.9180  1.3612
 5246SOL     OW27199   3.205   1.549   6.635  0.0459 -0.0367  0.1722
 5246SOL    HW127200   3.214   1.558   6.730 -0.6841  1.5616  0.0989
 5246SOL    HW227201   3.111   1.551   6.615 -0.0964 -1.4791  0.7557
 5247SOL     OW27202   3.907   0.089  12.461 -0.4498 -0.7329 -0.2700
 5247SOL    HW127203   3.830   0.146  12.449 -1.0938 -1.4911  0.2546
 5247SOL    HW227204   3.976   0.138  12.416 -0.7266  1.6281  1.8338
 5248SOL     OW27205   1.573   1.985   8.740 -0.1254  0.4287  0.0662
 5248SOL    HW127206   1.515   1.953   8.808  0.4413 -1.5732 -0.4123
 5248SOL    HW227207   1.650   1.998   8.794  0.0571 -1.3028  0.2192
 5249SOL     OW27208   0.317   3.586   3.963  0.1216  0.5155  0.0268
 5249SOL    HW127209   0.384   3.607   4.028  0.4991 -0.7944  0.0480
 5249SOL    HW227210   0.296   3.494   3.978  1.8032  0.5486  2.4028
 5250SOL     OW27211   2.912   2.669  12.938 -0.2285 -0.3448  0.0500
 5250SOL    HW127212   2.933   2.686  12.846 -0.6645  0.1758  0.0494
 5250SOL    HW227213   2.889   2.576  12.940 -2.6788  0.1764 -2.6309
 5251SOL     OW27214   1.960   1.410   6.547  0.0131  0.3979  0.1199
 5251SOL    HW127215   1.980   1.412   6.640  0.2847  1.3969  0.0289
 5251SOL    HW227216   1.941   1.501   6.528 -0.2435  0.4479  0.6110
 5252SOL     OW27217   2.214   0.254  16.868 -0.8450  0.0943 -0.4132
 5252SOL    HW127218   2.184   0.296  16.948  1.7423 -0.1651  0.6855
 5252SOL    HW227219   2.272   0.183  16.895  0.5990  0.8627 -1.4809
 5253SOL     OW27220   3.792   0.768   1.556  0.1308 -0.0693  0.6183
 5253SOL    HW127221   3.859   0.745   1.492 -0.7147 -1.0139  0.0768
 5253SOL    HW227222   3.842   0.778   1.637  1.2889 -1.9171  0.1288
 5254SOL     OW27223   0.746   1.148   8.650  0.0282  0.3321 -0.4741
 5254SOL    HW127224   0.679   1.126   8.714 -1.0413 -1.1157 -2.0636
 5254SOL    HW227225   0.818   1.102   8.694 -0.3472 -2.7084 -2.9705
 5255SOL     OW27226   4.057   2.931   2.986 -0.3832 -0.0697 -0.0487
 5255SOL    HW127227   4.105   3.001   2.943 -0.4548 -0.1092 -0.1943
 5255SOL    HW227228   3.966   2.954   2.966  0.0331 -0.4884 -2.4419
 5256SOL     OW27229   4.002   4.270  10.954  0.1794  0.1446  0.3377
 5256SOL    HW127230   4.020   4.275  11.048  0.4931  1.6399  0.1899
 5256SOL    HW227231   4.068   4.208  10.923 -0.1722 -0.2238  0.3202
 5257SOL     OW27232   0.711   2.288  11.558  0.5599 -0.1397 -0.1831
 5257SOL    HW127233   0.788   2.232  11.546  0.0960 -0.7380 -0.4037
 5257SOL    HW227234   0.750   2.374  11.548 -0.9686  0.5908  0.1180
 5258SOL     OW27235   1.196   0.105  10.015  0.5220 -0.4640 -0.2105
 5258SOL    HW127236   1.287   0.134  10.017  0.2059  0.5026  0.1279
 5258SOL    HW227237   1.163   0.172  10.074 -1.6152 -0.6846 -1.1509
 5259SOL     OW27238   4.626   2.932  10.337  0.2849  0.1642  0.0310
 5259SOL    HW127239   4.690   2.867  10.367  0.1325 -0.9488 -2.0243
 5259SOL    HW227240   4.553   2.877  10.310 -1.9779  3.4485 -0.5249
 5260SOL     OW27241   1.116   0.115   5.254  0.3823  0.5185 -0.4486
 5260SOL    HW127242   1.118   0.178   5.183  0.1634 -0.7817 -1.6132
 5260SOL    HW227243   1.124   0.033   5.205  0.7629  0.9254 -1.0690
 5261SOL     OW27244   1.700   3.061  13.694 -0.1479 -0.0658  0.2432
 5261SOL    HW127245   1.632   3.001  13.725 -0.2019  0.7232  1.6812
 5261SOL    HW227246   1.708   3.115  13.773 -0.4513  2.2291 -1.3086
 5262SOL     OW27247   3.452   4.704   2.243 -0.0190 -0.0025 -0.1518
 5262SOL    HW127248   3.375   4.662   2.206 -0.0842 -0.2683  0.2928
 5262SOL    HW227249   3.475   0.038   2.169  0.1974  1.4096  1.0175
 5263SOL     OW27250   0.214   1.683   9.788  0.3098  0.1074 -0.5651
 5263SOL    HW127251   0.218   1.637   9.704  0.0317  1.2892 -1.2176
 5263SOL    HW227252   0.202   1.773   9.758  0.2605  0.5041  0.6512
 5264SOL     OW27253   4.680   3.140   3.342 -0.1590 -0.5884  0.4072
 5264SOL    HW127254   0.046   3.172   3.351 -0.3980 -0.3434  1.9176
 5264SOL    HW227255   4.646   3.201   3.275  1.4588 -0.0668  0.0553
 5265SOL     OW27256   2.208   2.345   9.620 -0.1683  0.8902 -0.2808
 5265SOL    HW127257   2.185   2.433   9.588 -0.1333  0.9738 -0.0747
 5265SOL    HW227258   2.298   2.370   9.641  0.2308  0.8573 -1.9858
 5266SOL     OW27259   0.421   0.788   6.337 -0.3394  0.3025  0.5827
 5266SOL    HW127260   0.512   0.760   6.330 -0.3445  0.7423 -1.1189
 5266SOL    HW227261   0.417   0.879   6.310  0.6350  0.6595  1.6295
 5267SOL     OW27262   2.500   3.805   0.313  0.1017  0.6959 -0.8400
 5267SOL    HW127263   2.575   3.825   0.370 -0.4034 -1.0604  0.4304
 5267SOL    HW227264   2.478   3.885   0.267 -1.0006  1.5530  1.1521
 5268SOL     OW27265   3.717   1.939  10.691 -0.1519  0.2045  0.2312
 5268SOL    HW127266   3.749   2.025  10.662 -1.6569  0.7009  0.0124
 5268SOL    HW227267   3.772   1.931  10.769  1.2519  1.7711 -0.5971
 5269SOL     OW27268   0.620   2.098  11.377  0.3278 -0.1367  0.1179
 5269SOL    HW127269   0.592   2.056  11.459  0.6229  0.2703  0.4278
 5269SOL    HW227270   0.595   2.186  11.406  2.9916  1.2400 -1.7166
 5270SOL     OW27271   0.713   0.795   7.103 -0.7892 -0.3305  0.4728
 5270SOL    HW127272   0.706   0.724   7.039 -0.0445 -0.0951  0.1294
 5270SOL    HW227273   0.657   0.860   7.062  0.3041  0.1666 -0.2413
 5271SOL     OW27274   1.331   4.157   7.067 -0.3494 -0.0613 -0.4341
 5271SOL    HW127275   1.366   4.233   7.019  1.7159 -0.6967  0.0736
 5271SOL    HW227276   1.307   4.086   7.007 -1.2918  0.0084 -0.1341
 5272SOL     OW27277   1.306   3.154   4.363 -0.1757  0.3049  0.4290
 5272SOL    HW127278   1.365   3.229   4.363  1.7281 -1.1980 -1.2441
 5272SOL    HW227279   1.366   3.093   4.404 -1.7244 -2.4744 -1.3851
 5273SOL     OW27280   2.996   4.081   3.905 -0.3462  0.4363  0.4407
 5273SOL    HW127281   2.986   3.989   3.881  3.8915  0.0812 -0.0420
 5273SOL    HW227282   2.986   4.125   3.821 -0.5036  0.3557  0.4179
 5274SOL     OW27283   3.396   1.380  12.841  0.2972 -0.0501  0.1397
 5274SOL    HW127284   3.426   1.455  12.789 -0.9109  0.2575 -0.1254
 5274SOL    HW227285   3.484   1.347  12.856 -0.1610 -0.0103  2.9307
 5275SOL     OW27286   4.401   2.812  11.566 -0.2763  0.2691 -0.2520
 5275SOL    HW127287   4.447   2.895  11.553  0.0265 -0.1606 -1.8516
 5275SOL    HW227288   4.333   2.811  11.498  0.0788  1.7335 -0.6391
 5276SOL     OW27289   2.789   2.393   8.081  0.0562 -0.9183 -0.5825
 5276SOL    HW127290   2.883   2.375   8.081  0.3416  0.5410 -0.2458
 5276SOL    HW227291   2.773   2.346   8.163 -1.0828  0.3900 -0.0522
 5277SOL     OW27292   1.929   3.816   2.878  0.1014 -0.0652  0.4713
 5277SOL    HW127293   1.881   3.764   2.943 -3.5171  1.5905 -0.8683
 5277SOL    HW227294   1.882   3.898   2.895 -0.5061 -0.0199 -1.4260
 5278SOL     OW27295   2.657   4.264   8.478 -0.2461  0.1824  0.2837
 5278SOL    HW127296   2.741   4.237   8.516 -0.3267  0.6009  0.7609
 5278SOL    HW227297   2.661   4.360   8.477  0.6823  0.1376 -0.8232
 5279SOL     OW27298   4.165   3.434   2.418 -0.3979 -0.3578 -0.0081
 5279SOL    HW127299   4.085   3.431   2.470 -0.1174 -1.3405  0.3692
 5279SOL    HW227300   4.215   3.499   2.469 -0.1495 -0.6661  0.1398
 5280SOL     OW27301   3.685   3.306  10.638 -0.1991  0.0722  0.2238
 5280SOL    HW127302   3.597   3.279  10.615 -0.9941  0.9716  2.2828
 5280SOL    HW227303   3.719   3.220  10.665 -2.1233 -0.1396  1.9171
 5281SOL     OW27304   0.066   3.114   6.573  0.2347  0.0647 -0.0258
 5281SOL    HW127305   4.709   3.159   6.597  0.4516  0.6403 -0.3700
 5281SOL    HW227306   0.066   3.117   6.477 -1.3238 -1.9597 -0.0752
 5282SOL     OW27307   4.255   3.459   4.276  0.1658 -0.0030 -0.5127
 5282SOL    HW127308   4.271   3.449   4.370  0.1409  1.9646 -0.3086
 5282SOL    HW227309   4.160   3.459   4.282  0.2277  1.2966  0.3328
 5283SOL     OW27310   3.775   0.612   0.622 -0.4903 -0.0699  0.4017
 5283SOL    HW127311   3.699   0.558   0.644 -0.0142  0.2461  2.7763
 5283SOL    HW227312   3.809   0.645   0.705 -0.9441  1.0598  0.1453
 5284SOL     OW27313   4.072   3.433   3.407  0.1313 -0.4598 -0.1450
 5284SOL    HW127314   3.998   3.493   3.413  0.7278  0.2117  0.6149
 5284SOL    HW227315   4.104   3.449   3.318  0.2765  0.8124  0.1286
 5285SOL     OW27316   0.268   0.541  10.513  0.0519 -0.1364  0.0662
 5285SOL    HW127317   0.241   0.614  10.456 -2.6412 -1.4117 -0.2709
 5285SOL    HW227318   0.305   0.578  10.593 -0.0524  4.0011 -1.7813
 5286SOL     OW27319   0.379   0.690  14.009 -0.1571  0.0499  0.3863
 5286SOL    HW127320   0.395   0.768  13.957 -3.9035 -0.4107 -1.4395
 5286SOL    HW227321   0.464   0.646  13.997  0.6806  1.7388  0.1367
 5287SOL     OW27322   1.983   4.700   2.802  0.4207 -0.3463  0.7080
 5287SOL    HW127323   2.008   0.060   2.841 -1.5900  0.1305  0.9472
 5287SOL    HW227324   1.911   4.667   2.855  1.0978  0.4705  2.1203
 5288SOL     OW27325   3.248   2.330   9.362 -1.0018  0.3921  0.2693
 5288SOL    HW127326   3.242   2.370   9.275 -2.0558  1.5922  0.9050
 5288SOL    HW227327   3.286   2.244   9.343  0.1390  0.6367  1.4807
 5289SOL     OW27328   1.670   2.229   2.700  0.7061  0.3624  0.8287
 5289SOL    HW127329   1.668   2.318   2.737  5.5162  0.8839 -0.0598
 5289SOL    HW227330   1.603   2.225   2.633  0.9252 -1.6013  0.7269
 5290SOL     OW27331   2.593   0.569   3.864  0.1553  0.0051 -0.1522
 5290SOL    HW127332   2.528   0.614   3.811 -1.3423 -1.0972  0.7244
 5290SOL    HW227333   2.569   0.607   3.949 -1.6551  2.8758 -1.9386
 5291SOL     OW27334   4.079   3.895   0.910 -0.6330 -0.9897 -0.4450
 5291SOL    HW127335   4.141   3.954   0.953  0.6007 -2.2762 -0.4745
 5291SOL    HW227336   4.094   3.939   0.826  0.3676  0.7826  0.6522
 5292SOL     OW27337   0.658   3.131   8.497  0.1456 -0.0792 -0.1926
 5292SOL    HW127338   0.640   3.225   8.491  0.9173  0.3204  3.2541
 5292SOL    HW227339   0.607   3.101   8.572  1.1762 -2.5363 -0.4598
 5293SOL     OW27340   3.150   0.887   8.636 -0.2625  0.2218  0.0999
 5293SOL    HW127341   3.142   0.806   8.687  1.6439  1.3284  2.1402
 5293SOL    HW227342   3.152   0.957   8.701  0.5864 -2.2327  2.7282
 5294SOL     OW27343   3.423   4.601  17.667  0.2401  0.2706 -0.5492
 5294SOL    HW127344   3.488   4.533  17.650  0.8731  0.5455  0.7478
 5294SOL    HW227345   3.483   4.672  17.690 -0.1224  0.1623  0.7212
 5295SOL     OW27346   0.318   3.061   9.480  0.3675  0.2257  0.6915
 5295SOL    HW127347   0.332   2.974   9.518  0.9466 -0.5495 -1.2952
 5295SOL    HW227348   0.404   3.059   9.439  0.5934  4.3202  1.0483
 5296SOL     OW27349   3.346   1.117   5.384  0.2887  0.0549  0.0199
 5296SOL    HW127350   3.272   1.112   5.444 -0.2211  0.7514 -0.5489
 5296SOL    HW227351   3.411   1.164   5.438 -0.9206 -0.1022  1.6046
 5297SOL     OW27352   4.135   2.303  13.214  0.3575 -0.0718 -0.8334
 5297SOL    HW127353   4.196   2.338  13.148  1.3963  0.1495  0.2529
 5297SOL    HW227354   4.059   2.347  13.175  0.1178  0.3926  0.1650
 5298SOL     OW27355   3.844   1.005   6.864 -1.0655 -0.5259 -0.2727
 5298SOL    HW127356   3.814   1.079   6.917 -1.6437 -1.0016  0.0624
 5298SOL    HW227357   3.931   1.022   6.828 -0.0907 -0.3539  2.1442
 5299SOL     OW27358   0.311   3.254   6.171 -0.4845  0.3979  0.5964
 5299SOL    HW127359   0.292   3.343   6.142 -0.3754  0.5303  0.9225
 5299SOL    HW227360   0.357   3.272   6.254  0.6816 -0.3592  0.1035
 5300SOL     OW27361   4.042   1.710   7.924 -0.4000 -0.1460 -0.3010
 5300SOL    HW127362   4.078   1.776   7.983 -2.7799  0.5599  0.3675
 5300SOL    HW227363   4.111   1.644   7.931 -0.7499 -0.6343 -1.5180
 5301SOL     OW27364   4.092   0.575   3.146 -0.1409  0.0239 -0.5283
 5301SOL    HW127365   4.094   0.635   3.071  0.5237 -3.1974 -3.1266
 5301SOL    HW227366   4.004   0.540   3.137  1.2883 -3.1341 -2.4027
 5302SOL     OW27367   4.337   0.559   5.475  0.5426 -0.6090 -0.0588
 5302SOL    HW127368   4.337   0.549   5.571  0.7174 -2.6932 -0.2784
 5302SOL    HW227369   4.264   0.620   5.461  0.9738  0.2249  1.3029
 5303SOL     OW27370   2.081   3.325   2.759  0.3319 -0.0966 -0.0278
 5303SOL    HW127371   2.108   3.407   2.801 -1.2148  0.0225  0.7595
 5303SOL    HW227372   2.158   3.285   2.720 -2.4465 -2.1630 -3.3981
 5304SOL     OW27373   4.272   4.046   4.918  0.0170  0.5397  0.5405
 5304SOL    HW127374   4.234   4.131   4.895 -1.5425  0.2026  1.8429
 5304SOL    HW227375   4.260   3.989   4.842 -0.9326  2.0561 -0.4611
 5305SOL     OW27376   3.434   2.632   7.249  0.9455 -0.0539 -0.5208
 5305SOL    HW127377   3.393   2.701   7.301 -0.3668 -0.4549 -1.0051
 5305SOL    HW227378   3.366   2.624   7.182 -0.6792  1.1779  0.9748
 5306SOL     OW27379   1.821   1.757   3.870 -0.3759 -0.3004  0.1226
 5306SOL    HW127380   1.887   1.745   3.802  1.4247 -4.0554  2.5786
 5306SOL    HW227381   1.750   1.788   3.813  0.6158 -0.2795 -1.1016
 5307SOL     OW27382   3.586   1.504   5.347  0.5413  0.2975  0.5767
 5307SOL    HW127383   3.622   1.553   5.421 -0.2262  2.0134 -0.1863
 5307SOL    HW227384   3.654   1.516   5.280  0.5271 -0.3651  0.4420
 5308SOL     OW27385   2.258   3.217  17.178 -0.0316 -0.0244 -0.1637
 5308SOL    HW127386   2.236   3.126  17.198 -3.6849  0.9417  0.3068
 5308SOL    HW227387   2.252   3.214  17.083 -1.4651  1.0925 -0.1108
 5309SOL     OW27388   2.329   4.534   1.132  0.1292  0.6745  0.1083
 5309SOL    HW127389   2.295   4.504   1.217  3.4350  0.8892  1.4978
 5309SOL    HW227390   2.321   4.448   1.092 -2.2293  0.7578  0.3795
 5310SOL     OW27391   3.555   1.313   7.575  0.1695 -0.1678 -0.5244
 5310SOL    HW127392   3.582   1.382   7.514 -0.0919 -2.1148 -2.8852
 5310SOL    HW227393   3.518   1.364   7.647 -1.0656 -0.1489 -1.1802
 5311SOL     OW27394   0.555   2.514  11.136  0.0579 -0.2354 -0.2945
 5311SOL    HW127395   0.648   2.496  11.148 -0.1954 -0.7457  0.9358
 5311SOL    HW227396   0.523   2.495  11.225  0.0422  1.5488  0.0806
 5312SOL     OW27397   1.490   0.753   6.408  0.0944  0.5055  0.5679
 5312SOL    HW127398   1.466   0.667   6.442 -0.8424  0.2976 -0.5952
 5312SOL    HW227399   1.549   0.783   6.477 -1.3241  2.7290  0.8283
 5313SOL     OW27400   3.433   1.687  11.251 -0.0582 -0.0851  0.2170
 5313SOL    HW127401   3.433   1.602  11.207  2.9046 -0.3769  0.8182
 5313SOL    HW227402   3.364   1.736  11.206 -1.8275 -0.3972  2.5650
 5314SOL     OW27403   3.107   4.518   1.209 -0.3939 -0.0324 -0.7399
 5314SOL    HW127404   3.123   4.598   1.160 -0.3625  0.5216  0.1731
 5314SOL    HW227405   3.185   4.504   1.263 -0.4093  0.5045 -0.5772
 5315SOL     OW27406   0.489   0.468   0.142 -0.1324 -0.4280  0.1615
 5315SOL    HW127407   0.471   0.383   0.182 -2.7792  0.3051  0.5187
 5315SOL    HW227408   0.577   0.488   0.173  0.3257 -0.7100 -0.9493
 5316SOL     OW27409   3.125   2.067   4.403  0.1704  0.9373 -0.7096
 5316SOL    HW127410   3.078   2.147   4.427  1.7337  1.4231  0.7965
 5316SOL    HW227411   3.060   2.000   4.387 -0.0706  1.0007 -0.0161
 5317SOL     OW27412   2.150   4.161  16.101 -0.2525 -0.0864  0.1133
 5317SOL    HW127413   2.199   4.148  16.020 -0.0326 -1.4297  0.4633
 5317SOL    HW227414   2.063   4.155  16.063  0.0228  1.0431 -0.6802
 5318SOL     OW27415   2.417   3.679   5.451 -0.4032  0.1721  0.9825
 5318SOL    HW127416   2.335   3.658   5.407  0.5847 -1.9721  0.1419
 5318SOL    HW227417   2.387   3.695   5.540 -1.4130  2.5048  0.2267
 5319SOL     OW27418   3.954   0.174   6.709  0.4000 -0.4704 -0.3754
 5319SOL    HW127419   4.034   0.155   6.660  1.5944  3.3800  0.1466
 5319SOL    HW227420   3.985   0.162   6.799  2.7972  2.1609 -0.8692
 5320SOL     OW27421   2.934   1.934   9.946  0.6080  0.9629 -0.1352
 5320SOL    HW127422   3.029   1.940   9.955  0.7791  2.1232 -2.6758
 5320SOL    HW227423   2.924   1.910   9.854 -1.5189 -0.6119  0.5112
 5321SOL     OW27424   4.216   4.704   0.730  0.2163 -0.0404  0.6345
 5321SOL    HW127425   4.236   0.070   0.703  1.8836 -0.7592 -0.5226
 5321SOL    HW227426   4.306   4.678   0.710 -0.5724  0.0241 -3.0352
 5322SOL     OW27427   4.438   0.782   5.103  0.8547 -0.4588 -0.0132
 5322SOL    HW127428   4.383   0.705   5.094  0.2851 -0.2194  1.4084
 5322SOL    HW227429   4.527   0.746   5.113  0.9741 -0.6583 -1.7388
 5323SOL     OW27430   3.464   4.443   6.610  0.7684  0.6642  0.3420
 5323SOL    HW127431   3.520   4.367   6.597  0.0826  0.4137 -1.1684
 5323SOL    HW227432   3.532   4.501   6.643  0.2814  0.4095  1.8269
 5324SOL     OW27433   1.518   1.839   1.740 -0.3217 -0.5232  0.0952
 5324SOL    HW127434   1.501   1.913   1.799  0.9289 -0.1465 -0.0224
 5324SOL    HW227435   1.492   1.873   1.655 -2.5921 -1.0051  0.5791
 5325SOL     OW27436   3.830   1.115  16.444  0.8989 -0.0328  0.3309
 5325SOL    HW127437   3.851   1.192  16.390 -0.4506 -0.2984 -0.5714
 5325SOL    HW227438   3.789   1.051  16.387  1.9659  0.3955 -0.9214
 5326SOL     OW27439   1.530   3.451   6.674  0.3609  0.2546  0.2374
 5326SOL    HW127440   1.623   3.467   6.659  0.2050  0.5773 -0.3730
 5326SOL    HW227441   1.525   3.457   6.770  1.8082  2.2596  0.1987
 5327SOL     OW27442   2.407   0.929  15.349  0.0086  0.7559  0.2986
 5327SOL    HW127443   2.354   0.919  15.428  0.6254 -1.2788  0.4589
 5327SOL    HW227444   2.445   0.841  15.346  1.1719  1.2513  0.2809
 5328SOL     OW27445   4.426   4.138   6.917  0.1827  0.2126  0.2344
 5328SOL    HW127446   4.446   4.058   6.966 -1.8502 -0.4649 -0.0458
 5328SOL    HW227447   4.504   4.183   6.950 -0.2358  0.8001  0.4292
 5329SOL     OW27448   4.288   0.211  13.785 -0.4915 -0.0221  0.2131
 5329SOL    HW127449   4.338   0.206  13.867  2.5930 -0.1626 -1.6772
 5329SOL    HW227450   4.344   0.186  13.712  0.0036 -0.0029  0.5870
 5330SOL     OW27451   0.734   1.446   1.693 -0.3067  0.2324 -0.2247
 5330SOL    HW127452   0.732   1.481   1.604 -2.6175  1.6552  0.4050
 5330SOL    HW227453   0.803   1.380   1.685  0.1174  0.7186 -0.6118
 5331SOL     OW27454   2.691   2.375   7.808 -0.0951  0.8286 -0.6411
 5331SOL    HW127455   2.736   2.408   7.886 -0.6102 -0.3407  0.1419
 5331SOL    HW227456   2.713   2.283   7.819 -2.4167  0.2544 -0.9185
 5332SOL     OW27457   3.413   0.976   4.231  0.0526  0.3316  0.3684
 5332SOL    HW127458   3.460   0.895   4.250 -3.0840 -1.2774  1.3947
 5332SOL    HW227459   3.343   0.947   4.171  1.3490  0.5651 -1.2652
 5333SOL     OW27460   4.318   4.344   8.213  0.4065  0.3342 -0.2733
 5333SOL    HW127461   4.275   4.418   8.255 -0.7805 -1.6372  1.9469
 5333SOL    HW227462   4.349   4.284   8.281  4.6343  0.4647 -2.0804
 5334SOL     OW27463   0.278   2.670  13.263 -0.1447  0.4713  0.1034
 5334SOL    HW127464   0.246   2.681  13.353  0.9357  0.4218  0.5057
 5334SOL    HW227465   0.218   2.607  13.224 -0.1941  2.8523 -3.6378
 5335SOL     OW27466   0.819   1.982  17.323 -0.2724  0.4536 -0.7671
 5335SOL    HW127467   0.851   2.054  17.269 -0.1791  0.4941 -0.6588
 5335SOL    HW227468   0.728   1.985  17.294 -0.5743  0.4137  0.1760
 5336SOL     OW27469   1.316   3.282  15.514 -0.1161 -0.2831 -0.3393
 5336SOL    HW127470   1.321   3.375  15.489  2.3201 -0.1747  0.5585
 5336SOL    HW227471   1.226   3.275  15.483 -0.6248  0.1183  1.0488
 5337SOL     OW27472   1.570   2.635   4.350 -0.0302  0.7521  0.4863
 5337SOL    HW127473   1.518   2.674   4.279 -0.3064  1.9094  1.3276
 5337SOL    HW227474   1.511   2.567   4.383 -0.6357  1.3891  0.7136
 5338SOL     OW27475   4.542   0.705   4.040  0.5423  0.2246  0.5202
 5338SOL    HW127476   4.597   0.765   3.990  1.8410 -1.0764  0.3704
 5338SOL    HW227477   4.533   0.633   3.977  1.7185  0.0371  0.5589
 5339SOL     OW27478   0.084   3.239   7.376  0.2982  0.8918 -0.0501
 5339SOL    HW127479   0.038   3.174   7.323  0.1791  1.0038 -0.0828
 5339SOL    HW227480   0.122   3.191   7.450 -0.9583 -1.0528 -0.6566
 5340SOL     OW27481   1.518   3.398  11.966 -0.4265 -0.1645  0.0114
 5340SOL    HW127482   1.490   3.428  11.879  0.2362 -1.4336 -0.6312
 5340SOL    HW227483   1.608   3.427  11.955  0.0134 -0.7929  1.9668
 5341SOL     OW27484   2.879   2.779   9.316 -0.3112  0.0712 -0.0965
 5341SOL    HW127485   2.831   2.824   9.246 -2.7266 -1.1235  0.8064
 5341SOL    HW227486   2.818   2.788   9.389  0.4594  0.1030  0.5388
 5342SOL     OW27487   2.008   2.502   9.852  0.1925  0.0422  0.0977
 5342SOL    HW127488   1.945   2.526   9.920  1.2092 -0.5856  1.2824
 5342SOL    HW227489   2.046   2.584   9.822 -0.1072 -0.7145 -2.3878
 5343SOL     OW27490   3.714   1.406   4.061  1.1109 -0.8081  0.1605
 5343SOL    HW127491   3.695   1.495   4.032  0.5206 -0.3045  2.1083
 5343SOL    HW227492   3.660   1.394   4.139 -0.4236 -0.3661 -0.8118
 5344SOL     OW27493   0.970   2.369  17.609 -0.2312  0.0450 -0.2335
 5344SOL    HW127494   0.937   2.455  17.584  0.5246  0.3459 -0.1913
 5344SOL    HW227495   1.041   2.360  17.545  0.4896 -1.1798  0.7291
 5345SOL     OW27496   4.433   1.895   9.897  0.3131  0.0461  0.0737
 5345SOL    HW127497   4.464   1.807   9.875  0.9017  0.4314 -0.6150
 5345SOL    HW227498   4.384   1.875   9.977  0.2653  0.7841  0.2319
 5346SOL     OW27499   3.045   3.850   5.086 -0.1604  0.4309  0.5027
 5346SOL    HW127500   3.008   3.904   5.156  0.6618 -0.9263  1.9763
 5346SOL    HW227501   2.982   3.871   5.016 -1.2723 -2.7836  0.5415
 5347SOL     OW27502   2.022   2.020   9.746  0.6177 -0.3331  0.3484
 5347SOL    HW127503   2.042   2.026   9.839  1.0738 -0.4451  0.2593
 5347SOL    HW227504   2.010   1.927   9.726 -0.8782 -0.4173  1.7172
 5348SOL     OW27505   3.187   0.099   0.304 -0.0522 -0.0822 -0.4386
 5348SOL    HW127506   3.135   0.160   0.357  0.3620  0.2244 -0.3825
 5348SOL    HW227507   3.136   0.104   0.223  3.7163 -1.3243 -2.8731
 5349SOL     OW27508   2.859   2.159  12.498 -0.4932  0.6805  0.3433
 5349SOL    HW127509   2.846   2.219  12.572 -0.7947 -0.2328  1.0387
 5349SOL    HW227510   2.797   2.197  12.436 -0.6991  0.8682  0.6626
 5350SOL     OW27511   3.719   3.150  14.983 -0.8581  0.5661 -0.2330
 5350SOL    HW127512   3.666   3.219  14.944  0.2801  0.8920 -1.1976
 5350SOL    HW227513   3.736   3.184  15.071  0.7557  0.2395 -0.4260
 5351SOL     OW27514   4.458   3.754  10.676  0.3139 -0.0468  0.6954
 5351SOL    HW127515   4.381   3.783  10.627  1.2921  1.3722 -0.0017
 5351SOL    HW227516   4.417   3.739  10.761  1.6203 -3.0878  0.7956
 5352SOL     OW27517   3.530   1.042   6.787  0.3475 -0.3429 -0.4011
 5352SOL    HW127518   3.593   1.101   6.829 -2.8379  0.7339  2.8231
 5352SOL    HW227519   3.499   0.975   6.848 -0.7861  1.2999  0.8291
 5353SOL     OW27520   1.782   3.613   7.042 -0.0887 -0.4505  0.1358
 5353SOL    HW127521   1.764   3.575   7.128  1.5523  1.9824  1.5488
 5353SOL    HW227522   1.766   3.707   7.048  2.0198 -0.1203  0.4269
 5354SOL     OW27523   3.590   3.277  16.553  0.0565 -0.6181  0.0063
 5354SOL    HW127524   3.546   3.359  16.532  1.7604  0.1019 -0.7288
 5354SOL    HW227525   3.524   3.235  16.607 -0.6174  0.5294  0.0611
 5355SOL     OW27526   1.556   3.799   1.694  0.1654 -0.0934 -0.4675
 5355SOL    HW127527   1.649   3.776   1.704 -0.3839 -1.9106  0.3088
 5355SOL    HW227528   1.554   3.867   1.762  2.9183 -1.0111  0.5385
 5356SOL     OW27529   4.320   3.056   6.679 -0.4567  0.3959  0.0078
 5356SOL    HW127530   4.407   3.035   6.713 -1.3344 -0.1127  1.9341
 5356SOL    HW227531   4.335   3.088   6.590  1.5359 -3.1806 -0.9047
 5357SOL     OW27532   0.433   0.329   0.649  0.5983  0.2027 -0.0440
 5357SOL    HW127533   0.517   0.293   0.622  0.4613 -0.3053  0.1982
 5357SOL    HW227534   0.470   0.410   0.684 -2.0826  1.7084 -0.7453
 5358SOL     OW27535   4.002   0.274   4.586 -0.5912  0.2757  0.2724
 5358SOL    HW127536   3.948   0.210   4.633 -0.2179  3.9236  5.6812
 5358SOL    HW227537   4.001   0.349   4.645 -0.0342  0.6289 -0.1695
 5359SOL     OW27538   2.873   3.928  13.705 -0.0471  0.2338 -0.1746
 5359SOL    HW127539   2.848   4.010  13.747  1.5568  1.1690 -1.0239
 5359SOL    HW227540   2.878   3.866  13.778  1.0866 -0.4653 -0.8470
 5360SOL     OW27541   0.902   3.823   8.810 -0.4058 -0.4921 -0.2927
 5360SOL    HW127542   0.953   3.745   8.790 -0.5593 -0.8814  0.8213
 5360SOL    HW227543   0.948   3.858   8.887 -0.9311  1.7840 -1.0147
 5361SOL     OW27544   4.118   3.420   6.837  0.6027  0.0141 -0.6243
 5361SOL    HW127545   4.092   3.328   6.826  1.7564 -0.5452  1.3005
 5361SOL    HW227546   4.161   3.412   6.922 -1.8155 -1.7965  0.3959
 5362SOL     OW27547   3.251   0.961   1.293 -0.3960  0.2486  0.1692
 5362SOL    HW127548   3.282   1.033   1.348  2.2392 -0.8938  0.1893
 5362SOL    HW227549   3.338   0.922   1.279 -0.6315 -0.4305  0.5965
 5363SOL     OW27550   1.001   2.135   2.891 -0.3072  0.5367 -0.0331
 5363SOL    HW127551   1.059   2.193   2.841  0.0174  1.2333  1.1586
 5363SOL    HW227552   0.931   2.132   2.825 -0.8826 -0.3261  0.6208
 5364SOL     OW27553   1.116   2.525  10.079 -0.0527 -0.1035  0.3210
 5364SOL    HW127554   1.037   2.578  10.067 -0.3958 -0.9711 -1.2634
 5364SOL    HW227555   1.139   2.498   9.990 -0.3671 -0.5788  0.3841
 5365SOL     OW27556   3.293   4.173  11.706 -0.5007  0.3699  0.1159
 5365SOL    HW127557   3.258   4.162  11.617  0.2465  2.3289 -0.4265
 5365SOL    HW227558   3.237   4.110  11.749 -2.7163  0.7847 -2.1597
 5366SOL     OW27559   1.571   0.986   5.960 -0.4276 -0.2422 -0.1566
 5366SOL    HW127560   1.634   0.975   5.889 -0.5363 -1.9593  0.0169
 5366SOL    HW227561   1.631   0.950   6.024  1.1718  1.1206 -0.8890
 5367SOL     OW27562   2.391   4.596  15.333 -0.1300 -0.1740  0.7031
 5367SOL    HW127563   2.432   4.670  15.377 -0.3309  0.0930  0.4466
 5367SOL    HW227564   2.321   4.638  15.283 -0.2252  0.6114  1.5135
 5368SOL     OW27565   4.687   0.754   7.142  0.0568  0.2598 -0.1444
 5368SOL    HW127566   4.644   0.692   7.083  0.7157 -0.8766  0.5590
 5368SOL    HW227567   4.632   0.733   7.218  0.6408  0.3876  0.3144
 5369SOL     OW27568   3.083   3.825   6.588 -0.0005 -0.2240  0.2596
 5369SOL    HW127569   3.130   3.773   6.522  0.6066  2.0139 -1.0673
 5369SOL    HW227570   3.027   3.758   6.627 -1.1257 -0.0197 -1.0035
 5370SOL     OW27571   4.226   3.167   2.890 -0.2138 -0.1204  0.1029
 5370SOL    HW127572   4.308   3.215   2.901 -0.8934  1.4399 -1.4942
 5370SOL    HW227573   4.253   3.103   2.824  0.2879  0.7378 -0.5279
 5371SOL     OW27574   2.672   3.553  13.935 -0.1678  0.4227  0.2386
 5371SOL    HW127575   2.721   3.508  14.004  2.2294  2.2369 -0.2776
 5371SOL    HW227576   2.681   3.643  13.965 -1.0932  1.1605 -1.7732
 5372SOL     OW27577   0.461   3.199   3.812 -0.1280  0.4019 -0.0806
 5372SOL    HW127578   0.395   3.266   3.793 -1.0842 -0.5526 -0.1199
 5372SOL    HW227579   0.401   3.125   3.805  0.4499 -0.0349 -0.4588
 5373SOL     OW27580   0.564   4.229  14.366  0.3041 -0.3941  0.5084
 5373SOL    HW127581   0.502   4.282  14.416 -0.7829 -0.3968 -0.8521
 5373SOL    HW227582   0.649   4.265  14.389 -0.1184  0.9671 -0.0584
 5374SOL     OW27583   4.498   4.233   3.028 -0.5309  0.1486  0.0799
 5374SOL    HW127584   4.412   4.273   3.013 -0.2978  0.0318 -1.5237
 5374SOL    HW227585   4.509   4.223   3.123  0.3136 -0.3318 -0.0722
 5375SOL     OW27586   3.143   1.658   4.634  0.4354 -0.1753 -0.3046
 5375SOL    HW127587   3.098   1.685   4.714  0.4085 -1.0245 -0.0306
 5375SOL    HW227588   3.210   1.726   4.631  1.7201 -1.3941  1.1454
 5376SOL     OW27589   1.313   1.473   8.392 -0.2277  0.2609 -0.5306
 5376SOL    HW127590   1.244   1.479   8.458  0.4095  0.4372  0.1243
 5376SOL    HW227591   1.350   1.388   8.415  0.3387  0.0637 -2.1544
 5377SOL     OW27592   2.326   1.822  10.546  0.2090 -0.0501  0.0319
 5377SOL    HW127593   2.375   1.740  10.536 -1.1486 -0.9685  0.9281
 5377SOL    HW227594   2.314   1.813  10.641  0.1370 -1.3217 -0.1026
 5378SOL     OW27595   1.976   3.171   8.396  0.0000  0.3182 -0.2855
 5378SOL    HW127596   1.899   3.206   8.351  1.0272  0.5692 -1.8500
 5378SOL    HW227597   2.035   3.242   8.419 -1.6692  0.9155  2.1239
 5379SOL     OW27598   0.356   2.131   4.271 -0.1438 -0.3319  0.6633
 5379SOL    HW127599   0.329   2.118   4.180 -0.6846  0.2218  0.7403
 5379SOL    HW227600   0.329   2.050   4.315 -0.3742 -0.7931 -0.3350
 5380SOL     OW27601   2.661   2.131   3.655 -0.0272 -0.3041  0.1945
 5380SOL    HW127602   2.595   2.171   3.598  2.6078  1.0454 -1.9148
 5380SOL    HW227603   2.644   2.037   3.651  0.2150 -0.4058  1.6132
 5381SOL     OW27604   1.983   2.819  13.596 -0.3243 -0.6218  0.5603
 5381SOL    HW127605   1.994   2.863  13.512  1.8013  0.8391  1.5920
 5381SOL    HW227606   2.011   2.878  13.666 -0.8735  1.6497 -1.1657
 5382SOL     OW27607   4.649   2.981   5.129  0.2673  0.2636  0.2993
 5382SOL    HW127608   4.586   3.049   5.151  0.6918  1.0866 -1.0291
 5382SOL    HW227609   4.708   3.003   5.202 -0.6430  0.5421  0.9521
 5383SOL     OW27610   2.781   3.236   5.529 -0.7281  0.2202 -0.2764
 5383SOL    HW127611   2.857   3.223   5.472 -1.1381  2.0999 -1.2710
 5383SOL    HW227612   2.725   3.292   5.475 -2.0109  0.0972  0.9207
 5384SOL     OW27613   2.367   3.043   6.320  0.0046  0.8398 -0.2443
 5384SOL    HW127614   2.459   3.063   6.300  0.0069  0.5547 -0.5099
 5384SOL    HW227615   2.368   2.963   6.372  1.0608  1.2496  0.3592
 5385SOL     OW27616   3.676   4.605   0.410 -0.2006 -0.1128 -0.2548
 5385SOL    HW127617   3.617   4.576   0.340 -0.4816  0.4129 -0.2356
 5385SOL    HW227618   3.671   4.695   0.378  2.5415  0.2233  0.3173
 5386SOL     OW27619   2.535   3.377   3.936 -0.2187 -0.1794 -0.1980
 5386SOL    HW127620   2.600   3.306   3.941 -0.6622 -0.6837 -1.5108
 5386SOL    HW227621   2.550   3.390   3.842 -1.0063 -2.4541 -0.6461
 5387SOL     OW27622   2.308   4.258  13.355  0.0298  0.4074  0.6889
 5387SOL    HW127623   2.355   4.306  13.423 -1.3682  0.5156  1.5807
 5387SOL    HW227624   2.268   4.190  13.409  0.1199  1.3448  1.9369
 5388SOL     OW27625   2.244   3.516   4.958 -0.2565 -0.7324  0.5962
 5388SOL    HW127626   2.285   3.594   4.995  0.3062 -0.7774  0.0542
 5388SOL    HW227627   2.227   3.548   4.870 -2.0715  2.1388  1.9912
 5389SOL     OW27628   4.406   1.703  12.756 -0.1622  0.0750  0.3073
 5389SOL    HW127629   4.314   1.710  12.780  0.0614  0.6373  1.0172
 5389SOL    HW227630   4.408   1.761  12.680 -2.7948 -0.2979 -0.0241
 5390SOL     OW27631   1.935   0.296   3.899  0.0150 -0.8689 -0.0721
 5390SOL    HW127632   2.010   0.238   3.901 -0.6385 -1.6255  2.8335
 5390SOL    HW227633   1.879   0.252   3.963 -0.6748 -0.8888 -0.6776
 5391SOL     OW27634   4.290   3.546   1.294  1.2972 -0.2523  0.1643
 5391SOL    HW127635   4.269   3.593   1.375  2.1523  0.9139 -0.2934
 5391SOL    HW227636   4.215   3.488   1.278  1.1307  0.0682 -0.2052
 5392SOL     OW27637   0.573   2.152   4.803 -0.1991  0.2337 -0.1344
 5392SOL    HW127638   0.486   2.126   4.832 -0.0557 -0.2119 -0.0961
 5392SOL    HW227639   0.564   2.247   4.796 -0.4521  0.2198 -0.0061
 5393SOL     OW27640   1.257   1.399  12.200  0.4272 -0.0868 -0.0040
 5393SOL    HW127641   1.168   1.364  12.198  0.3759  0.0668 -0.3041
 5393SOL    HW227642   1.277   1.407  12.107 -0.5991 -0.1712 -0.2270
 5394SOL     OW27643   1.820   2.049  16.923 -0.2240 -0.0593  0.7447
 5394SOL    HW127644   1.836   2.112  16.993  0.1369  0.6881 -0.0036
 5394SOL    HW227645   1.758   2.100  16.871 -0.3063 -1.0550 -0.1608
 5395SOL     OW27646   3.650   0.621   1.393 -0.0180  0.0346  0.0316
 5395SOL    HW127647   3.637   0.549   1.454 -1.0448  0.3809  0.2319
 5395SOL    HW227648   3.700   0.678   1.450  0.0306  0.0573 -0.0336
 5396SOL     OW27649   1.266   0.970   6.778 -0.2570 -0.1229 -0.2532
 5396SOL    HW127650   1.205   1.033   6.740 -0.2538 -0.6226 -1.0678
 5396SOL    HW227651   1.219   0.895   6.743 -1.3777  0.6652 -0.4217
 5397SOL     OW27652   1.130   1.285  15.802  0.4704  0.2249  0.2484
 5397SOL    HW127653   1.062   1.332  15.754  1.4486  1.6592  0.2699
 5397SOL    HW227654   1.160   1.210  15.750  0.7116  1.1820 -0.9977
 5398SOL     OW27655   0.950   3.911  14.693  0.0846 -0.2246 -0.0245
 5398SOL    HW127656   0.928   3.868  14.610 -1.3597  0.2264  0.1398
 5398SOL    HW227657   0.920   3.847  14.757 -2.8638  1.9941  0.7656
 5399SOL     OW27658   2.586   1.530   5.451 -0.0127  0.0816 -0.2716
 5399SOL    HW127659   2.561   1.508   5.361 -0.5278  0.9615 -0.3422
 5399SOL    HW227660   2.682   1.531   5.446 -0.1150  1.1855 -2.2437
 5400SOL     OW27661   1.878   1.078  14.155 -0.2681 -0.1528  0.3722
 5400SOL    HW127662   1.912   1.107  14.240  1.2037  0.6968 -0.5071
 5400SOL    HW227663   1.953   1.026  14.127  0.4606  0.4735  1.1497
 5401SOL     OW27664   2.460   0.635   9.246 -0.4655  0.4679 -0.1318
 5401SOL    HW127665   2.487   0.726   9.261 -1.6433  0.6062  1.1807
 5401SOL    HW227666   2.517   0.627   9.169 -0.0892 -2.6035  0.4741
 5402SOL     OW27667   2.104   2.506   5.497  0.0577  0.3645  0.4526
 5402SOL    HW127668   2.042   2.472   5.432  0.5413  1.7748 -0.7428
 5402SOL    HW227669   2.189   2.467   5.477 -1.3570 -1.8555 -1.2419
 5403SOL     OW27670   1.732   1.675   8.734 -0.4137 -0.1646  0.2112
 5403SOL    HW127671   1.789   1.741   8.773  1.2410  0.1749 -2.7384
 5403SOL    HW227672   1.705   1.728   8.659 -3.0451 -2.7656 -0.7290
 5404SOL     OW27673   1.823   3.139  13.934  0.5108  0.1493 -0.5541
 5404SOL    HW127674   1.739   3.185  13.938 -0.0590 -0.9445  0.0269
 5404SOL    HW227675   1.857   3.148  14.023  1.0507 -0.3115 -0.7114
 5405SOL     OW27676   3.658   0.201   6.423  0.4764  0.0798 -0.1741
 5405SOL    HW127677   3.697   0.115   6.439  0.7542  0.6723  2.3731
 5405SOL    HW227678   3.720   0.266   6.455  2.8553 -1.5251 -1.5061
 5406SOL     OW27679   4.555   3.485   1.447 -0.4785  0.1991  0.2954
 5406SOL    HW127680   4.541   3.528   1.362 -0.1757  0.8496  0.5726
 5406SOL    HW227681   4.481   3.529   1.489  0.7543  2.1597  0.4283
 5407SOL     OW27682   0.788   0.163   6.871  0.4326  0.6042 -0.5724
 5407SOL    HW127683   0.698   0.140   6.896  0.2488  1.5946 -0.3275
 5407SOL    HW227684   0.825   0.085   6.831  4.6986  1.3628  1.8971
 5408SOL     OW27685   3.529   3.803  16.626  0.0212 -0.3709 -0.0165
 5408SOL    HW127686   3.449   3.834  16.667  0.8055 -0.0638  1.2676
 5408SOL    HW227687   3.509   3.709  16.629  3.8144 -1.2090  0.0382
 5409SOL     OW27688   3.051   1.015  13.829  0.5945 -0.3177  0.1437
 5409SOL    HW127689   3.146   1.030  13.836  0.2849  1.4659  0.6642
 5409SOL    HW227690   3.051   0.920  13.820 -0.3943 -0.2820 -0.1665
 5410SOL     OW27691   3.584   1.266   2.676 -0.1611  0.3501  0.5726
 5410SOL    HW127692   3.612   1.236   2.763  1.7127  1.4639  0.3492
 5410SOL    HW227693   3.606   1.359   2.684  1.4710 -0.0127  0.2951
 5411SOL     OW27694   1.632   2.990   7.465 -0.4606  0.5071  0.3462
 5411SOL    HW127695   1.618   2.905   7.507 -1.0796 -0.2290 -1.3677
 5411SOL    HW227696   1.728   2.995   7.462 -0.4565  0.9569  1.1504
 5412SOL     OW27697   3.347   3.489   3.526 -0.0040  0.0027  0.1622
 5412SOL    HW127698   3.348   3.396   3.501  0.4311 -0.0349  0.3296
 5412SOL    HW227699   3.383   3.520   3.443  0.8340 -0.9487  0.1725
 5413SOL     OW27700   3.745   3.901   8.019  0.0871 -0.2573 -0.2988
 5413SOL    HW127701   3.709   3.883   8.106  2.4033  0.7434  0.8779
 5413SOL    HW227702   3.805   3.827   8.008  1.1942  0.7261 -0.8041
 5414SOL     OW27703   2.116   0.390   9.664 -0.3864 -0.4438  0.6450
 5414SOL    HW127704   2.102   0.477   9.627  1.4586 -0.7897 -0.8543
 5414SOL    HW227705   2.052   0.339   9.616 -1.1768 -0.4839  1.7271
 5415SOL     OW27706   3.367   0.135   7.582  0.4630  0.1664  0.5048
 5415SOL    HW127707   3.342   0.185   7.659 -0.3278  2.1539 -1.0453
 5415SOL    HW227708   3.376   0.048   7.621 -0.7100  0.2655  0.9716
 5416SOL     OW27709   3.881   3.253   5.920 -0.5592  0.1009  0.5872
 5416SOL    HW127710   3.834   3.337   5.914 -0.5800  0.0450 -0.0716
 5416SOL    HW227711   3.923   3.243   5.834 -1.6736  3.6534 -0.3811
 5417SOL     OW27712   3.381   4.023   6.116  0.5293 -0.3683  0.0929
 5417SOL    HW127713   3.448   4.030   6.048 -0.7650  1.2088 -1.0007
 5417SOL    HW227714   3.357   4.115   6.123 -3.0384 -1.2423 -0.6787
 5418SOL     OW27715   2.592   1.949   9.977 -0.4366  0.2783  0.1011
 5418SOL    HW127716   2.562   1.872   9.929  0.2810  0.3329 -0.4329
 5418SOL    HW227717   2.591   2.018   9.910 -1.9540  1.3674  1.2351
 5419SOL     OW27718   0.011   4.390   2.573 -0.8814 -0.0735  0.1940
 5419SOL    HW127719   0.095   4.373   2.615 -0.6846  0.9631  0.2254
 5419SOL    HW227720   4.715   4.297   2.560 -1.2713 -0.2430  1.9938
 5420SOL     OW27721   3.502   0.505   0.742 -0.4316 -0.0606 -0.7616
 5420SOL    HW127722   3.471   0.447   0.812  0.4120 -1.9584 -1.9662
 5420SOL    HW227723   3.549   0.570   0.796 -0.7410  0.8340 -1.5656
 5421SOL     OW27724   0.713   3.152   6.263 -0.0589  0.2710  0.1809
 5421SOL    HW127725   0.724   3.061   6.236  0.0138 -0.4009  2.4639
 5421SOL    HW227726   0.801   3.189   6.257  0.9016 -2.1406 -0.6198
 5422SOL     OW27727   4.480   2.633  12.031  0.4880 -0.4720  0.1227
 5422SOL    HW127728   4.445   2.548  12.059  1.8640 -1.5234 -1.3712
 5422SOL    HW227729   4.439   2.643  11.945  0.9564  0.5714  0.0264
 5423SOL     OW27730   3.357   2.393   7.019 -0.4703  0.0573 -0.1014
 5423SOL    HW127731   3.280   2.363   7.068 -0.2528 -0.0897  0.1528
 5423SOL    HW227732   3.327   2.482   7.003 -2.1191 -0.0155  2.5829
 5424SOL     OW27733   0.421   2.523   3.910 -0.3944  0.8131  0.3111
 5424SOL    HW127734   0.503   2.501   3.865  1.2480  0.4346  3.5164
 5424SOL    HW227735   0.402   2.601   3.857  1.9838  1.1321 -0.0668
 5425SOL     OW27736   2.032   3.503   8.744 -0.1278 -0.2158  0.4590
 5425SOL    HW127737   2.047   3.565   8.815  1.5846 -1.5493  1.2884
 5425SOL    HW227738   1.949   3.531   8.708  0.0602  1.3679  1.2739
 5426SOL     OW27739   3.382   2.416  15.728 -0.2685 -0.0240  1.0164
 5426SOL    HW127740   3.413   2.341  15.677  1.8008  2.3698 -1.2631
 5426SOL    HW227741   3.434   2.486  15.689  0.8029 -2.1232 -1.3942
 5427SOL     OW27742   1.237   4.028   0.466  0.1095  0.0039 -0.2423
 5427SOL    HW127743   1.270   4.070   0.387  1.9950 -1.0932 -0.0406
 5427SOL    HW227744   1.279   3.942   0.465  0.2419  0.0563  0.5426
 5428SOL     OW27745   0.264   3.905  17.425 -0.7203  0.1089 -0.2586
 5428SOL    HW127746   0.222   3.900  17.511 -2.2033  2.5556 -0.8383
 5428SOL    HW227747   0.303   3.819  17.436 -2.4437 -0.8014 -1.2154
 5429SOL     OW27748   0.403   3.981   1.833  0.5074  0.2981  0.4349
 5429SOL    HW127749   0.383   4.074   1.825  0.0091  0.1210 -0.3739
 5429SOL    HW227750   0.446   3.973   1.748  1.8718  0.5139  1.1060
 5430SOL     OW27751   3.299   0.601   6.323 -1.0235  0.1488 -0.4388
 5430SOL    HW127752   3.326   0.639   6.407  2.5325 -1.6373 -0.7839
 5430SOL    HW227753   3.356   0.524   6.328  2.1798  2.5347 -0.6107
 5431SOL     OW27754   4.562   3.886   5.041  0.1700 -0.4219 -0.3317
 5431SOL    HW127755   4.646   3.870   5.083  0.7053  0.9503 -0.8734
 5431SOL    HW227756   4.508   3.872   5.118 -0.3920  1.0553 -0.4635
 5432SOL     OW27757   2.761   3.904   2.669 -0.1492 -0.6622  0.0907
 5432SOL    HW127758   2.721   3.864   2.592  0.4289 -0.1366 -0.4762
 5432SOL    HW227759   2.850   3.924   2.641 -0.8721 -0.0895 -1.7847
 5433SOL     OW27760   4.518   0.030   8.181 -0.4613 -0.0453 -0.4181
 5433SOL    HW127761   4.491   4.690   8.247 -1.4352  1.5885  0.7917
 5433SOL    HW227762   4.444   0.018   8.122  0.2539 -0.6318 -1.1815
 5434SOL     OW27763   3.806   0.264   8.885 -0.6172  0.2833 -0.0890
 5434SOL    HW127764   3.726   0.294   8.842 -1.2237 -1.3264 -0.0506
 5434SOL    HW227765   3.815   0.324   8.959  2.5349 -1.0343  0.5814
 5435SOL     OW27766   4.569   4.597   4.663 -0.1518  0.4610 -0.5473
 5435SOL    HW127767   4.661   4.614   4.642  0.0644  0.1990  0.1994
 5435SOL    HW227768   4.548   4.679   4.708  2.7897  1.5782 -1.2156
 5436SOL     OW27769   0.708   3.699  12.318  0.8138 -0.8786  0.4279
 5436SOL    HW127770   0.720   3.622  12.262 -1.0514 -1.2635  0.5594
 5436SOL    HW227771   0.625   3.675  12.358  0.5909  0.0475  0.5239
 5437SOL     OW27772   4.491   0.726  17.616 -0.8524 -0.2674  0.0942
 5437SOL    HW127773   4.532   0.773  17.544 -0.3771  0.6227  0.9513
 5437SOL    HW227774   4.559   0.675  17.659 -0.2271  0.3566 -0.1607
 5438SOL     OW27775   1.448   3.430  10.906  0.0962 -0.3673  0.2671
 5438SOL    HW127776   1.363   3.409  10.866  1.0119 -1.6213 -1.0328
 5438SOL    HW227777   1.440   3.393  10.994  0.6842 -0.5025  0.2615
 5439SOL     OW27778   1.385   3.184   1.810 -0.4973 -0.9102  0.2803
 5439SOL    HW127779   1.298   3.217   1.831 -0.7360 -0.6781 -1.0483
 5439SOL    HW227780   1.365   3.180   1.716  1.5130 -0.3237 -0.1552
 5440SOL     OW27781   4.067   0.546   7.811  0.4283 -0.0054  0.3613
 5440SOL    HW127782   4.038   0.631   7.778  2.0818  0.9808  1.4411
 5440SOL    HW227783   4.078   0.571   7.903  2.6846  2.4516 -0.5706
 5441SOL     OW27784   4.438   2.215   1.564  0.1490 -0.9164 -0.4567
 5441SOL    HW127785   4.450   2.125   1.595 -2.4585 -1.6623 -1.6430
 5441SOL    HW227786   4.522   2.254   1.592 -0.5684  1.2171 -1.2547
 5442SOL     OW27787   1.318   2.785  16.091  0.7628 -0.1853  0.0835
 5442SOL    HW127788   1.395   2.749  16.136  0.5158 -0.6429  0.1433
 5442SOL    HW227789   1.342   2.874  16.064 -2.8345 -0.2823 -3.2391
 5443SOL     OW27790   2.619   0.221   6.579  0.2177 -0.3006  0.3713
 5443SOL    HW127791   2.579   0.139   6.608  0.7003 -0.4936  0.4974
 5443SOL    HW227792   2.699   0.223   6.631  0.1876 -0.2717  0.4170
 5444SOL     OW27793   2.829   2.463  10.067 -0.2418 -0.1029  0.4953
 5444SOL    HW127794   2.874   2.378  10.068 -0.0496 -0.0106 -0.8009
 5444SOL    HW227795   2.789   2.462  10.154  1.7813 -0.0125  1.4341
 5445SOL     OW27796   0.678   1.252   6.262 -0.4544  0.3369  0.6137
 5445SOL    HW127797   0.629   1.238   6.181  0.4544 -2.0177  0.4989
 5445SOL    HW227798   0.606   1.299   6.304 -0.2947  2.1296 -1.1126
 5446SOL     OW27799   3.627   3.197  12.546  0.3513 -0.5887 -0.7937
 5446SOL    HW127800   3.716   3.164  12.537  1.3397  1.7185  0.6031
 5446SOL    HW227801   3.611   3.194  12.640  1.1683  2.1177 -0.5694
 5447SOL     OW27802   2.900   0.175  17.520 -0.3015 -0.8164  0.1478
 5447SOL    HW127803   2.987   0.201  17.491  0.1803 -0.8726  1.5510
 5447SOL    HW227804   2.894   0.096  17.466  3.8777 -1.4033  0.5929
 5448SOL     OW27805   1.635   2.291   7.224  0.3412 -0.4834 -0.4448
 5448SOL    HW127806   1.630   2.230   7.298  0.4549 -0.4747 -0.4295
 5448SOL    HW227807   1.637   2.374   7.271  1.4066 -0.3744 -0.6669
 5449SOL     OW27808   1.475   0.819   2.988  0.1014  0.6816  0.0409
 5449SOL    HW127809   1.471   0.744   3.049  0.1432 -1.5094 -2.6533
 5449SOL    HW227810   1.555   0.786   2.946 -1.9243 -2.0123 -1.6536
 5450SOL     OW27811   4.227   3.960   8.251 -0.1608  0.6099  0.1012
 5450SOL    HW127812   4.195   3.936   8.337  2.2180 -0.6437  0.6269
 5450SOL    HW227813   4.317   3.983   8.273 -0.3666  1.7804 -0.2533
 5451SOL     OW27814   2.266   3.301   6.399  0.4501 -0.2251 -0.3604
 5451SOL    HW127815   2.174   3.274   6.411  0.8324 -0.7085  1.5660
 5451SOL    HW227816   2.313   3.224   6.367  2.2358 -0.1641  2.1136
 5452SOL     OW27817   2.955   2.731   0.601  0.7439  0.5152 -0.1512
 5452SOL    HW127818   2.970   2.814   0.558 -3.2089  0.8816 -0.8603
 5452SOL    HW227819   2.866   2.717   0.567  1.0742  0.5057 -0.9935
 5453SOL     OW27820   2.855   3.034   1.304  0.5883 -0.1610  0.1040
 5453SOL    HW127821   2.770   3.025   1.261 -0.3871  2.7133  1.4756
 5453SOL    HW227822   2.860   2.948   1.347 -1.2912 -0.7516 -0.8562
 5454SOL     OW27823   3.004   2.348   5.839 -0.4631  0.0367 -0.0312
 5454SOL    HW127824   3.085   2.307   5.867 -0.4091 -0.1305 -0.4291
 5454SOL    HW227825   3.037   2.431   5.803 -0.5802 -0.0600 -0.3650
 5455SOL     OW27826   3.210   4.694   4.299 -0.0371  0.5574  0.2001
 5455SOL    HW127827   3.224   4.650   4.383  2.0172 -0.6503 -0.7768
 5455SOL    HW227828   3.171   4.622   4.249 -1.3375  0.0660  1.9274
 5456SOL     OW27829   1.454   4.175   4.915  0.4365  0.0371  0.9094
 5456SOL    HW127830   1.364   4.180   4.950 -0.2810 -0.6114 -0.8577
 5456SOL    HW227831   1.514   4.166   4.989  0.3093 -1.5661  0.8151
 5457SOL     OW27832   2.139   0.579   8.196  0.1701 -0.4344 -0.4513
 5457SOL    HW127833   2.087   0.509   8.156 -1.0865 -0.0394  0.4883
 5457SOL    HW227834   2.183   0.527   8.264  2.4091  1.3374 -0.5661
 5458SOL     OW27835   3.768   0.869  17.157  0.2420 -0.0361  0.2119
 5458SOL    HW127836   3.798   0.896  17.244 -0.4158  1.0803  0.0930
 5458SOL    HW227837   3.693   0.926  17.141 -0.0182 -0.8948 -1.5186
 5459SOL     OW27838   3.617   1.004  15.796 -0.5125 -0.2883 -0.0161
 5459SOL    HW127839   3.571   1.024  15.714 -0.9829 -2.6059 -0.3126
 5459SOL    HW227840   3.674   0.933  15.767 -0.4718 -0.7665  1.2381
 5460SOL     OW27841   4.633   2.069  15.681  0.3828  0.0988  0.0464
 5460SOL    HW127842   4.596   2.155  15.701 -0.2427 -0.3860  0.9649
 5460SOL    HW227843   4.713   2.080  15.733 -0.1832  0.7187  0.7871
 5461SOL     OW27844   2.374   0.243  10.710 -0.3860 -0.1309  0.0080
 5461SOL    HW127845   2.434   0.234  10.784  1.9845 -2.1346 -2.1066
 5461SOL    HW227846   2.294   0.264  10.757 -0.1684  3.7185 -1.3193
 5462SOL     OW27847   2.970   1.903   6.968  0.7097  0.2722 -0.5572
 5462SOL    HW127848   2.921   1.931   7.044  0.4187 -1.0973 -0.2351
 5462SOL    HW227849   3.033   1.850   7.017  0.9407  0.7768 -0.3209
 5463SOL     OW27850   2.662   1.290  11.278 -0.2390 -0.0164 -0.2638
 5463SOL    HW127851   2.739   1.243  11.245 -0.7475  0.1307 -1.6350
 5463SOL    HW227852   2.606   1.213  11.280  1.3156 -1.0947  1.6915
 5464SOL     OW27853   4.198   0.777   3.878 -0.3628  0.3774 -0.3847
 5464SOL    HW127854   4.107   0.779   3.846 -0.3297 -0.3131 -0.5242
 5464SOL    HW227855   4.189   0.729   3.960  2.1328  0.9289  0.2081
 5465SOL     OW27856   0.355   1.177   5.184 -0.1276 -0.5708  0.3919
 5465SOL    HW127857   0.391   1.101   5.137 -0.3639  0.3054 -1.2355
 5465SOL    HW227858   0.268   1.171   5.143 -0.7328  0.7254  1.4975
 5466SOL     OW27859   2.649   4.438  11.863  0.0821 -0.5149 -0.1649
 5466SOL    HW127860   2.733   4.445  11.909 -0.4736  0.0236  0.7583
 5466SOL    HW227861   2.588   4.410  11.930  0.5623 -0.1626  0.4289
 5467SOL     OW27862   1.400   3.325  14.267  0.4505  0.4018  0.2933
 5467SOL    HW127863   1.413   3.286  14.181  0.0607  1.3113 -0.1717
 5467SOL    HW227864   1.479   3.288  14.305  0.4476 -0.5312 -0.6166
 5468SOL     OW27865   0.961   0.121   2.755 -0.2437 -0.3993  0.2666
 5468SOL    HW127866   0.981   0.186   2.823 -1.4880 -1.1854  1.3629
 5468SOL    HW227867   0.929   0.185   2.691  0.0346 -0.3901  0.1354
 5469SOL     OW27868   4.517   4.054   6.195 -0.5254  0.4630 -0.8377
 5469SOL    HW127869   4.584   4.021   6.254 -2.5545  1.3620  2.0143
 5469SOL    HW227870   4.498   4.141   6.231 -0.5198  1.1124 -2.4092
 5470SOL     OW27871   1.032   0.456   8.974  0.8288  0.5050 -0.4473
 5470SOL    HW127872   1.065   0.543   8.951  1.2553  0.9414  1.8056
 5470SOL    HW227873   0.939   0.476   8.985  0.0534 -3.4985  0.0066
 5471SOL     OW27874   3.954   3.934  11.298 -0.0450 -0.7199 -0.3878
 5471SOL    HW127875   3.894   3.861  11.314  0.5629 -0.7027  1.9858
 5471SOL    HW227876   3.915   3.997  11.358 -1.5223  1.0405 -3.2213
 5472SOL     OW27877   2.642   4.109   6.464  0.1267 -0.3057 -0.6271
 5472SOL    HW127878   2.582   4.080   6.532  1.3317 -1.7077 -0.1548
 5472SOL    HW227879   2.723   4.075   6.503 -0.5796 -0.6809  0.5123
 5473SOL     OW27880   2.790   2.403   2.618  0.1091  0.3112  0.5831
 5473SOL    HW127881   2.712   2.455   2.635 -0.6015 -0.4039 -0.5082
 5473SOL    HW227882   2.822   2.441   2.536 -2.4798  0.5771 -0.2919
 5474SOL     OW27883   2.714   3.061   0.645 -0.4230 -0.5270 -0.1287
 5474SOL    HW127884   2.743   3.152   0.634  2.2866 -1.4011 -0.3557
 5474SOL    HW227885   2.766   3.010   0.583  0.2103 -0.9616  0.7722
 5475SOL     OW27886   1.497   3.337   4.396 -0.5204 -0.5413  0.3019
 5475SOL    HW127887   1.578   3.381   4.421 -0.2736 -0.9862  0.3008
 5475SOL    HW227888   1.451   3.414   4.363 -1.5998 -1.1132  0.4491
 5476SOL     OW27889   4.433   2.895   5.878 -0.1841 -0.3536  0.4227
 5476SOL    HW127890   4.521   2.858   5.872 -0.1055  0.0356 -0.9175
 5476SOL    HW227891   4.408   2.924   5.790  1.7715 -0.7236 -0.2494
 5477SOL     OW27892   0.397   0.212   2.105 -0.1803 -0.3074 -0.4224
 5477SOL    HW127893   0.451   0.154   2.159 -2.5677 -0.3065  1.9459
 5477SOL    HW227894   0.447   0.197   2.025  1.0410  0.2675  0.2210
 5478SOL     OW27895   0.147   4.013  14.868 -0.0164  0.4948  0.0621
 5478SOL    HW127896   0.224   4.069  14.875 -0.0000  0.8268 -2.8110
 5478SOL    HW227897   0.076   4.078  14.867 -1.4307 -1.0546 -1.2696
 5479SOL     OW27898   3.641   0.182  12.511 -0.1918  0.1225 -0.3183
 5479SOL    HW127899   3.661   0.106  12.566  0.3873  2.2556  2.4238
 5479SOL    HW227900   3.643   0.251  12.577  1.0148 -0.7304  0.5283
 5480SOL     OW27901   4.632   2.782  10.623 -0.2620 -0.1040  0.2069
 5480SOL    HW127902   4.637   2.877  10.638 -0.2911 -0.4140  2.1304
 5480SOL    HW227903   4.540   2.773  10.601 -0.5014  1.7220  0.4381
 5481SOL     OW27904   0.608   1.806  15.033 -0.3087  0.1208  0.8038
 5481SOL    HW127905   0.663   1.819  15.110  0.7727 -0.4262  0.1269
 5481SOL    HW227906   0.520   1.833  15.058 -0.7753 -1.2534  0.6501
 5482SOL     OW27907   1.171   4.289   4.238  0.7128 -0.3491 -0.0937
 5482SOL    HW127908   1.193   4.206   4.279  0.2156  0.1553  1.1714
 5482SOL    HW227909   1.181   4.267   4.145 -0.1377 -1.8751  0.1890
 5483SOL     OW27910   3.710   3.679   5.131  0.0985  0.1311  0.2993
 5483SOL    HW127911   3.694   3.660   5.224  0.9473  1.8841  0.7960
 5483SOL    HW227912   3.691   3.599   5.083  1.7286  1.1607 -2.0376
 5484SOL     OW27913   1.384   4.403  16.068  0.1497 -0.3254 -0.2480
 5484SOL    HW127914   1.475   4.427  16.084  0.0174 -0.3604  0.5171
 5484SOL    HW227915   1.394   4.308  16.062 -1.4232 -0.5116  0.2198
 5485SOL     OW27916   2.956   3.807   3.370 -0.4298 -0.3552  0.4584
 5485SOL    HW127917   2.923   3.717   3.369 -1.9128  0.1937  0.6389
 5485SOL    HW227918   2.941   3.831   3.279  0.7527  1.6675  0.8042
 5486SOL     OW27919   0.928   4.236   9.159 -0.2185 -0.3880 -0.2729
 5486SOL    HW127920   0.894   4.251   9.248  2.3179  1.6719  0.3389
 5486SOL    HW227921   0.887   4.318   9.131 -2.2968 -2.1277 -2.3821
 5487SOL     OW27922   1.982   4.594  15.909  0.4783 -0.0880 -0.1758
 5487SOL    HW127923   1.894   4.594  15.870 -0.6408  1.5749  2.3339
 5487SOL    HW227924   2.033   4.559  15.835 -3.5419 -0.4537 -2.7622
 5488SOL     OW27925   2.500   4.495   8.728 -0.3900 -0.2708 -0.3067
 5488SOL    HW127926   2.426   4.507   8.788  0.4146 -0.1802  0.6751
 5488SOL    HW227927   2.575   4.491   8.787 -1.9022  0.6657  1.7085
 5489SOL     OW27928   0.898   3.435   5.819  0.0695  0.1560 -0.1467
 5489SOL    HW127929   0.932   3.352   5.852 -0.3214 -0.0081 -0.1611
 5489SOL    HW227930   0.978   3.486   5.830  0.1322 -0.0880  0.5365
 5490SOL     OW27931   2.184   4.142   0.294  0.1447  0.3140  0.0028
 5490SOL    HW127932   2.114   4.079   0.278  0.0439  0.1254  1.1833
 5490SOL    HW227933   2.172   4.159   0.388  0.3449 -0.4330  0.1619
 5491SOL     OW27934   4.164   3.972   8.514 -0.0103 -0.1091  0.0172
 5491SOL    HW127935   4.138   3.977   8.606  1.0696 -0.2980  0.3379
 5491SOL    HW227936   4.085   4.015   8.482  2.0566  0.9645 -3.5752
 5492SOL     OW27937   0.518   0.419   5.412  0.1318  0.6130  0.0003
 5492SOL    HW127938   0.608   0.412   5.445 -0.4246  1.8629  1.7675
 5492SOL    HW227939   0.469   0.379   5.483 -1.1668 -0.7731 -1.6968
 5493SOL     OW27940   3.034   2.010   3.855 -0.0397  0.4341  0.2209
 5493SOL    HW127941   3.004   1.969   3.774  1.4502 -2.3254  1.0519
 5493SOL    HW227942   3.061   2.096   3.825 -1.4168  0.7181 -0.1895
 5494SOL     OW27943   4.559   0.216   1.125  0.1413 -0.1921  0.6116
 5494SOL    HW127944   4.491   0.256   1.071 -0.5070  0.5681  2.0030
 5494SOL    HW227945   4.511   0.182   1.201 -2.1023 -0.4774 -0.9036
 5495SOL     OW27946   1.593   2.921   3.631  1.2461  0.5299 -0.2772
 5495SOL    HW127947   1.530   2.989   3.606 -0.5728 -0.6050  1.2090
 5495SOL    HW227948   1.640   2.960   3.705 -0.4962  1.7676  0.1795
 5496SOL     OW27949   1.953   1.517   8.464  0.5550  0.7363  0.0001
 5496SOL    HW127950   1.885   1.464   8.422  0.2307  1.1001  0.0757
 5496SOL    HW227951   1.980   1.468   8.542  0.7161 -1.5738 -1.5020
 5497SOL     OW27952   3.333   2.945   8.232  0.1433 -0.0268 -0.4036
 5497SOL    HW127953   3.283   2.911   8.306  1.5169 -1.8662 -0.3280
 5497SOL    HW227954   3.256   2.982   8.189  0.3399 -3.1040 -3.4068
 5498SOL     OW27955   1.286   4.279   8.591 -0.0171 -0.3206 -0.2448
 5498SOL    HW127956   1.239   4.327   8.659 -0.6071 -1.3341  0.0610
 5498SOL    HW227957   1.324   4.201   8.630 -0.4800 -1.0608 -1.2762
 5499SOL     OW27958   2.568   2.301   6.676  1.0744 -0.1251  0.1872
 5499SOL    HW127959   2.477   2.280   6.695  1.4447 -2.4326 -0.5356
 5499SOL    HW227960   2.604   2.306   6.764  0.3983 -1.3484  0.5339
 5500SOL     OW27961   4.082   3.384   4.026 -0.0888  0.3119 -0.1158
 5500SOL    HW127962   3.991   3.356   4.027 -0.6832  2.4102  2.7182
 5500SOL    HW227963   4.076   3.460   3.968  0.6364 -1.2938 -2.3142
 5501SOL     OW27964   4.014   2.880  12.829  0.0277 -0.1270 -0.8948
 5501SOL    HW127965   3.923   2.850  12.836 -0.0057 -0.2103 -1.6647
 5501SOL    HW227966   4.015   2.905  12.736 -2.3069 -1.5087 -1.2846
 5502SOL     OW27967   0.323   2.714   4.910  0.4959  0.3652  0.0780
 5502SOL    HW127968   0.313   2.656   4.834 -0.4220 -3.4955  3.1173
 5502SOL    HW227969   0.263   2.786   4.892  1.1388  1.3616  1.9225
 5503SOL     OW27970   0.077   4.684   7.652  0.2695  0.4611 -0.5947
 5503SOL    HW127971   0.104   4.619   7.717  0.0797  1.5858  0.6193
 5503SOL    HW227972   0.052   0.028   7.715  0.0509  1.1278 -1.3964
 5504SOL     OW27973   1.486   0.741  15.687 -0.6178  0.1855 -0.2749
 5504SOL    HW127974   1.423   0.687  15.734 -2.3243  4.6714  2.5780
 5504SOL    HW227975   1.546   0.670  15.662  0.7897  0.8088  1.3409
 5505SOL     OW27976   3.208   0.048   0.906  0.0505  0.5243 -0.3164
 5505SOL    HW127977   3.223   0.027   0.998  0.0102  1.7175 -0.0450
 5505SOL    HW227978   3.130   0.103   0.904 -0.0343  0.4107 -0.0949
 5506SOL     OW27979   1.112   1.851   4.971  0.3438  0.3562 -0.3264
 5506SOL    HW127980   1.051   1.778   4.964  0.7971 -0.0588  0.0865
 5506SOL    HW227981   1.124   1.867   4.877 -0.2369  0.7780 -0.3311
 5507SOL     OW27982   2.840   0.753   2.884  0.3650  0.2833 -0.8192
 5507SOL    HW127983   2.763   0.806   2.902  1.9398  1.8460  1.3614
 5507SOL    HW227984   2.816   0.710   2.802  0.8094  2.3711 -2.0466
 5508SOL     OW27985   3.021   3.672  16.757 -0.1792 -0.3392  0.2184
 5508SOL    HW127986   2.999   3.603  16.694 -1.8377 -0.5296  1.0229
 5508SOL    HW227987   2.983   3.751  16.721  1.4276  0.4656  0.2828
 5509SOL     OW27988   0.725   0.865  11.035  0.1237  0.0221  0.1040
 5509SOL    HW127989   0.712   0.772  11.017 -0.2277 -0.1862  1.4525
 5509SOL    HW227990   0.678   0.866  11.118  1.2458 -0.5705  0.7398
 5510SOL     OW27991   2.762   0.030  16.558 -0.6554 -0.8236  0.5353
 5510SOL    HW127992   2.706   0.105  16.580 -0.9198 -0.1625 -2.3792
 5510SOL    HW227993   2.713   4.692  16.612 -2.8864  0.6478  0.2073
 5511SOL     OW27994   1.282   3.034   8.472 -0.4087  0.8217  0.1353
 5511SOL    HW127995   1.372   3.043   8.440 -0.3258  0.9175  0.3901
 5511SOL    HW227996   1.268   2.940   8.485  3.5966  0.1733 -0.2031
 5512SOL     OW27997   4.300   0.420   6.757 -0.5568  0.4850 -0.1584
 5512SOL    HW127998   4.316   0.514   6.770 -0.2684  0.6062 -1.3630
 5512SOL    HW227999   4.260   0.395   6.840  1.0240  0.2806  0.5577
 5513SOL     OW28000   3.098   3.857   8.197  0.1744 -0.3859  1.1273
 5513SOL    HW128001   3.159   3.930   8.206 -1.5601  1.4310 -2.0224
 5513SOL    HW228002   3.134   3.819   8.117  0.7615  0.3407  1.0490
 5514SOL     OW28003   3.374   0.421   1.559 -0.3498  0.8283  0.0369
 5514SOL    HW128004   3.404   0.435   1.469  0.2419 -1.1235 -0.0803
 5514SOL    HW228005   3.327   0.340   1.536 -0.3662  0.7493  0.3500
 5515SOL     OW28006   0.150   2.605   6.014  0.0824  0.5179 -0.4748
 5515SOL    HW128007   0.206   2.532   5.991 -1.2657 -0.5428 -0.4013
 5515SOL    HW228008   0.179   2.663   5.944 -1.9229 -0.6526 -2.2628
 5516SOL     OW28009   3.257   0.602   5.344 -0.0529  0.0035 -0.5021
 5516SOL    HW128010   3.296   0.552   5.272 -1.7356  0.5845 -1.8239
 5516SOL    HW228011   3.330   0.637   5.394 -0.1400 -0.5834  0.0386
 5517SOL     OW28012   2.428   3.887   5.272 -0.2565  0.2475  0.0870
 5517SOL    HW128013   2.445   3.822   5.340  0.0483 -0.2714 -0.4825
 5517SOL    HW228014   2.400   3.958   5.330 -1.9407 -0.6161  0.3075
 5518SOL     OW28015   0.101   1.668   8.673  0.4198 -0.2643 -0.7534
 5518SOL    HW128016   0.195   1.684   8.685  0.0753  0.2815  1.1173
 5518SOL    HW228017   0.075   1.654   8.764 -0.3440 -1.8252 -1.1997
 5519SOL     OW28018   2.373   3.332   1.831 -0.1304  0.0167  0.1838
 5519SOL    HW128019   2.279   3.322   1.845 -0.2886 -0.1579 -0.9722
 5519SOL    HW228020   2.374   3.284   1.748 -2.0557  0.6945 -0.2177
 5520SOL     OW28021   1.425   4.145  16.110  0.0093 -0.3794 -0.0951
 5520SOL    HW128022   1.374   4.066  16.131 -0.1253  0.4252  2.6339
 5520SOL    HW228023   1.448   4.113  16.023  2.3868 -1.8190  1.0756
 5521SOL     OW28024   1.723   2.540   2.711 -0.0334 -0.3374 -0.4105
 5521SOL    HW128025   1.800   2.582   2.748  0.2434 -0.0511 -1.3209
 5521SOL    HW228026   1.659   2.587   2.765  0.4431  0.3440 -0.4503
 5522SOL     OW28027   1.186   2.978   2.969 -0.5834  0.1019  0.5959
 5522SOL    HW128028   1.096   2.963   2.938  0.1734 -2.4884 -0.3640
 5522SOL    HW228029   1.176   2.981   3.064 -0.6787  2.6071  0.4985
 5523SOL     OW28030   4.093   2.677   5.058 -0.2548 -0.0103  0.2321
 5523SOL    HW128031   4.007   2.648   5.085  0.3086 -1.6084  0.2790
 5523SOL    HW228032   4.080   2.645   4.968  0.8217  2.0865 -0.6894
 5524SOL     OW28033   2.734   3.135  15.820  0.2896  0.6449 -0.1657
 5524SOL    HW128034   2.685   3.149  15.901 -2.1744 -0.5639 -1.4452
 5524SOL    HW228035   2.664   3.112  15.759  1.9116 -0.6701 -1.5237
 5525SOL     OW28036   4.159   1.479   3.872 -0.2386  0.0333  0.4171
 5525SOL    HW128037   4.181   1.451   3.783 -0.9817 -1.2602  0.6340
 5525SOL    HW228038   4.246   1.488   3.911 -0.2072  2.1505 -0.1598
 5526SOL     OW28039   1.985   2.916   2.897 -0.1179 -0.2112 -0.5869
 5526SOL    HW128040   1.962   2.823   2.890  1.3106 -0.5500 -0.7424
 5526SOL    HW228041   2.080   2.911   2.892 -0.1452  0.8237 -2.0461
 5527SOL     OW28042   0.019   3.268  13.654 -0.2688  0.2468 -0.1354
 5527SOL    HW128043   0.103   3.314  13.656  0.2216 -0.5438 -1.9180
 5527SOL    HW228044   4.686   3.343  13.636 -0.1829  0.3316 -0.0470
 5528SOL     OW28045   1.459   2.684   5.441 -0.0435 -0.1825 -0.4289
 5528SOL    HW128046   1.404   2.611   5.470 -0.4293  0.1069 -0.4301
 5528SOL    HW228047   1.548   2.653   5.456 -0.7655 -2.8916 -1.7284
 5529SOL     OW28048   1.865   4.496  16.437 -0.2814  0.4264 -0.1432
 5529SOL    HW128049   1.948   4.513  16.482  0.9955 -0.8582 -1.9693
 5529SOL    HW228050   1.811   4.564  16.477 -0.9527  0.8978 -1.8516
 5530SOL     OW28051   3.675   0.481   2.716  0.0480  0.2540  0.3398
 5530SOL    HW128052   3.755   0.445   2.755 -0.6116 -0.4355  1.0853
 5530SOL    HW228053   3.672   0.427   2.637 -0.5722 -0.8227  1.0972
 5531SOL     OW28054   3.611   3.095   1.790 -0.6282  0.4465 -0.0261
 5531SOL    HW128055   3.519   3.081   1.812 -1.1550  3.1155 -0.4903
 5531SOL    HW228056   3.645   3.113   1.878 -1.8273 -0.8025  0.6884
 5532SOL     OW28057   3.318   3.754   9.480 -0.1182 -0.1385 -1.0691
 5532SOL    HW128058   3.276   3.668   9.483 -0.5757  0.1263  0.4937
 5532SOL    HW228059   3.326   3.784   9.571 -1.1526  0.5157 -1.1970
 5533SOL     OW28060   1.453   1.205  11.591  0.0112 -0.0356  0.5310
 5533SOL    HW128061   1.464   1.293  11.556 -0.4167  0.1505  0.8709
 5533SOL    HW228062   1.449   1.157  11.508 -1.6246 -1.3690  1.3776
 5534SOL     OW28063   1.415   3.400   2.894  0.6624 -0.0697  0.1355
 5534SOL    HW128064   1.397   3.338   2.824 -1.4899  1.7851 -0.9558
 5534SOL    HW228065   1.333   3.450   2.900  0.1934 -0.7673 -0.4555
 5535SOL     OW28066   4.492   2.635   8.412 -0.2159 -0.1186 -0.2654
 5535SOL    HW128067   4.474   2.722   8.375  1.3858  1.3396  2.3038
 5535SOL    HW228068   4.432   2.631   8.487  0.0300  1.5607  0.0400
 5536SOL     OW28069   0.070   3.495   7.830  0.1020  0.0774 -0.0028
 5536SOL    HW128070   0.058   3.558   7.900  0.0952  2.1090 -1.8258
 5536SOL    HW228071   0.159   3.522   7.805  0.7658  1.7911  4.1610
 5537SOL     OW28072   1.422   4.456   7.485  0.3511  0.3836  0.4215
 5537SOL    HW128073   1.335   4.436   7.450  0.5897  0.6785 -0.3404
 5537SOL    HW228074   1.445   4.545   7.460  0.9499  0.2989  0.6626
 5538SOL     OW28075   2.750   3.236   4.192 -0.1843  0.8273  0.3349
 5538SOL    HW128076   2.833   3.252   4.147 -0.7528 -0.3183 -1.1419
 5538SOL    HW228077   2.734   3.323   4.228 -1.5854  0.1131  1.3960
 5539SOL     OW28078   3.634   1.352   5.971 -0.0961  0.0344 -0.3446
 5539SOL    HW128079   3.628   1.273   5.919  0.2261  0.0289 -0.3687
 5539SOL    HW228080   3.561   1.348   6.033  0.7566 -1.3422  0.5698
 5540SOL     OW28081   4.425   2.032   6.011  0.2618  0.6119  0.5200
 5540SOL    HW128082   4.516   2.051   6.032  0.7418 -0.5465 -0.5012
 5540SOL    HW228083   4.392   2.121   6.016  0.3616  0.9183 -3.6653
 5541SOL     OW28084   0.894   1.297   9.506  0.2108 -0.0844 -0.3982
 5541SOL    HW128085   0.875   1.207   9.535 -0.0507  0.8051  2.2281
 5541SOL    HW228086   0.965   1.325   9.564 -0.8561  0.4135  0.6642
 5542SOL     OW28087   3.327   0.264   2.868  0.7039  0.0777 -0.0999
 5542SOL    HW128088   3.308   0.353   2.899  1.3596  0.5283 -0.9924
 5542SOL    HW228089   3.356   0.234   2.954 -0.8800  0.3994  0.5455
 5543SOL     OW28090   0.836   3.993   4.380 -0.3902 -0.2018  0.1764
 5543SOL    HW128091   0.809   3.902   4.369  1.0993 -0.5712 -0.4047
 5543SOL    HW228092   0.903   3.984   4.447  1.4293  0.6143 -1.5287
 5544SOL     OW28093   3.550   2.376  10.011  0.2326 -0.2208  0.3503
 5544SOL    HW128094   3.558   2.468  10.038 -1.5888  0.6306 -1.9439
 5544SOL    HW228095   3.493   2.349  10.082  0.0908  0.9342  0.6724
 5545SOL     OW28096   3.902   2.666   6.598 -1.0871  0.1511 -0.6239
 5545SOL    HW128097   3.938   2.668   6.509 -2.8616  0.8282 -1.3390
 5545SOL    HW228098   3.885   2.760   6.606  1.7676  0.5549  0.6355
 5546SOL     OW28099   0.491   4.209   7.241 -0.2476  0.5482  0.7638
 5546SOL    HW128100   0.400   4.237   7.243 -1.6193 -3.8469  0.0379
 5546SOL    HW228101   0.504   4.154   7.318 -1.5532 -1.9461 -0.8037
 5547SOL     OW28102   2.499   2.998   6.738 -0.0349 -0.1039 -0.1738
 5547SOL    HW128103   2.547   3.080   6.743  1.7195 -1.2150  1.0601
 5547SOL    HW228104   2.469   2.995   6.829 -0.0503 -0.4999 -0.1881
 5548SOL     OW28105   3.158   4.085  13.639  0.5481 -0.6329  0.0792
 5548SOL    HW128106   3.086   4.022  13.639  3.4210 -3.9079 -2.0222
 5548SOL    HW228107   3.158   4.120  13.549 -2.2649 -0.1912  0.2386
 5549SOL     OW28108   0.662   1.013   3.745  0.6683  0.4135  0.0977
 5549SOL    HW128109   0.596   0.980   3.684  0.4556  0.2014  0.4463
 5549SOL    HW228110   0.699   1.076   3.683  0.2691 -1.3230 -1.9177
 5550SOL     OW28111   0.436   0.066   8.399 -0.4562  0.7794 -0.4639
 5550SOL    HW128112   0.387   4.717   8.361  0.1923 -0.3451  0.8243
 5550SOL    HW228113   0.471   0.107   8.321  0.3232  1.1747  0.0957
 5551SOL     OW28114   3.226   0.072   1.437 -0.2647  0.7304  0.0865
 5551SOL    HW128115   3.170   0.064   1.514  1.0965  0.9945  1.0869
 5551SOL    HW228116   3.272   4.711   1.440  0.8205  1.3806  1.5811
 5552SOL     OW28117   0.799   4.581   2.436  0.0332 -0.1505  0.2851
 5552SOL    HW128118   0.874   4.603   2.491 -0.3315  2.8045 -0.3645
 5552SOL    HW228119   0.822   4.489   2.426 -1.6548 -0.9399  3.8769
 5553SOL     OW28120   0.279   2.000   7.729 -0.2586  0.0593 -0.3189
 5553SOL    HW128121   0.229   1.999   7.810 -0.0809  1.9416 -0.1708
 5553SOL    HW228122   0.241   1.923   7.688 -0.6967  1.0134 -1.7432
 5554SOL     OW28123   0.043   2.038  15.443  0.3112  0.1928  0.3407
 5554SOL    HW128124   4.705   2.045  15.515 -0.0002  1.0655 -0.0163
 5554SOL    HW228125   0.004   2.091  15.374  1.5559  0.9517  0.2168
 5555SOL     OW28126   2.185   2.776   1.836  0.0691 -0.3044  0.1557
 5555SOL    HW128127   2.220   2.690   1.856 -1.1499 -0.4558  1.6363
 5555SOL    HW228128   2.186   2.779   1.741 -1.3925 -0.4920  0.1417
 5556SOL     OW28129   4.240   4.598   8.301 -0.1197 -0.2261 -0.1323
 5556SOL    HW128130   4.265   4.629   8.388  0.8366 -0.3154 -0.3805
 5556SOL    HW228131   4.145   4.613   8.300  0.1374  1.4467  1.4742
 5557SOL     OW28132   2.424   1.606   3.370  0.4563 -0.2433  0.1105
 5557SOL    HW128133   2.394   1.539   3.309  3.9458 -0.7651 -1.0104
 5557SOL    HW228134   2.479   1.550   3.426 -0.3250 -2.7063 -1.6174
 5558SOL     OW28135   4.609   0.714   6.357  0.1743  0.4155 -0.1576
 5558SOL    HW128136   4.704   0.716   6.365  0.3114  0.0415 -1.6106
 5558SOL    HW228137   4.595   0.641   6.417  1.0729 -0.5890 -1.1754
 5559SOL     OW28138   0.250   1.620   5.289  0.0682 -0.1876  0.0019
 5559SOL    HW128139   0.288   1.680   5.225  0.5677 -0.7659 -0.2424
 5559SOL    HW228140   0.288   1.534   5.274  0.1764 -0.0087 -0.7661
 5560SOL     OW28141   2.410   1.092  14.139 -0.4056  0.3372  0.0862
 5560SOL    HW128142   2.352   1.044  14.199 -0.1652  0.8446  0.7315
 5560SOL    HW228143   2.500   1.082  14.170 -0.1762 -1.0227 -1.0665
 5561SOL     OW28144   2.790   2.890   3.980  0.4458 -0.0940 -0.0990
 5561SOL    HW128145   2.812   2.887   3.887  0.3901  0.5710 -0.1360
 5561SOL    HW228146   2.880   2.878   4.012  0.5528 -0.0526 -0.3830
 5562SOL     OW28147   3.813   2.805   7.886 -0.1519 -0.4488  0.0663
 5562SOL    HW128148   3.821   2.792   7.791 -0.9036 -0.6917  0.0377
 5562SOL    HW228149   3.839   2.897   7.878  0.1562 -0.5413 -0.0226
 5563SOL     OW28150   2.971   3.469   9.626 -0.4328 -0.4241  0.4655
 5563SOL    HW128151   2.935   3.485   9.539  4.6316  2.6516 -1.0403
 5563SOL    HW228152   2.911   3.515   9.685  1.0528 -1.0015  2.3960
 5564SOL     OW28153   3.357   1.227   2.874 -0.0431 -0.1216 -0.6010
 5564SOL    HW128154   3.398   1.273   2.801  0.9990  0.5650  0.4124
 5564SOL    HW228155   3.298   1.173   2.821 -0.3335 -0.0519 -0.3512
 5565SOL     OW28156   2.464   2.469   8.804  0.2088 -0.4478 -0.1286
 5565SOL    HW128157   2.443   2.376   8.796  0.7754 -0.6842  1.1772
 5565SOL    HW228158   2.506   2.465   8.890  2.0447  0.6419 -0.9711
 5566SOL     OW28159   3.793   3.563  15.588 -0.3226  0.4514 -0.0324
 5566SOL    HW128160   3.802   3.591  15.679  0.1028 -2.5765  0.8759
 5566SOL    HW228161   3.865   3.502  15.572 -0.7319 -0.2990  0.9767
 5567SOL     OW28162   0.275   1.941  17.262 -0.0344  0.3052 -0.2097
 5567SOL    HW128163   0.260   2.026  17.302  0.7214 -0.3236  1.4058
 5567SOL    HW228164   0.205   1.893  17.306 -0.7761  1.6448  0.0398
 5568SOL     OW28165   1.290   1.657  10.658  0.7125 -0.0312 -0.3279
 5568SOL    HW128166   1.324   1.745  10.672 -0.8270  0.4692  0.1628
 5568SOL    HW228167   1.202   1.687  10.636  0.9267  0.0617 -1.0500
 5569SOL     OW28168   2.542   3.447  12.135  0.3780  0.3143 -0.3267
 5569SOL    HW128169   2.544   3.542  12.124  1.1303  0.2654 -0.5792
 5569SOL    HW228170   2.471   3.423  12.075 -1.7881  0.3024  2.2581
 5570SOL     OW28171   3.526   4.520   6.233  0.5737  0.6267 -0.3889
 5570SOL    HW128172   3.480   4.545   6.153  0.3126  1.9204  0.1643
 5570SOL    HW228173   3.444   4.517   6.282 -0.2292  1.2454 -1.6882
 5571SOL     OW28174   2.786   0.965  10.575 -0.1908 -0.0451  0.3868
 5571SOL    HW128175   2.830   0.884  10.549  0.9160  0.9931 -1.0030
 5571SOL    HW228176   2.741   0.923  10.648 -1.3629 -0.3676 -0.5336
 5572SOL     OW28177   2.662   3.117   1.871 -0.8294  0.4407 -0.1232
 5572SOL    HW128178   2.620   3.062   1.937  0.5754 -2.6029 -1.7409
 5572SOL    HW228179   2.613   3.080   1.797  0.7369 -0.3893 -0.7489
 5573SOL     OW28180   4.121   1.492   8.390 -0.4020 -0.1249  0.3373
 5573SOL    HW128181   4.041   1.528   8.352  0.8653  0.8032 -1.4598
 5573SOL    HW228182   4.161   1.436   8.323  0.7689  1.4472 -0.2894
 5574SOL     OW28183   0.532   1.868   6.561  0.1087 -0.5085 -0.0327
 5574SOL    HW128184   0.610   1.884   6.613 -0.5842  1.7470  0.3041
 5574SOL    HW228185   0.565   1.868   6.471 -0.1172  1.4115 -0.1066
 5575SOL     OW28186   2.945   0.467   7.513  0.0024 -0.1653 -0.1930
 5575SOL    HW128187   2.852   0.492   7.506  0.1249  0.5193  0.5694
 5575SOL    HW228188   2.952   0.450   7.607 -2.4827  1.6703  0.3648
 5576SOL     OW28189   0.484   2.092   5.364 -0.6082 -0.0185  0.0426
 5576SOL    HW128190   0.514   2.015   5.314 -0.8460 -0.8752  1.2258
 5576SOL    HW228191   0.569   2.137   5.370  0.6205 -1.9925 -2.2437
 5577SOL     OW28192   1.799   3.536   6.755 -0.1810 -0.1431 -0.2323
 5577SOL    HW128193   1.798   3.542   6.851  0.1101  3.3207 -0.4571
 5577SOL    HW228194   1.883   3.578   6.737 -0.5528  0.3642 -0.7442
 5578SOL     OW28195   4.373   1.137   1.936  0.7639  0.0598  0.4390
 5578SOL    HW128196   4.353   1.223   1.973  0.4342 -0.6998  2.0038
 5578SOL    HW228197   4.295   1.120   1.883  0.0932  3.2185  0.4377
 5579SOL     OW28198   2.750   2.812   2.155  0.0510 -0.4606  0.0216
 5579SOL    HW128199   2.762   2.773   2.241 -2.8686  1.5319  1.3437
 5579SOL    HW228200   2.835   2.800   2.111  1.2413  1.9888  1.6363
 5580SOL     OW28201   4.179   0.066   6.944  0.5917 -0.1827 -0.2969
 5580SOL    HW128202   4.273   0.086   6.932  0.4038  1.0199  0.2383
 5580SOL    HW228203   4.174   4.696   6.930 -1.4596 -0.4091  2.0668
 5581SOL     OW28204   1.791   0.407   0.501  0.1592 -0.1782 -0.2374
 5581SOL    HW128205   1.702   0.411   0.468  0.2052  0.3509 -0.2979
 5581SOL    HW228206   1.803   0.317   0.471 -3.8544 -0.4280 -1.0875
 5582SOL     OW28207   2.082   0.079   8.468  0.3270 -0.7655  0.0473
 5582SOL    HW128208   2.138   0.154   8.447 -0.4279  0.0196  0.8339
 5582SOL    HW228209   2.072   0.037   8.383 -0.4581  0.1182 -0.2919
 5583SOL     OW28210   1.135   2.775  15.866 -0.1072  0.4799 -0.3047
 5583SOL    HW128211   1.066   2.832  15.898  0.3170 -0.0123  1.4454
 5583SOL    HW228212   1.195   2.776  15.941  0.8129 -3.1700 -0.9970
 5584SOL     OW28213   2.491   3.725  11.088  0.2452 -0.2086  0.3721
 5584SOL    HW128214   2.437   3.791  11.044 -1.4685 -1.9263 -0.1112
 5584SOL    HW228215   2.515   3.670  11.014 -1.7103  1.9553 -1.8643
 5585SOL     OW28216   1.064   0.394   4.040 -0.0422  0.1201 -0.1982
 5585SOL    HW128217   0.973   0.397   4.068 -0.3982 -2.1657 -1.0793
 5585SOL    HW228218   1.055   0.456   3.967  0.9076  1.5172  0.8909
 5586SOL     OW28219   0.559   3.231   7.972  0.1931  0.6275 -0.1111
 5586SOL    HW128220   0.534   3.144   7.940  0.4155  1.1055 -1.5912
 5586SOL    HW228221   0.589   3.279   7.894 -1.2601 -2.7761 -2.7650
 5587SOL     OW28222   0.485   2.908   3.548  0.1357  0.0691 -0.3116
 5587SOL    HW128223   0.557   2.969   3.565  0.7592 -1.4926  2.6377
 5587SOL    HW228224   0.413   2.959   3.511 -1.6206 -2.0738  0.1998
 5588SOL     OW28225   1.031   1.826   0.090 -0.0197 -0.1140 -0.0027
 5588SOL    HW128226   0.989   1.826   0.004 -0.9685 -1.9330  0.4607
 5588SOL    HW228227   0.996   1.908   0.123  1.4274 -0.6052  2.6816
 5589SOL     OW28228   1.293   2.755   9.362 -0.8567 -0.5268 -0.1711
 5589SOL    HW128229   1.201   2.742   9.383 -0.5336 -0.9368  0.9741
 5589SOL    HW228230   1.312   2.825   9.424  0.4095 -0.9445 -0.0936
 5590SOL     OW28231   3.314   4.494   2.590 -0.1003 -0.1167 -0.1422
 5590SOL    HW128232   3.316   4.401   2.564  0.5116  0.2893 -1.5485
 5590SOL    HW228233   3.254   4.525   2.522 -1.8828 -2.0664  0.5324
 5591SOL     OW28234   1.252   1.170  15.551  1.0056 -0.4421  0.0074
 5591SOL    HW128235   1.335   1.154  15.597 -1.5710 -2.2613  3.9861
 5591SOL    HW228236   1.275   1.137  15.465 -1.2239 -1.1342 -0.2898
 5592SOL     OW28237   3.748   0.652   7.109  0.2159  0.0147  0.3237
 5592SOL    HW128238   3.796   0.589   7.163 -0.2597 -0.0075  0.7211
 5592SOL    HW228239   3.803   0.663   7.032 -2.7072 -0.5377 -1.8203
 5593SOL     OW28240   2.432   3.648   6.914  0.2068 -0.7542 -1.1833
 5593SOL    HW128241   2.451   3.619   7.004 -0.8537 -0.1529 -0.7798
 5593SOL    HW228242   2.433   3.562   6.871  0.3471 -0.8280 -1.0356
 5594SOL     OW28243   4.085   0.045  10.802 -0.4118 -0.6365 -0.1880
 5594SOL    HW128244   4.178   0.031  10.782 -0.2464 -0.6673  0.6059
 5594SOL    HW228245   4.079   4.682  10.843 -0.8616 -0.3307  0.4043
 5595SOL     OW28246   4.527   0.006   8.768  0.6167  0.6618  0.5094
 5595SOL    HW128247   4.578   4.666   8.818 -0.0893 -0.0928  0.2696
 5595SOL    HW228248   4.454   0.012   8.831 -1.2580 -0.2893 -1.5834
 5596SOL     OW28249   2.520   3.064  10.048  0.0128 -0.2659  0.0972
 5596SOL    HW128250   2.496   3.141  10.100 -2.4847 -0.9355 -0.0328
 5596SOL    HW228251   2.613   3.063  10.071 -0.0013 -1.9170  0.1328
 5597SOL     OW28252   4.149   2.589   2.381  0.8163  0.1526  0.0588
 5597SOL    HW128253   4.067   2.632   2.407  0.4241 -0.8552  0.4766
 5597SOL    HW228254   4.214   2.659   2.372 -0.2988  1.4229  1.9007
 5598SOL     OW28255   0.265   4.020   1.170 -0.2684 -0.0063  0.4588
 5598SOL    HW128256   0.279   3.972   1.252  0.9457  0.1920  0.3604
 5598SOL    HW228257   0.320   3.960   1.120 -0.9488 -1.8299  1.9068
 5599SOL     OW28258   0.200   1.344  14.674 -0.0021 -0.0761 -0.5286
 5599SOL    HW128259   0.152   1.270  14.712 -0.6366  0.5464 -0.1267
 5599SOL    HW228260   0.270   1.359  14.739 -0.8059 -2.6367  0.9529
 5600SOL     OW28261   2.911   3.427  12.682 -0.1629  0.0098  0.4794
 5600SOL    HW128262   2.896   3.456  12.593  1.5109  1.0014  0.5193
 5600SOL    HW228263   3.000   3.461  12.696  0.2850 -1.0876  0.3223
 5601SOL     OW28264   1.548   4.342   8.323  0.3102 -0.5539  0.9171
 5601SOL    HW128265   1.582   4.281   8.258 -1.0082  3.1172 -3.2036
 5601SOL    HW228266   1.504   4.403   8.263  3.2261 -1.9553 -2.6213
 5602SOL     OW28267   3.936   0.401   2.849 -0.1571  0.5154  0.3770
 5602SOL    HW128268   3.961   0.492   2.866  2.0403 -0.0442  0.1484
 5602SOL    HW228269   3.902   0.382   2.936  0.9940  0.4002  0.7979
 5603SOL     OW28270   3.519   0.198   8.973  0.0695  0.2059 -0.1329
 5603SOL    HW128271   3.591   0.229   9.028 -0.9772 -2.6286  2.8764
 5603SOL    HW228272   3.468   0.148   9.038 -0.7950 -1.2660 -1.9505
 5604SOL     OW28273   0.776   0.584   2.607 -0.9506 -0.2869 -0.4677
 5604SOL    HW128274   0.841   0.650   2.582  1.0715 -2.3408 -0.6579
 5604SOL    HW228275   0.724   0.581   2.527 -0.0464  0.0664 -1.0733
 5605SOL     OW28276   1.925   0.485   2.300 -0.2726  0.3081 -0.4719
 5605SOL    HW128277   2.010   0.467   2.260  0.1772  2.2320 -0.4272
 5605SOL    HW228278   1.888   0.398   2.310  1.2399 -0.1197  1.3805
 5606SOL     OW28279   0.229   2.187   5.363  0.1939 -0.3861 -0.5693
 5606SOL    HW128280   0.317   2.149   5.362  0.3274 -0.0722 -0.8092
 5606SOL    HW228281   0.228   2.223   5.274 -0.2805 -2.0068 -1.2199
 5607SOL     OW28282   1.319   0.179   2.993 -0.2685 -0.0493  0.0296
 5607SOL    HW128283   1.282   0.253   3.041  1.6450  0.5021  0.6541
 5607SOL    HW228284   1.332   0.210   2.904 -0.6606 -1.6334 -0.5846
 5608SOL     OW28285   3.169   1.938   2.466  0.0705 -0.2315 -0.5144
 5608SOL    HW128286   3.147   1.986   2.546 -2.4407 -1.2311 -0.5954
 5608SOL    HW228287   3.197   2.012   2.412  2.1944  0.7465  1.9271
 5609SOL     OW28288   3.066   1.581  12.239 -0.5010  0.1072 -0.0165
 5609SOL    HW128289   2.989   1.527  12.256 -0.2367  0.0106  0.9035
 5609SOL    HW228290   3.091   1.588  12.332  2.5170 -1.9666 -0.6763
 5610SOL     OW28291   1.781   3.031   8.706  0.1201  0.8136 -0.5814
 5610SOL    HW128292   1.861   3.082   8.697  1.0805 -0.2558  2.0700
 5610SOL    HW228293   1.722   3.102   8.680  1.1514  1.6847 -0.5007
 5611SOL     OW28294   3.283   1.906  15.484 -0.2868  0.8601 -1.1180
 5611SOL    HW128295   3.187   1.905  15.486 -0.2541  0.6865  0.3443
 5611SOL    HW228296   3.316   1.903  15.394  0.0331  2.9785 -1.0631
 5612SOL     OW28297   3.600   2.242   2.187  0.0118  0.2078  0.2630
 5612SOL    HW128298   3.531   2.256   2.122 -0.9602  0.0626  1.2695
 5612SOL    HW228299   3.672   2.225   2.125 -0.0059  0.6761  0.1151
 5613SOL     OW28300   2.443   4.693   7.941  0.7144  0.0530 -0.7248
 5613SOL    HW128301   2.490   0.021   7.875  1.8243  1.9260  1.5589
 5613SOL    HW228302   2.430   4.614   7.889  1.2668  1.1645 -2.5549
 5614SOL     OW28303   0.855   3.441   5.552 -0.1381  0.0815  0.3417
 5614SOL    HW128304   0.820   3.401   5.632 -0.9305 -0.0463 -0.0746
 5614SOL    HW228305   0.949   3.427   5.569 -0.1330  0.0926  0.3223
 5615SOL     OW28306   4.534   1.349  15.873 -0.0889 -0.1995 -0.3092
 5615SOL    HW128307   4.492   1.414  15.817 -0.2119  0.0093  0.0203
 5615SOL    HW228308   4.479   1.360  15.951 -1.9303 -3.3975 -1.1742
 5616SOL     OW28309   0.171   2.400   5.547 -0.6093 -0.2529 -0.6716
 5616SOL    HW128310   0.121   2.431   5.471 -2.8731 -0.5625  0.6936
 5616SOL    HW228311   0.239   2.354   5.498 -0.3320 -0.5271 -0.0194
 5617SOL     OW28312   0.261   4.486  17.573 -0.0852 -0.2028 -0.3941
 5617SOL    HW128313   0.228   4.520  17.656  1.3345  0.1089  0.0530
 5617SOL    HW228314   0.259   4.393  17.598 -0.2830 -0.2157 -0.4642
 5618SOL     OW28315   4.143   4.431   2.435 -0.2016  0.2076 -0.0851
 5618SOL    HW128316   4.078   4.369   2.469  1.0249 -1.4099 -0.7369
 5618SOL    HW228317   4.085   4.507   2.431  1.0250  0.9998 -2.5178
 5619SOL     OW28318   4.045   1.849  11.879 -0.4747 -0.5369 -0.6331
 5619SOL    HW128319   4.042   1.884  11.790 -2.0375 -0.6442 -0.6322
 5619SOL    HW228320   4.136   1.819  11.877  0.0022  1.0528 -3.6926
 5620SOL     OW28321   2.692   0.719   7.950  0.1489  0.4078 -0.6347
 5620SOL    HW128322   2.641   0.678   7.880 -2.2562 -0.4867  1.6456
 5620SOL    HW228323   2.778   0.683   7.929  0.2915 -0.3808  1.3320
 5621SOL     OW28324   1.258   1.885   7.454 -0.2511  0.3783  0.0184
 5621SOL    HW128325   1.179   1.832   7.462  0.5758 -0.9486 -0.6931
 5621SOL    HW228326   1.256   1.916   7.364  0.8240 -0.4219 -0.2816
 5622SOL     OW28327   0.658   4.341  14.763  0.9962  0.0588  0.4803
 5622SOL    HW128328   0.646   4.289  14.684  0.2986 -0.0687  0.6746
 5622SOL    HW228329   0.666   4.286  14.840  1.8268  0.6231  0.7987
 5623SOL     OW28330   2.583   3.012   7.461  0.1136 -0.7923  0.1074
 5623SOL    HW128331   2.488   3.023   7.463  0.4650  2.1704 -0.1842
 5623SOL    HW228332   2.615   3.099   7.439 -2.1105  0.3619  1.4509
 5624SOL     OW28333   0.995   3.324   9.265  0.6028 -0.2451  0.0485
 5624SOL    HW128334   0.973   3.250   9.322  0.0562  0.0631  0.2465
 5624SOL    HW228335   1.060   3.386   9.297  0.5754 -1.0537  1.6783
 5625SOL     OW28336   1.817   1.763   9.849 -0.0542 -0.2714 -0.3481
 5625SOL    HW128337   1.907   1.753   9.882 -0.2558  0.3523  0.3923
 5625SOL    HW228338   1.762   1.718   9.913 -0.7431  0.9977 -0.0548
 5626SOL     OW28339   2.833   2.992   8.852  0.0261  0.9832  0.0685
 5626SOL    HW128340   2.818   3.022   8.763 -2.3778 -0.8830 -0.1876
 5626SOL    HW228341   2.906   3.051   8.866  1.6554 -1.1135  0.4612
 5627SOL     OW28342   0.774   2.559   7.251  0.5355 -0.2234 -0.0678
 5627SOL    HW128343   0.866   2.577   7.268  0.4411 -0.0150  0.2303
 5627SOL    HW228344   0.750   2.559   7.344  0.9300 -1.4690  0.0341
 5628SOL     OW28345   4.048   1.064   1.379 -0.3360 -0.2495  0.1443
 5628SOL    HW128346   4.000   1.017   1.311 -1.0006 -0.5477  0.8167
 5628SOL    HW228347   4.138   1.047   1.350 -0.5975  0.1655 -0.8689
 5629SOL     OW28348   4.209   0.203   4.957 -0.1456 -0.1948  0.3094
 5629SOL    HW128349   4.299   0.199   4.988  0.4035 -1.3697 -1.3971
 5629SOL    HW228350   4.193   0.297   4.953 -0.5273 -0.2381  0.8241
 5630SOL     OW28351   2.540   4.209   7.152 -0.4907 -0.0411  0.3682
 5630SOL    HW128352   2.498   4.263   7.084 -0.3764  0.2982  0.5642
 5630SOL    HW228353   2.622   4.177   7.116  0.3291  1.3628  0.9733
 5631SOL     OW28354   3.818   4.273   5.786 -0.2667 -0.0530  0.1216
 5631SOL    HW128355   3.757   4.254   5.858  0.2909 -0.6825  0.4341
 5631SOL    HW228356   3.891   4.220   5.818 -2.4081 -3.4163 -0.5535
 5632SOL     OW28357   2.276   0.444   6.245 -0.2423  0.1463 -0.3349
 5632SOL    HW128358   2.262   0.536   6.269  0.8909  0.4981 -1.0159
 5632SOL    HW228359   2.345   0.417   6.306 -0.1671 -0.8888 -0.8859
 5633SOL     OW28360   3.152   4.096   4.850  0.3752  0.0942  0.0331
 5633SOL    HW128361   3.188   4.009   4.870  0.4737  0.3167  0.8198
 5633SOL    HW228362   3.119   4.074   4.763  0.0869 -1.0525  0.4313
 5634SOL     OW28363   3.934   2.558   5.972 -0.1396  0.2844  0.4780
 5634SOL    HW128364   3.961   2.630   5.915  1.5022 -0.6192  0.1178
 5634SOL    HW228365   4.014   2.553   6.023  1.2661 -1.7492 -1.9330
 5635SOL     OW28366   4.451   0.386   4.286 -0.4353  0.1478  0.1828
 5635SOL    HW128367   4.410   0.401   4.371 -1.4343  0.9506 -0.4303
 5635SOL    HW228368   4.414   0.454   4.228  0.1334  1.0758  0.9047
 5636SOL     OW28369   0.920   4.362   9.567  0.4133  0.5291  0.0558
 5636SOL    HW128370   0.887   4.364   9.657 -2.7157 -0.3903 -1.0828
 5636SOL    HW228371   1.014   4.371   9.585  0.1827  0.5432  1.3075
 5637SOL     OW28372   2.010   2.909   3.624 -0.5789  0.2221  0.0372
 5637SOL    HW128373   1.954   2.831   3.623  2.6311 -2.1151  0.7776
 5637SOL    HW228374   2.074   2.889   3.693  0.1462  0.4103 -0.5840
 5638SOL     OW28375   1.262   2.616   3.376 -0.5918 -0.3383  0.3484
 5638SOL    HW128376   1.195   2.548   3.371 -1.3012  0.5426 -1.8205
 5638SOL    HW228377   1.327   2.587   3.311 -0.6140  0.6419 -0.1022
 5639SOL     OW28378   3.335   0.640   7.682 -0.3326 -0.3124  0.4533
 5639SOL    HW128379   3.298   0.692   7.611  2.7571  0.2128 -0.7614
 5639SOL    HW228380   3.398   0.581   7.641 -2.2363 -0.2707 -2.4787
 5640SOL     OW28381   3.346   1.258   6.676 -0.1991 -0.2001  0.1665
 5640SOL    HW128382   3.410   1.200   6.717  0.5187  1.6691  1.7011
 5640SOL    HW228383   3.279   1.256   6.744 -0.5570  0.4319 -0.1618
 5641SOL     OW28384   3.076   0.324   7.010  0.4897  0.2197 -0.2147
 5641SOL    HW128385   2.981   0.330   7.002  0.5577  1.7440  0.2240
 5641SOL    HW228386   3.103   0.381   7.082  1.2625 -0.9433  0.4177
 5642SOL     OW28387   0.844   2.983   4.193  0.2747 -0.3104  0.1783
 5642SOL    HW128388   0.933   2.949   4.200  0.2009 -0.8279 -1.2899
 5642SOL    HW228389   0.799   2.919   4.247 -2.8612  2.1684  0.4745
 5643SOL     OW28390   2.651   4.150   1.463  0.3872 -0.6943 -0.5247
 5643SOL    HW128391   2.645   4.226   1.404 -1.9579 -2.4155 -2.4926
 5643SOL    HW228392   2.575   4.096   1.443 -0.7199  0.2693  1.0488
 5644SOL     OW28393   1.920   2.372   3.409 -0.7299  0.3585  0.5349
 5644SOL    HW128394   1.844   2.422   3.378 -1.1580 -1.7352 -1.7677
 5644SOL    HW228395   1.927   2.314   3.334 -0.0645  0.9295  0.1506
 5645SOL     OW28396   0.875   4.131   8.887  0.0375  0.3914 -0.2050
 5645SOL    HW128397   0.928   4.064   8.931  0.0895 -1.3619 -2.9317
 5645SOL    HW228398   0.876   4.201   8.952 -0.3889  0.0611  0.1501
 5646SOL     OW28399   3.556   2.714   6.679  0.3180 -0.7931  0.0230
 5646SOL    HW128400   3.464   2.688   6.679 -0.0662  0.6019  1.9301
 5646SOL    HW228401   3.574   2.736   6.587 -1.1890 -1.3998 -0.4216
 5647SOL     OW28402   4.536   0.775   8.727 -1.2783  0.4318 -0.4304
 5647SOL    HW128403   4.532   0.870   8.719  0.9583  0.6945  1.8282
 5647SOL    HW228404   4.491   0.768   8.811 -0.8392  0.7978 -0.1638
 5648SOL     OW28405   0.045   3.133   4.052  0.4594 -0.4836  0.1104
 5648SOL    HW128406   0.005   3.157   4.135  2.3588  0.1845  0.8134
 5648SOL    HW228407   4.691   3.157   4.000  1.2554 -2.6263 -2.0840
 5649SOL     OW28408   4.132   4.586   2.841 -0.0088 -0.0609  0.2776
 5649SOL    HW128409   4.058   4.628   2.796 -0.8379  0.3012  2.0109
 5649SOL    HW228410   4.154   4.665   2.890  0.8427  1.4089 -2.4726
 5650SOL     OW28411   4.028   4.004   7.861  0.0683 -0.0301  0.0304
 5650SOL    HW128412   3.948   3.975   7.815  0.0528  0.3771 -0.2015
 5650SOL    HW228413   4.043   3.920   7.903  1.2393  0.4666  0.5889
 5651SOL     OW28414   0.049   4.094   5.955  1.0307  0.5110 -0.2069
 5651SOL    HW128415   4.701   4.069   6.013  0.3150 -1.4507 -1.9513
 5651SOL    HW228416   0.062   4.186   5.980 -0.6888  0.6282  0.2563
 5652SOL     OW28417   3.367   3.066   4.531  0.6411 -1.0147  0.2570
 5652SOL    HW128418   3.450   3.065   4.484  1.1489 -0.5108  1.1408
 5652SOL    HW228419   3.395   3.100   4.616  1.1023 -0.2866 -0.1880
 5653SOL     OW28420   1.290   1.349   5.516 -0.0944  0.0573 -0.6225
 5653SOL    HW128421   1.346   1.273   5.502  0.8851  0.7574 -0.4517
 5653SOL    HW228422   1.354   1.419   5.513 -1.0508  0.9022 -1.4052
 5654SOL     OW28423   0.557   1.290   7.952 -0.1704 -0.3308  0.0585
 5654SOL    HW128424   0.574   1.254   8.039  0.2782 -0.8678 -0.2491
 5654SOL    HW228425   0.559   1.206   7.906 -0.9442 -0.8265  0.9443
 5655SOL     OW28426   4.161   1.307   6.481  0.2673 -0.3473  0.0195
 5655SOL    HW128427   4.089   1.276   6.536  1.4537 -2.0821  0.5879
 5655SOL    HW228428   4.214   1.349   6.548  0.5792  0.7069 -0.8817
 5656SOL     OW28429   1.966   1.589   5.223  0.1644 -0.1992  0.6526
 5656SOL    HW128430   1.899   1.657   5.234  1.5971  1.5650 -1.4696
 5656SOL    HW228431   2.028   1.605   5.294  3.4560  1.4669 -2.5969
 5657SOL     OW28432   2.748   2.257  12.262  0.2419 -0.0939 -0.3462
 5657SOL    HW128433   2.735   2.348  12.288 -0.8524 -0.1717 -0.6213
 5657SOL    HW228434   2.816   2.278  12.198 -0.5064 -1.8788 -1.7151
 5658SOL     OW28435   0.369   3.994   8.134 -0.0076  0.4957  0.0032
 5658SOL    HW128436   0.391   4.075   8.088 -0.3568 -0.0861 -1.2088
 5658SOL    HW228437   0.343   4.028   8.219  1.1862  1.3763  0.0126
 5659SOL     OW28438   1.115   4.072   9.381 -0.2243 -1.0076 -0.1972
 5659SOL    HW128439   1.135   4.165   9.375  0.6433 -1.0588  1.7741
 5659SOL    HW228440   1.047   4.074   9.314  2.3737  0.6197 -2.8128
 5660SOL     OW28441   3.110   4.026  12.812  0.3355 -0.1517  0.0728
 5660SOL    HW128442   3.119   3.954  12.751  0.4783 -0.0094 -0.0753
 5660SOL    HW228443   3.049   3.990  12.877 -1.0663 -0.4700 -1.4251
 5661SOL     OW28444   2.647   0.626   7.234 -0.1609  0.1432 -0.2325
 5661SOL    HW128445   2.611   0.689   7.171 -1.6785 -0.5501 -0.0515
 5661SOL    HW228446   2.727   0.674   7.255 -0.0668  0.3507 -1.0597
 5662SOL     OW28447   3.659   4.615   0.815  0.0906 -0.5167  0.3325
 5662SOL    HW128448   3.711   4.565   0.753 -0.7572  1.6746 -2.1331
 5662SOL    HW228449   3.615   4.541   0.857 -2.0977  0.9928  0.7015
 5663SOL     OW28450   0.456   1.625   6.719  0.2828 -0.0652 -0.3373
 5663SOL    HW128451   0.489   1.706   6.679 -1.3110  1.1627  0.8572
 5663SOL    HW228452   0.363   1.647   6.710  0.0443 -0.7835  0.4118
 5664SOL     OW28453   0.455   0.886   2.445  0.4482 -0.3477  0.0826
 5664SOL    HW128454   0.374   0.840   2.467 -0.0021 -0.2564 -1.3929
 5664SOL    HW228455   0.456   0.957   2.509  1.5550 -1.7667  1.6509
 5665SOL     OW28456   2.186   1.171   9.512 -0.1493 -0.1274 -0.1965
 5665SOL    HW128457   2.152   1.197   9.597 -1.2960  0.1972 -0.7577
 5665SOL    HW228458   2.118   1.214   9.461 -0.8745 -3.2551 -1.9055
 5666SOL     OW28459   2.374   0.407   5.969 -0.0773 -0.0637 -0.0668
 5666SOL    HW128460   2.352   0.436   6.057 -0.8537 -1.6032  0.2413
 5666SOL    HW228461   2.371   0.311   5.978 -1.1653  0.0514  0.8059
 5667SOL     OW28462   1.080   2.539   0.936 -0.2393 -0.0055 -0.8179
 5667SOL    HW128463   1.175   2.550   0.929 -0.0514 -2.5009 -2.3045
 5667SOL    HW228464   1.068   2.469   1.000  2.9463 -0.8091 -1.0885
 5668SOL     OW28465   0.106   4.025   3.935  0.7715  0.2740 -0.1795
 5668SOL    HW128466   0.123   3.945   3.985 -0.3046 -1.2754 -2.3171
 5668SOL    HW228467   0.165   4.083   3.983  1.4624 -0.3738 -0.2458
 5669SOL     OW28468   2.191   1.962  13.586 -0.0488  0.1993 -0.6080
 5669SOL    HW128469   2.133   1.995  13.654  0.2404  1.4057 -0.9366
 5669SOL    HW228470   2.256   2.033  13.582 -1.1091  1.3327  2.3061
 5670SOL     OW28471   3.026   0.793  14.247 -0.3122  0.4873  0.1614
 5670SOL    HW128472   2.971   0.734  14.196  1.8477 -1.1289 -0.3394
 5670SOL    HW228473   3.098   0.733  14.266 -0.7122  0.3953  1.3781
 5671SOL     OW28474   1.768   0.883   6.125  0.3468  0.3455 -0.1880
 5671SOL    HW128475   1.828   0.867   6.051  1.8899  1.0548  0.9150
 5671SOL    HW228476   1.811   0.855   6.205 -1.1591  2.3006  1.3040
 5672SOL     OW28477   2.562   0.023   2.705 -0.5310  0.1397 -0.7921
 5672SOL    HW128478   2.567   0.113   2.673 -0.7039 -0.6877 -3.1561
 5672SOL    HW228479   2.467   0.033   2.716 -0.0157  1.7223  1.9952
 5673SOL     OW28480   2.530   3.823   4.269 -0.0933  0.5397  0.4041
 5673SOL    HW128481   2.566   3.759   4.207 -1.6653  2.1510 -2.1625
 5673SOL    HW228482   2.507   3.887   4.202 -2.7631 -1.2762 -0.4518
 5674SOL     OW28483   3.115   2.764   1.282 -0.6269 -0.0052 -0.1094
 5674SOL    HW128484   3.090   2.700   1.216  0.4725  0.7649 -1.2621
 5674SOL    HW228485   3.039   2.772   1.340  0.6872  1.2847  1.4377
 5675SOL     OW28486   3.219   1.887   9.989  0.6216 -0.3392 -0.0412
 5675SOL    HW128487   3.296   1.941   9.973  0.5204  0.2676  1.5721
 5675SOL    HW228488   3.216   1.828   9.914  0.8421 -0.7664  0.2919
 5676SOL     OW28489   2.941   0.987   8.076  0.0406  0.0694 -0.3901
 5676SOL    HW128490   2.940   0.990   8.171 -0.9934  0.5822 -0.4198
 5676SOL    HW228491   2.848   0.986   8.055  0.4292 -0.9750 -2.1307
 5677SOL     OW28492   3.235   0.690  17.006 -0.3140 -0.3489  0.1768
 5677SOL    HW128493   3.188   0.760  16.961  3.2139  2.3211  0.6589
 5677SOL    HW228494   3.268   0.742  17.079 -1.4076  0.0547  0.3953
 5678SOL     OW28495   1.406   2.406   4.467 -0.0542 -0.2189 -0.3315
 5678SOL    HW128496   1.320   2.412   4.507 -0.2923  0.2034 -0.9024
 5678SOL    HW228497   1.450   2.352   4.532 -0.9789 -0.0058  0.4727
 5679SOL     OW28498   0.801   3.401   8.594 -0.0241  0.1182 -0.3959
 5679SOL    HW128499   0.885   3.401   8.639 -0.6767  0.8249  0.8149
 5679SOL    HW228500   0.827   3.358   8.512  3.8552 -0.4560  1.1064
 5680SOL     OW28501   0.568   2.279   2.140 -0.0853 -0.5446  0.3126
 5680SOL    HW128502   0.476   2.250   2.138  0.3627 -1.6844 -3.8978
 5680SOL    HW228503   0.555   2.353   2.201 -0.0081 -1.4433  1.4158
 5681SOL     OW28504   4.692   0.978   6.046 -0.9485 -0.0275 -0.8122
 5681SOL    HW128505   4.649   0.894   6.058 -0.7808  0.0083  0.0159
 5681SOL    HW228506   4.626   1.021   5.992 -1.9818  0.0781  0.5450
 5682SOL     OW28507   1.346   0.814  13.151 -0.4742  0.0588  0.3770
 5682SOL    HW128508   1.379   0.724  13.152  1.0662  0.5764 -3.6689
 5682SOL    HW228509   1.352   0.841  13.060 -0.0549  1.1164  0.7281
 5683SOL     OW28510   4.404   4.159  13.928 -0.2362  0.1094 -0.2590
 5683SOL    HW128511   4.403   4.122  14.016 -0.6832 -2.7114 -1.4222
 5683SOL    HW228512   4.315   4.176  13.899  0.8193  3.7381 -1.3268
 5684SOL     OW28513   2.547   3.625   6.173 -0.2657 -0.2020  0.1552
 5684SOL    HW128514   2.469   3.651   6.125 -1.9927 -1.3198  2.3920
 5684SOL    HW228515   2.588   3.711   6.186  0.6896 -0.8821  1.6720
 5685SOL     OW28516   4.272   2.370  15.784 -0.0314  0.3328  0.3425
 5685SOL    HW128517   4.239   2.339  15.699 -0.5898  0.7553  0.4022
 5685SOL    HW228518   4.202   2.428  15.815 -0.1345  0.1503  0.4481
 5686SOL     OW28519   4.629   0.817  15.409  0.6186 -0.5486  0.1313
 5686SOL    HW128520   4.547   0.769  15.428  0.8161 -0.8050  0.3459
 5686SOL    HW228521   4.681   0.805  15.489  2.0918  1.1904 -0.5713
 5687SOL     OW28522   1.389   4.158  12.185 -0.2145  0.1259 -0.0443
 5687SOL    HW128523   1.295   4.145  12.178 -0.1165  0.1129 -1.2190
 5687SOL    HW228524   1.396   4.244  12.228 -0.6179  0.2398 -0.2105
 5688SOL     OW28525   1.780   2.528   3.769  0.2213  0.1829 -0.3188
 5688SOL    HW128526   1.795   2.567   3.683 -0.4355  2.5675  0.6767
 5688SOL    HW228527   1.865   2.484   3.775 -0.3412 -1.0600 -1.1859
 5689SOL     OW28528   3.784   2.287   5.239 -0.0278 -0.0187  0.3510
 5689SOL    HW128529   3.738   2.301   5.322 -0.4825 -1.8829  0.4164
 5689SOL    HW228530   3.729   2.331   5.174  0.2832  0.1484  0.2007
 5690SOL     OW28531   2.474   1.022   4.117  0.5858  0.3069 -0.1861
 5690SOL    HW128532   2.486   1.086   4.048 -0.0414 -0.1663 -0.7341
 5690SOL    HW228533   2.388   0.984   4.099  0.0805  1.5907 -0.4776
 5691SOL     OW28534   2.892   0.813   4.202 -0.2147 -0.9416 -0.2008
 5691SOL    HW128535   2.897   0.892   4.255  2.9348 -0.0488 -1.8474
 5691SOL    HW228536   2.797   0.798   4.205 -0.2198 -0.9626 -0.4420
 5692SOL     OW28537   0.108   2.175   2.831 -0.8889  0.3352  0.1445
 5692SOL    HW128538   0.144   2.101   2.881 -0.5050  0.6790  0.3814
 5692SOL    HW228539   0.107   2.141   2.741 -0.1245  3.4251 -1.0340
 5693SOL     OW28540   4.080   1.152   0.735 -0.4945  0.0950  0.3281
 5693SOL    HW128541   4.062   1.197   0.818 -4.4850  1.6678 -1.4219
 5693SOL    HW228542   4.173   1.136   0.752 -0.4404  0.5054  0.4122
 5694SOL     OW28543   4.583   3.901   0.166  0.2118 -1.0570  0.6508
 5694SOL    HW128544   4.498   3.860   0.185 -0.9087 -0.3616 -2.8453
 5694SOL    HW228545   4.568   3.931   0.076  0.7021  0.3302  1.0303
 5695SOL     OW28546   0.947   1.612   6.071 -0.0908 -0.2342 -0.2588
 5695SOL    HW128547   1.034   1.578   6.095  0.0043 -1.6251 -2.5455
 5695SOL    HW228548   0.970   1.655   5.989 -0.1547 -1.0547 -0.7086
 5696SOL     OW28549   2.928   1.516   4.196  0.0605 -0.1942 -0.3900
 5696SOL    HW128550   3.019   1.544   4.184  0.7545 -0.5972  3.8274
 5696SOL    HW228551   2.882   1.578   4.140  1.0114 -0.4671 -1.4636
 5697SOL     OW28552   0.922   2.458  15.963  0.3988 -0.6018 -0.0245
 5697SOL    HW128553   0.956   2.479  15.876 -1.3535 -0.5719 -0.6954
 5697SOL    HW228554   0.987   2.507  16.014 -2.0289 -1.3172  3.7953
 5698SOL     OW28555   2.914   4.396  16.033 -0.0163 -0.0552 -0.0119
 5698SOL    HW128556   2.883   4.387  15.943  0.3354 -1.8725  0.0465
 5698SOL    HW228557   2.939   4.306  16.057 -2.0157 -0.4382  0.6560
 5699SOL     OW28558   4.146   2.592   4.770  0.0082  0.4191 -0.2414
 5699SOL    HW128559   4.146   2.505   4.810 -3.2808  0.7485  0.4125
 5699SOL    HW228560   4.200   2.573   4.693 -0.0745 -1.2228  0.1054
 5700SOL     OW28561   1.038   1.044  15.128  0.2167 -0.1098  0.0578
 5700SOL    HW128562   0.961   1.045  15.072  0.8653 -1.0108 -0.8483
 5700SOL    HW228563   1.045   0.949  15.140  1.3774  0.2163  1.9134
 5701SOL     OW28564   3.735   3.310   1.376  0.2440  0.1651 -0.0220
 5701SOL    HW128565   3.678   3.316   1.453  1.4268 -1.6127  1.0112
 5701SOL    HW228566   3.755   3.399   1.348 -0.6988  1.0020  1.9235
 5702SOL     OW28567   3.820   3.923  10.879  0.2508  0.0360  0.3768
 5702SOL    HW128568   3.847   4.001  10.831 -1.2242  0.8397  0.8681
 5702SOL    HW228569   3.902   3.890  10.914 -0.2434  0.0709  1.5654
 5703SOL     OW28570   1.520   3.962   6.078 -0.2904  0.3274  0.1392
 5703SOL    HW128571   1.513   3.968   5.982 -0.1965 -0.5380  0.0816
 5703SOL    HW228572   1.426   3.964   6.096 -0.7134 -0.9386 -1.8337
 5704SOL     OW28573   1.932   4.666   8.663  0.3438  0.8994  0.0961
 5704SOL    HW128574   1.981   4.705   8.590  1.1061 -3.6866 -1.8613
 5704SOL    HW228575   1.936   0.015   8.725  1.2622  1.0317 -0.1157
 5705SOL     OW28576   1.735   3.382   3.256  0.1572  0.7378 -0.0526
 5705SOL    HW128577   1.664   3.404   3.196  0.4104  2.1861  0.1891
 5705SOL    HW228578   1.805   3.358   3.195  0.8961  1.3051  0.5673
 5706SOL     OW28579   0.747   0.329  13.189  0.1076  0.3565  0.0504
 5706SOL    HW128580   0.715   0.389  13.121 -3.1267 -0.8002  0.5378
 5706SOL    HW228581   0.783   0.387  13.256  1.7145 -2.0077  1.2480
 5707SOL     OW28582   0.684   3.190   1.485  0.2584 -0.1947  0.3256
 5707SOL    HW128583   0.612   3.220   1.430  0.2825  1.6581  1.2913
 5707SOL    HW228584   0.749   3.233   1.430 -0.4363 -0.5024 -0.7376
 5708SOL     OW28585   0.809   0.066   0.979 -0.2140 -0.5932  0.2879
 5708SOL    HW128586   0.728   0.027   1.012  0.1810 -0.6542  1.1956
 5708SOL    HW228587   0.780   0.157   0.991  1.2476 -0.1537  0.5317
 5709SOL     OW28588   0.716   2.232  17.692 -0.5541  0.5371 -0.1791
 5709SOL    HW128589   0.727   2.291  17.618 -1.8703 -0.5087 -1.2137
 5709SOL    HW228590   0.621   2.225  17.681 -0.7471  1.3602  0.9152
 5710SOL     OW28591   0.547   4.576   3.308  0.3861  0.7858  0.5316
 5710SOL    HW128592   0.591   4.498   3.274  0.6740 -0.3064  3.4656
 5710SOL    HW228593   0.458   4.542   3.302  0.5082  0.3714  1.0925
 5711SOL     OW28594   1.045   4.528   9.168 -0.2219 -0.5320  0.4019
 5711SOL    HW128595   1.134   4.526   9.131 -0.4031 -0.9150 -0.0155
 5711SOL    HW228596   1.079   4.580   9.241  0.0307  0.1328 -0.1779
 5712SOL     OW28597   3.173   0.634   8.756 -0.5086 -0.8617  0.2057
 5712SOL    HW128598   3.112   0.605   8.824  1.1377 -0.4500  1.8281
 5712SOL    HW228599   3.256   0.660   8.795  0.9072 -2.8796 -1.4664
 5713SOL     OW28600   3.094   2.553   6.819  0.2379  0.1625  0.1755
 5713SOL    HW128601   3.014   2.605   6.820  1.2290  1.7026 -0.2360
 5713SOL    HW228602   3.053   2.467   6.813 -0.2379  0.2749  1.7073
 5714SOL     OW28603   3.411   3.433   5.894 -0.0937 -0.5876 -0.2691
 5714SOL    HW128604   3.441   3.520   5.867  1.0302 -0.4729  1.3890
 5714SOL    HW228605   3.329   3.446   5.847  0.5025 -1.2330 -1.5048
 5715SOL     OW28606   1.170   0.413   7.493  0.4199 -0.2458  0.9376
 5715SOL    HW128607   1.195   0.450   7.578  4.0254  1.0633 -0.6882
 5715SOL    HW228608   1.103   0.474   7.463  0.3375 -1.4299 -1.2342
 5716SOL     OW28609   3.272   2.067   2.901  0.1742 -0.3387  0.3916
 5716SOL    HW128610   3.351   2.022   2.872 -0.6779 -0.2571 -1.9872
 5716SOL    HW228611   3.284   2.065   2.996 -0.1610 -2.7236  0.3725
 5717SOL     OW28612   4.318   2.144  11.988 -0.4163 -0.2852 -0.0958
 5717SOL    HW128613   4.300   2.094  11.909 -2.0820 -0.8007  0.6004
 5717SOL    HW228614   4.400   2.108  12.022  1.3434  0.6294 -3.3644
 5718SOL     OW28615   4.248   2.777   1.525  0.2464  0.4090  0.3779
 5718SOL    HW128616   4.254   2.688   1.489  2.2238  0.3611  0.8503
 5718SOL    HW228617   4.290   2.829   1.457  0.3801  2.0574  1.7465
 5719SOL     OW28618   1.152   2.406   5.875  0.4830  0.0893 -0.0968
 5719SOL    HW128619   1.172   2.318   5.842  0.9168 -0.3888  1.4449
 5719SOL    HW228620   1.070   2.428   5.832  0.4909  0.0319 -0.1410
 5720SOL     OW28621   0.361   2.178   8.685 -0.1179 -0.4435 -0.4409
 5720SOL    HW128622   0.439   2.232   8.701  0.3519 -1.1516 -0.3482
 5720SOL    HW228623   0.328   2.221   8.606 -2.2753  0.0242  0.7085
 5721SOL     OW28624   4.541   0.663   3.323  0.2773  0.6529 -0.0292
 5721SOL    HW128625   4.511   0.640   3.235  1.5539  2.2442 -0.8750
 5721SOL    HW228626   4.632   0.683   3.299  0.7087 -2.1486 -0.7514
 5722SOL     OW28627   2.538   1.164   3.914  0.2821  0.2217  0.2106
 5722SOL    HW128628   2.618   1.123   3.880  0.0493  0.4664 -0.6516
 5722SOL    HW228629   2.504   1.222   3.845  2.0927  1.7634  0.6124
 5723SOL     OW28630   1.238   2.034   5.294  0.8127 -0.1215 -0.3521
 5723SOL    HW128631   1.277   2.117   5.265  0.0489 -0.4413 -2.3016
 5723SOL    HW228632   1.311   1.975   5.276  1.1930  0.5620 -1.0745
 5724SOL     OW28633   1.622   1.493   6.815  0.0959  0.1226  0.0495
 5724SOL    HW128634   1.636   1.561   6.749 -2.8477  0.8038  0.0987
 5724SOL    HW228635   1.534   1.462   6.793 -0.4184  2.1952 -0.8700
 5725SOL     OW28636   2.150   0.412   7.291  0.2302  0.1877 -0.3268
 5725SOL    HW128637   2.090   0.337   7.281 -1.2374  1.4972 -1.2396
 5725SOL    HW228638   2.100   0.485   7.254 -1.3318 -0.4871  0.4337
 5726SOL     OW28639   2.046   1.376   8.685  0.0701 -0.1793  0.4329
 5726SOL    HW128640   2.065   1.284   8.704 -1.2820 -1.0111 -2.2696
 5726SOL    HW228641   2.136   1.407   8.682 -0.7954  1.9605 -2.8756
 5727SOL     OW28642   0.639   4.232   5.129 -0.2870  0.3489 -0.3276
 5727SOL    HW128643   0.610   4.193   5.047  0.3655  1.4796 -1.0935
 5727SOL    HW228644   0.644   4.324   5.105  1.0004  0.6131  0.9056
 5728SOL     OW28645   0.103   4.262   4.162  0.1182  0.5129  0.6536
 5728SOL    HW128646   0.188   4.220   4.167 -0.6529 -1.1888 -0.5063
 5728SOL    HW228647   0.049   4.183   4.169 -2.9610  2.5582 -0.0497
 5729SOL     OW28648   0.379   4.335  14.513  0.0969  0.5752 -0.2801
 5729SOL    HW128649   0.321   4.365  14.443  0.7743 -0.8952 -1.4923
 5729SOL    HW228650   0.321   4.288  14.574  1.4217 -1.0296 -0.2373
 5730SOL     OW28651   1.311   1.421   9.148  0.2883 -0.1896  0.4922
 5730SOL    HW128652   1.260   1.501   9.159  0.4387 -0.2167  1.4114
 5730SOL    HW228653   1.238   1.358   9.147 -0.2457  0.4480 -0.2055
 5731SOL     OW28654   3.275   3.668   7.673  0.0516 -0.1351 -0.1253
 5731SOL    HW128655   3.286   3.637   7.763 -1.4890  3.5740  1.3271
 5731SOL    HW228656   3.361   3.672   7.630 -0.7887 -0.5215 -1.8430
 5732SOL     OW28657   3.736   1.993   5.707 -0.0569 -0.1468 -0.1648
 5732SOL    HW128658   3.787   2.048   5.648 -0.9492 -0.3270 -1.0956
 5732SOL    HW228659   3.773   1.909   5.680  0.2929 -0.3714  0.9816
 5733SOL     OW28660   2.925   0.974   4.675  0.3949  0.2304 -0.0992
 5733SOL    HW128661   3.001   1.031   4.664 -0.0979  1.1829  1.4674
 5733SOL    HW228662   2.872   1.027   4.734 -1.2052 -0.4665 -0.9272
 5734SOL     OW28663   0.517   1.655   4.945 -0.1043 -0.1806  0.1042
 5734SOL    HW128664   0.478   1.600   4.877  0.4474 -1.4198  0.8088
 5734SOL    HW228665   0.597   1.607   4.964  0.7586  0.7764 -1.1071
 5735SOL     OW28666   0.383   1.712   8.758 -0.1967 -0.1394 -0.1569
 5735SOL    HW128667   0.351   1.773   8.824 -1.2313 -1.2460  0.3628
 5735SOL    HW228668   0.398   1.773   8.686 -0.7194  0.5380  0.3185
 5736SOL     OW28669   0.795   4.390   1.059  0.2120  0.1926  0.5460
 5736SOL    HW128670   0.833   4.449   1.124  0.5970  1.4506 -0.8410
 5736SOL    HW228671   0.855   4.397   0.985  1.7479 -1.9001  1.5728
 5737SOL     OW28672   4.565   1.389   6.527  0.3864  0.3164 -0.3534
 5737SOL    HW128673   4.657   1.412   6.510  1.2180 -2.5575  0.3190
 5737SOL    HW228674   4.532   1.385   6.437 -2.1947 -1.8518  0.6943
 5738SOL     OW28675   3.987   4.432   1.814 -0.3745 -0.3979 -0.3167
 5738SOL    HW128676   4.003   4.523   1.840 -2.4401 -0.0015 -0.4139
 5738SOL    HW228677   3.954   4.391   1.894 -2.4269  1.0859 -0.4042
 5739SOL     OW28678   3.916   2.907   7.025 -0.2554 -0.1080 -0.8730
 5739SOL    HW128679   3.840   2.903   6.967 -0.2121 -0.8784 -0.8705
 5739SOL    HW228680   3.930   2.816   7.049 -2.2974  0.6087  3.0195
 5740SOL     OW28681   0.713   3.833   3.533  0.2463 -0.1490 -0.0887
 5740SOL    HW128682   0.774   3.854   3.604 -1.3947  1.6537  0.7890
 5740SOL    HW228683   0.640   3.893   3.546 -0.5684 -1.2031  0.1398
 5741SOL     OW28684   1.585   2.013   3.887 -1.0914  0.4418 -0.0530
 5741SOL    HW128685   1.596   2.093   3.938  3.0596 -1.8269  2.5618
 5741SOL    HW228686   1.551   1.951   3.952 -1.4369  1.2396  0.5158
 5742SOL     OW28687   2.444   2.964   7.853  0.3455 -0.0601  0.1310
 5742SOL    HW128688   2.450   3.059   7.863  0.7175 -0.0876  0.1767
 5742SOL    HW228689   2.367   2.940   7.904  0.9411 -3.6905 -0.6331
 5743SOL     OW28690   2.729   3.936   9.202  0.0114  0.9876  0.0630
 5743SOL    HW128691   2.669   4.004   9.172 -0.2985  0.2724 -0.9058
 5743SOL    HW228692   2.677   3.863   9.236  1.2107  0.6563  1.1737
 5744SOL     OW28693   1.411   3.375   5.522  0.1408  0.5080 -0.1443
 5744SOL    HW128694   1.452   3.369   5.436 -0.8076  1.7057 -0.6706
 5744SOL    HW228695   1.474   3.426   5.573 -0.5128  3.7469 -2.6495
 5745SOL     OW28696   1.682   4.013   8.833 -0.1185  0.2322 -0.0612
 5745SOL    HW128697   1.634   3.931   8.841  0.0073  0.2704  1.2028
 5745SOL    HW228698   1.737   4.013   8.912  0.1090 -0.7989 -0.2198
 5746SOL     OW28699   3.640   0.897   3.697  0.4287  0.1854 -0.4490
 5746SOL    HW128700   3.598   0.867   3.617  2.5939 -0.1640 -1.4409
 5746SOL    HW228701   3.567   0.951   3.729  0.7564  1.4765 -1.9224
 5747SOL     OW28702   4.011   3.154   5.594  0.0245 -0.5010  0.2636
 5747SOL    HW128703   3.934   3.207   5.613  0.3169 -0.3674  1.0547
 5747SOL    HW228704   4.056   3.203   5.525 -0.1176  0.0937  0.5967
 5748SOL     OW28705   1.108   0.612   4.283 -0.2793  0.3935  0.5813
 5748SOL    HW128706   1.170   0.577   4.219 -1.3583 -0.1637 -0.1747
 5748SOL    HW228707   1.030   0.635   4.231 -1.0356  0.9508  1.9500
 5749SOL     OW28708   4.722   3.168   6.257 -0.1482 -0.0031 -0.5264
 5749SOL    HW128709   0.042   3.253   6.260  1.3136 -0.6647 -3.6899
 5749SOL    HW228710   4.638   3.207   6.231  0.1906  1.4685  0.5608
 5750SOL     OW28711   4.243   3.278   7.109  0.0876  0.4912 -0.1196
 5750SOL    HW128712   4.194   3.297   7.189 -1.8674  2.9900 -1.9002
 5750SOL    HW228713   4.230   3.185   7.092  1.8914  0.4105 -0.9964
 5751SOL     OW28714   0.609   2.571   2.735 -0.1850  0.0672  0.5507
 5751SOL    HW128715   0.597   2.665   2.749  3.6540  0.7453 -0.5697
 5751SOL    HW228716   0.516   2.548   2.729 -0.2002 -0.1332  1.5648
 5752SOL     OW28717   3.532   2.539  10.746 -0.2403  0.5213  0.7801
 5752SOL    HW128718   3.505   2.595  10.672 -2.6512 -1.6210  0.0348
 5752SOL    HW228719   3.505   2.450  10.724 -0.1067  0.1401  2.1635
 5753SOL     OW28720   4.023   4.189   1.417 -0.1790 -0.1371 -0.4048
 5753SOL    HW128721   4.077   4.255   1.460  0.9436  0.1583 -2.2781
 5753SOL    HW228722   3.945   4.180   1.473 -0.8051 -0.1160 -1.2830
 5754SOL     OW28723   2.567   2.138   9.778 -0.3676  0.2991 -0.0547
 5754SOL    HW128724   2.602   2.074   9.715  1.8929  1.3253  0.1645
 5754SOL    HW228725   2.578   2.221   9.731 -2.3885  1.0852  0.8331
 5755SOL     OW28726   2.885   3.094   7.851 -0.6103  0.5074  0.2963
 5755SOL    HW128727   2.895   3.174   7.903 -0.4347 -0.0776  1.1644
 5755SOL    HW228728   2.939   3.032   7.898 -0.6102 -2.3376 -3.4553
 5756SOL     OW28729   2.485   3.976  10.674 -0.6613  0.3674 -0.0806
 5756SOL    HW128730   2.454   3.898  10.629  0.9811  0.0480 -0.6336
 5756SOL    HW228731   2.506   4.032  10.600 -0.9562  2.0429  1.0928
 5757SOL     OW28732   1.780   0.574  12.222  0.3267  0.1901 -0.3419
 5757SOL    HW128733   1.829   0.499  12.257 -0.2035  0.3046  0.6356
 5757SOL    HW228734   1.766   0.545  12.132  1.8157 -0.6813 -0.3087
 5758SOL     OW28735   2.052   1.884   4.972 -0.1066  0.2860  0.0470
 5758SOL    HW128736   1.965   1.852   4.994  0.9569 -1.6018  1.5128
 5758SOL    HW228737   2.090   1.800   4.946 -0.1556 -0.0386  1.0228
 5759SOL     OW28738   3.562   2.822   9.670  0.2886  0.5118  0.9471
 5759SOL    HW128739   3.523   2.745   9.711  0.2008  0.1461  0.1738
 5759SOL    HW228740   3.517   2.892   9.718  0.3024 -0.2272  2.0248
 5760SOL     OW28741   0.739   1.842  14.364 -0.9486 -0.1993  0.0310
 5760SOL    HW128742   0.736   1.778  14.293 -1.2127  2.1359 -2.0669
 5760SOL    HW228743   0.675   1.813  14.429 -0.5928  1.3124  1.0549
 5761SOL     OW28744   3.376   0.171   5.157  0.6396 -0.5483 -0.5628
 5761SOL    HW128745   3.450   0.134   5.109  0.8057 -3.6156  2.0094
 5761SOL    HW228746   3.306   0.112   5.127 -1.2759  1.9000 -0.9115
 5762SOL     OW28747   0.008   3.266   2.246 -0.0473  0.2841  0.2491
 5762SOL    HW128748   4.652   3.220   2.275  0.3332 -0.9155 -0.6060
 5762SOL    HW228749   4.705   3.295   2.159 -0.3653 -2.2808 -0.5152
 5763SOL     OW28750   1.650   1.437   8.702  0.4966  0.0984  0.2251
 5763SOL    HW128751   1.683   1.524   8.726  0.5892 -0.0513  0.6419
 5763SOL    HW228752   1.591   1.455   8.629 -0.6244 -0.4006  1.0027
 5764SOL     OW28753   3.041   3.364   6.189 -0.2281 -0.6803 -0.7154
 5764SOL    HW128754   3.043   3.423   6.265  0.8535  0.5878 -1.7183
 5764SOL    HW228755   3.015   3.427   6.121 -0.5704  2.1260  1.9942
 5765SOL     OW28756   1.296   0.162   0.099 -0.5538 -0.2315 -0.0531
 5765SOL    HW128757   1.355   0.100   0.058  0.7596  1.1495 -0.2339
 5765SOL    HW228758   1.304   0.146   0.193 -0.2304 -2.1209 -0.4056
 5766SOL     OW28759   2.668   2.967  10.307 -0.1749  0.7291  0.1003
 5766SOL    HW128760   2.672   2.871  10.306 -0.5823  0.7090 -0.0342
 5766SOL    HW228761   2.743   2.990  10.252  0.5348  0.0009  0.7777
 5767SOL     OW28762   1.718   4.353   0.872  0.5119 -0.6306  0.0753
 5767SOL    HW128763   1.664   4.315   0.802  0.6960  0.9519 -0.9293
 5767SOL    HW228764   1.672   4.327   0.952  1.9843 -0.7315  0.8727
 5768SOL     OW28765   3.229   4.002   9.451  0.3809  0.4759 -0.0204
 5768SOL    HW128766   3.226   3.906   9.458  1.5106  0.5035  0.8735
 5768SOL    HW228767   3.149   4.010   9.399 -0.1450 -0.3314  0.6691
 5769SOL     OW28768   4.696   0.686  13.923 -0.3379 -0.5945 -0.0256
 5769SOL    HW128769   4.653   0.687  13.837 -2.1408 -0.5854  0.8896
 5769SOL    HW228770   0.037   0.622  13.894 -0.9517 -1.4589  0.5219
 5770SOL     OW28771   0.396   1.379   3.821 -0.2136 -0.6141 -0.2122
 5770SOL    HW128772   0.452   1.369   3.744  0.2152  0.0564  0.0088
 5770SOL    HW228773   0.329   1.318   3.790 -2.3043  1.2289  0.6425
 5771SOL     OW28774   3.542   3.706  10.765  0.3271  0.2942  0.0191
 5771SOL    HW128775   3.474   3.752  10.716 -0.7008  0.1152  1.2819
 5771SOL    HW228776   3.614   3.768  10.753  0.6166  0.4340  2.3592
 5772SOL     OW28777   0.787   2.535   8.947  0.1855 -0.2820  0.0074
 5772SOL    HW128778   0.709   2.564   8.900  0.8951  1.0673 -0.3327
 5772SOL    HW228779   0.807   2.457   8.896 -0.4466  0.7451 -1.7760
 5773SOL     OW28780   3.706   0.796   2.010  0.8280  0.7225  0.4199
 5773SOL    HW128781   3.639   0.829   2.069 -0.0188 -1.0052  0.4137
 5773SOL    HW228782   3.651   0.741   1.955  0.1559  0.9187  0.9031
 5774SOL     OW28783   4.199   0.005   4.767 -0.0042 -0.3900  0.0618
 5774SOL    HW128784   4.105   4.714   4.774 -0.2235 -0.0850 -2.3779
 5774SOL    HW228785   4.207   0.082   4.825  2.8110 -0.2015 -0.5748
 5775SOL     OW28786   1.810   1.852   7.245  0.1092 -0.0917  0.0874
 5775SOL    HW128787   1.805   1.775   7.302  1.0896 -0.7097 -0.6650
 5775SOL    HW228788   1.719   1.859   7.216  0.1908 -2.3004 -0.6683
 5776SOL     OW28789   3.776   1.242   7.291  0.7977 -0.1304  0.2112
 5776SOL    HW128790   3.862   1.283   7.303  1.1422  0.2364 -3.4596
 5776SOL    HW228791   3.796   1.159   7.247  1.0435 -0.6839  1.3472
 5777SOL     OW28792   1.154   2.217   4.227 -0.2415 -0.3559  0.0167
 5777SOL    HW128793   1.130   2.171   4.147 -0.9278  1.9838 -1.1427
 5777SOL    HW228794   1.195   2.294   4.186 -0.9547 -0.4464 -0.8404
 5778SOL     OW28795   1.338   3.020  17.433 -0.1214  0.7489 -0.2555
 5778SOL    HW128796   1.432   3.004  17.433 -0.1467  0.5965 -0.0434
 5778SOL    HW228797   1.317   3.007  17.525  1.1794  0.9131  0.0594
 5779SOL     OW28798   4.161   2.698   4.207 -0.4235  0.3090 -0.2043
 5779SOL    HW128799   4.198   2.622   4.161  0.8345 -1.6615  4.0907
 5779SOL    HW228800   4.237   2.712   4.264 -1.2322  4.1775 -0.0712
 5780SOL     OW28801   0.751   0.934   5.338  0.7717  0.1332 -0.4795
 5780SOL    HW128802   0.720   0.854   5.381 -1.2321  0.7077 -0.8670
 5780SOL    HW228803   0.761   0.902   5.249  2.1971 -3.4859  0.9772
 5781SOL     OW28804   2.198   4.646   9.184  0.2147  0.0144 -0.2463
 5781SOL    HW128805   2.281   4.656   9.231 -0.6630 -0.4016  1.3860
 5781SOL    HW228806   2.191   4.551   9.175 -2.1721  0.2388 -0.8679
 5782SOL     OW28807   0.724   3.589  15.728  0.1629 -0.3292  0.2328
 5782SOL    HW128808   0.681   3.643  15.661  1.0205 -0.7288 -0.6397
 5782SOL    HW228809   0.688   3.635  15.804  1.2675  3.0298 -1.2415
 5783SOL     OW28810   1.342   4.212   6.707  0.6788 -0.0292 -0.0649
 5783SOL    HW128811   1.402   4.139   6.724  1.1681  0.2916 -0.4309
 5783SOL    HW228812   1.379   4.236   6.622 -1.1997  0.3575 -0.7675
 5784SOL     OW28813   2.494   1.774   0.967  0.1434 -0.2012  0.5129
 5784SOL    HW128814   2.507   1.680   0.979  0.9024 -0.2805 -0.9255
 5784SOL    HW228815   2.435   1.768   0.891  1.1003  0.5782 -0.2961
 5785SOL     OW28816   0.967   2.459  14.674 -0.9400  0.1570  0.1689
 5785SOL    HW128817   0.875   2.449  14.648 -0.4095 -2.0556 -0.8388
 5785SOL    HW228818   1.002   2.510  14.600 -1.4658 -1.0524 -0.9184
 5786SOL     OW28819   3.436   3.155  10.937  0.2114 -0.1724  0.1214
 5786SOL    HW128820   3.351   3.126  10.903  1.1041  0.3351 -2.5955
 5786SOL    HW228821   3.489   3.084  10.900 -0.4495 -1.1498  1.0649
 5787SOL     OW28822   4.387   1.073   8.731  0.5717  0.1489 -0.4199
 5787SOL    HW128823   4.481   1.093   8.727  0.3290  1.2017 -0.6795
 5787SOL    HW228824   4.363   1.075   8.638 -0.1534  1.4497 -0.2028
 5788SOL     OW28825   0.279   0.099   6.670 -0.3753 -0.5927  0.0857
 5788SOL    HW128826   0.304   0.046   6.746 -1.8711 -1.0257  0.2749
 5788SOL    HW228827   0.198   0.137   6.703 -0.5112  0.7129 -1.8004
 5789SOL     OW28828   0.823   1.224   2.732  1.0358  0.2325  0.4233
 5789SOL    HW128829   0.793   1.148   2.683 -1.5508  0.1410  2.1135
 5789SOL    HW228830   0.907   1.237   2.688 -0.5171 -0.5899 -2.7952
 5790SOL     OW28831   0.097   3.701   6.779  0.7952  0.6800 -0.9159
 5790SOL    HW128832   0.064   3.612   6.785 -1.5055  1.4523 -1.9558
 5790SOL    HW228833   0.192   3.691   6.786  0.5033 -0.7651  1.0206
 5791SOL     OW28834   1.471   4.336   6.497  0.4882  0.6254 -0.3117
 5791SOL    HW128835   1.508   4.423   6.482 -1.2804  1.6115  0.9868
 5791SOL    HW228836   1.390   4.352   6.447  1.6433  2.5647 -1.5513
 5792SOL     OW28837   2.563   1.182  15.392 -0.0377  0.0918 -0.2463
 5792SOL    HW128838   2.622   1.185  15.316 -2.4274 -1.9062 -2.2072
 5792SOL    HW228839   2.510   1.104  15.375 -0.1536  0.2501 -0.6055
 5793SOL     OW28840   2.516   1.766   9.787  0.1852 -0.2525 -0.0629
 5793SOL    HW128841   2.468   1.823   9.726  0.6326  1.4605  1.2016
 5793SOL    HW228842   2.597   1.748   9.740 -0.4534  2.0657 -2.1066
 5794SOL     OW28843   2.505   0.799   5.827 -0.6025 -0.2167 -0.6209
 5794SOL    HW128844   2.434   0.735   5.836 -0.1753 -0.6640 -0.5068
 5794SOL    HW228845   2.471   0.882   5.861  4.2335  0.8517  1.4428
 5795SOL     OW28846   1.170   1.814   5.893 -0.5726  0.1492  0.6218
 5795SOL    HW128847   1.097   1.774   5.845  0.4617  0.6040 -1.3531
 5795SOL    HW228848   1.247   1.767   5.861  0.0474 -0.6097  3.2144
 5796SOL     OW28849   1.789   1.096   4.762  0.0086 -0.0438 -0.1861
 5796SOL    HW128850   1.818   1.011   4.796  1.9914  0.3301 -0.9786
 5796SOL    HW228851   1.876   1.124   4.733  0.3532 -0.5692  0.3312
 5797SOL     OW28852   1.160   3.621   5.864 -0.5374 -0.0153  0.3774
 5797SOL    HW128853   1.136   3.609   5.956 -0.0226 -2.1640  0.2107
 5797SOL    HW228854   1.211   3.545   5.840  2.4910  2.3399 -0.6286
 5798SOL     OW28855   1.631   3.218   7.760  0.8880  0.1316  0.2005
 5798SOL    HW128856   1.594   3.302   7.788 -1.8079 -1.5890  1.8654
 5798SOL    HW228857   1.581   3.202   7.680  0.8011 -2.8455  0.8407
 5799SOL     OW28858   0.257   0.124  11.755 -0.1253 -0.2103 -0.3663
 5799SOL    HW128859   0.197   0.056  11.725 -0.1792  1.0334 -3.1303
 5799SOL    HW228860   0.271   0.164  11.668 -0.7290 -0.1683 -0.4455
 5800SOL     OW28861   3.193   0.346  10.557 -0.3201 -0.6537 -0.0708
 5800SOL    HW128862   3.278   0.364  10.598 -0.9456  2.5599 -0.1534
 5800SOL    HW228863   3.147   0.430  10.555 -1.9638 -1.5831 -0.7689
 5801SOL     OW28864   2.737   2.785   8.999 -0.0394  0.3199 -0.0179
 5801SOL    HW128865   2.767   2.851   8.938  0.1992 -1.3260 -1.6826
 5801SOL    HW228866   2.684   2.722   8.951  2.4251 -1.2462 -0.7169
 5802SOL     OW28867   1.839   2.167   6.470  0.7112 -0.2476  0.3137
 5802SOL    HW128868   1.771   2.137   6.410  0.7012 -2.3218  1.3855
 5802SOL    HW228869   1.794   2.224   6.532 -1.0685 -2.7886  1.3250
 5803SOL     OW28870   4.362   1.040   5.262  0.3377  0.1479  0.2049
 5803SOL    HW128871   4.351   1.063   5.170  0.5528 -0.4033  0.0397
 5803SOL    HW228872   4.270   1.021   5.283  0.8314 -0.6441  1.6246
 5804SOL     OW28873   2.275   0.841   1.892 -0.0373 -0.7669 -0.4098
 5804SOL    HW128874   2.298   0.868   1.803  1.7920 -0.2540  0.2070
 5804SOL    HW228875   2.325   0.760   1.905 -0.4914 -0.8141  1.0251
 5805SOL     OW28876   3.680   4.516   2.292  0.5043  0.0757  0.4690
 5805SOL    HW128877   3.610   4.455   2.315  1.0692 -0.3893  0.9257
 5805SOL    HW228878   3.623   4.589   2.266  1.4936  0.5640 -0.3428
 5806SOL     OW28879   4.429   0.238  14.544 -0.2401  0.1052  0.2026
 5806SOL    HW128880   4.431   0.174  14.615 -2.0255 -0.7815 -0.5451
 5806SOL    HW228881   4.423   0.319  14.596 -0.8503 -0.7357  1.4304
 5807SOL     OW28882   1.147   3.306  14.424 -0.6684  0.3136  1.0509
 5807SOL    HW128883   1.070   3.272  14.379  0.3994 -0.5008 -0.1518
 5807SOL    HW228884   1.215   3.316  14.357 -2.3433 -0.0802 -0.6974
 5808SOL     OW28885   0.599   4.444   7.109  0.0320  0.7732  1.0146
 5808SOL    HW128886   0.536   4.383   7.149 -0.5578  1.0939  0.5559
 5808SOL    HW228887   0.563   4.526   7.143 -0.7143  0.7591  0.2579
 5809SOL     OW28888   0.077   4.486   0.433 -0.0061  0.5730 -0.2067
 5809SOL    HW128889   0.086   4.408   0.487  0.3788  0.4098 -0.5050
 5809SOL    HW228890   0.101   4.554   0.497  0.3533  0.1874  0.0650
 5810SOL     OW28891   1.832   1.856   9.360  0.2626  0.0007  0.1017
 5810SOL    HW128892   1.871   1.775   9.329 -0.8773 -0.1768 -0.8760
 5810SOL    HW228893   1.743   1.848   9.325 -0.7410  0.5936  2.5345
 5811SOL     OW28894   0.954   2.916   2.780  0.4745  0.1446  0.4675
 5811SOL    HW128895   0.911   2.837   2.815 -0.5296  0.2915 -0.4448
 5811SOL    HW228896   1.016   2.883   2.715 -0.7496  0.2510 -0.7496
 5812SOL     OW28897   0.295   0.490   4.387  0.0889  0.8403  0.2879
 5812SOL    HW128898   0.361   0.478   4.320  1.9910  1.9082  1.9697
 5812SOL    HW228899   0.219   0.452   4.343  1.5545  1.1767 -2.5451
 5813SOL     OW28900   2.872   4.004   6.577  0.0266  0.3564 -0.1011
 5813SOL    HW128901   2.951   3.954   6.559  0.6556  0.4281  2.4977
 5813SOL    HW228902   2.850   3.956   6.656 -1.1202  1.1629  0.0656
 5814SOL     OW28903   0.321   4.040  17.175 -0.8120  0.0411 -0.5764
 5814SOL    HW128904   0.242   4.093  17.190  1.6490  3.7389 -0.6705
 5814SOL    HW228905   0.295   3.981  17.246 -0.4824  0.3475 -0.2003
 5815SOL     OW28906   0.995   1.797   3.489  0.3835 -0.3853  0.2418
 5815SOL    HW128907   1.037   1.782   3.405  1.2341  3.3596 -0.0047
 5815SOL    HW228908   1.069   1.802   3.549 -0.2882  0.0937  1.0341
 5816SOL     OW28909   4.494   4.339  16.004 -0.2058  0.0822 -0.2094
 5816SOL    HW128910   4.540   4.336  15.921  0.4826  0.5119  0.1585
 5816SOL    HW228911   4.530   4.419  16.042  0.7777 -1.0248  1.1641
 5817SOL     OW28912   4.688   0.970   8.132 -0.2630 -0.2861 -0.2032
 5817SOL    HW128913   4.651   1.057   8.119  2.3627  0.7039 -1.1431
 5817SOL    HW228914   0.054   1.000   8.115 -0.4072  0.1924 -0.1175
 5818SOL     OW28915   0.266   4.360   9.319  0.9433 -0.1350  0.0289
 5818SOL    HW128916   0.243   4.273   9.287  0.5839  0.0754 -0.2744
 5818SOL    HW228917   0.360   4.352   9.338  0.8954  0.7954  0.6387
 5819SOL     OW28918   2.410   1.344  15.647 -0.2416 -0.0750  0.3680
 5819SOL    HW128919   2.463   1.264  15.650  0.4451  0.3634 -0.2113
 5819SOL    HW228920   2.345   1.308  15.707 -0.6651  0.5637  0.2860
 5820SOL     OW28921   2.408   3.466  15.349  0.1270 -0.1368 -0.6692
 5820SOL    HW128922   2.483   3.470  15.290  0.8153  0.5015  0.2426
 5820SOL    HW228923   2.389   3.557  15.372  0.6193 -0.2648  0.2633
 5821SOL     OW28924   2.988   2.455   5.300 -0.3598 -0.7179  0.1995
 5821SOL    HW128925   2.982   2.551   5.293  1.8372 -0.3198  3.5609
 5821SOL    HW228926   3.082   2.459   5.315  0.0021 -1.4897 -1.9467
 5822SOL     OW28927   2.260   4.403   7.494 -0.5365  0.3523 -0.6329
 5822SOL    HW128928   2.302   4.318   7.483 -0.3268  0.0487  2.3663
 5822SOL    HW228929   2.196   4.395   7.424 -0.3815 -0.0628 -0.7256
 5823SOL     OW28930   1.149   4.151   9.029 -0.2249  0.1690 -0.0352
 5823SOL    HW128931   1.079   4.166   9.093  2.0706 -0.3443  2.6056
 5823SOL    HW228932   1.220   4.194   9.075 -0.6455 -1.0128  1.7458
 5824SOL     OW28933   4.511   1.565   5.742 -0.4048 -0.7550  0.2008
 5824SOL    HW128934   4.462   1.508   5.802 -1.6881  0.1590  0.0373
 5824SOL    HW228935   4.431   1.606   5.709  1.3425  3.8739  1.7176
 5825SOL     OW28936   3.663   4.035  10.604 -0.0341 -0.2110 -0.2643
 5825SOL    HW128937   3.731   4.084  10.650 -0.0770 -0.3788 -0.0263
 5825SOL    HW228938   3.602   4.108  10.608 -1.2855 -1.2885  0.1186
 5826SOL     OW28939   2.142   1.952   5.730 -0.4400  0.4518  0.1898
 5826SOL    HW128940   2.219   1.896   5.719 -1.6008 -1.0845 -0.2438
 5826SOL    HW228941   2.185   2.025   5.686  0.3757  0.0743  0.3559
 5827SOL     OW28942   2.238   3.588  10.387 -0.5399 -0.1516  0.5756
 5827SOL    HW128943   2.274   3.505  10.356 -0.8709 -0.0707 -0.0273
 5827SOL    HW228944   2.190   3.548  10.460 -2.5192 -0.7271 -1.0407
 5828SOL     OW28945   0.987   1.042  12.215 -0.0710 -0.6261 -0.3447
 5828SOL    HW128946   0.905   1.009  12.253 -1.5126 -0.0449 -2.9584
 5828SOL    HW228947   0.976   1.018  12.123 -1.2597  0.7709 -0.5660
 5829SOL     OW28948   3.019   4.424   4.706  0.1099  0.6610  0.2692
 5829SOL    HW128949   2.950   4.387   4.653  0.9513 -0.4631 -0.0338
 5829SOL    HW228950   2.977   4.422   4.792  1.3431 -0.4668  0.8570
 5830SOL     OW28951   3.147   1.986  10.699  0.1921 -0.0814  0.0068
 5830SOL    HW128952   3.188   2.043  10.763  1.0299 -1.0596  0.3410
 5830SOL    HW228953   3.200   2.015  10.624  1.6131 -1.8836  0.3310
 5831SOL     OW28954   3.782   0.521   9.552 -0.0256 -0.4072  0.1350
 5831SOL    HW128955   3.794   0.427   9.564  2.9918 -0.0956 -0.4452
 5831SOL    HW228956   3.696   0.534   9.511  0.0983  0.0397  0.0197
 5832SOL     OW28957   0.914   1.691   4.835  0.8253  0.2102  0.1793
 5832SOL    HW128958   0.873   1.772   4.806  1.6593  1.0508  1.3799
 5832SOL    HW228959   0.834   1.637   4.839  0.4658  0.8246  1.1632
 5833SOL     OW28960   4.029   4.373  17.405  0.0851 -0.1887 -0.1620
 5833SOL    HW128961   3.938   4.368  17.374  0.0563  0.0282 -0.1171
 5833SOL    HW228962   4.056   4.281  17.410  1.4785  0.3861  3.1877
 5834SOL     OW28963   3.503   4.543   3.975  0.2897  0.7832  0.7567
 5834SOL    HW128964   3.568   4.594   4.022 -0.7167  2.5136  0.2775
 5834SOL    HW228965   3.551   4.502   3.903 -0.3511 -0.3658  0.9866
 5835SOL     OW28966   2.739   4.348  16.795 -0.0860  0.4919 -0.3723
 5835SOL    HW128967   2.735   4.281  16.863  1.7528 -0.6594 -1.3817
 5835SOL    HW228968   2.832   4.353  16.772  0.2949 -0.3037  0.9485
 5836SOL     OW28969   0.240   0.276  17.611  0.5535 -0.4758  0.0919
 5836SOL    HW128970   0.335   0.267  17.612  0.7275  1.5665  0.4397
 5836SOL    HW228971   0.211   0.211  17.546 -1.2801  0.3937  0.0506
 5837SOL     OW28972   1.063   2.861   5.108  0.3423  0.6864 -0.6317
 5837SOL    HW128973   1.111   2.893   5.031  1.1130  1.1936  0.0492
 5837SOL    HW228974   1.134   2.844   5.170  0.4117 -0.0032 -0.8966
 5838SOL     OW28975   0.380   0.618  10.758  0.5034  0.7874 -0.2486
 5838SOL    HW128976   0.371   0.632  10.852  0.5435 -0.3395 -0.0825
 5838SOL    HW228977   0.475   0.613  10.750  0.7663  2.2373  1.9268
 5839SOL     OW28978   4.533   4.299   4.842 -0.4344 -0.1185  0.5037
 5839SOL    HW128979   4.532   4.391   4.867 -1.8555 -0.1102  0.3842
 5839SOL    HW228980   4.468   4.270   4.906  0.0991  1.1757  1.6162
 5840SOL     OW28981   2.808   2.407   8.681  0.9188 -0.3090 -0.2106
 5840SOL    HW128982   2.877   2.351   8.717 -0.8342 -0.6357  2.6852
 5840SOL    HW228983   2.736   2.345   8.691 -0.8955  1.7654 -0.5918
 5841SOL     OW28984   1.362   2.937   6.496  0.2911  0.0879  0.0957
 5841SOL    HW128985   1.270   2.949   6.518  0.3659  1.4160 -0.3116
 5841SOL    HW228986   1.403   2.926   6.582  0.7397 -1.2578 -0.3048
 5842SOL     OW28987   1.893   3.278   3.059 -0.2726 -0.3496 -0.4010
 5842SOL    HW128988   1.895   3.202   3.118 -1.5512  0.2525  0.4134
 5842SOL    HW228989   1.821   3.267   2.998 -0.1793 -1.9208 -0.2390
 5843SOL     OW28990   4.008   2.115   6.692 -0.2127  0.7318  0.3179
 5843SOL    HW128991   3.953   2.192   6.706 -1.1185  0.3661 -1.2837
 5843SOL    HW228992   4.080   2.178   6.696  0.2707  0.1441  0.9069
 5844SOL     OW28993   2.107   1.624  16.725 -0.3551  0.1440  0.0970
 5844SOL    HW128994   2.051   1.550  16.750  0.5763 -0.4665  0.3710
 5844SOL    HW228995   2.053   1.697  16.753  0.0388  0.2143  0.6549
 5845SOL     OW28996   2.221   2.913  14.567  0.2739  0.8313  0.0647
 5845SOL    HW128997   2.137   2.867  14.567  0.2357  0.8831  2.2717
 5845SOL    HW228998   2.275   2.843  14.532 -0.9970 -0.5957  0.9479
 5846SOL     OW28999   3.149   2.851   2.713 -0.0310  0.0680  0.1861
 5846SOL    HW129000   3.128   2.792   2.641 -1.5247  0.1030  0.5965
 5846SOL    HW229001   3.075   2.912   2.708  0.7821  1.0195 -0.0639
 5847SOL     OW29002   0.128   0.631   3.818 -0.7782 -0.8052  0.3020
 5847SOL    HW129003   0.103   0.539   3.807  1.3860 -1.2225 -1.0160
 5847SOL    HW229004   0.223   0.625   3.815 -0.8253 -1.3477 -0.0264
 5848SOL     OW29005   2.401   4.679  13.478 -0.2815 -0.7414 -0.6105
 5848SOL    HW129006   2.323   4.656  13.427 -0.1228  0.8709 -1.5834
 5848SOL    HW229007   2.415   0.049  13.463  0.3787 -0.7104  0.2154
 5849SOL     OW29008   1.770   1.085   7.392 -0.1510  0.3668 -0.1234
 5849SOL    HW129009   1.718   1.026   7.447  2.6740 -1.6336  0.3518
 5849SOL    HW229010   1.737   1.065   7.304 -1.6933 -1.8162  0.9431
 5850SOL     OW29011   1.537   0.594  17.360 -0.2980 -0.1422 -0.2268
 5850SOL    HW129012   1.506   0.665  17.304  1.9823  2.5648  1.9144
 5850SOL    HW229013   1.622   0.573  17.322 -0.7015 -2.7182  0.2710
 5851SOL     OW29014   3.924   2.897  15.700  0.2862  0.3624  0.3971
 5851SOL    HW129015   3.925   2.902  15.795  0.5593  0.0705  0.4092
 5851SOL    HW229016   3.835   2.921  15.674 -0.0596  1.4885  2.5970
 5852SOL     OW29017   0.937   4.576   4.145 -0.0992 -0.1558  0.3995
 5852SOL    HW129018   0.990   4.555   4.223  0.5760 -0.2490 -0.0823
 5852SOL    HW229019   0.887   4.650   4.178  0.0353 -0.3525  1.0533
 5853SOL     OW29020   0.266   3.937   0.746 -0.0684 -0.6343  0.0896
 5853SOL    HW129021   0.294   3.969   0.660 -0.9766 -0.2586 -0.0710
 5853SOL    HW229022   0.355   3.915   0.772 -0.1178  1.8367  2.3743
 5854SOL     OW29023   0.059   3.523   0.367  0.3327 -0.1395 -0.1282
 5854SOL    HW129024   0.052   3.548   0.459  1.0549 -2.1347  0.4761
 5854SOL    HW229025   0.008   3.442   0.371 -1.4824  0.9735 -0.7986
 5855SOL     OW29026   0.314   0.937  15.795  0.4320 -0.4598  0.1188
 5855SOL    HW129027   0.272   0.857  15.825  1.9271 -1.6760 -1.0531
 5855SOL    HW229028   0.399   0.895  15.780  0.4894 -0.8637  1.5849
 5856SOL     OW29029   3.649   4.313  17.616 -0.8094 -0.6061  0.1810
 5856SOL    HW129030   3.581   4.265  17.568  1.8118 -1.6924 -2.4788
 5856SOL    HW229031   3.734   4.287  17.579 -0.9845 -0.0012 -0.6538
 5857SOL     OW29032   3.610   2.241   5.776  0.1252 -0.0992  0.1879
 5857SOL    HW129033   3.620   2.256   5.870 -0.5505  1.3558  0.0313
 5857SOL    HW229034   3.666   2.166   5.756  1.2581  0.2469  2.1536
 5858SOL     OW29035   0.407   1.372  14.225  0.6299 -0.6197 -0.3371
 5858SOL    HW129036   0.370   1.304  14.281 -1.2563 -0.1570 -1.0424
 5858SOL    HW229037   0.460   1.409  14.296 -0.7884 -2.7225  1.8257
 5859SOL     OW29038   2.591   2.940   9.197 -0.4809  0.3092 -0.0450
 5859SOL    HW129039   2.619   2.891   9.120  1.4560  0.3174  0.6707
 5859SOL    HW229040   2.614   3.031   9.178 -1.1517  0.1772 -1.4767
 5860SOL     OW29041   2.454   3.447   6.677 -0.9000  0.2449  0.4057
 5860SOL    HW129042   2.519   3.376   6.674  0.0986  1.2024 -0.2605
 5860SOL    HW229043   2.435   3.454   6.584 -1.5500 -0.8632  0.4519
 5861SOL     OW29044   1.636   2.761   9.360 -0.6050  0.0259 -0.1110
 5861SOL    HW129045   1.566   2.821   9.386 -1.7369 -1.4571  0.2293
 5861SOL    HW229046   1.710   2.821   9.354 -0.9889  0.4629 -0.5172
 5862SOL     OW29047   3.975   1.251   3.264  0.6008 -0.4742 -0.1811
 5862SOL    HW129048   4.062   1.226   3.236 -0.6728 -1.6286 -3.0784
 5862SOL    HW229049   3.975   1.345   3.246 -3.9373 -0.3111  0.5813
 5863SOL     OW29050   1.867   0.104   7.654 -0.3873  0.0758  0.0983
 5863SOL    HW129051   1.883   0.037   7.720  0.4078  0.9008  0.7482
 5863SOL    HW229052   1.894   0.066   7.570 -1.1029 -0.7278  0.2423
 5864SOL     OW29053   2.087   0.801   9.205 -0.0574 -0.1072 -0.0047
 5864SOL    HW129054   2.027   0.860   9.159  0.4820  0.8947  0.5801
 5864SOL    HW229055   2.176   0.836   9.198  0.5904 -1.3856  1.6333
 5865SOL     OW29056   4.484   0.721   2.581 -0.4005  0.2132  0.2868
 5865SOL    HW129057   4.540   0.675   2.519 -0.3409  0.4535  0.1604
 5865SOL    HW229058   4.406   0.741   2.530 -0.8095  3.5230  2.1831
 5866SOL     OW29059   3.303   3.292   6.248 -0.3634 -0.3720  0.6777
 5866SOL    HW129060   3.216   3.312   6.215 -0.4307 -0.4922  0.7776
 5866SOL    HW229061   3.306   3.201   6.218 -1.8344 -0.6937  1.4943
 5867SOL     OW29062   0.346   1.542   1.503 -0.3969  0.4090 -0.2729
 5867SOL    HW129063   0.284   1.613   1.518  1.3302  1.6234  1.0074
 5867SOL    HW229064   0.422   1.572   1.553  1.5624 -3.2937 -0.9809
 5868SOL     OW29065   3.216   4.276  14.961  0.0655  0.2903 -0.0248
 5868SOL    HW129066   3.124   4.297  14.981 -0.3949 -0.9866 -0.8578
 5868SOL    HW229067   3.222   4.221  14.884 -0.1696  0.8834 -0.4662
 5869SOL     OW29068   0.071   2.452   2.872 -0.1754 -0.1427  0.1897
 5869SOL    HW129069   0.164   2.459   2.892  0.0511  0.2052 -0.9861
 5869SOL    HW229070   0.069   2.357   2.865 -0.3371 -0.2017  0.9303
 5870SOL     OW29071   0.082   2.347  14.780 -0.0689  0.0681  0.2428
 5870SOL    HW129072   0.014   2.330  14.845  0.6493  1.4255  1.3447
 5870SOL    HW229073   0.120   2.431  14.806 -0.3986 -0.0728  1.1764
 5871SOL     OW29074   4.125   2.856   7.741  0.2610 -0.2849 -0.0425
 5871SOL    HW129075   4.115   2.809   7.824  1.5920  1.8663  1.3278
 5871SOL    HW229076   4.184   2.926   7.768 -0.3581  0.9150 -1.8068
 5872SOL     OW29077   2.657   0.286   3.618 -0.1267 -0.2887  0.3047
 5872SOL    HW129078   2.700   0.222   3.562 -1.1855  0.1551 -1.0297
 5872SOL    HW229079   2.612   0.216   3.665 -1.4041  0.1091 -0.3251
 5873SOL     OW29080   4.199   3.498   5.159  0.2800  0.2399  0.2799
 5873SOL    HW129081   4.137   3.441   5.113  0.5357 -0.3918  0.7178
 5873SOL    HW229082   4.153   3.580   5.175 -0.3528  0.2601 -1.6717
 5874SOL     OW29083   1.453   2.855   8.099  0.3542 -0.5264 -0.2511
 5874SOL    HW129084   1.465   2.772   8.053  0.1326 -0.2987 -0.7263
 5874SOL    HW229085   1.360   2.847   8.120  0.9893 -3.2882  1.4397
 5875SOL     OW29086   0.191   0.030   1.242  0.1777 -0.0498 -0.3970
 5875SOL    HW129087   0.098   0.009   1.231  0.9496 -1.6962 -3.6612
 5875SOL    HW229088   0.229   4.684   1.190  0.0801  0.7802 -1.5802
 5876SOL     OW29089   1.088   4.519   6.870 -0.4571 -0.0110  0.4918
 5876SOL    HW129090   1.020   4.504   6.936  0.0843 -1.4523  0.7204
 5876SOL    HW229091   1.037   4.577   6.814 -0.5774  0.7829  1.4275
 5877SOL     OW29092   4.722   2.569  13.275 -0.1623 -0.7848 -0.6565
 5877SOL    HW129093   4.630   2.547  13.288 -0.3086  0.7267  0.8424
 5877SOL    HW229094   0.028   2.540  13.361 -2.9223  0.2841  0.6597
 5878SOL     OW29095   4.676   1.407   9.842  0.2006 -0.2978  0.0248
 5878SOL    HW129096   4.644   1.365   9.762  2.9089 -0.2539 -1.0637
 5878SOL    HW229097   0.039   1.368   9.853  0.5282  0.2639 -0.5859
 5879SOL     OW29098   3.635   1.510  10.197 -1.5482  0.2335  0.0823
 5879SOL    HW129099   3.673   1.438  10.248 -0.9447 -0.1029 -0.8448
 5879SOL    HW229100   3.718   1.553  10.177 -1.8872 -0.7153 -3.3890
 5880SOL     OW29101   3.892   2.298  15.625  0.3323 -0.1291 -0.0479
 5880SOL    HW129102   3.840   2.218  15.633 -0.0522 -0.1664 -2.7066
 5880SOL    HW229103   3.872   2.327  15.536  0.8705 -0.8718 -0.4084
 5881SOL     OW29104   1.156   2.954   5.905 -0.1216 -0.0264  0.0287
 5881SOL    HW129105   1.198   2.888   5.960  1.2556  0.1596 -0.8173
 5881SOL    HW229106   1.124   2.898   5.834 -1.3007  0.1739  0.3988
 5882SOL     OW29107   2.283   4.423   2.729  0.3956 -0.4225  0.0367
 5882SOL    HW129108   2.217   4.483   2.696  0.4415 -1.0650 -1.2270
 5882SOL    HW229109   2.334   4.414   2.648  0.3843  0.4318 -0.0628
 5883SOL     OW29110   0.313   4.713   0.844  0.2404  0.1804 -0.0624
 5883SOL    HW129111   0.392   4.667   0.817  0.0045  0.1751 -0.7412
 5883SOL    HW229112   0.341   0.047   0.914 -1.6778 -1.6206  2.1859
 5884SOL     OW29113   0.352   2.178   6.808 -0.1777 -0.6067 -0.5755
 5884SOL    HW129114   0.343   2.086   6.787 -0.5988 -0.2852 -1.8087
 5884SOL    HW229115   0.283   2.191   6.873 -0.0314 -0.2765 -0.4821
 5885SOL     OW29116   0.188   0.219  17.173  0.4353 -0.3361  0.1389
 5885SOL    HW129117   0.258   0.155  17.162  1.8112  0.7661  2.3377
 5885SOL    HW229118   0.233   0.297  17.140 -0.1750  0.4857  1.2451
 5886SOL     OW29119   3.518   4.179   5.143 -0.2680 -0.1105  0.0713
 5886SOL    HW129120   3.478   4.105   5.097  1.0289  1.4442 -3.4833
 5886SOL    HW229121   3.580   4.133   5.199 -0.8582  0.3263  1.0920
 5887SOL     OW29122   0.395   1.135  11.029  0.1186 -0.5252  0.2955
 5887SOL    HW129123   0.319   1.131  10.970  0.0608 -1.7768  0.4633
 5887SOL    HW229124   0.461   1.118  10.963  0.4061 -1.3556  0.8021
 5888SOL     OW29125   2.502   4.459   3.195 -0.3128 -0.2981  0.2965
 5888SOL    HW129126   2.500   4.485   3.103 -0.1384  3.6302  1.4161
 5888SOL    HW229127   2.524   4.367   3.183  2.9197  0.4323  0.6841
 5889SOL     OW29128   0.515   0.859   7.939  0.4745  0.2283 -0.0952
 5889SOL    HW129129   0.477   0.773   7.957  1.2753 -0.2095 -0.5031
 5889SOL    HW229130   0.606   0.841   7.914  0.2357  1.5408 -1.9030
 5890SOL     OW29131   2.586   0.277   2.587  0.1329  0.0650  0.1543
 5890SOL    HW129132   2.653   0.326   2.540  1.1509 -1.2963  0.2088
 5890SOL    HW229133   2.521   0.341   2.617  1.2736  0.7338  1.2098
 5891SOL     OW29134   3.460   3.973   0.713 -0.4660 -0.8781 -0.2846
 5891SOL    HW129135   3.472   4.063   0.682 -1.5019 -0.6010  0.1180
 5891SOL    HW229136   3.387   3.988   0.773  2.1167  2.3960  2.0040
 5892SOL     OW29137   0.427   2.317   4.506  0.0562  0.1006 -0.3664
 5892SOL    HW129138   0.446   2.266   4.428 -2.1053 -1.5817  0.2178
 5892SOL    HW229139   0.346   2.360   4.479 -0.9097 -1.8643 -0.5891
 5893SOL     OW29140   2.647   2.838   0.796  0.1185  0.8649 -0.6227
 5893SOL    HW129141   2.674   2.915   0.746  1.0325 -0.1386 -1.6733
 5893SOL    HW229142   2.571   2.881   0.834  0.4976  0.1432  0.9957
 5894SOL     OW29143   0.810   1.795  17.103  0.0464  0.4362 -0.1570
 5894SOL    HW129144   0.716   1.782  17.112  0.3287 -1.1073  0.4773
 5894SOL    HW229145   0.833   1.841  17.184 -0.2352 -0.3979  0.3876
 5895SOL     OW29146   3.892   3.171   1.697 -0.6322 -0.1876  0.1249
 5895SOL    HW129147   3.808   3.139   1.727 -0.3990 -1.2099 -0.3155
 5895SOL    HW229148   3.914   3.106   1.630  1.4297  1.5691 -0.9429
 5896SOL     OW29149   3.648   4.688   7.360  0.3445 -0.5242 -0.2797
 5896SOL    HW129150   3.626   0.048   7.319  0.4621 -0.2125  0.3120
 5896SOL    HW229151   3.681   0.008   7.437 -2.8116  3.5410 -1.2288
 5897SOL     OW29152   0.483   2.273   3.521  0.1458  0.2481 -0.2295
 5897SOL    HW129153   0.473   2.322   3.440  1.8902 -2.0981 -1.8448
 5897SOL    HW229154   0.389   2.263   3.536  0.0614  1.8521  0.2874
 5898SOL     OW29155   3.747   4.343   4.627 -0.0285  0.5788  0.4290
 5898SOL    HW129156   3.740   4.276   4.694  1.3343  2.1648  2.1816
 5898SOL    HW229157   3.757   4.409   4.696  0.6961  0.5513  0.3488
 5899SOL     OW29158   1.608   0.702   4.804 -0.6414  0.1326  0.2195
 5899SOL    HW129159   1.644   0.751   4.729 -3.8118  1.8488 -0.1669
 5899SOL    HW229160   1.522   0.672   4.775 -0.1535  0.4160 -1.5382
 5900SOL     OW29161   4.494   3.519   7.873 -0.0105 -0.0886 -0.0358
 5900SOL    HW129162   4.421   3.572   7.906 -1.0833 -1.3957 -0.2591
 5900SOL    HW229163   4.555   3.506   7.945 -2.7722  1.8030  2.6596
 5901SOL     OW29164   0.461   1.496   4.703  0.4644 -0.3628 -0.1199
 5901SOL    HW129165   0.386   1.442   4.729  0.4108 -0.5897 -0.7400
 5901SOL    HW229166   0.534   1.435   4.705  1.3973  0.8963  3.1603
 5902SOL     OW29167   2.801   1.171   0.227 -0.4796  0.2724  0.0729
 5902SOL    HW129168   2.740   1.144   0.295 -0.4085  0.8862  0.3881
 5902SOL    HW229169   2.828   1.260   0.252 -1.1829  0.0029  1.7694
 5903SOL     OW29170   0.596   0.653   6.871 -0.0883  0.4447  0.2943
 5903SOL    HW129171   0.550   0.570   6.883  1.8839 -0.4282  1.7462
 5903SOL    HW229172   0.599   0.648   6.775 -1.6249  1.1669  0.2052
 5904SOL     OW29173   0.239   2.325   3.885  0.1996  0.0311  0.0495
 5904SOL    HW129174   0.280   2.401   3.927 -2.3561  2.6213 -2.1515
 5904SOL    HW229175   0.242   2.359   3.795  0.5760  0.8038  0.3486
 5905SOL     OW29176   2.316   0.552   3.146  0.2627 -0.7421  0.3104
 5905SOL    HW129177   2.246   0.615   3.134  0.1472 -1.6049 -3.4919
 5905SOL    HW229178   2.350   0.533   3.058 -1.5891  0.5891 -0.6789
 5906SOL     OW29179   1.676   3.472   1.743  0.1974 -0.4065 -0.3193
 5906SOL    HW129180   1.668   3.544   1.806 -0.3017 -0.5219 -0.2490
 5906SOL    HW229181   1.748   3.502   1.688 -0.8314  1.9461 -0.3807
 5907SOL     OW29182   2.408   2.974   3.062 -0.1357 -0.8376 -0.1055
 5907SOL    HW129183   2.364   3.059   3.058  0.3695 -0.5131  1.0748
 5907SOL    HW229184   2.499   2.992   3.037 -1.2496  0.2579 -3.4143
 5908SOL     OW29185   0.342   4.066  13.634  0.2468 -0.7864 -0.3462
 5908SOL    HW129186   0.276   4.118  13.680  1.4333  0.3247  0.1240
 5908SOL    HW229187   0.383   4.138  13.585 -1.6942  2.4197  2.7242
 5909SOL     OW29188   0.177   0.019   2.154  0.2268  0.0089 -0.2862
 5909SOL    HW129189   0.253   4.708   2.108  0.2087 -1.1545  0.5709
 5909SOL    HW229190   0.184   4.676   2.222  1.4363 -1.0090 -1.4163
 5910SOL     OW29191   4.710   3.503   7.477  0.0662 -0.3092  0.3197
 5910SOL    HW129192   0.017   3.417   7.449  0.3210  0.3981 -1.5717
 5910SOL    HW229193   4.689   3.553   7.398  1.9535 -0.3598 -0.2204
 5911SOL     OW29194   3.772   4.376  17.298  0.3326 -0.4924  0.6184
 5911SOL    HW129195   3.699   4.438  17.305  0.3758 -0.4400  0.6135
 5911SOL    HW229196   3.730   4.301  17.258 -1.3322  0.5038  0.4727
 5912SOL     OW29197   3.251   3.786   7.316  0.1089  0.1226 -0.7526
 5912SOL    HW129198   3.344   3.774   7.298  0.3929 -2.0783  2.1344
 5912SOL    HW229199   3.238   3.729   7.392 -1.0540 -0.5053 -1.4291
 5913SOL     OW29200   3.965   0.040   0.432  0.0165  0.3634 -0.1570
 5913SOL    HW129201   3.982   0.123   0.476  0.4677  0.5463 -0.6822
 5913SOL    HW229202   3.938   0.085   0.352  1.0336  1.1597 -0.0613
 5914SOL     OW29203   3.738   4.641   0.104  0.0158  0.2993 -0.8423
 5914SOL    HW129204   3.698   4.661   0.019 -1.8696 -1.2052 -0.3199
 5914SOL    HW229205   3.788   4.719   0.127  1.5422 -0.9690  0.1232
 5915SOL     OW29206   4.466   3.744   2.397  0.1965  0.0085  0.8329
 5915SOL    HW129207   4.501   3.822   2.355 -1.0416  0.0649 -0.0946
 5915SOL    HW229208   4.499   3.674   2.341 -0.3115  0.6092 -0.2148
 5916SOL     OW29209   4.159   0.970   5.958  0.0799  0.0778  0.3006
 5916SOL    HW129210   4.076   1.016   5.945  0.4933  0.4554 -0.9667
 5916SOL    HW229211   4.136   0.877   5.952  0.0040  0.1725 -0.7668
 5917SOL     OW29212   2.266   3.923   5.585  0.2285  0.2416 -0.4915
 5917SOL    HW129213   2.237   3.988   5.650 -0.4235  2.3466 -2.9150
 5917SOL    HW229214   2.251   3.964   5.500 -1.8116 -1.8938 -1.1833
 5918SOL     OW29215   0.388   4.461   4.999 -0.0267  0.4265 -0.2082
 5918SOL    HW129216   0.400   4.496   5.087 -0.8800  1.1704 -0.3868
 5918SOL    HW229217   0.298   4.429   5.006  0.7993 -1.3017  2.1964
 5919SOL     OW29218   0.934   4.062   6.653  0.0525  0.2803  0.8225
 5919SOL    HW129219   0.988   4.061   6.574  0.1631 -0.5764  0.9079
 5919SOL    HW229220   0.988   4.091   6.727  0.3034 -2.4427  1.7117
 5920SOL     OW29221   0.338   3.843   1.349 -0.3764 -0.0529 -0.0156
 5920SOL    HW129222   0.400   3.786   1.305 -2.3459 -0.1496 -2.7172
 5920SOL    HW229223   0.291   3.788   1.412 -0.6577 -1.8471 -1.7829
 5921SOL     OW29224   1.057   4.154   0.789  0.2463  0.2547 -0.1759
 5921SOL    HW129225   1.133   4.184   0.738  0.4160 -1.1042 -0.7500
 5921SOL    HW229226   1.078   4.065   0.819 -0.1859 -0.0054 -0.6508
 5922SOL     OW29227   1.571   4.217  10.546 -0.3932  0.3264 -0.1586
 5922SOL    HW129228   1.551   4.202  10.454 -2.4120  0.3890  0.2626
 5922SOL    HW229229   1.514   4.155  10.592  0.5243 -0.6844 -0.3847
 5923SOL     OW29230   3.713   2.156   9.960 -0.8069 -0.2184 -0.0502
 5923SOL    HW129231   3.743   2.142   9.870 -1.1659 -0.3396 -0.1479
 5923SOL    HW229232   3.679   2.244   9.947  1.2013  0.7918  1.4964
 5924SOL     OW29233   2.693   4.604   6.319 -0.2723 -0.3116  0.5253
 5924SOL    HW129234   2.711   4.518   6.358  0.7973  0.1675  1.0841
 5924SOL    HW229235   2.749   4.670   6.359 -0.8535  1.0765 -0.9855
 5925SOL     OW29236   2.802   4.250   3.079  0.2617  0.3363 -0.1850
 5925SOL    HW129237   2.780   4.159   3.060 -2.6636  0.5597  2.0857
 5925SOL    HW229238   2.762   4.290   3.002 -0.3492 -0.3284 -0.2139
 5926SOL     OW29239   3.551   2.130  10.832 -0.4535  0.2621  0.1761
 5926SOL    HW129240   3.622   2.146  10.771  1.0203  0.3712  1.9139
 5926SOL    HW229241   3.552   2.034  10.842 -1.7645  0.3024  0.7426
 5927SOL     OW29242   2.613   2.931   1.204  0.1566 -0.7639 -0.4913
 5927SOL    HW129243   2.542   2.964   1.150  0.6845  1.1023 -0.0564
 5927SOL    HW229244   2.582   2.865   1.265  1.5415  1.5890  2.7881
 5928SOL     OW29245   1.060   2.128   8.430  0.0017 -0.4551 -0.3362
 5928SOL    HW129246   0.967   2.103   8.435 -0.4401  1.2587  0.0785
 5928SOL    HW229247   1.046   2.192   8.499  0.3731  0.9102 -1.5217
 5929SOL     OW29248   1.601   2.515   4.883 -0.2201  0.6756 -0.6541
 5929SOL    HW129249   1.637   2.511   4.971 -1.4119 -0.8697 -0.2378
 5929SOL    HW229250   1.656   2.456   4.833 -1.2411 -0.3252 -0.5983
 5930SOL     OW29251   3.603   0.229   3.716 -0.3094  0.1824 -0.6905
 5930SOL    HW129252   3.623   0.291   3.645 -1.9002  1.9559  0.3960
 5930SOL    HW229253   3.658   0.257   3.789  1.0988 -2.1563 -0.8587
 5931SOL     OW29254   3.345   3.386   2.323 -0.2358  0.1107  0.0973
 5931SOL    HW129255   3.282   3.383   2.250 -1.6791  0.3540  1.3411
 5931SOL    HW229256   3.424   3.416   2.278  1.9918 -1.9523  2.6290
 5932SOL     OW29257   3.155   1.859   6.763  0.3871 -0.3130  0.7939
 5932SOL    HW129258   3.090   1.881   6.830  1.7568 -1.7676  2.5841
 5932SOL    HW229259   3.109   1.784   6.726  0.3185 -0.2026  0.6552
 5933SOL     OW29260   2.218   0.904   4.801 -0.5205  0.0752 -0.2733
 5933SOL    HW129261   2.300   0.867   4.834 -2.4929 -1.7458  2.4865
 5933SOL    HW229262   2.239   0.998   4.799  0.2163 -0.0486  1.9517
 5934SOL     OW29263   1.355   2.600   8.443  0.5705  0.1750 -0.5607
 5934SOL    HW129264   1.289   2.531   8.446 -0.3198  0.8762 -3.4628
 5934SOL    HW229265   1.301   2.675   8.418 -0.4591 -0.0481  0.9881
 5935SOL     OW29266   0.390   1.380   5.347  0.1046 -1.0880 -1.0854
 5935SOL    HW129267   0.369   1.320   5.419  2.1588  2.2846  2.3396
 5935SOL    HW229268   0.368   1.331   5.268 -0.5101  2.6442 -3.2078
 5936SOL     OW29269   0.557   0.377   9.621  0.1148 -0.2168  0.7340
 5936SOL    HW129270   0.632   0.408   9.571  0.5233  1.5799  2.4648
 5936SOL    HW229271   0.599   0.298   9.655  1.1861 -0.3724 -0.9560
 5937SOL     OW29272   1.420   3.658   7.115  0.4633  0.1215 -0.3965
 5937SOL    HW129273   1.405   3.600   7.190 -2.4525  0.8565 -0.4362
 5937SOL    HW229274   1.468   3.730   7.156 -1.2111 -0.2343  2.1938
 5938SOL     OW29275   1.285   4.447   3.745  0.2941 -0.1873  0.4606
 5938SOL    HW129276   1.297   4.381   3.812  0.0024 -0.8997 -0.1854
 5938SOL    HW229277   1.232   4.513   3.789  1.5858  0.3957  1.1244
 5939SOL     OW29278   2.128   1.876  10.362 -0.0642 -0.1545  0.0494
 5939SOL    HW129279   2.186   1.889  10.286 -0.5575  0.2555 -0.2554
 5939SOL    HW229280   2.195   1.888  10.429 -0.2387 -0.9376  0.3653
 5940SOL     OW29281   3.915   1.627   7.580  0.1579  0.2516  0.4121
 5940SOL    HW129282   3.889   1.672   7.661 -1.3711  0.3835 -0.1535
 5940SOL    HW229283   3.832   1.590   7.549 -0.6033  0.4779  2.1476
 5941SOL     OW29284   4.190   4.472  13.506  0.4368 -0.4152 -0.5702
 5941SOL    HW129285   4.241   4.391  13.515 -2.0850 -2.0748 -1.2768
 5941SOL    HW229286   4.204   4.504  13.595 -1.3746 -2.4587  0.4576
 5942SOL     OW29287   2.086   0.252   1.686  0.5786 -0.4694  0.2175
 5942SOL    HW129288   2.004   0.204   1.701  1.3975 -1.9616 -0.1139
 5942SOL    HW229289   2.121   0.194   1.619 -1.4526 -0.6421 -0.7102
 5943SOL     OW29290   3.404   2.882   5.347  0.8040  0.3373 -0.3118
 5943SOL    HW129291   3.467   2.816   5.318 -0.6711 -0.3028 -2.0388
 5943SOL    HW229292   3.328   2.831   5.375  1.2413  1.2621  2.6292
 5944SOL     OW29293   3.389   3.456  14.691  0.3434  0.3540  0.2749
 5944SOL    HW129294   3.307   3.449  14.739 -0.2825  1.4856 -0.6347
 5944SOL    HW229295   3.433   3.372  14.703  0.2079  0.1994 -0.3353
 5945SOL     OW29296   3.540   2.201  13.660  0.0323  0.6048 -0.5586
 5945SOL    HW129297   3.600   2.241  13.597  0.2285  1.9655  0.4705
 5945SOL    HW229298   3.585   2.212  13.744 -2.0988 -1.6281  0.8562
 5946SOL     OW29299   2.847   0.068   6.454  0.0780  0.3977  0.1661
 5946SOL    HW129300   2.828   0.046   6.545 -0.5226 -2.1726 -0.6030
 5946SOL    HW229301   2.876   0.160   6.459  0.3151  0.3386 -0.1018
 5947SOL     OW29302   4.637   0.292   8.098 -0.2548  0.1641  0.5367
 5947SOL    HW129303   4.570   0.360   8.106  0.5207  1.0360 -0.3984
 5947SOL    HW229304   4.585   0.213   8.110  0.5971 -0.6667 -1.2631
 5948SOL     OW29305   2.736   3.504   4.218  0.4901 -0.3824  0.4402
 5948SOL    HW129306   2.791   3.559   4.162 -0.8326  0.7111  0.2121
 5948SOL    HW229307   2.649   3.530   4.189  0.3879 -1.5450 -0.2857
 5949SOL     OW29308   1.431   2.065   6.680  0.0577  0.3794 -0.3372
 5949SOL    HW129309   1.406   2.157   6.678  1.1945  0.7072  0.5488
 5949SOL    HW229310   1.413   2.046   6.588 -0.0742  2.2200 -0.6776
 5950SOL     OW29311   4.479   2.629   8.107  0.2655  0.0603  0.0002
 5950SOL    HW129312   4.567   2.629   8.143 -0.1324 -1.6669  1.0000
 5950SOL    HW229313   4.497   2.602   8.017  1.8918  0.1023  0.3268
 5951SOL     OW29314   2.525   0.473  13.885 -0.4266 -0.3520  0.2645
 5951SOL    HW129315   2.525   0.525  13.804 -2.6386 -0.2827  0.3172
 5951SOL    HW229316   2.578   0.524  13.946  0.3714 -1.2129  0.2953
 5952SOL     OW29317   3.902   3.807   0.565  0.1148 -0.0631 -0.2351
 5952SOL    HW129318   3.851   3.867   0.511  0.1320 -0.5229 -0.7558
 5952SOL    HW229319   3.834   3.765   0.618 -0.4902 -0.9916 -1.7682
 5953SOL     OW29320   2.426   3.992   9.360  0.9680 -0.1281  0.0101
 5953SOL    HW129321   2.389   4.066   9.408  1.6074 -0.1335  0.4979
 5953SOL    HW229322   2.484   3.948   9.422 -0.7178 -1.4671  0.6535
 5954SOL     OW29323   1.098   2.645   3.110  0.4555  0.1047 -0.0347
 5954SOL    HW129324   1.106   2.735   3.141 -0.3796  0.0971  0.1988
 5954SOL    HW229325   1.183   2.607   3.131  0.7589  1.6005  1.4354
 5955SOL     OW29326   3.940   1.369   2.735  0.3866 -0.0421  0.4592
 5955SOL    HW129327   4.010   1.309   2.708 -2.8027 -4.0304  0.9891
 5955SOL    HW229328   3.926   1.324   2.818 -1.3250  0.0430  0.2023
 5956SOL     OW29329   2.444   3.346   7.000  0.1590  0.0218 -0.0079
 5956SOL    HW129330   2.450   3.393   7.083 -1.2255  2.4355 -1.3039
 5956SOL    HW229331   2.531   3.307   6.987 -0.0783 -0.4288 -0.2761
 5957SOL     OW29332   2.345   4.499   7.774  0.2616 -0.0074 -0.3445
 5957SOL    HW129333   2.313   4.486   7.685 -0.0147  0.5055 -0.3212
 5957SOL    HW229334   2.270   4.541   7.817  1.4453  2.4502 -0.7231
 5958SOL     OW29335   4.669   2.512  10.361  0.4761 -0.7122  0.1391
 5958SOL    HW129336   4.618   2.450  10.412  1.1616 -1.9853 -0.7314
 5958SOL    HW229337   4.673   2.457  10.283 -1.1377  0.6985 -0.9301
 5959SOL     OW29338   0.067   2.159   4.764 -0.7283 -0.5093 -0.0755
 5959SOL    HW129339   4.700   2.133   4.780 -1.4844  2.2565  0.0763
 5959SOL    HW229340   0.079   2.112   4.682 -1.5129 -0.4308 -0.2370
 5960SOL     OW29341   0.290   3.475   1.617 -0.7287  0.1327  0.2313
 5960SOL    HW129342   0.234   3.398   1.624 -0.6216  0.0152 -0.2558
 5960SOL    HW229343   0.252   3.502   1.533  2.8509 -0.9911 -1.7158
 5961SOL     OW29344   3.329   1.577  13.021 -0.4271 -0.6571 -0.0019
 5961SOL    HW129345   3.354   1.486  13.002  1.6166 -0.0839 -0.0951
 5961SOL    HW229346   3.258   1.560  13.083  0.1669 -3.0783  0.0458
 5962SOL     OW29347   4.082   1.903   3.499 -0.2942  0.5090 -0.2984
 5962SOL    HW129348   4.096   1.808   3.500 -0.1610  0.5376  0.5568
 5962SOL    HW229349   4.142   1.923   3.428  0.9548  1.0496  0.9240
 5963SOL     OW29350   2.262   1.018  13.929  0.2052 -0.0380 -0.4481
 5963SOL    HW129351   2.324   1.062  13.988  0.3175 -1.0454  0.1722
 5963SOL    HW229352   2.282   1.054  13.842  0.2578 -1.5588 -1.0664
 5964SOL     OW29353   0.140   4.526  13.557  0.0670  0.3835  0.3327
 5964SOL    HW129354   0.197   4.457  13.524 -0.5388 -0.4553  1.0297
 5964SOL    HW229355   0.087   4.475  13.619  1.8187 -0.4840  1.1108
 5965SOL     OW29356   4.217   4.379   1.662 -0.1580 -0.6254 -0.6087
 5965SOL    HW129357   4.128   4.366   1.693 -0.4619  1.3308 -0.6854
 5965SOL    HW229358   4.270   4.410   1.736 -0.7500 -3.2001  0.8953
 5966SOL     OW29359   2.799   2.030   8.108  0.2291  0.1979 -0.5478
 5966SOL    HW129360   2.812   2.087   8.185 -0.8355 -0.3334  0.0248
 5966SOL    HW229361   2.873   1.970   8.110 -0.6093 -0.8629 -1.5212
 5967SOL     OW29362   2.637   2.770  10.046 -0.2628 -0.4406 -0.2382
 5967SOL    HW129363   2.692   2.847  10.033  0.7797 -0.9165  1.3620
 5967SOL    HW229364   2.685   2.729  10.118  0.4880 -1.4221 -1.2949
 5968SOL     OW29365   3.852   4.500  12.408  0.4780 -0.2046 -0.4346
 5968SOL    HW129366   3.801   4.534  12.336  0.0812 -2.4936 -1.2209
 5968SOL    HW229367   3.906   4.434  12.364 -0.3526 -1.4800  0.4704
 5969SOL     OW29368   1.656   0.433  11.562  0.6165 -0.2290  0.6005
 5969SOL    HW129369   1.596   0.453  11.490 -1.2967  0.7538  2.4901
 5969SOL    HW229370   1.630   0.496  11.628  1.3203 -1.2673  1.8679
 5970SOL     OW29371   3.380   0.094   3.697 -0.1620 -0.8608  0.1171
 5970SOL    HW129372   3.462   0.143   3.701 -0.5974 -0.1177 -0.0701
 5970SOL    HW229373   3.360   0.076   3.789  1.1830 -0.0542  0.5703
 5971SOL     OW29374   0.603   2.558   4.149 -0.1322  0.1155  0.6530
 5971SOL    HW129375   0.594   2.640   4.197  0.9165  0.8088 -0.3420
 5971SOL    HW229376   0.538   2.558   4.079  1.4197 -1.6322 -0.7945
 5972SOL     OW29377   3.568   3.538  16.740  0.2374 -0.7086 -0.6449
 5972SOL    HW129378   3.657   3.506  16.758  0.1846 -0.4538  0.0452
 5972SOL    HW229379   3.522   3.454  16.746 -0.8890 -0.0767 -0.5811
 5973SOL     OW29380   2.032   1.973   6.575  0.1514 -0.0575 -0.1259
 5973SOL    HW129381   2.044   2.028   6.652  1.1361  0.4483 -0.6364
 5973SOL    HW229382   1.995   2.039   6.516  0.8592  0.5096  0.0601
 5974SOL     OW29383   4.239   4.318   3.011 -0.2833 -0.1533 -0.0942
 5974SOL    HW129384   4.203   4.399   2.974 -0.3520 -1.3158 -2.6036
 5974SOL    HW229385   4.161   4.263   3.003 -0.3336 -0.1920  0.7088
 5975SOL     OW29386   0.014   3.415   4.888 -0.2424  0.7352 -0.1230
 5975SOL    HW129387   4.696   3.491   4.848 -1.4110 -0.5188 -1.2337
 5975SOL    HW229388   4.662   3.364   4.914 -1.4821  1.9510 -1.3560
 5976SOL     OW29389   4.695   2.948   5.984 -0.1160 -0.0192  0.0346
 5976SOL    HW129390   0.033   2.882   5.950 -0.2033 -0.0721 -0.0206
 5976SOL    HW229391   0.031   3.021   5.999 -0.8861 -0.0033  3.0828
 5977SOL     OW29392   4.499   4.510  10.672  0.5773 -0.0513 -0.3494
 5977SOL    HW129393   4.590   4.501  10.643  0.5631 -0.3635 -0.2926
 5977SOL    HW229394   4.466   4.432  10.627  0.8663  0.4903 -1.5126
 5978SOL     OW29395   4.465   1.307   7.570 -0.4984  0.1434  0.3761
 5978SOL    HW129396   4.432   1.314   7.660 -0.8339 -1.2091  0.3627
 5978SOL    HW229397   4.551   1.347   7.574 -0.6648  0.4415  0.9879
 5979SOL     OW29398   4.527   4.550   4.963  0.5807  0.1800  0.4798
 5979SOL    HW129399   4.555   4.533   5.053  0.4244 -0.3144  0.4343
 5979SOL    HW229400   4.555   4.640   4.951 -1.6288  0.9477  1.0537
 5980SOL     OW29401   2.630   3.186   3.244 -0.6963 -0.5156 -0.2880
 5980SOL    HW129402   2.538   3.169   3.265 -1.1912  1.4827 -0.8366
 5980SOL    HW229403   2.672   3.110   3.284  0.5052  0.1142 -0.3516
 5981SOL     OW29404   0.119   0.975   6.525 -0.6149  0.4940  0.5542
 5981SOL    HW129405   0.103   0.891   6.483  0.2253  0.3595  0.5156
 5981SOL    HW229406   0.110   1.038   6.453 -0.3267  0.1860  0.2463
 5982SOL     OW29407   0.882   0.525   7.755 -0.1863 -0.0664 -0.2064
 5982SOL    HW129408   0.844   0.438   7.761 -0.5520  0.0807 -0.3665
 5982SOL    HW229409   0.814   0.570   7.704  0.4243  1.2674  0.1621
 5983SOL     OW29410   3.692   1.261   3.140 -0.5237 -0.1641  0.2126
 5983SOL    HW129411   3.766   1.248   3.200 -0.2794  0.0539 -0.0411
 5983SOL    HW229412   3.686   1.357   3.139  2.1439  0.0014 -0.7475
 5984SOL     OW29413   0.143   3.137  14.463 -0.2247  0.5875  0.2332
 5984SOL    HW129414   0.153   3.154  14.556  0.0651  0.0351  0.3077
 5984SOL    HW229415   0.230   3.104  14.441 -0.2732  1.5727 -1.4870
 5985SOL     OW29416   4.129   4.518   6.845  0.3362  0.0529 -0.0348
 5985SOL    HW129417   4.035   4.525   6.830  0.4347  1.6298  0.0616
 5985SOL    HW229418   4.175   4.552   6.769  1.7901 -0.2722  0.6981
 5986SOL     OW29419   1.706   1.417   5.186 -0.0164  0.3932 -0.2732
 5986SOL    HW129420   1.750   1.493   5.148 -0.2033  1.4158  1.5575
 5986SOL    HW229421   1.711   1.357   5.112  0.3316  0.2244 -0.1135
 5987SOL     OW29422   1.947   3.647   4.703  0.3229  0.0263  0.6665
 5987SOL    HW129423   1.971   3.732   4.740  0.2976  0.8041 -1.1109
 5987SOL    HW229424   2.034   3.608   4.692  1.3933  2.7583 -0.4549
 5988SOL     OW29425   0.984   3.492   3.094 -0.2749  0.1931 -0.4725
 5988SOL    HW129426   0.991   3.584   3.120  1.4448 -0.7553  2.4828
 5988SOL    HW229427   0.990   3.495   2.999 -2.1953  0.7178 -0.5676
 5989SOL     OW29428   3.129   2.105   6.966 -0.4396 -0.1790 -0.5615
 5989SOL    HW129429   3.099   2.176   6.910  0.7615  0.5497 -0.2892
 5989SOL    HW229430   3.055   2.044   6.970  0.2859 -1.0573 -0.5473
 5990SOL     OW29431   0.520   4.344   1.981  0.8467 -0.3745 -0.5313
 5990SOL    HW129432   0.510   4.271   2.042 -0.8619  2.1271  2.1580
 5990SOL    HW229433   0.599   4.320   1.933  0.8829 -2.8838  0.7773
 5991SOL     OW29434   1.763   3.268   5.229  0.0637  0.6034  0.0815
 5991SOL    HW129435   1.829   3.201   5.211 -0.7818 -0.0736 -0.5557
 5991SOL    HW229436   1.791   3.337   5.169  3.5488 -0.9700 -0.0887
 5992SOL     OW29437   4.724   0.239   5.851 -0.0456 -0.3305 -0.3585
 5992SOL    HW129438   4.681   0.200   5.927  0.5996  0.5711  0.4712
 5992SOL    HW229439   4.653   0.271   5.795  0.9359  1.7795 -0.4132
 5993SOL     OW29440   1.472   2.694   9.797 -0.2198  0.1457  0.3317
 5993SOL    HW129441   1.564   2.706   9.817 -0.1653  2.6336 -1.4420
 5993SOL    HW229442   1.471   2.600   9.780 -1.6934 -0.2479  2.6213
 5994SOL     OW29443   2.259   0.621   5.838 -0.0321 -0.2136  0.2071
 5994SOL    HW129444   2.228   0.621   5.748  0.3664  0.3894  0.0724
 5994SOL    HW229445   2.260   0.528   5.863  0.0664 -0.2381  0.1144
 5995SOL     OW29446   1.956   0.924   3.624  0.5396 -0.2611 -0.3442
 5995SOL    HW129447   1.918   0.888   3.543  1.2355 -0.9809 -0.3518
 5995SOL    HW229448   1.889   0.985   3.655  0.1882 -0.6376 -0.3681
 5996SOL     OW29449   2.910   2.632   7.956 -0.2963  0.0963  0.0661
 5996SOL    HW129450   2.824   2.672   7.939 -1.2902 -1.4339  1.5046
 5996SOL    HW229451   2.884   2.569   8.023 -1.1581  1.2093  0.7958
 5997SOL     OW29452   1.164   2.383   4.913  0.0994 -0.2336  0.0326
 5997SOL    HW129453   1.156   2.294   4.880 -1.2101 -0.1846  0.2152
 5997SOL    HW229454   1.092   2.420   4.863 -1.1845 -0.0797  2.0157
 5998SOL     OW29455   1.716   3.768   8.027  0.3362  0.8822 -0.1191
 5998SOL    HW129456   1.638   3.755   7.973 -0.4223  2.0901  0.6728
 5998SOL    HW229457   1.694   3.707   8.098 -0.2362  0.3676 -0.7419
 5999SOL     OW29458   3.016   1.059   3.957 -0.3467 -0.3239  0.2970
 5999SOL    HW129459   3.084   0.996   3.932 -0.7716 -0.7817  0.3006
 5999SOL    HW229460   3.007   1.114   3.879  0.0387  1.7681  1.7301
 6000SOL     OW29461   1.644   0.924   8.049  0.0892 -0.2380 -0.4445
 6000SOL    HW129462   1.683   1.009   8.064 -0.1351 -0.2264  0.0774
 6000SOL    HW229463   1.586   0.946   7.975  0.3077  1.8773  0.0147
 6001SOL     OW29464   1.899   4.429   9.077  0.1540 -0.1136 -0.1117
 6001SOL    HW129465   1.907   4.472   9.162 -1.6753  1.2309 -0.6140
 6001SOL    HW229466   1.815   4.385   9.087  0.0476  0.1579  0.2080
 6002SOL     OW29467   2.709   0.367   9.871 -0.3059  0.2255  0.1967
 6002SOL    HW129468   2.681   0.285   9.911  0.4664  1.6216  3.5931
 6002SOL    HW229469   2.724   0.415   9.952 -1.5986 -0.1871  0.6774
 6003SOL     OW29470   0.203   0.916   5.564 -0.1066 -0.1450 -0.6101
 6003SOL    HW129471   0.188   0.914   5.659  0.7090 -0.2758 -0.4820
 6003SOL    HW229472   0.141   0.980   5.529 -0.8612 -0.4075  0.2481
 6004SOL     OW29473   4.338   3.561   1.579  0.2103 -0.2713 -0.0167
 6004SOL    HW129474   4.322   3.467   1.581  1.1109 -0.4393 -1.0749
 6004SOL    HW229475   4.289   3.594   1.655  0.1639 -0.7178  0.1442
 6005SOL     OW29476   3.403   1.481  10.445 -0.1162 -0.7609 -0.0443
 6005SOL    HW129477   3.424   1.392  10.416  1.2071 -1.1075  2.0220
 6005SOL    HW229478   3.459   1.476  10.522  0.7802  0.3607 -0.6253
 6006SOL     OW29479   0.700   2.844  16.021 -0.4102  0.5625 -0.2271
 6006SOL    HW129480   0.788   2.881  16.024  0.2242 -0.9505 -0.0074
 6006SOL    HW229481   0.657   2.892  15.950 -1.8001  1.3776  1.1854
 6007SOL     OW29482   3.373   2.211  14.960  0.1636  0.5053  0.3163
 6007SOL    HW129483   3.454   2.162  14.976 -0.7441 -0.9452  0.4476
 6007SOL    HW229484   3.316   2.167  15.022  1.7828 -1.7342  0.2133
 6008SOL     OW29485   4.142   4.481   6.284 -0.4400  0.4597  0.3901
 6008SOL    HW129486   4.227   4.491   6.326 -0.6172 -0.4449  0.9762
 6008SOL    HW229487   4.087   4.541   6.335 -0.3375 -0.3538  1.4795
 6009SOL     OW29488   4.367   3.818  15.116  0.0914 -0.1584  0.6917
 6009SOL    HW129489   4.384   3.844  15.026  2.4051 -0.2603  1.0763
 6009SOL    HW229490   4.317   3.739  15.096 -1.2695  1.0064 -0.4259
 6010SOL     OW29491   0.895   2.681   5.667 -0.1708 -0.0526  0.7672
 6010SOL    HW129492   0.978   2.698   5.622 -0.5705  0.1297  0.1094
 6010SOL    HW229493   0.837   2.731   5.609  1.2001  2.7134  1.7792
 6011SOL     OW29494   4.458   3.211   2.729 -0.1569 -0.0331 -0.2738
 6011SOL    HW129495   4.428   3.297   2.760 -2.9896 -1.0744 -0.1164
 6011SOL    HW229496   4.459   3.228   2.634  0.2866  0.1074 -0.2440
 6012SOL     OW29497   0.771   1.236   0.809  0.3395  0.1083  0.3385
 6012SOL    HW129498   0.851   1.277   0.775  0.2128  0.1481  0.0885
 6012SOL    HW229499   0.725   1.318   0.825  0.9898  0.8157 -1.4029
 6013SOL     OW29500   4.245   4.415   4.193  0.2893 -0.2709  0.0237
 6013SOL    HW129501   4.228   4.360   4.270 -0.6892  1.6660  1.2006
 6013SOL    HW229502   4.332   4.382   4.170 -0.1231 -1.1836 -0.2201
 6014SOL     OW29503   3.610   0.653  11.115  0.4523  0.2587 -0.2275
 6014SOL    HW129504   3.591   0.568  11.074 -1.1305  2.1029 -3.3807
 6014SOL    HW229505   3.564   0.715  11.057 -0.2456  1.4729  1.6248
 6015SOL     OW29506   4.456   1.224   2.686 -0.5630  0.3467 -0.2074
 6015SOL    HW129507   4.549   1.239   2.701 -0.7196  1.0628  0.0453
 6015SOL    HW229508   4.450   1.136   2.648 -0.7064  0.0520  0.4965
 6016SOL     OW29509   0.037   0.221   6.756  0.4557 -0.3226 -0.1528
 6016SOL    HW129510   0.039   0.266   6.671 -1.0314  0.2622  0.1227
 6016SOL    HW229511   0.065   0.298   6.807  0.7384  0.0039 -0.7885
 6017SOL     OW29512   2.407   1.267   3.677  0.0731  0.0880 -0.0728
 6017SOL    HW129513   2.343   1.197   3.665  1.1805 -1.0376  0.5450
 6017SOL    HW229514   2.356   1.318   3.739 -0.5141 -0.4156 -0.1363
 6018SOL     OW29515   3.221   1.206  10.161  0.3507 -1.2408 -0.2159
 6018SOL    HW129516   3.154   1.214  10.228  1.3303 -2.1839  0.8890
 6018SOL    HW229517   3.207   1.281  10.104 -1.3506 -1.7977 -0.5413
 6019SOL     OW29518   1.825   3.692   3.105 -0.7158 -0.0768 -0.3236
 6019SOL    HW129519   1.737   3.655   3.113 -0.6189 -0.3863 -0.7338
 6019SOL    HW229520   1.828   3.745   3.185 -0.3356  2.3958 -1.9468
 6020SOL     OW29521   3.265   1.877  17.361  0.4809  0.4169 -0.0872
 6020SOL    HW129522   3.293   1.968  17.354  0.9945  0.2724  0.0694
 6020SOL    HW229523   3.338   1.844  17.414 -0.7142 -0.8480  0.7812
 6021SOL     OW29524   2.036   0.019  12.734  0.5573  0.0789  0.7846
 6021SOL    HW129525   2.024   0.101  12.687 -2.4776  0.0364  1.4549
 6021SOL    HW229526   2.048   0.067  12.816  0.0379  1.4568  0.0504
 6022SOL     OW29527   3.569   1.570   7.846  0.0739  0.2372 -0.9319
 6022SOL    HW129528   3.642   1.629   7.867 -0.3630  0.3724  0.1977
 6022SOL    HW229529   3.580   1.494   7.903 -0.9094  0.0988 -0.9285
 6023SOL     OW29530   1.639   2.796  16.699  0.2509 -0.0811  0.0560
 6023SOL    HW129531   1.591   2.739  16.639 -0.0723  0.1549  0.0928
 6023SOL    HW229532   1.727   2.802  16.660 -0.9338 -0.3902 -2.6495
 6024SOL     OW29533   4.661   1.688  14.745 -0.2507  0.2165 -0.0609
 6024SOL    HW129534   0.012   1.707  14.688  0.3103 -0.8973  0.2960
 6024SOL    HW229535   4.702   1.648  14.822 -0.5017  0.6448  0.2923
 6025SOL     OW29536   0.467   2.570   6.252 -0.1728 -0.3567  0.1109
 6025SOL    HW129537   0.556   2.593   6.278 -0.3216  1.2895 -0.8105
 6025SOL    HW229538   0.471   2.600   6.161  0.4684 -2.7646 -0.6532
 6026SOL     OW29539   1.038   2.166   9.961  0.1019  0.0641  0.0932
 6026SOL    HW129540   1.037   2.252  10.002 -0.9354 -0.0475  0.2936
 6026SOL    HW229541   0.987   2.185   9.883 -1.0060  0.0944  0.8230
 6027SOL     OW29542   0.482   3.750  17.513 -0.3927 -0.4748 -0.4425
 6027SOL    HW129543   0.517   3.667  17.481 -0.8079 -0.2007 -1.5838
 6027SOL    HW229544   0.534   3.769  17.592 -3.3856  1.0905  1.1604
 6028SOL     OW29545   1.186   2.424   9.279  0.5169 -0.0777 -0.4070
 6028SOL    HW129546   1.123   2.434   9.208 -2.2751 -1.3130  1.8616
 6028SOL    HW229547   1.135   2.467   9.347  0.5893 -1.9375  0.8407
 6029SOL     OW29548   0.215   0.497  13.960 -0.2947  0.3200 -0.1075
 6029SOL    HW129549   0.164   0.441  14.018 -2.4637  1.5759 -0.8258
 6029SOL    HW229550   0.270   0.556  14.012 -1.5053  0.9332  0.4689
 6030SOL     OW29551   2.186   2.326   4.738  0.6393  0.6036 -0.4623
 6030SOL    HW129552   2.193   2.417   4.709 -1.1868  0.3617 -1.6502
 6030SOL    HW229553   2.214   2.326   4.829  0.6618  0.1199 -0.4679
 6031SOL     OW29554   2.911   3.895  16.525  0.8923  0.1135 -0.2490
 6031SOL    HW129555   2.833   3.840  16.531 -0.0364  1.5640  0.9824
 6031SOL    HW229556   2.931   3.884  16.432 -1.5850 -0.9050 -0.6403
 6032SOL     OW29557   0.687   1.690   8.891  0.2009 -0.6213 -0.4951
 6032SOL    HW129558   0.645   1.775   8.878  1.8808  0.4425  0.9392
 6032SOL    HW229559   0.699   1.698   8.986  0.8581 -1.8517 -0.4733
 6033SOL     OW29560   2.343   3.767   6.018 -0.0360  0.1348  0.0036
 6033SOL    HW129561   2.386   3.765   5.932 -3.5168  0.6320 -1.7465
 6033SOL    HW229562   2.346   3.862   6.030 -1.7972  0.0618  0.8968
 6034SOL     OW29563   3.209   1.766  17.120 -0.0426 -0.5043  0.1729
 6034SOL    HW129564   3.213   1.804  17.208  1.4814  0.4679 -0.3217
 6034SOL    HW229565   3.147   1.826  17.077  1.1834 -0.0529 -0.9552
 6035SOL     OW29566   3.721   0.722   2.935  0.0264  0.3286 -0.4101
 6035SOL    HW129567   3.808   0.696   2.904 -0.0137 -0.6411  0.2953
 6035SOL    HW229568   3.670   0.642   2.924  0.8353 -0.0016 -1.7709
 6036SOL     OW29569   4.053   4.483   0.741  0.2967  0.4468 -0.1262
 6036SOL    HW129570   3.994   4.474   0.666 -1.8108 -1.9546  1.8370
 6036SOL    HW229571   4.104   4.562   0.723  0.5462  0.5791  1.1950
 6037SOL     OW29572   0.241   3.194   0.346  0.0831  0.2561  0.0192
 6037SOL    HW129573   0.330   3.168   0.369 -0.0904  0.0310  0.4473
 6037SOL    HW229574   0.257   3.251   0.271  0.2320  0.5619  0.2858
 6038SOL     OW29575   4.521   3.008   7.478  0.2226  0.3477  0.0834
 6038SOL    HW129576   4.612   2.993   7.454  0.4137 -0.4637  1.2957
 6038SOL    HW229577   4.471   2.995   7.397 -1.5986 -0.6110  1.3303
 6039SOL     OW29578   2.426   0.315   4.825  0.2162 -0.1506 -0.6076
 6039SOL    HW129579   2.358   0.364   4.777  0.6489  0.1496 -0.9140
 6039SOL    HW229580   2.379   0.296   4.906  1.3894  2.3456  0.6383
 6040SOL     OW29581   4.113   0.544   1.668  0.4802 -0.3139 -0.1531
 6040SOL    HW129582   4.022   0.530   1.641  0.1916  0.4189  0.4209
 6040SOL    HW229583   4.136   0.629   1.629 -0.7569 -0.1401 -0.5026
 6041SOL     OW29584   1.898   2.567   7.511 -0.4697  0.4639 -0.3495
 6041SOL    HW129585   1.893   2.478   7.477  0.1741  0.3361 -0.1001
 6041SOL    HW229586   1.840   2.609   7.448 -1.8765  1.1314  1.3588
 6042SOL     OW29587   1.450   4.486   8.765  0.2749  0.4017 -0.4897
 6042SOL    HW129588   1.494   4.537   8.832 -0.9231  1.5040 -0.5485
 6042SOL    HW229589   1.367   4.463   8.808 -0.2981  2.9932 -0.2395
 6043SOL     OW29590   0.932   1.648   0.991 -0.0014 -0.0925 -0.0753
 6043SOL    HW129591   1.014   1.683   0.956 -0.4012  2.7841  1.8954
 6043SOL    HW229592   0.873   1.721   0.971 -1.6438 -1.0792  1.1474
 6044SOL     OW29593   1.977   4.663  16.929 -0.2680  0.7226  0.1498
 6044SOL    HW129594   2.067   4.631  16.932 -0.8803 -0.9278  0.7984
 6044SOL    HW229595   1.983   4.706  16.844  0.9193 -0.2221 -0.2459
 6045SOL     OW29596   0.701   0.320   0.627 -0.4220 -0.5581  0.0206
 6045SOL    HW129597   0.760   0.342   0.555 -0.7435  2.5215  0.6841
 6045SOL    HW229598   0.735   0.249   0.681 -0.9283 -0.5577  0.3498
 6046SOL     OW29599   1.089   3.500   9.447  0.2973 -0.3038  0.2986
 6046SOL    HW129600   1.130   3.544   9.521 -0.1145 -0.2035  0.4710
 6046SOL    HW229601   1.015   3.458   9.491  0.9584 -1.9005 -0.1298
 6047SOL     OW29602   2.228   3.281  16.882  0.2080 -0.6491  0.1518
 6047SOL    HW129603   2.238   3.373  16.903 -0.9479  0.2431 -3.0727
 6047SOL    HW229604   2.136   3.280  16.909  0.0636  1.6108 -0.2501
 6048SOL     OW29605   0.686   4.038  17.217  0.4037  0.3270  0.1079
 6048SOL    HW129606   0.729   4.034  17.302  2.7126  0.8962 -1.0294
 6048SOL    HW229607   0.642   3.955  17.203 -0.9548  0.6899  2.2493
 6049SOL     OW29608   2.718   0.623  14.966  0.2471  0.0944  0.3441
 6049SOL    HW129609   2.809   0.649  14.950  0.7067 -1.6461  0.1018
 6049SOL    HW229610   2.674   0.708  14.971 -0.5384 -0.2334 -1.1425
 6050SOL     OW29611   2.732   1.614  12.663  0.0738  0.4280 -0.5696
 6050SOL    HW129612   2.735   1.534  12.716  1.3593 -1.2683 -3.1837
 6050SOL    HW229613   2.643   1.643  12.682  0.5512  1.5242  0.0200
 6051SOL     OW29614   0.779   0.834  13.251  0.1053 -0.0028 -0.0216
 6051SOL    HW129615   0.702   0.890  13.257  2.0374  2.7321 -1.0916
 6051SOL    HW229616   0.759   0.776  13.325  1.2656 -1.6303 -0.9676
 6052SOL     OW29617   4.576   1.751   4.035  0.4386  0.1756 -0.0684
 6052SOL    HW129618   4.554   1.662   4.008  0.8156  0.3150 -0.8180
 6052SOL    HW229619   4.629   1.728   4.111 -0.5428 -1.3092  0.1698
 6053SOL     OW29620   0.181   4.189   7.039 -0.5093  0.0764 -0.2453
 6053SOL    HW129621   0.166   4.146   6.954  0.5088 -1.2919  0.2669
 6053SOL    HW229622   0.251   4.254   7.028 -1.3325  0.8230 -1.1281
 6054SOL     OW29623   2.168   0.043  10.596  0.9081 -0.6892  0.4158
 6054SOL    HW129624   2.109   4.692  10.606  1.1774 -0.5364  3.0957
 6054SOL    HW229625   2.110   0.113  10.625 -0.2613 -0.6975 -1.8635
 6055SOL     OW29626   0.056   0.949  16.241  0.3648  0.4917  0.4841
 6055SOL    HW129627   4.706   0.897  16.273  0.3132  0.4993  0.3768
 6055SOL    HW229628   0.070   1.005  16.318  3.6735  0.8086 -0.3310
 6056SOL     OW29629   4.699   0.302   0.407 -0.0446  0.3037  0.2991
 6056SOL    HW129630   0.048   0.310   0.468 -0.4360 -1.0453  0.9472
 6056SOL    HW229631   0.022   0.282   0.326 -0.7759  0.4093 -0.1496
 6057SOL     OW29632   3.157   3.122   6.620 -0.6244  0.1521  0.3832
 6057SOL    HW129633   3.105   3.202   6.617 -1.5324 -0.3791  1.8588
 6057SOL    HW229634   3.090   3.068   6.662 -0.7749  1.3027  1.5990
 6058SOL     OW29635   4.576   4.602   2.420 -0.4794 -0.1405  0.2888
 6058SOL    HW129636   4.586   4.523   2.473  0.1007 -0.0842  0.2617
 6058SOL    HW229637   4.603   4.667   2.484  1.7046  0.4885 -1.2375
 6059SOL     OW29638   2.926   2.590   4.755  0.0048 -0.4884  0.3725
 6059SOL    HW129639   2.936   2.670   4.807 -1.3742  0.7414 -1.2305
 6059SOL    HW229640   2.868   2.538   4.810 -2.2191  1.9827  0.3514
 6060SOL     OW29641   0.293   4.226   3.803 -0.5184  0.2062  0.7436
 6060SOL    HW129642   0.367   4.169   3.821 -1.3449 -1.0545  0.1089
 6060SOL    HW229643   0.244   4.167   3.746 -0.0123  0.3707  0.1337
 6061SOL     OW29644   0.906   2.836   7.489 -0.4072  0.5292  0.8676
 6061SOL    HW129645   0.814   2.855   7.472 -0.2645  0.0457 -0.4707
 6061SOL    HW229646   0.925   2.771   7.421 -0.3641 -0.8245  2.1757
 6062SOL     OW29647   2.718   3.794   0.478 -0.5399  0.2151  0.0632
 6062SOL    HW129648   2.786   3.729   0.496  0.8440  1.5889 -0.1873
 6062SOL    HW229649   2.671   3.789   0.561  0.2772 -2.3640  0.3482
 6063SOL     OW29650   1.321   3.646   2.026  0.3820 -0.0899  0.5906
 6063SOL    HW129651   1.373   3.578   2.070 -0.6414 -1.8775 -0.9573
 6063SOL    HW229652   1.315   3.608   1.939 -0.5324  1.2816  0.0541
 6064SOL     OW29653   0.088   4.655   4.584 -0.2265 -0.2037 -0.2375
 6064SOL    HW129654   0.081   4.722   4.517 -0.3200 -0.7245 -0.7511
 6064SOL    HW229655   0.122   4.573   4.548  0.8087  0.1016  0.0543
 6065SOL     OW29656   1.220   1.242  13.189 -0.1703 -0.6019 -0.0810
 6065SOL    HW129657   1.171   1.211  13.113  1.3528  0.3333 -1.4376
 6065SOL    HW229658   1.154   1.274  13.251  0.5506 -0.0798  0.4281
 6066SOL     OW29659   3.860   3.180   2.764  0.3803  0.1115  0.3212
 6066SOL    HW129660   3.871   3.110   2.829  3.4306 -1.1264 -1.5493
 6066SOL    HW229661   3.928   3.152   2.703 -0.5940  1.5006 -1.4168
 6067SOL     OW29662   4.372   2.327   0.193 -0.3396 -0.3288 -0.4018
 6067SOL    HW129663   4.368   2.363   0.281 -0.2726 -0.9093 -0.1577
 6067SOL    HW229664   4.286   2.352   0.161 -1.0762  0.1412  1.9746
 6068SOL     OW29665   1.680   2.424  11.526  0.1073 -0.3548 -0.1442
 6068SOL    HW129666   1.687   2.519  11.529 -0.2743 -0.3669  1.2756
 6068SOL    HW229667   1.658   2.400  11.436 -2.1073  0.0863  0.2687
 6069SOL     OW29668   2.728   1.458   2.400 -0.0724 -0.3481 -0.1517
 6069SOL    HW129669   2.682   1.417   2.327  0.1288 -0.1036 -0.4187
 6069SOL    HW229670   2.769   1.533   2.356 -0.8464  1.1313  1.6609
 6070SOL     OW29671   3.317   4.407   7.299  0.5047 -0.0042  0.3455
 6070SOL    HW129672   3.230   4.446   7.313 -0.0272 -0.4886 -1.6401
 6070SOL    HW229673   3.326   4.414   7.204 -2.9448  0.3395  0.0404
 6071SOL     OW29674   2.537   1.225   3.275  0.6007  0.8841 -0.3408
 6071SOL    HW129675   2.479   1.157   3.309  3.2402 -0.5309  1.2934
 6071SOL    HW229676   2.472   1.277   3.227 -0.8448 -1.2700 -0.7069
 6072SOL     OW29677   3.909   1.727  13.417 -0.2328 -0.2351  0.6555
 6072SOL    HW129678   3.902   1.717  13.512  1.1883 -2.0211  0.5632
 6072SOL    HW229679   3.840   1.793  13.406  0.0437  0.3125  2.2154
 6073SOL     OW29680   3.729   0.500   0.923 -0.2724 -0.7858  0.9066
 6073SOL    HW129681   3.681   0.455   0.992  0.6118  2.1778  3.4256
 6073SOL    HW229682   3.796   0.434   0.905  0.7213  0.6033 -0.4374
 6074SOL     OW29683   4.076   2.914   5.375  0.1594  0.2322  0.1978
 6074SOL    HW129684   4.028   2.832   5.378 -1.9068  1.3819 -1.4560
 6074SOL    HW229685   4.032   2.965   5.444  1.6223  0.2150  1.1564
 6075SOL     OW29686   1.902   2.454  12.333 -0.0626 -0.0133 -0.2297
 6075SOL    HW129687   1.822   2.506  12.336  0.3956  0.4998  2.7772
 6075SOL    HW229688   1.930   2.469  12.243 -2.0353  0.5592 -0.7516
 6076SOL     OW29689   0.586   2.338   8.752 -0.2194  0.5604  0.4599
 6076SOL    HW129690   0.681   2.336   8.742 -0.3260  0.1767 -0.5840
 6076SOL    HW229691   0.573   2.432   8.755 -0.9922  0.5105 -1.0746
 6077SOL     OW29692   3.502   4.597   7.974  0.3152  0.1569 -0.0269
 6077SOL    HW129693   3.528   4.525   7.916  1.3337 -0.6097  1.3606
 6077SOL    HW229694   3.468   4.543   8.046 -2.0616 -0.5185 -1.6669
 6078SOL     OW29695   2.433   3.184   4.387  0.1938 -0.0013  0.2708
 6078SOL    HW129696   2.352   3.233   4.400 -1.3827 -2.2828 -0.9893
 6078SOL    HW229697   2.500   3.252   4.380 -0.6092  0.6181 -1.6067
 6079SOL     OW29698   3.652   3.266   2.561 -0.1036 -0.3576 -0.2182
 6079SOL    HW129699   3.591   3.222   2.502 -0.7161  0.7801 -0.4404
 6079SOL    HW229700   3.717   3.200   2.584  0.8967  0.6043 -0.2871
 6080SOL     OW29701   1.517   4.674   8.145  0.2176  0.2150  0.0503
 6080SOL    HW129702   1.593   4.719   8.180  0.8206 -1.9032  1.4892
 6080SOL    HW229703   1.534   4.679   8.051 -0.9530 -0.0012 -0.1771
 6081SOL     OW29704   1.712   1.319   8.241  0.2625  0.2316 -0.0131
 6081SOL    HW129705   1.784   1.276   8.193  0.4866  1.0668 -0.4320
 6081SOL    HW229706   1.699   1.256   8.312 -0.6055  0.4201 -0.0138
 6082SOL     OW29707   1.716   0.832   5.519  0.1915  0.0352  0.6242
 6082SOL    HW129708   1.773   0.794   5.452  0.0065  0.9462 -0.0500
 6082SOL    HW229709   1.637   0.779   5.509  0.2846 -0.3452  1.9445
 6083SOL     OW29710   3.919   2.869   8.550 -0.0435 -0.1611 -0.2368
 6083SOL    HW129711   3.914   2.913   8.635 -0.4721  2.2448 -1.5085
 6083SOL    HW229712   3.997   2.813   8.555 -1.0637 -1.5218  0.2061
 6084SOL     OW29713   3.489   0.897  11.031 -0.4037 -0.3923  0.3876
 6084SOL    HW129714   3.573   0.937  11.007  0.5836 -1.2689  2.4252
 6084SOL    HW229715   3.435   0.925  10.957 -1.2124 -1.8061  0.4482
 6085SOL     OW29716   0.769   4.096   8.228  0.4805  0.6443  0.3505
 6085SOL    HW129717   0.855   4.115   8.266  1.5410  1.8700 -2.7336
 6085SOL    HW229718   0.713   4.114   8.304 -2.5726 -2.9115 -1.0559
 6086SOL     OW29719   3.117   0.294   6.055  0.3290  0.1376 -0.5259
 6086SOL    HW129720   3.204   0.334   6.054  0.9538 -1.1409  1.2270
 6086SOL    HW229721   3.059   0.369   6.045  1.9835  1.3502 -1.1192
 6087SOL     OW29722   3.657   2.280   5.507  0.0259  0.0477  0.4699
 6087SOL    HW129723   3.643   2.285   5.602  0.3092 -0.5219  0.5367
 6087SOL    HW229724   3.595   2.212   5.481  1.1385  0.3123 -2.8804
 6088SOL     OW29725   0.686   4.182   4.307  0.1602  0.0882  0.1977
 6088SOL    HW129726   0.757   4.120   4.327 -1.6162 -2.6289 -1.8673
 6088SOL    HW229727   0.728   4.214   4.227 -1.6744 -0.0416 -0.8113
 6089SOL     OW29728   2.131   3.183   5.736 -0.8710 -0.2411 -0.1443
 6089SOL    HW129729   2.134   3.096   5.777  1.8413 -0.0773 -0.0053
 6089SOL    HW229730   2.219   3.218   5.737 -0.9922  0.0417  0.8133
 6090SOL     OW29731   0.728   2.777  13.299  0.3416  0.0947 -0.0555
 6090SOL    HW129732   0.686   2.697  13.269  1.9061 -0.9986  0.6546
 6090SOL    HW229733   0.661   2.840  13.270  0.6257  1.5948  2.4874
 6091SOL     OW29734   3.892   4.317   8.215 -0.1006  0.0835  0.2564
 6091SOL    HW129735   3.939   4.237   8.195 -0.6663 -0.6193  1.7444
 6091SOL    HW229736   3.801   4.286   8.214 -0.3307  0.7544  0.2724
 6092SOL     OW29737   4.611   2.083   0.757  0.0860  0.4721  0.2996
 6092SOL    HW129738   4.550   2.155   0.777 -0.3270  0.8591 -2.3796
 6092SOL    HW229739   4.566   2.033   0.690 -0.7640  1.4664  0.1228
 6093SOL     OW29740   0.797   0.207   5.708  0.3475 -0.5043  0.2520
 6093SOL    HW129741   0.884   0.170   5.722  1.0030  1.1493  0.4935
 6093SOL    HW229742   0.821   0.256   5.629 -0.1948  0.9354  0.9922
 6094SOL     OW29743   3.911   4.402   0.952 -0.1173  0.1968  0.4566
 6094SOL    HW129744   3.897   4.318   0.907  1.3274 -0.1225  0.5963
 6094SOL    HW229745   3.966   4.451   0.892 -0.4445 -0.9527 -0.7709
 6095SOL     OW29746   3.198   0.112  11.891  0.5933 -0.1757 -0.7895
 6095SOL    HW129747   3.112   0.081  11.864  0.1865 -1.4055  1.9158
 6095SOL    HW229748   3.210   0.081  11.981 -0.6947  0.0367 -0.5476
 6096SOL     OW29749   4.619   1.115   6.905  0.0533  0.0452 -0.6156
 6096SOL    HW129750   4.593   1.142   6.817 -3.0884  1.5688  0.7924
 6096SOL    HW229751   4.624   1.204   6.940 -0.3887  1.0783 -3.1978
 6097SOL     OW29752   0.073   2.231  12.038 -0.6863 -0.0295 -0.1599
 6097SOL    HW129753   0.137   2.181  11.988 -0.6459  1.3250 -1.4554
 6097SOL    HW229754   0.126   2.221  12.117  1.1226  1.7442 -1.1563
 6098SOL     OW29755   4.131   1.469   1.668 -0.0194 -0.5164  0.4709
 6098SOL    HW129756   4.118   1.381   1.633 -1.9841  0.7900 -1.9953
 6098SOL    HW229757   4.038   1.485   1.678  0.1535  0.3635  0.6466
 6099SOL     OW29758   2.092   2.647   2.176 -0.1963  0.0142  0.1755
 6099SOL    HW129759   2.017   2.659   2.118 -0.3584 -0.9440  0.1791
 6099SOL    HW229760   2.126   2.736   2.189  1.4619 -0.7985  1.4329
 6100SOL     OW29761   3.976   0.656   1.918 -0.1000  0.3914 -0.5862
 6100SOL    HW129762   3.992   0.681   1.827  0.5273 -0.0257 -0.5905
 6100SOL    HW229763   3.896   0.605   1.908  0.1362 -0.2875  1.1625
 6101SOL     OW29764   1.382   2.192   7.747 -0.5329  0.1148  0.1964
 6101SOL    HW129765   1.429   2.153   7.821 -0.1564  0.4494  0.1323
 6101SOL    HW229766   1.313   2.228   7.803  1.5267  1.9352  1.5441
 6102SOL     OW29767   0.057   4.537   3.126 -0.7332 -0.5132 -0.4120
 6102SOL    HW129768   0.067   4.447   3.155  3.4674 -0.0302 -0.4327
 6102SOL    HW229769   4.720   4.572   3.191 -0.8546  1.5730 -1.6395
 6103SOL     OW29770   2.818   2.154   1.462 -0.0903 -0.0198  0.3411
 6103SOL    HW129771   2.884   2.220   1.483  0.5532 -0.3491 -0.6264
 6103SOL    HW229772   2.762   2.207   1.405 -0.9648 -1.4931 -0.1699
 6104SOL     OW29773   1.902   1.979   2.228  0.5265  1.0681  0.5295
 6104SOL    HW129774   1.883   2.060   2.180 -0.9142  1.0961  1.1445
 6104SOL    HW229775   1.961   1.931   2.169 -2.0821  0.8754 -1.9352
 6105SOL     OW29776   1.679   1.075   7.107 -0.0489 -0.4175 -0.6564
 6105SOL    HW129777   1.762   1.079   7.059 -0.0434  0.0127 -0.6025
 6105SOL    HW229778   1.620   1.017   7.058 -1.8718  0.6465  0.2664
 6106SOL     OW29779   4.479   4.526   1.555 -0.4627 -0.9215 -0.0419
 6106SOL    HW129780   4.526   4.554   1.476  0.2403 -2.2354 -0.0924
 6106SOL    HW229781   4.492   4.603   1.610 -1.9479 -2.2707  2.2181
 6107SOL     OW29782   2.723   4.379   2.842  0.5686  0.2338  0.2609
 6107SOL    HW129783   2.758   4.468   2.839  0.2214  0.3652  0.0705
 6107SOL    HW229784   2.744   4.353   2.753  1.8124  1.9763  0.0591
 6108SOL     OW29785   4.503   2.934   8.122  0.6024  0.9203 -0.2285
 6108SOL    HW129786   4.548   2.849   8.119 -1.1670 -0.0460  0.4598
 6108SOL    HW229787   4.544   2.989   8.189  1.6263  0.7041 -0.6707
 6109SOL     OW29788   2.187   0.494   2.238 -0.0905 -0.3771  0.5993
 6109SOL    HW129789   2.165   0.579   2.201  0.2895 -1.3929 -1.9900
 6109SOL    HW229790   2.230   0.450   2.164  0.9555 -0.8261  1.4629
 6110SOL     OW29791   0.685   4.142   2.067 -0.0636 -0.2975  0.1006
 6110SOL    HW129792   0.768   4.162   2.110  1.4476  0.9107 -3.4484
 6110SOL    HW229793   0.697   4.049   2.046  0.8822  0.6926 -3.6572
 6111SOL     OW29794   0.140   2.003   3.714 -0.0976 -0.3431 -0.6428
 6111SOL    HW129795   0.106   2.019   3.802  1.9055 -0.2843  0.1272
 6111SOL    HW229796   0.192   1.923   3.714  0.4574  0.0078  1.4889
 6112SOL     OW29797   3.776   3.603  10.610 -0.2695 -0.2405 -0.3201
 6112SOL    HW129798   3.864   3.616  10.646  0.4611 -0.8265 -1.8934
 6112SOL    HW229799   3.786   3.620  10.517  0.6881 -0.6806 -0.2989
 6113SOL     OW29800   3.818   0.051  13.740 -0.0923 -0.1818 -0.0184
 6113SOL    HW129801   3.772   4.693  13.761  0.9843 -0.2575  1.9850
 6113SOL    HW229802   3.833   0.088  13.827  1.8530 -1.2060  0.0550
 6114SOL     OW29803   1.353   3.915   4.548  0.2447 -0.5044  0.0536
 6114SOL    HW129804   1.311   3.840   4.590 -0.2502 -1.6914 -2.5792
 6114SOL    HW229805   1.403   3.944   4.624 -0.4256 -0.7157  0.5709
 6115SOL     OW29806   0.407   1.578   2.572 -0.5975 -0.2813  0.1150
 6115SOL    HW129807   0.470   1.506   2.559 -1.5337 -1.2368  0.9010
 6115SOL    HW229808   0.367   1.579   2.485 -1.2332 -0.6839  0.3994
 6116SOL     OW29809   0.003   2.289   5.739  0.0910  0.0203  0.5836
 6116SOL    HW129810   0.046   2.332   5.665 -2.6054  2.6953  0.5814
 6116SOL    HW229811   0.077   2.254   5.788 -1.2759 -2.7741  0.6539
 6117SOL     OW29812   4.686   2.395   3.822  0.3436  0.5272 -0.4983
 6117SOL    HW129813   4.661   2.332   3.890  1.0306  1.7165  0.8486
 6117SOL    HW229814   0.051   2.404   3.856  0.6519 -0.0324 -1.1430
 6118SOL     OW29815   2.957   4.040   3.578 -0.1620  0.0597  0.5027
 6118SOL    HW129816   2.973   4.134   3.565 -0.0868 -0.2872 -1.9367
 6118SOL    HW229817   2.873   4.026   3.535 -0.1152  0.9954  0.0953
 6119SOL     OW29818   0.539   4.448   9.990  0.3125 -0.2014  0.6306
 6119SOL    HW129819   0.489   4.421   9.913  1.2302 -0.1515  0.0211
 6119SOL    HW229820   0.556   4.367  10.037  0.2197 -0.5958 -0.0057
 6120SOL     OW29821   3.383   2.588   9.827  0.4062  0.0913  0.2820
 6120SOL    HW129822   3.433   2.592   9.908  1.2554 -1.1594 -0.1955
 6120SOL    HW229823   3.440   2.525   9.785  2.2018  1.2108  1.0405
 6121SOL     OW29824   0.897   1.519  12.297 -0.0098 -0.4154 -0.2924
 6121SOL    HW129825   0.901   1.449  12.231  0.4738  0.3750 -1.1007
 6121SOL    HW229826   0.977   1.498  12.346  0.6577 -0.8076 -1.5471
 6122SOL     OW29827   4.506   1.475   3.965 -0.0303 -0.4284 -0.1445
 6122SOL    HW129828   4.480   1.389   3.931  0.3261 -0.2729 -0.8104
 6122SOL    HW229829   4.562   1.444   4.036  2.1679 -0.9766 -2.0787
 6123SOL     OW29830   4.530   0.463   0.250  0.1582  0.0625  0.6684
 6123SOL    HW129831   4.599   0.408   0.289 -1.2020  0.3747  3.5198
 6123SOL    HW229832   4.545   0.443   0.158  2.2503 -0.5672  1.1349
 6124SOL     OW29833   3.115   1.908   8.648  0.1570 -0.1300  0.5102
 6124SOL    HW129834   3.028   1.947   8.648 -0.0216 -0.5130  1.5717
 6124SOL    HW229835   3.173   1.981   8.628 -1.1649  0.5444 -0.8349
 6125SOL     OW29836   1.713   4.239   6.647  0.0220  0.2851 -0.5579
 6125SOL    HW129837   1.637   4.186   6.626  0.0515 -0.4136  1.0711
 6125SOL    HW229838   1.774   4.241   6.573  1.3521 -1.1450  0.5042
 6126SOL     OW29839   3.240   1.528   3.754 -0.0442 -0.3119  0.1217
 6126SOL    HW129840   3.272   1.447   3.714  0.8281 -0.2224  0.6541
 6126SOL    HW229841   3.323   1.561   3.788 -0.9643  2.0756  0.0009
 6127SOL     OW29842   1.860   1.400   7.320  0.0674 -0.1612  0.4458
 6127SOL    HW129843   1.842   1.490   7.348  2.1650 -0.4496  2.7352
 6127SOL    HW229844   1.775   1.369   7.290  1.3388 -0.8945 -2.3022
 6128SOL     OW29845   2.227   4.175   2.029  0.2004  0.0386  0.5226
 6128SOL    HW129846   2.173   4.248   2.001 -0.3497 -0.0808  1.2854
 6128SOL    HW229847   2.236   4.128   1.946 -1.9001 -0.3437  0.5068
 6129SOL     OW29848   3.103   0.471   8.417  0.2940  0.0189 -0.1542
 6129SOL    HW129849   3.061   0.385   8.414 -2.9454  1.5153  2.1797
 6129SOL    HW229850   3.159   0.463   8.339 -0.2972 -0.9587 -0.4720
 6130SOL     OW29851   2.786   0.716  13.860 -0.2275  0.1569 -0.6713
 6130SOL    HW129852   2.877   0.693  13.838 -0.0254 -0.2209  0.5445
 6130SOL    HW229853   2.760   0.633  13.900 -2.0019  0.3366 -1.4807
 6131SOL     OW29854   0.888   2.267   3.681  0.0201  0.2954  0.1371
 6131SOL    HW129855   0.957   2.229   3.735 -1.9419  1.1895  3.2642
 6131SOL    HW229856   0.854   2.186   3.645 -1.5197  0.8666  0.3177
 6132SOL     OW29857   1.373   3.223  16.936 -0.2133  0.1952  0.3249
 6132SOL    HW129858   1.375   3.317  16.951 -1.3529  0.3245 -0.3325
 6132SOL    HW229859   1.358   3.179  17.019  0.0602 -1.1157 -0.3164
 6133SOL     OW29860   1.779   4.409   1.620 -0.4767  0.8361  0.1826
 6133SOL    HW129861   1.857   4.446   1.578 -0.3631 -1.9726 -2.0450
 6133SOL    HW229862   1.714   4.455   1.568 -2.0099 -0.8632  0.5922
 6134SOL     OW29863   2.489   1.271   8.855 -0.6197  0.3316  0.0190
 6134SOL    HW129864   2.488   1.236   8.766  0.1195 -0.8397  0.4714
 6134SOL    HW229865   2.487   1.195   8.914  1.5914 -1.8227 -2.6697
 6135SOL     OW29866   0.004   1.191   1.513  0.4866  0.1882 -0.1819
 6135SOL    HW129867   4.673   1.265   1.488  0.5153  0.1293 -0.4269
 6135SOL    HW229868   4.680   1.159   1.589  0.0804 -1.6730 -1.2158
 6136SOL     OW29869   0.989   0.234   1.244  0.3584  0.4079  0.0125
 6136SOL    HW129870   1.022   0.215   1.332  0.6854  1.7130  0.1656
 6136SOL    HW229871   0.898   0.206   1.249  1.2733 -2.4463  0.7385
 6137SOL     OW29872   1.098   1.895   4.694 -0.1992  0.2597 -0.0632
 6137SOL    HW129873   1.008   1.918   4.672 -0.6374 -1.3324  0.0916
 6137SOL    HW229874   1.126   1.840   4.621 -2.0596  1.0417 -1.3461
 6138SOL     OW29875   2.918   3.881  16.226  0.1346  0.2637 -0.1678
 6138SOL    HW129876   2.845   3.941  16.237 -0.5368 -0.6233  0.2092
 6138SOL    HW229877   2.879   3.807  16.180 -1.2549  1.6850 -1.2682
 6139SOL     OW29878   2.772   0.088   3.480  0.3409 -0.2692  0.1834
 6139SOL    HW129879   2.859   0.098   3.442 -0.8751 -2.4348 -3.2124
 6139SOL    HW229880   2.761   4.717   3.485  1.7987 -0.3583  1.5646
 6140SOL     OW29881   3.201   2.734   4.268  0.2285  0.1040  0.3106
 6140SOL    HW129882   3.158   2.704   4.348 -1.4173  0.7419 -0.3316
 6140SOL    HW229883   3.289   2.746   4.302 -1.0969  2.6308  2.8950
 6141SOL     OW29884   2.600   0.869  12.160 -0.2405 -0.1336 -0.6050
 6141SOL    HW129885   2.600   0.949  12.108  0.5054  0.0875 -0.2636
 6141SOL    HW229886   2.509   0.849  12.137  0.7882 -1.5096 -3.4765
 6142SOL     OW29887   3.313   1.215   2.513  0.2104 -0.5048  0.7578
 6142SOL    HW129888   3.265   1.153   2.568  1.7241 -1.7823  0.6438
 6142SOL    HW229889   3.394   1.240   2.560  0.5652 -0.2280  0.0036
 6143SOL     OW29890   3.992   2.371   8.677  0.6947 -0.4320  0.8048
 6143SOL    HW129891   4.085   2.381   8.698 -0.2349  0.9312  4.2053
 6143SOL    HW229892   3.947   2.372   8.762 -0.7166  0.7270  0.0425
 6144SOL     OW29893   4.020   3.919   5.600 -0.3432 -0.1302  0.2088
 6144SOL    HW129894   4.072   3.991   5.636 -0.3660 -0.7389  1.4643
 6144SOL    HW229895   3.988   3.872   5.677 -3.5245  0.4056 -0.7601
 6145SOL     OW29896   0.127   0.778   7.425  0.3483 -0.3046  0.1603
 6145SOL    HW129897   0.041   0.819   7.413 -0.7851 -1.6974  3.6224
 6145SOL    HW229898   0.132   0.785   7.520 -0.3876  0.0544  0.1759
 6146SOL     OW29899   3.984   3.116   8.446 -0.1325 -0.5827  0.3385
 6146SOL    HW129900   3.967   3.027   8.477  1.2454 -0.7113  0.7265
 6146SOL    HW229901   4.060   3.110   8.388 -1.0342  0.1454 -0.9353
 6147SOL     OW29902   0.446   0.062  15.999 -0.0239  0.0351  0.0457
 6147SOL    HW129903   0.485   0.015  15.925  0.5169  0.4688  0.0511
 6147SOL    HW229904   0.386   4.717  16.027 -2.9707  1.4461 -2.7150
 6148SOL     OW29905   2.708   3.514  17.058  0.2047 -0.1777 -0.2416
 6148SOL    HW129906   2.700   3.422  17.083 -1.9134  0.3952  1.1508
 6148SOL    HW229907   2.787   3.533  17.109  1.3006 -1.5429 -1.4042
 6149SOL     OW29908   2.184   2.749   7.865  0.3537 -0.1965 -0.2586
 6149SOL    HW129909   2.139   2.807   7.927  1.8063  0.8659 -0.1960
 6149SOL    HW229910   2.211   2.678   7.924 -0.7531 -0.1523  0.3179
 6150SOL     OW29911   3.678   1.516   3.198 -0.4740 -0.5670 -0.1675
 6150SOL    HW129912   3.610   1.559   3.145 -0.2010  0.4863  0.3428
 6150SOL    HW229913   3.748   1.560   3.152 -0.0974  1.0351  1.9688
 6151SOL     OW29914   0.575   1.214   6.653  0.2565  0.4679  0.5542
 6151SOL    HW129915   0.640   1.199   6.721  1.4735 -0.3762 -0.7905
 6151SOL    HW229916   0.535   1.132   6.626 -1.8053  0.8766  2.3843
 6152SOL     OW29917   3.539   3.761   6.509  0.5096 -0.0971 -0.2137
 6152SOL    HW129918   3.479   3.687   6.505  0.9788 -0.5532  1.2106
 6152SOL    HW229919   3.477   3.830   6.533  0.4602 -0.0247 -0.5462
 6153SOL     OW29920   2.857   4.068   6.038 -0.3281 -0.1905 -0.8169
 6153SOL    HW129921   2.886   4.155   6.066 -0.6941 -0.8300  1.5409
 6153SOL    HW229922   2.930   4.023   6.079  1.3561  1.5034 -1.9709
 6154SOL     OW29923   1.015   3.452   2.781  0.1104 -0.1031 -0.1725
 6154SOL    HW129924   1.019   3.358   2.794 -0.2119 -0.0480  0.3326
 6154SOL    HW229925   1.103   3.469   2.745  0.6582 -0.9458  0.7809
 6155SOL     OW29926   4.031   3.432   1.659 -0.0399 -0.0171 -0.2222
 6155SOL    HW129927   3.980   3.356   1.686 -0.2765  1.2828  2.9247
 6155SOL    HW229928   4.098   3.383   1.610 -0.0588  0.3640 -0.6255
 6156SOL     OW29929   3.009   4.265   1.448 -0.6414  0.3055 -0.2827
 6156SOL    HW129930   2.998   4.194   1.385 -1.9390  1.1392 -0.9954
 6156SOL    HW229931   2.935   4.252   1.508  1.8107 -2.1668  2.2582
 6157SOL     OW29932   1.777   2.316  15.516  0.1462  0.0659 -0.1359
 6157SOL    HW129933   1.743   2.370  15.588  0.0980  1.8055 -1.4588
 6157SOL    HW229934   1.763   2.375  15.442  4.8607  1.6141  0.1914
 6158SOL     OW29935   3.122   1.779  10.214  0.1202 -0.8026  0.4009
 6158SOL    HW129936   3.146   1.825  10.133  1.8619 -1.0549  0.7822
 6158SOL    HW229937   3.027   1.794  10.219 -0.1372 -2.0444 -0.7684
 6159SOL     OW29938   1.182   0.710   9.674  0.8250  0.1345 -0.2590
 6159SOL    HW129939   1.189   0.800   9.641  2.7191  1.1791  2.9472
 6159SOL    HW229940   1.087   0.705   9.675  0.9887 -2.4860  0.6546
 6160SOL     OW29941   2.519   4.107   9.145  0.7154  0.0848  0.1914
 6160SOL    HW129942   2.511   4.198   9.173 -1.9060  0.1054 -0.5800
 6160SOL    HW229943   2.474   4.064   9.218  1.2345  4.2591  3.0170
 6161SOL     OW29944   4.616   0.235   8.645 -0.1558  0.2151 -0.6437
 6161SOL    HW129945   4.592   0.151   8.683  1.0680  1.5706  3.0439
 6161SOL    HW229946   4.700   0.226   8.599  0.8581 -1.1459  1.4716
 6162SOL     OW29947   4.086   0.410  11.520  0.1205  0.0670  0.1488
 6162SOL    HW129948   3.995   0.439  11.522 -0.0860 -0.5973  0.5598
 6162SOL    HW229949   4.116   0.465  11.448  0.8238 -0.7836 -0.1972
 6163SOL     OW29950   1.930   1.683   6.658  0.9393  0.3771 -0.1472
 6163SOL    HW129951   1.967   1.638   6.734 -3.3301 -1.0074  1.1095
 6163SOL    HW229952   1.994   1.753   6.649  0.9963  0.6412  2.1118
 6164SOL     OW29953   0.731   3.331  16.009 -0.4350 -0.0213  0.1916
 6164SOL    HW129954   0.680   3.410  15.993 -0.3930 -0.2161 -0.8582
 6164SOL    HW229955   0.813   3.374  15.984 -1.8838  2.7283  0.1777
 6165SOL     OW29956   3.856   3.631   0.933 -0.2133  0.0132 -0.0526
 6165SOL    HW129957   3.908   3.682   0.995  0.4236  0.5588 -1.0376
 6165SOL    HW229958   3.769   3.657   0.964  0.0961  1.1947 -0.1485
 6166SOL     OW29959   1.605   0.835  16.064  0.3345  0.0383 -0.2211
 6166SOL    HW129960   1.554   0.755  16.049 -1.9406  1.5921 -0.8182
 6166SOL    HW229961   1.590   0.881  15.982 -0.9410  2.1591  1.1941
 6167SOL     OW29962   3.242   3.681  14.575 -0.0606 -0.4025  0.8234
 6167SOL    HW129963   3.215   3.686  14.667  1.9540  0.2344  1.3715
 6167SOL    HW229964   3.288   3.597  14.578  1.2043  0.1678 -3.8069
 6168SOL     OW29965   3.391   2.258   9.650 -0.0362  0.2080  0.7639
 6168SOL    HW129966   3.462   2.310   9.688  2.7107 -2.6135 -0.5353
 6168SOL    HW229967   3.381   2.302   9.566  1.7087 -0.8180  0.0163
 6169SOL     OW29968   2.837   3.307   9.034  0.5162  0.8940 -0.6320
 6169SOL    HW129969   2.902   3.290   9.102  0.1739 -0.5141 -0.6410
 6169SOL    HW229970   2.894   3.329   8.960  0.2254 -1.5187 -1.5844
 6170SOL     OW29971   1.061   2.335   3.080  0.6414 -0.5663  0.5587
 6170SOL    HW129972   1.046   2.250   3.038 -1.5864  0.0869  0.0076
 6170SOL    HW229973   1.021   2.326   3.166  0.9747 -0.4197  0.7235
 6171SOL     OW29974   3.485   3.805   5.342  0.0137  0.2006  0.3899
 6171SOL    HW129975   3.394   3.828   5.327  1.0862  1.6705 -3.9351
 6171SOL    HW229976   3.490   3.725   5.291  0.1249  1.1335 -1.0562
 6172SOL     OW29977   1.204   0.244   9.057  0.0730  0.1337  0.8633
 6172SOL    HW129978   1.134   0.197   9.013  0.4160  1.2841 -0.9188
 6172SOL    HW229979   1.153   0.322   9.081 -0.5557  0.6153 -1.9836
 6173SOL     OW29980   2.326   2.501   3.299  0.2276 -0.1041  0.5062
 6173SOL    HW129981   2.323   2.569   3.232  2.4346 -0.0455  0.4758
 6173SOL    HW229982   2.317   2.544   3.383  0.4286 -1.8802  1.4436
 6174SOL     OW29983   1.276   1.765  11.746 -0.3872 -0.4317  0.4943
 6174SOL    HW129984   1.279   1.858  11.770  1.4669 -0.4435  0.2876
 6174SOL    HW229985   1.252   1.736  11.834 -0.2000 -0.9931  0.3592
 6175SOL     OW29986   4.163   0.648  17.381  0.0587 -0.1049 -0.2885
 6175SOL    HW129987   4.100   0.658  17.452 -1.0686  1.1816 -1.4574
 6175SOL    HW229988   4.242   0.691  17.411 -0.3195 -0.0437  0.6068
 6176SOL     OW29989   0.279   2.948   7.959  0.4403  0.0129  0.0224
 6176SOL    HW129990   0.323   2.925   8.040  0.3882 -3.2242 -0.8696
 6176SOL    HW229991   0.207   3.000   7.994 -0.1501 -1.6939  1.3297
 6177SOL     OW29992   2.594   3.920   8.619  0.5599 -0.4154  0.2193
 6177SOL    HW129993   2.510   3.882   8.642  1.0822 -1.4814  0.3639
 6177SOL    HW229994   2.583   4.006   8.660 -0.5928 -0.1230 -0.7135
 6178SOL     OW29995   1.954   2.669   2.845 -0.4360  0.5536 -0.1609
 6178SOL    HW129996   1.934   2.631   2.930 -1.0491  2.2427  0.4432
 6178SOL    HW229997   2.027   2.617   2.812 -1.9310 -2.3902  1.1140
 6179SOL     OW29998   0.954   4.511  10.120 -0.4606 -0.4916 -0.0480
 6179SOL    HW129999   1.037   4.465  10.105  0.2822  0.8446 -0.0544
 6179SOL    HW230000   0.937   4.486  10.210  1.6282 -1.6937  0.0130
 6180SOL     OW30001   2.584   1.112   9.731 -0.0054 -0.5294  0.0847
 6180SOL    HW130002   2.661   1.078   9.777 -1.1073 -1.5128  1.1685
 6180SOL    HW230003   2.575   1.054   9.656 -2.4611  0.5961 -0.4763
 6181SOL     OW30004   4.204   2.232  13.506  0.2467  0.3910 -0.2108
 6181SOL    HW130005   4.160   2.254  13.423  0.1558  1.7877  0.2131
 6181SOL    HW230006   4.203   2.320  13.543 -0.5376  0.0135  0.6584
 6182SOL     OW30007   0.904   2.758   5.923  0.1133  0.2277  0.0540
 6182SOL    HW130008   0.851   2.828   5.885 -1.4950 -0.1799  1.5299
 6182SOL    HW230009   0.909   2.701   5.846  0.0558 -2.1073  1.7590
 6183SOL     OW30010   0.756   2.212   5.408 -0.1701  0.0929  0.1303
 6183SOL    HW130011   0.850   2.213   5.424 -0.0511  0.6687 -0.6105
 6183SOL    HW230012   0.752   2.250   5.320  0.9361 -1.5072 -0.5996
 6184SOL     OW30013   3.392   0.448   5.167 -0.1246 -0.5978  0.6412
 6184SOL    HW130014   3.421   0.465   5.077  0.9428  1.2860  1.3334
 6184SOL    HW230015   3.373   0.354   5.163  1.5445 -0.9288  0.4491
 6185SOL     OW30016   2.687   2.059   2.270 -0.4548  0.1077  0.1194
 6185SOL    HW130017   2.677   2.098   2.357  0.8626 -0.7310  0.6485
 6185SOL    HW230018   2.782   2.045   2.263 -0.2776  0.2973  2.1869
 6186SOL     OW30019   2.345   1.235  10.853  0.2747 -0.2274 -0.1862
 6186SOL    HW130020   2.426   1.186  10.838 -0.3619 -1.2386 -0.3432
 6186SOL    HW230021   2.355   1.246  10.947 -0.2033 -0.4854 -0.1078
 6187SOL     OW30022   3.112   0.225   9.884  0.4714  0.6131  0.8818
 6187SOL    HW130023   3.171   0.185   9.819 -0.6734  1.4987 -0.7038
 6187SOL    HW230024   3.060   0.293   9.842 -0.6338 -0.0175  1.2280
 6188SOL     OW30025   0.554   0.096   8.145  0.1575 -0.5581 -0.3218
 6188SOL    HW130026   0.528   0.019   8.095 -1.0747 -1.9992  2.5658
 6188SOL    HW230027   0.627   0.127   8.090 -0.6636 -1.8445 -2.1366
 6189SOL     OW30028   2.332   3.494   5.733 -0.3534 -0.4765  0.3017
 6189SOL    HW130029   2.391   3.428   5.695  2.7910  2.4911  0.0691
 6189SOL    HW230030   2.372   3.502   5.820  0.3293  2.0946 -0.2720
 6190SOL     OW30031   1.414   4.056  10.680 -0.4209  0.7560 -0.3652
 6190SOL    HW130032   1.455   4.024  10.761  0.0181  1.9525 -0.1161
 6190SOL    HW230033   1.342   3.993  10.676  0.6904 -0.4642 -1.1871
 6191SOL     OW30034   4.553   3.786   6.775 -0.1751  0.5543  0.4717
 6191SOL    HW130035   4.564   3.881   6.763 -1.0709  0.8098  1.5671
 6191SOL    HW230036   4.643   3.754   6.781 -0.0728  0.4050 -1.8627
 6192SOL     OW30037   3.061   0.695   5.011 -0.0691  0.3919  0.0305
 6192SOL    HW130038   2.995   0.726   4.949  1.8931  1.3863 -1.5646
 6192SOL    HW230039   3.142   0.727   4.971  1.9571  0.2179  4.0093
 6193SOL     OW30040   2.389   0.373   7.418 -0.5093 -0.4534 -0.2341
 6193SOL    HW130041   2.301   0.401   7.392 -1.3495 -1.3575  1.6086
 6193SOL    HW230042   2.367   0.363   7.511 -0.6490  0.6889 -0.1390
 6194SOL     OW30043   0.111   1.568  10.045  0.2448 -0.1121 -0.0137
 6194SOL    HW130044   0.127   1.628   9.973 -2.4839 -0.2284 -0.6981
 6194SOL    HW230045   0.074   1.496   9.994 -0.1093  1.3201 -1.7587
 6195SOL     OW30046   0.977   3.196   5.081 -0.8577 -0.2581  0.3944
 6195SOL    HW130047   0.932   3.262   5.134  0.8893  0.9560  0.3767
 6195SOL    HW230048   0.919   3.124   5.106 -1.3739  0.3917  1.0726
 6196SOL     OW30049   0.487   4.722   8.765  0.2448 -0.2960  0.2584
 6196SOL    HW130050   0.496   4.681   8.852 -1.1461  0.0902  0.5805
 6196SOL    HW230051   0.415   0.060   8.770  0.9347  0.5080  0.1860
 6197SOL     OW30052   2.181   3.159   9.190  0.0883 -0.2132  0.1432
 6197SOL    HW130053   2.203   3.252   9.199 -0.7694 -0.0473  0.4572
 6197SOL    HW230054   2.259   3.123   9.232  1.9158  2.3554 -1.0486
 6198SOL     OW30055   1.492   2.517   5.675  0.4295  0.2074 -0.4006
 6198SOL    HW130056   1.572   2.542   5.629  0.8489 -0.3032  0.0581
 6198SOL    HW230057   1.531   2.459   5.740 -0.0127  0.9635  0.5413
 6199SOL     OW30058   0.726   4.585   5.452  0.0063  0.1282  0.2049
 6199SOL    HW130059   0.659   4.645   5.482 -1.1962 -1.1870  0.1337
 6199SOL    HW230060   0.770   4.645   5.392 -0.9000 -1.0373 -1.6073
 6200SOL     OW30061   2.522   1.814  17.671  0.4293  0.4127 -0.1420
 6200SOL    HW130062   2.590   1.748  17.688 -1.0642 -0.8981  0.7946
 6200SOL    HW230063   2.458   1.773  17.613  1.6948 -2.1477  0.2414
 6201SOL     OW30064   2.734   1.911   6.820  0.0410  0.2167  0.1607
 6201SOL    HW130065   2.669   1.966   6.865 -0.4455 -0.0146 -0.2691
 6201SOL    HW230066   2.809   1.908   6.879  1.3774  1.8354 -1.4608
 6202SOL     OW30067   4.482   3.176   5.212 -0.3541 -0.5311  0.2078
 6202SOL    HW130068   4.495   3.229   5.291 -1.6112  0.1476 -0.0338
 6202SOL    HW230069   4.408   3.121   5.240 -0.9258 -0.6725 -1.6073
 6203SOL     OW30070   2.824   3.994   0.338  0.4094 -0.3353  0.2175
 6203SOL    HW130071   2.911   3.958   0.325 -1.1351 -3.6708 -0.8287
 6203SOL    HW230072   2.775   3.924   0.382 -1.0647  0.1379 -0.6779
 6204SOL     OW30073   1.544   0.596   8.601 -0.0170  0.3341  0.7320
 6204SOL    HW130074   1.523   0.528   8.537  1.8492 -0.0207  0.4822
 6204SOL    HW230075   1.482   0.574   8.670  1.5905  2.0540  2.7590
 6205SOL     OW30076   3.903   0.206   1.095 -0.0536 -0.1005 -0.1065
 6205SOL    HW130077   3.900   0.130   1.152 -0.3910 -0.2619 -0.3377
 6205SOL    HW230078   3.828   0.194   1.036  0.7260 -1.8384 -0.7307
 6206SOL     OW30079   0.002   0.508   9.104 -0.5107 -0.1722  0.1199
 6206SOL    HW130080   4.687   0.459   9.031  0.6570  0.3675 -0.8557
 6206SOL    HW230081   0.063   0.439   9.130 -0.4329 -0.0554  0.2483
 6207SOL     OW30082   4.476   0.943   2.826  0.3097 -0.0271 -0.2331
 6207SOL    HW130083   4.458   0.904   2.741  0.4108 -0.0303 -0.2522
 6207SOL    HW230084   4.399   0.997   2.844  1.5507  1.6242  0.1666
 6208SOL     OW30085   4.590   4.144   0.900 -0.2606  0.4666  0.2065
 6208SOL    HW130086   4.587   4.129   0.806  0.4281 -0.5938  0.3567
 6208SOL    HW230087   4.682   4.168   0.913  0.0687 -1.1977  1.0140
 6209SOL     OW30088   1.155   4.429   7.431  0.6184  0.2466  0.1372
 6209SOL    HW130089   1.139   4.378   7.510  3.1338  1.2631  1.2988
 6209SOL    HW230090   1.102   4.376   7.372  0.1677  0.4231  0.3814
 6210SOL     OW30091   3.637   1.602   1.237  0.1095 -0.2800 -0.2433
 6210SOL    HW130092   3.718   1.643   1.207 -0.0845 -0.6541 -1.3038
 6210SOL    HW230093   3.627   1.648   1.320  0.8789  0.1126 -0.3768
 6211SOL     OW30094   1.408   3.778  11.379  0.6266  0.0644  0.5358
 6211SOL    HW130095   1.370   3.740  11.458  1.7593  0.6081  1.3377
 6211SOL    HW230096   1.477   3.834  11.415  0.7909  0.1251  0.1303
 6212SOL     OW30097   0.916   4.327   8.081 -0.6209  0.5623  1.1794
 6212SOL    HW130098   0.940   4.287   7.997 -3.9942  0.4398  0.2565
 6212SOL    HW230099   0.870   4.258   8.128 -0.9005  0.0982  0.2188
 6213SOL     OW30100   4.615   3.810   0.480  0.4720  0.5182 -0.1076
 6213SOL    HW130101   4.583   3.723   0.457 -0.2762  1.1902 -1.6149
 6213SOL    HW230102   4.533   3.854   0.501 -0.5983  0.1325 -3.5659
 6214SOL     OW30103   4.234   3.725   3.167  0.2790 -0.2370  0.6351
 6214SOL    HW130104   4.196   3.731   3.255  0.6110 -1.7508  0.8819
 6214SOL    HW230105   4.243   3.629   3.165  2.3943 -0.0078 -0.5456
 6215SOL     OW30106   3.750   3.403   8.039 -0.0208 -0.0241 -0.7107
 6215SOL    HW130107   3.788   3.391   8.126  0.5438  0.5729 -0.8778
 6215SOL    HW230108   3.665   3.361   8.055 -0.4396  1.0469 -0.1767
 6216SOL     OW30109   3.152   3.072   8.469  0.2413 -0.3233  0.0754
 6216SOL    HW130110   3.099   3.096   8.393  2.4700  0.6597 -1.1678
 6216SOL    HW230111   3.217   3.142   8.466 -0.3047  0.1774 -0.1190
 6217SOL     OW30112   1.379   1.385   8.038 -0.4169  0.3226 -0.0089
 6217SOL    HW130113   1.461   1.397   8.085  0.6001 -1.5693 -1.3254
 6217SOL    HW230114   1.335   1.313   8.083  3.5072 -1.9954  0.0784
 6218SOL     OW30115   3.359   1.604   5.215  0.5421 -0.3708  0.1808
 6218SOL    HW130116   3.447   1.587   5.249  0.9912  0.9903 -0.2749
 6218SOL    HW230117   3.369   1.594   5.120 -1.5762  2.4523 -0.3566
 6219SOL     OW30118   2.864   4.196   6.900  0.6431 -0.1447  0.0303
 6219SOL    HW130119   2.954   4.201   6.933  0.4733 -1.2200  0.6635
 6219SOL    HW230120   2.851   4.101   6.902  1.3563 -0.2475 -0.1867
 6220SOL     OW30121   1.941   4.237   3.292 -0.7813 -0.1998  0.1425
 6220SOL    HW130122   2.030   4.256   3.320 -0.6782 -2.5337  1.3944
 6220SOL    HW230123   1.911   4.323   3.262  0.4661 -0.4872 -1.9326
 6221SOL     OW30124   1.319   2.112   1.162  0.0865 -0.5503  0.5831
 6221SOL    HW130125   1.334   2.204   1.185  0.2914 -0.4857  0.1764
 6221SOL    HW230126   1.404   2.070   1.158 -1.0470 -2.8399  0.5142
 6222SOL     OW30127   0.354   2.661   7.016  0.4536 -0.3618  0.0998
 6222SOL    HW130128   0.353   2.568   7.039 -0.3318 -0.1080  1.0509
 6222SOL    HW230129   0.432   2.694   7.061  0.1587 -0.3655  0.6138
 6223SOL     OW30130   2.184   4.614  13.342 -0.2945 -0.3100 -0.0139
 6223SOL    HW130131   2.219   4.622  13.254 -0.9464 -0.9688 -0.3342
 6223SOL    HW230132   2.128   4.539  13.325  0.8995 -0.9448 -1.1533
 6224SOL     OW30133   2.971   3.973   7.895 -0.1097  0.2594 -0.1147
 6224SOL    HW130134   2.904   3.976   7.827  0.8076 -0.5619 -1.0616
 6224SOL    HW230135   2.972   3.878   7.908  0.8229  0.2437 -0.2946
 6225SOL     OW30136   4.350   2.872   9.009 -0.1285 -0.5816 -0.1211
 6225SOL    HW130137   4.280   2.937   8.999 -0.3046 -0.9732 -1.4094
 6225SOL    HW230138   4.418   2.889   8.943 -0.4717 -0.8053 -0.5344
 6226SOL     OW30139   1.169   3.711   4.696 -0.3265  0.1591  0.2934
 6226SOL    HW130140   1.108   3.638   4.686 -1.1484  0.7594  1.0152
 6226SOL    HW230141   1.231   3.666   4.753  1.7232  0.0673 -1.9854
 6227SOL     OW30142   3.947   0.052   8.754 -0.2538  0.5009 -0.0693
 6227SOL    HW130143   3.916   0.136   8.788 -2.7571 -0.2720 -0.4006
 6227SOL    HW230144   3.867   4.722   8.755 -0.0321  0.1541 -1.5860
 6228SOL     OW30145   3.683   0.039   7.853  0.1310 -0.2548 -0.1555
 6228SOL    HW130146   3.598   0.005   7.881  0.4667 -0.4343  0.6431
 6228SOL    HW230147   3.734   4.682   7.863  0.6824  0.5512  3.4489
 6229SOL     OW30148   0.793   1.445   1.968  0.2444  0.1185 -0.6889
 6229SOL    HW130149   0.728   1.375   1.969  1.1045 -0.6723  1.4090
 6229SOL    HW230150   0.769   1.473   1.880 -1.6895 -0.1755 -0.2496
 6230SOL     OW30151   2.921   4.616  16.297 -0.1993  0.3595 -0.4567
 6230SOL    HW130152   2.916   4.711  16.283 -1.3645  0.0944 -1.8791
 6230SOL    HW230153   2.891   4.613  16.388  0.1973  0.3228 -0.3303
 6231SOL     OW30154   0.866   3.523  13.227  0.2194  0.0885  0.4304
 6231SOL    HW130155   0.913   3.600  13.195 -0.3465  0.3686  0.2721
 6231SOL    HW230156   0.847   3.562  13.312  0.9155  0.3942  0.4409
 6232SOL     OW30157   4.228   0.154   3.470  0.2232  0.0865 -0.2340
 6232SOL    HW130158   4.298   0.210   3.437  0.4534  0.3477  0.6823
 6232SOL    HW230159   4.254   0.075   3.421  1.7822 -0.1271  0.9120
 6233SOL     OW30160   2.673   1.337   1.319 -0.3981 -0.2500  0.6686
 6233SOL    HW130161   2.715   1.310   1.238 -2.1805  2.3665 -1.1166
 6233SOL    HW230162   2.750   1.367   1.367  0.4080 -3.1244  1.1777
 6234SOL     OW30163   1.668   1.063   8.423 -0.0583  0.3409 -0.3131
 6234SOL    HW130164   1.600   1.011   8.381 -1.0441  1.6271 -0.3242
 6234SOL    HW230165   1.724   0.992   8.456 -0.8126 -0.0183  0.1885
 6235SOL     OW30166   1.794   3.412   2.751  0.3684 -0.0175  0.0203
 6235SOL    HW130167   1.876   3.440   2.792 -0.2593  0.0057  1.2640
 6235SOL    HW230168   1.785   3.319   2.774  1.5733 -0.1127  0.0904
 6236SOL     OW30169   3.147   4.697   9.314  0.0361 -0.0225  0.0057
 6236SOL    HW130170   3.067   4.666   9.273 -0.4270  2.1994 -0.7800
 6236SOL    HW230171   3.123   4.719   9.404 -1.3825 -1.7679  0.0549
 6237SOL     OW30172   3.877   3.576   7.407 -0.4342  0.0412  0.0416
 6237SOL    HW130173   3.858   3.641   7.474  1.7947 -0.5925  1.2741
 6237SOL    HW230174   3.877   3.628   7.327 -1.8481 -2.1690 -1.3975
 6238SOL     OW30175   2.479   3.772   5.763  0.1470  0.5531  0.0985
 6238SOL    HW130176   2.406   3.815   5.717 -0.6745 -2.5665 -1.4693
 6238SOL    HW230177   2.539   3.843   5.787  0.7658  0.7569 -2.0278
 6239SOL     OW30178   1.055   0.949   6.209 -0.5334 -0.1713  0.0570
 6239SOL    HW130179   1.048   1.024   6.151 -0.4131  0.2320  0.5688
 6239SOL    HW230180   1.113   0.890   6.161 -2.0743 -1.3495 -0.3585
 6240SOL     OW30181   2.042   1.949   3.289  0.5755 -0.3113 -0.2098
 6240SOL    HW130182   2.076   1.961   3.201 -0.5760 -2.3014 -0.9412
 6240SOL    HW230183   1.992   2.028   3.307  0.9449 -0.2620  0.5928
 6241SOL     OW30184   3.960   1.306   6.667 -0.0110 -0.0970  0.5777
 6241SOL    HW130185   3.918   1.392   6.669  0.0570 -0.0897  1.7870
 6241SOL    HW230186   3.999   1.305   6.754  0.5318  1.8236  0.3610
 6242SOL     OW30187   0.333   0.035   2.719  0.1884  0.1879 -0.0452
 6242SOL    HW130188   0.317   0.087   2.797 -0.9345 -3.1557  1.9410
 6242SOL    HW230189   0.308   4.673   2.755  1.8389 -0.4157 -0.3390
 6243SOL     OW30190   3.852   2.047   8.092 -0.1381 -0.2003  0.1142
 6243SOL    HW130191   3.922   2.087   8.041  1.4452 -2.5913  0.4015
 6243SOL    HW230192   3.844   2.121   8.153 -1.0746 -0.8325  0.7757
 6244SOL     OW30193   2.774   1.582  10.915  0.3298 -0.3895  0.1547
 6244SOL    HW130194   2.801   1.664  10.874 -3.1452  0.0224 -1.2418
 6244SOL    HW230195   2.794   1.607  11.005 -0.3543 -0.0854  0.2205
 6245SOL     OW30196   2.407   4.266  12.666 -0.3132  0.0977 -0.1822
 6245SOL    HW130197   2.446   4.186  12.631  0.0435 -0.3690  1.2760
 6245SOL    HW230198   2.467   4.320  12.614  0.2060  1.1684  1.5505
 6246SOL     OW30199   2.320   0.301   6.695  0.3441 -0.1077  0.2027
 6246SOL    HW130200   2.379   0.234   6.661 -0.7973 -0.0904 -1.8163
 6246SOL    HW230201   2.344   0.378   6.643  2.3348  1.3634  3.3081
 6247SOL     OW30202   0.219   1.661  15.144  0.1119 -0.6986  0.4093
 6247SOL    HW130203   0.160   1.679  15.218  0.9827  0.1230  0.9180
 6247SOL    HW230204   0.288   1.726  15.158 -1.3388  1.1825 -1.2019
 6248SOL     OW30205   0.800   2.286   8.204 -0.3102  0.5943 -0.4210
 6248SOL    HW130206   0.837   2.328   8.127 -2.3956  0.2249 -1.6112
 6248SOL    HW230207   0.792   2.198   8.167 -1.0905 -0.1484  1.4828
 6249SOL     OW30208   3.668   4.589   6.698  0.0938 -0.0203 -0.8471
 6249SOL    HW130209   3.627   4.645   6.763  3.5694 -1.7759  2.8403
 6249SOL    HW230210   3.730   4.545   6.756 -1.4098  0.3156  1.0188
 6250SOL     OW30211   4.417   1.593   4.648  0.2560  0.1941 -0.2402
 6250SOL    HW130212   4.457   1.656   4.709 -0.7759  1.0300 -0.4219
 6250SOL    HW230213   4.322   1.597   4.656  0.2696 -0.0789  0.0711
 6251SOL     OW30214   3.594   2.548   9.299  0.5452  0.0482  0.0878
 6251SOL    HW130215   3.558   2.462   9.275 -2.2350  1.5912 -1.3028
 6251SOL    HW230216   3.635   2.530   9.384 -1.3761 -2.2593  0.5525
 6252SOL     OW30217   0.970   0.933  10.555 -0.1625 -0.0081  0.6211
 6252SOL    HW130218   0.973   1.027  10.568  1.6013 -0.1831  1.5196
 6252SOL    HW230219   0.877   0.915  10.547 -0.2439  0.4664  0.5042
 6253SOL     OW30220   1.903   0.637   4.773 -0.4538  0.0030  0.1080
 6253SOL    HW130221   1.824   0.665   4.726 -1.5357 -1.8464  0.8433
 6253SOL    HW230222   1.914   0.715   4.827  0.9252 -0.2058  0.1126
 6254SOL     OW30223   3.427   0.895  10.506  0.4327 -0.2602  0.4273
 6254SOL    HW130224   3.380   0.812  10.494 -0.8026  0.3231  1.1950
 6254SOL    HW230225   3.483   0.891  10.429  0.1052  1.6688  0.0886
 6255SOL     OW30226   3.098   1.930   6.453 -0.9606 -0.0127  0.2843
 6255SOL    HW130227   3.004   1.939   6.468 -1.0050 -1.3552  0.8078
 6255SOL    HW230228   3.141   1.957   6.533  0.3302 -0.2359 -0.3430
 6256SOL     OW30229   1.044   3.821   4.967 -0.0661  0.3663  0.5140
 6256SOL    HW130230   1.125   3.873   4.965  0.5241 -0.6477 -2.1752
 6256SOL    HW230231   0.981   3.888   4.994 -0.6855  0.1516 -0.4154
 6257SOL     OW30232   1.332   0.453   4.151 -0.1600  0.3667  0.1216
 6257SOL    HW130233   1.258   0.423   4.098 -0.8586  0.1449  1.2100
 6257SOL    HW230234   1.362   0.372   4.193  1.1663  0.9465  0.2912
 6258SOL     OW30235   3.235   0.677   9.700  0.6863  0.3104 -0.0049
 6258SOL    HW130236   3.314   0.691   9.649  0.6879 -0.8066 -0.3083
 6258SOL    HW230237   3.256   0.596   9.747 -1.0868  0.3001  0.7936
 6259SOL     OW30238   1.131   3.956   4.031 -0.0749  0.5308 -0.0810
 6259SOL    HW130239   1.127   3.903   3.951  1.2481 -0.9064  0.8117
 6259SOL    HW230240   1.122   4.041   3.988  0.1482  0.5879 -0.0103
 6260SOL     OW30241   1.054   2.340   8.607 -0.2362  0.1764  0.7786
 6260SOL    HW130242   1.141   2.332   8.645 -0.2624  1.0250  1.0253
 6260SOL    HW230243   1.050   2.436   8.615 -0.7709  0.1217  1.1889
 6261SOL     OW30244   0.446   0.243  15.086 -0.2610 -0.2493  0.1016
 6261SOL    HW130245   0.387   0.267  15.015  0.7180  0.3544 -0.5090
 6261SOL    HW230246   0.456   0.326  15.132 -2.1058 -0.1378  0.2951
 6262SOL     OW30247   0.263   3.510   6.097 -0.0843  0.0825 -0.1189
 6262SOL    HW130248   0.300   3.527   6.010 -0.4113 -0.0419 -0.2794
 6262SOL    HW230249   0.298   3.583   6.147  1.4644 -1.1162  0.5619
 6263SOL     OW30250   1.012   3.251   1.579  0.3117  0.2157 -0.1420
 6263SOL    HW130251   1.076   3.179   1.590 -0.5357 -0.7401 -1.4880
 6263SOL    HW230252   1.059   3.323   1.538 -0.4179 -0.2822 -1.8224
 6264SOL     OW30253   0.976   2.361   6.693 -0.1815  0.0974 -0.4097
 6264SOL    HW130254   0.890   2.400   6.707 -0.3779  0.2647 -2.1422
 6264SOL    HW230255   0.982   2.303   6.770 -0.7063 -1.4759 -1.5564
 6265SOL     OW30256   1.238   3.992   6.494  0.7736 -0.7478 -0.1191
 6265SOL    HW130257   1.322   4.003   6.538 -0.4268 -2.3641  2.6174
 6265SOL    HW230258   1.249   3.898   6.477  1.6990  0.0465 -3.9891
 6266SOL     OW30259   3.847   0.851   2.513  0.0049  0.0155 -0.1551
 6266SOL    HW130260   3.755   0.825   2.512  0.4825 -1.6858  1.5408
 6266SOL    HW230261   3.881   0.816   2.430  1.5548  1.5977 -0.1984
 6267SOL     OW30262   2.412   3.565  13.836  0.3776 -0.2957  0.6369
 6267SOL    HW130263   2.506   3.574  13.851  0.7111  0.8362 -2.3174
 6267SOL    HW230264   2.386   3.524  13.919  0.3071 -0.0307  0.7459
 6268SOL     OW30265   3.838   1.744  14.398  0.1196 -0.1073 -0.0403
 6268SOL    HW130266   3.760   1.717  14.447  0.1774  0.0966  0.1667
 6268SOL    HW230267   3.888   1.663  14.413 -2.1604 -1.1708  1.8078
 6269SOL     OW30268   1.940   3.989   1.002 -0.0899  0.0497  0.1333
 6269SOL    HW130269   1.931   4.026   0.915  2.7137 -2.4681 -1.2097
 6269SOL    HW230270   1.893   3.905   0.997 -0.5000  0.3429 -0.8265
 6270SOL     OW30271   2.198   4.562   6.950 -0.0935  0.0239  0.5703
 6270SOL    HW130272   2.257   4.632   6.919 -0.3075 -0.0235  0.0505
 6270SOL    HW230273   2.229   4.538   7.037  3.7408 -1.5340 -1.2084
 6271SOL     OW30274   2.578   3.633   2.290 -0.1992  0.2569  0.0456
 6271SOL    HW130275   2.555   3.628   2.197 -1.0935 -0.0755  0.2836
 6271SOL    HW230276   2.560   3.546   2.325  0.6099  0.0249 -0.1299
 6272SOL     OW30277   4.634   3.281   3.121 -0.5505  0.4352 -0.1542
 6272SOL    HW130278   4.560   3.333   3.088 -1.9054 -0.3674  1.5936
 6272SOL    HW230279   4.640   3.222   3.047 -1.0734  0.7033 -0.4118
 6273SOL     OW30280   3.289   1.105   6.349 -0.1246 -0.5359 -0.8137
 6273SOL    HW130281   3.369   1.111   6.401 -0.0940 -0.3910 -0.8771
 6273SOL    HW230282   3.273   1.199   6.339 -0.4024 -0.4461  0.5253
 6274SOL     OW30283   3.867   1.689  10.175  0.1739  0.0191 -0.1443
 6274SOL    HW130284   3.816   1.688  10.256 -0.8984  1.5184 -0.8098
 6274SOL    HW230285   3.849   1.776  10.138 -2.1868 -0.8161 -0.9810
 6275SOL     OW30286   3.432   4.038   1.997 -0.4320  0.2154 -0.3507
 6275SOL    HW130287   3.405   3.952   2.030  1.1740 -0.1204  0.0999
 6275SOL    HW230288   3.459   4.016   1.907  1.1232 -1.2220  0.4697
 6276SOL     OW30289   4.655   1.039   4.056 -0.3944  0.3832 -0.2396
 6276SOL    HW130290   0.026   1.036   4.071 -0.4723 -1.3024 -0.1387
 6276SOL    HW230291   4.656   0.977   3.983 -0.9871 -0.2115  0.2633
 6277SOL     OW30292   3.171   3.740   0.774  0.1902 -0.9854  0.5829
 6277SOL    HW130293   3.172   3.779   0.861 -1.3554 -1.1675  0.6667
 6277SOL    HW230294   3.083   3.763   0.747  0.2109 -1.3082  0.2355
 6278SOL     OW30295   3.266   1.605  16.158 -0.3270  0.6978 -0.2368
 6278SOL    HW130296   3.304   1.642  16.079  3.2266 -0.5283  0.8685
 6278SOL    HW230297   3.309   1.520  16.169  0.0897  1.1509  1.5938
 6279SOL     OW30298   3.177   0.854  11.696 -0.1310  0.0650 -0.2782
 6279SOL    HW130299   3.158   0.813  11.781 -0.2561 -0.2025 -0.4357
 6279SOL    HW230300   3.252   0.908  11.722 -2.3389  1.4970  3.1205
 6280SOL     OW30301   1.450   3.708   5.256 -0.4037  0.1797  0.1935
 6280SOL    HW130302   1.493   3.779   5.208  0.7965  0.5113  1.7616
 6280SOL    HW230303   1.359   3.737   5.250 -0.0096  1.8497  2.5051
 6281SOL     OW30304   4.129   3.639   4.903 -0.3943  0.1311  0.3553
 6281SOL    HW130305   4.129   3.670   4.994  0.6630 -2.1331  1.1217
 6281SOL    HW230306   4.114   3.721   4.856 -0.8392  0.7157  1.5034
 6282SOL     OW30307   3.605   3.544   1.188  0.0369  0.4092  0.3848
 6282SOL    HW130308   3.584   3.495   1.109  1.3337 -0.3764  0.5371
 6282SOL    HW230309   3.590   3.630   1.149  2.5773  0.1243 -1.2406
 6283SOL     OW30310   0.204   3.559   5.100 -0.3758 -0.7691 -0.1056
 6283SOL    HW130311   0.246   3.632   5.054 -0.6080 -0.4031  0.2625
 6283SOL    HW230312   0.128   3.536   5.046  1.8164 -3.9571 -1.8048
 6284SOL     OW30313   0.159   2.103   2.578  0.6858  0.2364  0.4927
 6284SOL    HW130314   0.203   2.159   2.514  0.4036  0.8425  0.8273
 6284SOL    HW230315   0.181   2.017   2.541 -0.4718 -0.3634  1.2098
 6285SOL     OW30316   0.950   0.832   4.618  0.2244 -0.2342  0.4227
 6285SOL    HW130317   0.885   0.839   4.688 -0.2696  0.5623 -0.1080
 6285SOL    HW230318   0.889   0.836   4.544  1.5309  1.4216 -0.5696
 6286SOL     OW30319   4.185   4.300   4.828 -0.8900 -0.1095 -0.4127
 6286SOL    HW130320   4.226   4.335   4.749  0.9175 -1.1257  0.0748
 6286SOL    HW230321   4.239   4.326   4.903 -0.7332 -0.3193 -0.4520
 6287SOL     OW30322   1.256   3.863   9.277 -0.6212 -0.8698  0.0922
 6287SOL    HW130323   1.312   3.937   9.254  0.0726 -0.9297  1.6113
 6287SOL    HW230324   1.203   3.904   9.344 -0.6588  1.2549 -1.2423
 6288SOL     OW30325   1.052   1.414  14.733  0.2759  0.0250 -0.3652
 6288SOL    HW130326   1.109   1.403  14.809 -0.5713 -0.7206  0.1463
 6288SOL    HW230327   1.033   1.324  14.710  1.1884 -0.4662  0.8030
 6289SOL     OW30328   4.345   0.226   0.618 -0.4635  0.0418 -0.2986
 6289SOL    HW130329   4.377   0.212   0.529  1.8592  1.2190  0.3663
 6289SOL    HW230330   4.422   0.242   0.671  0.3387 -0.8519 -1.1965
 6290SOL     OW30331   1.469   0.606   2.712 -0.1190 -0.0969 -0.1594
 6290SOL    HW130332   1.422   0.685   2.686  0.6440  0.3528 -0.1982
 6290SOL    HW230333   1.552   0.650   2.732 -0.3402  0.3050 -0.1407
 6291SOL     OW30334   0.551   3.107   8.911 -0.6883 -0.3326 -0.1471
 6291SOL    HW130335   0.554   3.198   8.942 -0.4964 -0.3833 -0.0159
 6291SOL    HW230336   0.458   3.110   8.888 -0.5367  0.5209 -0.6457
 6292SOL     OW30337   3.492   3.572   8.316  0.0240  0.6558 -0.0256
 6292SOL    HW130338   3.540   3.540   8.393  1.6347  2.6613 -0.1862
 6292SOL    HW230339   3.406   3.532   8.326  0.4845 -0.3340 -0.0100
 6293SOL     OW30340   1.426   0.491   7.283  0.6113 -0.0919  0.4374
 6293SOL    HW130341   1.371   0.484   7.205  1.1751 -0.8904  0.1119
 6293SOL    HW230342   1.503   0.539   7.251 -0.5211  1.5384  0.1436
 6294SOL     OW30343   2.132   0.542   2.826  0.7950 -0.5294  0.5985
 6294SOL    HW130344   2.067   0.541   2.755 -0.4865 -0.1254  1.7569
 6294SOL    HW230345   2.157   0.450   2.827 -2.1669 -1.3539 -1.8786
 6295SOL     OW30346   3.883   4.499   0.536  0.7140 -0.3957 -0.2869
 6295SOL    HW130347   3.791   4.515   0.514 -0.0533 -1.2375  2.3141
 6295SOL    HW230348   3.914   4.587   0.513  2.9215 -1.2154 -0.3821
 6296SOL     OW30349   3.206   0.345   0.480 -0.0950  0.1970 -0.1970
 6296SOL    HW130350   3.211   0.331   0.574  1.1425  0.3580 -0.2386
 6296SOL    HW230351   3.296   0.375   0.468 -0.1616  1.5514  2.7932
 6297SOL     OW30352   0.208   4.188   7.549 -0.3303 -0.7543 -0.1553
 6297SOL    HW130353   0.145   4.249   7.586 -1.9428 -0.1168 -3.9088
 6297SOL    HW230354   0.161   4.161   7.470 -0.9775  0.4308 -0.1722
 6298SOL     OW30355   2.877   4.440   4.085 -0.3707  0.0879 -0.0448
 6298SOL    HW130356   2.932   4.362   4.091  0.9425  1.1661  1.9939
 6298SOL    HW230357   2.904   4.483   4.166  1.7964  0.4635 -0.9576
 6299SOL     OW30358   4.022   1.934   0.446  0.0831 -0.0297  0.0967
 6299SOL    HW130359   4.102   1.891   0.478 -0.0998 -0.3307  0.1457
 6299SOL    HW230360   4.054   2.018   0.413  3.0799 -0.6930  1.2995
 6300SOL     OW30361   0.114   2.572   5.352 -0.0933 -0.0043 -0.4497
 6300SOL    HW130362   0.058   2.635   5.398  2.3397 -0.3149  3.0119
 6300SOL    HW230363   0.206   2.596   5.368 -0.4549  1.5365 -0.6506
 6301SOL     OW30364   0.597   0.631   6.604  0.1983  0.1603  0.1238
 6301SOL    HW130365   0.579   0.598   6.516  1.5617  1.8319 -0.7742
 6301SOL    HW230366   0.672   0.690   6.593  0.9377 -0.9718 -0.9302
 6302SOL     OW30367   1.741   0.959   3.241 -0.7682  0.3443 -0.4414
 6302SOL    HW130368   1.667   1.019   3.242  0.2702  1.6266 -0.7067
 6302SOL    HW230369   1.697   0.876   3.261  0.3764  0.2223  1.5268
 6303SOL     OW30370   2.821   4.222  11.063 -0.1245  0.1683 -0.4282
 6303SOL    HW130371   2.812   4.250  11.154 -0.9327 -0.2015 -0.3862
 6303SOL    HW230372   2.811   4.306  11.020  2.1859  1.0951  0.8480
 6304SOL     OW30373   4.493   0.371  17.304 -0.1094 -0.1234 -0.0414
 6304SOL    HW130374   4.452   0.291  17.270  0.7562  0.2790 -1.9990
 6304SOL    HW230375   4.449   0.440  17.254  2.6346  2.5155  1.2354
 6305SOL     OW30376   3.510   0.663   6.067  0.0072  0.1652 -0.2278
 6305SOL    HW130377   3.483   0.705   6.149  0.4994  1.7835 -0.8904
 6305SOL    HW230378   3.550   0.724   6.005  2.1953 -2.6859 -1.6298
 6306SOL     OW30379   4.245   0.541  11.301  0.4015 -0.1506 -0.5688
 6306SOL    HW130380   4.237   0.636  11.311 -0.3284 -0.2978  0.2842
 6306SOL    HW230381   4.263   0.532  11.208  0.0189 -1.9442 -0.4829
 6307SOL     OW30382   2.149   4.509   3.907 -0.2956 -0.3382 -0.3671
 6307SOL    HW130383   2.235   4.489   3.872 -1.3186 -0.9718 -2.4796
 6307SOL    HW230384   2.148   4.473   3.996 -0.4307 -1.6143 -0.8928
 6308SOL     OW30385   3.537   1.348  17.004  0.7112 -0.0172  0.4656
 6308SOL    HW130386   3.510   1.335  16.913 -1.8368 -0.8650  1.3498
 6308SOL    HW230387   3.448   1.327  17.030  0.2772  2.1427  0.7578
 6309SOL     OW30388   4.692   3.272   0.416  0.3025 -0.4159  0.2878
 6309SOL    HW130389   4.660   3.182   0.409 -0.6664 -0.0272 -0.2914
 6309SOL    HW230390   0.060   3.252   0.397  1.2092  3.8099  0.2022
 6310SOL     OW30391   4.135   4.339   3.437  0.0658 -0.0156  0.3487
 6310SOL    HW130392   4.208   4.391   3.403 -0.0547  1.1179  1.8174
 6310SOL    HW230393   4.157   4.338   3.530  4.4633  0.5201 -0.6949
 6311SOL     OW30394   1.393   0.098  13.298 -0.2897  0.5801  0.5764
 6311SOL    HW130395   1.339   0.039  13.350 -1.4671  0.4559 -0.7942
 6311SOL    HW230396   1.477   0.053  13.305 -0.0026  1.0109 -0.0584
 6312SOL     OW30397   4.445   4.425   7.613 -0.4369 -0.2616  0.1686
 6312SOL    HW130398   4.507   4.468   7.672 -0.2260  0.4659 -0.5914
 6312SOL    HW230399   4.406   4.500   7.569  0.0811 -0.6385 -0.9337
 6313SOL     OW30400   4.208   0.838  14.686  0.1375 -0.0968 -0.0359
 6313SOL    HW130401   4.156   0.763  14.658 -2.2592  1.8021 -0.7199
 6313SOL    HW230402   4.217   0.892  14.607 -2.6911  1.5683  0.7912
 6314SOL     OW30403   0.840   0.378   7.445 -0.2344 -0.0642  0.0175
 6314SOL    HW130404   0.899   0.453   7.452 -0.4134  0.1474 -0.8279
 6314SOL    HW230405   0.753   0.418   7.455 -0.3529 -0.5991  1.2074
 6315SOL     OW30406   0.836   1.278  11.330 -0.3889 -0.9058 -0.2204
 6315SOL    HW130407   0.929   1.266  11.314 -0.4769  0.1038 -1.4599
 6315SOL    HW230408   0.844   1.311  11.420  0.5331  2.0092 -1.3957
 6316SOL     OW30409   2.800   0.920   9.803  0.0371  0.5486  0.1783
 6316SOL    HW130410   2.766   0.850   9.747  3.5310 -1.1412  0.1543
 6316SOL    HW230411   2.891   0.933   9.775 -0.7083  2.1528 -1.4580
 6317SOL     OW30412   3.936   2.116   3.284  0.0999  0.5238  0.2728
 6317SOL    HW130413   3.898   2.056   3.348  1.4399  1.3995  1.8969
 6317SOL    HW230414   3.949   2.057   3.209  0.5678 -0.0014  0.7628
 6318SOL     OW30415   3.602   3.697   6.880 -0.0520  0.3449 -0.2089
 6318SOL    HW130416   3.530   3.736   6.929  2.4944  0.8209  3.2049
 6318SOL    HW230417   3.556   3.655   6.808  1.6884 -0.9025 -0.5978
 6319SOL     OW30418   4.621   4.108   5.388  0.0553  0.2123 -0.0777
 6319SOL    HW130419   4.676   4.034   5.414 -0.5303 -0.4378 -0.6728
 6319SOL    HW230420   4.539   4.085   5.432 -0.7893  1.5879 -0.9485
 6320SOL     OW30421   1.780   0.851  12.124 -0.4347 -0.3630 -0.6390
 6320SOL    HW130422   1.861   0.887  12.158  0.3202 -1.0258 -1.7384
 6320SOL    HW230423   1.804   0.761  12.148 -0.1451  0.1447  0.9576
 6321SOL     OW30424   2.487   2.498   6.472 -0.3366  0.7965  0.0911
 6321SOL    HW130425   2.495   2.429   6.538  0.7731  1.6883  0.8888
 6321SOL    HW230426   2.410   2.466   6.424  0.6580 -1.2797 -0.1260
 6322SOL     OW30427   2.084   0.782   7.713 -0.2656  0.7248 -0.1841
 6322SOL    HW130428   1.995   0.755   7.735 -0.4822  0.9997 -0.7273
 6322SOL    HW230429   2.072   0.855   7.652 -0.9193  0.4244 -0.4115
 6323SOL     OW30430   1.135   0.415   1.088 -0.1492 -0.2903  0.2127
 6323SOL    HW130431   1.212   0.425   1.144 -2.5821  2.5477  3.0478
 6323SOL    HW230432   1.091   0.338   1.124 -1.4287  0.0916 -0.5315
 6324SOL     OW30433   2.391   4.252   7.871  0.1365  0.3146  0.3931
 6324SOL    HW130434   2.385   4.339   7.833  0.8378 -0.0832 -0.6188
 6324SOL    HW230435   2.388   4.278   7.963 -1.9650 -0.4101  0.5245
 6325SOL     OW30436   0.429   0.846   2.166 -0.0577 -0.1443 -0.1590
 6325SOL    HW130437   0.520   0.856   2.137  0.2713 -2.9743 -0.0437
 6325SOL    HW230438   0.438   0.860   2.260 -1.3256  0.2032 -0.0824
 6326SOL     OW30439   3.498   1.682   3.524  0.2307 -0.4309  0.4911
 6326SOL    HW130440   3.566   1.616   3.516  0.6868 -0.1007  1.6060
 6326SOL    HW230441   3.469   1.669   3.615  1.2301  5.1594  1.6611
 6327SOL     OW30442   1.347   0.236  12.988 -0.9610 -0.1143 -0.4904
 6327SOL    HW130443   1.410   0.186  12.936  1.4889  0.2652  2.0595
 6327SOL    HW230444   1.347   0.190  13.073 -1.6060  3.0774  1.2170
 6328SOL     OW30445   3.794   0.095  15.710 -0.3325 -0.1216 -0.1542
 6328SOL    HW130446   3.804   0.002  15.693  1.0263 -0.3039  1.6648
 6328SOL    HW230447   3.702   0.101  15.738 -0.3241  0.4592 -0.2415
 6329SOL     OW30448   3.841   3.184  16.422  0.1015 -0.1653 -0.3296
 6329SOL    HW130449   3.878   3.138  16.497  0.1873  0.4193 -0.0154
 6329SOL    HW230450   3.768   3.223  16.471 -0.4991 -0.7555 -0.7622
 6330SOL     OW30451   3.908   2.317   3.461  0.6926 -0.1276 -0.5809
 6330SOL    HW130452   3.977   2.372   3.426  1.7372  0.5450  2.5449
 6330SOL    HW230453   3.919   2.245   3.399 -0.1226  0.5789 -1.5403
 6331SOL     OW30454   3.296   2.729   4.001  0.0137 -0.0708  0.5183
 6331SOL    HW130455   3.308   2.646   3.957  0.7315  0.7837 -0.8845
 6331SOL    HW230456   3.269   2.704   4.090 -1.1928 -0.3518  0.0701
 6332SOL     OW30457   2.988   2.879   5.430 -0.1254 -0.1427  0.0052
 6332SOL    HW130458   3.059   2.822   5.402 -0.3518 -0.5980  0.3488
 6332SOL    HW230459   3.016   2.969   5.411 -0.8650 -0.3998 -2.2838
 6333SOL     OW30460   2.115   3.909   7.040 -0.0453  0.2347  0.3421
 6333SOL    HW130461   2.031   3.924   6.996  0.1211 -0.4948 -0.2208
 6333SOL    HW230462   2.162   3.873   6.965 -0.8885  0.0922 -0.1156
 6334SOL     OW30463   2.879   1.792   9.277  0.4390  0.0945  0.2665
 6334SOL    HW130464   2.859   1.879   9.244  1.1372  0.0669 -0.2404
 6334SOL    HW230465   2.975   1.795   9.284  0.5337 -1.2560 -0.4468
 6335SOL     OW30466   4.346   3.770   3.660 -0.2516  0.2624  0.1507
 6335SOL    HW130467   4.389   3.714   3.595  0.4064 -0.0581  0.8604
 6335SOL    HW230468   4.331   3.704   3.728 -3.6419  1.9930  1.0852
 6336SOL     OW30469   2.018   3.253   7.503 -0.3751  0.8787 -0.2129
 6336SOL    HW130470   2.005   3.327   7.443 -2.1586  0.7063 -0.0427
 6336SOL    HW230471   2.079   3.301   7.559 -0.8454 -0.4364  1.4153
 6337SOL     OW30472   2.267   3.224   3.034  0.0881 -0.0551 -0.7387
 6337SOL    HW130473   2.214   3.303   3.036  1.9432  1.2138 -1.4720
 6337SOL    HW230474   2.264   3.190   2.944 -1.4574  0.6910 -0.9531
 6338SOL     OW30475   0.205   3.186  14.750 -0.1867  0.2438  0.0929
 6338SOL    HW130476   0.237   3.163  14.837 -2.4522 -1.1816  0.5668
 6338SOL    HW230477   0.139   3.252  14.773  0.5254  1.1064 -0.3366
 6339SOL     OW30478   1.464   1.557   5.531 -0.4268 -0.0487 -0.0883
 6339SOL    HW130479   1.495   1.635   5.577  0.4512 -1.1096  1.1375
 6339SOL    HW230480   1.437   1.605   5.453  3.1222  0.7001 -0.8266
 6340SOL     OW30481   0.628   0.081  13.446  0.0816 -0.7759 -0.9289
 6340SOL    HW130482   0.578   4.724  13.438 -0.8728 -0.3371  0.6622
 6340SOL    HW230483   0.555   0.128  13.486  2.0568  0.9585  0.5889
 6341SOL     OW30484   0.444   2.761   7.646 -0.3253 -0.3099  0.5777
 6341SOL    HW130485   0.391   2.685   7.622  1.0263 -1.5478  1.4525
 6341SOL    HW230486   0.417   2.817   7.573  0.2302  1.6461  1.8760
 6342SOL     OW30487   3.338   2.892   6.981  0.3396 -0.0480 -0.8595
 6342SOL    HW130488   3.315   2.799   6.984  0.4157  0.1141  3.5715
 6342SOL    HW230489   3.266   2.920   6.924 -0.2748 -1.4255 -0.7465
 6343SOL     OW30490   1.503   2.673   4.706  0.2057  0.3103  0.2031
 6343SOL    HW130491   1.534   2.608   4.768  1.9809  0.5490 -0.4318
 6343SOL    HW230492   1.586   2.720   4.695 -0.6615  2.2506  2.1556
 6344SOL     OW30493   2.762   4.125  11.525 -0.2467 -0.2631 -0.4142
 6344SOL    HW130494   2.686   4.166  11.565  0.2376 -2.0065  2.2773
 6344SOL    HW230495   2.780   4.169  11.442  0.2929  0.6214  0.1717
 6345SOL     OW30496   0.377   4.305   4.622  0.4886  0.2098 -0.0780
 6345SOL    HW130497   0.428   4.251   4.562  0.4370  1.7105 -1.4710
 6345SOL    HW230498   0.289   4.267   4.615  2.0207 -3.1581 -1.0272
 6346SOL     OW30499   3.570   2.170   4.126 -0.0523 -0.4302  0.4782
 6346SOL    HW130500   3.600   2.196   4.213 -0.3199 -1.4729  0.8827
 6346SOL    HW230501   3.479   2.145   4.141 -0.8968  2.8293  0.7402
 6347SOL     OW30502   3.249   3.508   9.646 -0.6495 -0.0068 -0.3555
 6347SOL    HW130503   3.265   3.461   9.564  0.1257  0.1385 -0.2810
 6347SOL    HW230504   3.155   3.493   9.657 -0.3210 -0.4432  1.8117
 6348SOL     OW30505   3.971   3.776   1.124 -0.0111  0.2003 -0.1136
 6348SOL    HW130506   4.006   3.840   1.186 -1.0482 -0.3417  1.0287
 6348SOL    HW230507   4.037   3.793   1.057 -0.7739 -1.4267 -1.2729
 6349SOL     OW30508   0.032   2.940  13.362 -0.1188  0.3230 -0.0961
 6349SOL    HW130509   4.703   2.890  13.299  1.0265 -1.3284  0.2699
 6349SOL    HW230510   0.081   2.868  13.402  0.2187  0.0904 -0.9212
 6350SOL     OW30511   2.641   2.390   2.179 -0.4354  0.1317 -0.4211
 6350SOL    HW130512   2.652   2.299   2.150 -0.5210  0.1602 -0.5436
 6350SOL    HW230513   2.553   2.385   2.215  0.0453  0.8275  0.8369
 6351SOL     OW30514   2.576   3.333   8.599 -0.2111 -0.1441  0.3025
 6351SOL    HW130515   2.521   3.272   8.550 -0.0645  0.4613 -0.6182
 6351SOL    HW230516   2.530   3.366   8.676 -0.6487  1.2304 -0.5524
 6352SOL     OW30517   1.391   2.233   5.204 -0.0364 -0.2516 -0.0280
 6352SOL    HW130518   1.469   2.255   5.256 -1.0454  1.5250  0.7662
 6352SOL    HW230519   1.325   2.291   5.244  0.3239 -1.0985  1.7971
 6353SOL     OW30520   1.515   1.609   2.663  0.3685 -0.4644  0.5322
 6353SOL    HW130521   1.555   1.662   2.732  2.2927 -2.2644  0.8247
 6353SOL    HW230522   1.494   1.672   2.594  0.6694 -0.6427  0.2756
 6354SOL     OW30523   3.656   2.957   3.243 -0.0684  0.0673  0.3733
 6354SOL    HW130524   3.561   2.948   3.250  0.1430 -1.2852  1.3781
 6354SOL    HW230525   3.667   3.032   3.302  0.1791  0.0811  0.3095
 6355SOL     OW30526   3.823   3.057   0.898 -0.1598 -0.3005  0.4390
 6355SOL    HW130527   3.730   3.036   0.903 -0.5647  1.0791 -1.3989
 6355SOL    HW230528   3.829   3.135   0.844  0.9124 -0.7568 -0.1089
 6356SOL     OW30529   2.191   2.915   3.348  0.0923 -0.6191  0.3018
 6356SOL    HW130530   2.110   2.879   3.310  0.1539 -1.4671  0.9683
 6356SOL    HW230531   2.219   2.840   3.401 -0.3755 -1.6915 -0.9636
 6357SOL     OW30532   3.638   3.413   7.396  0.5427 -0.2528  0.3586
 6357SOL    HW130533   3.659   3.326   7.432 -0.2321 -0.8733 -0.6954
 6357SOL    HW230534   3.726   3.449   7.388 -0.4309  1.8738 -0.6620
 6358SOL     OW30535   0.006   2.410  12.964 -0.4612  0.2085  0.5592
 6358SOL    HW130536   4.707   2.493  12.923 -0.9456  0.5200  1.4508
 6358SOL    HW230537   4.647   2.365  12.948  1.9747 -3.7643 -0.9192
 6359SOL     OW30538   1.492   0.586  16.571  0.1886 -0.0530 -1.3050
 6359SOL    HW130539   1.400   0.607  16.550 -0.7568 -2.7031  0.2163
 6359SOL    HW230540   1.524   0.600  16.482  0.5585  0.5507 -1.0760
 6360SOL     OW30541   1.166   2.914  10.202  0.2719 -0.0341 -0.2878
 6360SOL    HW130542   1.242   2.960  10.167  0.1602 -0.3911 -0.9886
 6360SOL    HW230543   1.202   2.833  10.237  2.9505  0.5710 -1.6075
 6361SOL     OW30544   2.058   0.745   3.830  0.4982 -0.1542  0.5918
 6361SOL    HW130545   2.107   0.673   3.792  2.3438  1.7501 -0.6111
 6361SOL    HW230546   2.075   0.822   3.774 -1.3659  1.4405  2.2108
 6362SOL     OW30547   2.710   4.528   4.454 -0.0058  0.0443 -0.4848
 6362SOL    HW130548   2.663   4.473   4.517  1.8308 -0.5538  0.3606
 6362SOL    HW230549   2.703   4.620   4.480 -1.4888  0.3297 -1.9220
 6363SOL     OW30550   3.741   0.638   8.165  0.1705 -0.3076  0.4301
 6363SOL    HW130551   3.724   0.598   8.250 -2.7359  0.1976  0.0845
 6363SOL    HW230552   3.812   0.695   8.196  0.0358 -0.3403  0.8015
 6364SOL     OW30553   3.923   1.104   5.942  0.2652  0.0783  0.3019
 6364SOL    HW130554   3.936   1.193   5.972 -2.4542  1.2534 -2.0383
 6364SOL    HW230555   3.856   1.084   6.007 -1.5272  1.5823 -1.0866
 6365SOL     OW30556   3.094   3.006   1.143 -0.4837  0.0718 -0.1791
 6365SOL    HW130557   3.008   3.033   1.173 -0.9108 -2.4163  0.8113
 6365SOL    HW230558   3.113   2.928   1.195  0.3683  0.1623 -0.3457
 6366SOL     OW30559   0.051   2.676   4.474 -0.2338 -0.0653  0.5997
 6366SOL    HW130560   0.146   2.664   4.487 -0.4782 -3.8096 -0.8970
 6366SOL    HW230561   0.035   2.761   4.514 -1.0913 -0.1974  0.5409
 6367SOL     OW30562   3.835   1.078   3.661  0.6091  0.5251  0.0143
 6367SOL    HW130563   3.785   0.996   3.664  0.5416  0.6981  3.6061
 6367SOL    HW230564   3.811   1.111   3.747 -0.6176 -2.3540  0.7665
 6368SOL     OW30565   3.661   2.950   4.782 -0.2277  0.0944 -0.0639
 6368SOL    HW130566   3.686   2.902   4.704  0.8720  0.6411 -0.0534
 6368SOL    HW230567   3.660   3.041   4.751 -1.4269 -0.3983 -1.4711
 6369SOL     OW30568   2.310   1.644   2.843 -0.3198 -0.2952  0.4145
 6369SOL    HW130569   2.339   1.659   2.752 -0.2901 -1.2510  0.2746
 6369SOL    HW230570   2.376   1.698   2.887 -2.9415  2.9638  0.3420
 6370SOL     OW30571   3.556   4.560   1.988 -0.3188  0.2246  0.1650
 6370SOL    HW130572   3.514   4.646   1.982  2.1174  1.4256  0.6193
 6370SOL    HW230573   3.648   4.575   1.966 -0.4077 -0.6580 -0.8010
 6371SOL     OW30574   3.792   4.004   6.474 -0.1823 -0.0955  0.0982
 6371SOL    HW130575   3.765   3.920   6.436 -0.2553  0.8846 -2.0032
 6371SOL    HW230576   3.711   4.018   6.522  0.2512  0.2026  0.7395
 6372SOL     OW30577   3.137   1.309  11.689 -0.2261  0.3254 -0.0028
 6372SOL    HW130578   3.110   1.385  11.638 -2.4314  1.1913  2.4262
 6372SOL    HW230579   3.188   1.355  11.756  1.0459  0.0215 -0.7666
 6373SOL     OW30580   3.561   3.945  14.247  0.0562  0.0251 -0.0501
 6373SOL    HW130581   3.519   3.946  14.161  1.0486 -0.2951 -0.5354
 6373SOL    HW230582   3.563   4.038  14.269 -0.3638 -0.3107  1.4481
 6374SOL     OW30583   1.243   2.130   1.670  0.2022 -0.0994  0.3309
 6374SOL    HW130584   1.201   2.044   1.670  1.1676 -0.5681  0.4037
 6374SOL    HW230585   1.308   2.107   1.736 -0.6027 -1.9052  0.5079
 6375SOL     OW30586   4.678   0.971  12.528 -0.2432  0.1528  0.4237
 6375SOL    HW130587   4.640   0.946  12.613  0.4623  1.8011  1.2089
 6375SOL    HW230588   4.639   1.057  12.516  0.0450  0.3637  1.0102
 6376SOL     OW30589   4.262   0.254   2.500 -0.5586 -0.2044  0.0246
 6376SOL    HW130590   4.242   0.181   2.441 -0.9789 -1.5081  1.7718
 6376SOL    HW230591   4.335   0.214   2.547 -1.2854  0.5838  1.8161
 6377SOL     OW30592   4.156   2.767   5.920 -0.0575 -0.0687  0.0574
 6377SOL    HW130593   4.120   2.744   5.835  0.0129  0.1291 -0.0264
 6377SOL    HW230594   4.228   2.705   5.927 -2.2699 -2.5547  0.8988
 6378SOL     OW30595   3.072   2.330   8.035  0.0945  0.1368  0.1078
 6378SOL    HW130596   3.051   2.293   7.949 -0.5509  0.5680  0.0845
 6378SOL    HW230597   3.145   2.278   8.070 -0.7309 -0.3915  1.0343
 6379SOL     OW30598   2.514   3.883   4.878  0.0848 -0.1733  0.2225
 6379SOL    HW130599   2.577   3.821   4.842  2.9116  1.8186  1.6573
 6379SOL    HW230600   2.481   3.927   4.800 -1.1880  2.1646  2.0570
 6380SOL     OW30601   4.711   1.743   0.608 -0.6190 -0.3587 -0.6012
 6380SOL    HW130602   0.012   1.650   0.612  0.7289  0.0072 -0.3322
 6380SOL    HW230603   4.688   1.758   0.516 -1.4774  2.1006  0.0204
 6381SOL     OW30604   1.031   4.149   8.387 -0.1401  0.1279  0.1052
 6381SOL    HW130605   1.043   4.082   8.455  2.0344 -0.3891 -0.7962
 6381SOL    HW230606   1.001   4.219   8.445 -2.3663 -2.1084  1.6960
 6382SOL     OW30607   1.227   4.295  13.138 -0.4250  0.0700  0.3283
 6382SOL    HW130608   1.175   4.347  13.077 -0.6539  0.8829  1.2336
 6382SOL    HW230609   1.266   4.235  13.074 -0.5652  0.2815  0.0454
 6383SOL     OW30610   0.731   3.401   2.243 -0.0177  0.7061 -0.1498
 6383SOL    HW130611   0.753   3.348   2.167  0.9810  0.6693  0.1703
 6383SOL    HW230612   0.667   3.457   2.198 -0.4368 -0.0564 -0.5049
 6384SOL     OW30613   0.964   2.188   6.938  0.7066 -0.0398 -0.1903
 6384SOL    HW130614   1.058   2.181   6.921  0.8126  1.1866 -0.1252
 6384SOL    HW230615   0.954   2.169   7.031  0.1693 -0.1006 -0.2569
 6385SOL     OW30616   0.893   2.700   9.808 -0.1548  0.0269  0.1295
 6385SOL    HW130617   0.981   2.674   9.779 -0.5002 -1.7130  0.6551
 6385SOL    HW230618   0.849   2.725   9.726 -0.9520  0.5450  0.7214
 6386SOL     OW30619   1.707   1.353  12.403 -0.1637  0.1951 -0.2086
 6386SOL    HW130620   1.613   1.358  12.383 -0.2421  0.5343  0.2501
 6386SOL    HW230621   1.704   1.419  12.471  1.1288 -0.4969  0.5084
 6387SOL     OW30622   2.799   1.787   8.833 -0.8978 -0.3052  0.1748
 6387SOL    HW130623   2.746   1.809   8.757  1.5621  0.6943 -1.2206
 6387SOL    HW230624   2.742   1.813   8.906  1.2524  0.3303  1.6202
 6388SOL     OW30625   1.560   3.449   7.892 -0.4724  0.2801 -0.4353
 6388SOL    HW130626   1.648   3.454   7.928 -1.0611  1.6676  0.8374
 6388SOL    HW230627   1.512   3.426   7.972  0.0274 -2.3241 -0.8734
 6389SOL     OW30628   2.123   4.407   6.360 -0.0455 -0.2628  0.2423
 6389SOL    HW130629   2.037   4.384   6.327 -0.2757  0.6815  0.1684
 6389SOL    HW230630   2.101   4.492   6.398  1.0424 -0.5324  1.5026
 6390SOL     OW30631   0.576   3.625  14.321  0.7788  0.2504  0.0907
 6390SOL    HW130632   0.626   3.699  14.356  0.1887  0.6195  0.1602
 6390SOL    HW230633   0.648   3.575  14.283  2.4157  0.8101  2.4536
 6391SOL     OW30634   4.541   1.383   4.771 -0.3589 -0.0186 -0.3340
 6391SOL    HW130635   4.573   1.334   4.696  1.7151 -0.6505  0.9744
 6391SOL    HW230636   4.503   1.458   4.726 -1.6944 -1.1134 -1.0515
 6392SOL     OW30637   1.384   0.830  13.543  0.2069 -0.7273  0.4360
 6392SOL    HW130638   1.342   0.863  13.623  0.0068 -2.0257  0.8684
 6392SOL    HW230639   1.352   0.889  13.474  0.8435 -1.7230 -0.7066
 6393SOL     OW30640   4.407   1.969   8.220  0.1337 -0.1531 -0.7340
 6393SOL    HW130641   4.478   2.033   8.230 -1.3577  1.7029 -1.8896
 6393SOL    HW230642   4.399   1.939   8.310  0.1976 -0.2576 -0.7638
 6394SOL     OW30643   3.426   4.519   4.956 -0.5238 -0.5599  0.5539
 6394SOL    HW130644   3.351   4.519   5.016 -2.0316  1.4535 -1.3102
 6394SOL    HW230645   3.398   4.454   4.891  0.5900 -0.2647 -0.2204
 6395SOL     OW30646   1.569   1.106   2.756  0.6740 -0.5837  0.3107
 6395SOL    HW130647   1.629   1.153   2.813  1.8168  0.8740 -2.1582
 6395SOL    HW230648   1.519   1.181   2.724  0.2205 -0.2301  1.8425
 6396SOL     OW30649   4.361   2.667   8.628 -0.5081  0.2103  0.3013
 6396SOL    HW130650   4.316   2.628   8.702 -0.7539 -0.2110 -0.0725
 6396SOL    HW230651   4.372   2.759   8.652  1.3704  0.3640 -1.0819
 6397SOL     OW30652   1.969   1.119  10.493 -0.1631  0.5614  0.3433
 6397SOL    HW130653   2.064   1.119  10.480 -0.7746 -0.8252 -4.0327
 6397SOL    HW230654   1.927   1.133  10.409 -0.2738  0.7567  0.4316
 6398SOL     OW30655   0.579   1.090   8.974 -0.1688 -0.0621  0.2251
 6398SOL    HW130656   0.518   1.037   9.025  0.0305  0.9980  1.5625
 6398SOL    HW230657   0.517   1.130   8.914  1.0721  0.9976 -0.3421
 6399SOL     OW30658   1.552   2.664   2.874 -0.0411  0.0100  0.8333
 6399SOL    HW130659   1.478   2.604   2.872  2.3639 -2.9679 -0.6120
 6399SOL    HW230660   1.521   2.730   2.935 -0.6776  1.4524 -1.0596
 6400SOL     OW30661   1.058   1.169  13.598  0.5329  0.3668  0.1700
 6400SOL    HW130662   0.994   1.165  13.669 -0.0940  0.7527 -0.3753
 6400SOL    HW230663   1.000   1.138  13.529 -1.8948  3.4140  0.8946
 6401SOL     OW30664   2.924   3.721   8.014  0.0694 -0.4483  0.1745
 6401SOL    HW130665   2.974   3.754   8.089 -1.4732  0.7060  0.6901
 6401SOL    HW230666   2.833   3.729   8.041  0.2364  2.0073  0.0162
 6402SOL     OW30667   4.087   3.740   4.091  0.0889  0.0032  0.6594
 6402SOL    HW130668   4.152   3.685   4.134  2.2767  0.3596 -2.1837
 6402SOL    HW230669   4.119   3.823   4.127 -0.6744 -0.0320  1.4156
 6403SOL     OW30670   2.334   1.037   5.195 -0.2617 -0.4983 -0.1837
 6403SOL    HW130671   2.245   1.042   5.161  0.3355  0.0946 -1.6686
 6403SOL    HW230672   2.361   1.129   5.197 -0.1499 -0.5234 -0.5948
 6404SOL     OW30673   3.793   4.067   3.077  0.4724 -0.2129 -0.8764
 6404SOL    HW130674   3.798   3.974   3.101  1.1662 -0.1366 -0.7452
 6404SOL    HW230675   3.884   4.093   3.065  0.4875 -0.4749 -1.3415
 6405SOL     OW30676   2.416   3.230   5.706 -0.5298 -0.0676  0.5394
 6405SOL    HW130677   2.365   3.165   5.657  2.3481 -2.2555  0.4695
 6405SOL    HW230678   2.465   3.180   5.771  1.6423  0.8130 -0.4298
 6406SOL     OW30679   4.712   1.746   5.753 -0.2135  0.0735 -0.0643
 6406SOL    HW130680   4.636   1.689   5.762 -0.1512  0.0050  0.0252
 6406SOL    HW230681   4.703   1.791   5.668  1.4327  0.2564 -0.1467
 6407SOL     OW30682   1.173   4.544   4.607  0.1187 -0.2399  0.0807
 6407SOL    HW130683   1.166   4.622   4.662 -0.0011 -0.2783  0.1189
 6407SOL    HW230684   1.198   4.475   4.668  1.6990  0.0719 -0.1886
 6408SOL     OW30685   1.560   1.190   7.939  0.2403 -0.5044 -0.2569
 6408SOL    HW130686   1.575   1.216   7.848 -1.9116  0.2028 -0.4169
 6408SOL    HW230687   1.473   1.230   7.943  1.8195  2.6055  2.6060
 6409SOL     OW30688   2.023   1.784   8.387 -0.3221  0.2098  0.5205
 6409SOL    HW130689   2.091   1.777   8.321 -0.2140 -1.3911  0.8170
 6409SOL    HW230690   1.984   1.697   8.393 -1.1709  0.4385 -1.7979
 6410SOL     OW30691   1.131   2.030   4.428  0.1957 -0.0218 -0.2500
 6410SOL    HW130692   1.081   1.981   4.363  2.6669 -0.5427 -1.7373
 6410SOL    HW230693   1.144   2.107   4.372  0.3767  0.3670  0.3207
 6411SOL     OW30694   0.477   4.108  12.213  0.6004  0.2109  0.2574
 6411SOL    HW130695   0.463   4.013  12.213  0.8801  0.1784 -1.3592
 6411SOL    HW230696   0.455   4.115  12.306 -1.8500  2.8643 -0.4996
 6412SOL     OW30697   1.705   0.331   0.093 -0.3517  0.0748  0.3141
 6412SOL    HW130698   1.707   0.323  17.694  1.9034 -0.3112  0.3811
 6412SOL    HW230699   1.791   0.298   0.118  0.3857 -0.1512 -2.4346
 6413SOL     OW30700   4.363   4.722   4.400 -0.3170  0.2294  0.2429
 6413SOL    HW130701   4.401   4.647   4.445 -0.3001  0.5290  0.7362
 6413SOL    HW230702   4.267   4.722   4.405 -0.3824  3.7763 -0.6263
 6414SOL     OW30703   0.301   2.818   2.754  0.7474  0.3524  0.2698
 6414SOL    HW130704   0.358   2.794   2.681  0.0629  0.3016 -0.2465
 6414SOL    HW230705   0.310   2.913   2.760 -1.7165  0.4761  1.8934
 6415SOL     OW30706   3.824   0.667  16.421 -0.1704  0.5708  0.4300
 6415SOL    HW130707   3.852   0.741  16.367 -1.1474  0.2598 -0.4903
 6415SOL    HW230708   3.881   0.675  16.498  3.5316 -0.2006 -2.1776
 6416SOL     OW30709   2.190   0.090   1.511 -0.8366  0.2822  0.6698
 6416SOL    HW130710   2.170   0.089   1.418  1.1287 -0.0005  0.2386
 6416SOL    HW230711   2.277   0.130   1.509 -0.1700 -1.1522  0.5419
 6417SOL     OW30712   3.918   1.065  10.581  0.3393 -0.4845 -0.1212
 6417SOL    HW130713   3.948   1.090  10.493  1.8140 -0.0243  0.5105
 6417SOL    HW230714   4.001   1.059  10.629  1.7854  0.1668 -2.5267
 6418SOL     OW30715   4.137   1.260  11.237 -0.2237 -0.4804 -0.2330
 6418SOL    HW130716   4.154   1.188  11.176  1.7335 -0.9798  0.9119
 6418SOL    HW230717   4.169   1.219  11.317 -3.5883 -0.4778  1.1121
 6419SOL     OW30718   0.054   1.086   3.727 -0.6130 -0.0617 -0.2998
 6419SOL    HW130719   4.695   1.109   3.685 -1.8987 -1.7329  1.3271
 6419SOL    HW230720   0.025   1.002   3.764  3.0006 -0.8310  0.7849
 6420SOL     OW30721   2.168   0.185   5.706  0.0424  0.8778  0.5802
 6420SOL    HW130722   2.149   0.108   5.760  0.5169  0.8011  0.6401
 6420SOL    HW230723   2.254   0.157   5.674  1.0622  2.9050  1.5818
 6421SOL     OW30724   0.847   3.381  14.976 -0.0062 -0.0949  0.2999
 6421SOL    HW130725   0.855   3.439  14.901  1.5275  0.6599  1.0419
 6421SOL    HW230726   0.816   3.306  14.925 -0.7747 -0.9316  1.9923
 6422SOL     OW30727   3.360   4.497   0.536  0.4394 -0.0689  0.7927
 6422SOL    HW130728   3.339   4.503   0.443 -0.0255 -1.6081  0.7938
 6422SOL    HW230729   3.275   4.522   0.572 -0.3909 -0.3557 -0.9852
 6423SOL     OW30730   3.825   0.213  14.312 -0.3714 -0.4382  0.4487
 6423SOL    HW130731   3.770   0.185  14.385  2.4792 -0.9691  2.3852
 6423SOL    HW230732   3.898   0.257  14.356  0.9470 -1.6371 -0.5528
 6424SOL     OW30733   2.056   0.927  12.178  0.2695  0.1539  0.8329
 6424SOL    HW130734   2.083   0.957  12.265 -0.6355 -0.3519  1.2824
 6424SOL    HW230735   2.086   0.836  12.175 -0.7769 -0.2143  1.8583
 6425SOL     OW30736   1.490   3.676   3.542 -0.0850  0.5782 -0.3217
 6425SOL    HW130737   1.563   3.617   3.559  1.7097  2.5877 -0.9724
 6425SOL    HW230738   1.434   3.661   3.618 -0.2455 -1.9651 -0.9431
 6426SOL     OW30739   3.789   1.577   5.128 -0.0542 -0.4060  0.3312
 6426SOL    HW130740   3.872   1.617   5.154  1.1662  0.2758 -4.5698
 6426SOL    HW230741   3.758   1.642   5.065  0.0020 -0.7522 -0.0548
 6427SOL     OW30742   1.878   4.207   7.119 -0.0972  0.3730 -0.8281
 6427SOL    HW130743   1.953   4.157   7.152  0.7450  1.1807 -1.4959
 6427SOL    HW230744   1.809   4.193   7.183  0.0671  0.2030 -0.6882
 6428SOL     OW30745   4.287   2.551   2.048 -0.0176 -0.1733  0.4478
 6428SOL    HW130746   4.310   2.565   1.956 -2.3686  0.1986 -0.0767
 6428SOL    HW230747   4.263   2.459   2.037 -1.0809  0.3325 -1.4684
 6429SOL     OW30748   1.341   4.028   5.368 -0.3903 -0.5755  0.1470
 6429SOL    HW130749   1.355   3.993   5.456 -2.6293 -0.2233  0.6556
 6429SOL    HW230750   1.387   4.111   5.373 -0.2076 -0.7314  1.0672
 6430SOL     OW30751   0.500   4.516   4.756  0.2963 -0.3720  0.3018
 6430SOL    HW130752   0.468   4.503   4.845 -0.5251 -1.6205 -0.1820
 6430SOL    HW230753   0.440   4.465   4.702 -0.3396  1.0537 -0.3169
 6431SOL     OW30754   0.751   1.530   5.035  0.2018 -0.2906 -0.4344
 6431SOL    HW130755   0.764   1.435   5.038  2.6202  0.0713  1.6779
 6431SOL    HW230756   0.819   1.563   5.094 -0.5011  0.7782 -0.2179
 6432SOL     OW30757   0.034   2.960  16.356  0.0910  0.1830  0.0885
 6432SOL    HW130758   0.095   2.972  16.283 -0.2075 -0.1607 -0.2167
 6432SOL    HW230759   4.723   2.875  16.331 -0.3477  0.6107 -0.7726
 6433SOL     OW30760   0.952   4.194   2.919 -0.0391  0.0871  0.1556
 6433SOL    HW130761   0.910   4.279   2.908  3.0574  1.9337  2.4298
 6433SOL    HW230762   1.035   4.206   2.872 -0.5906 -0.4605 -0.9582
 6434SOL     OW30763   4.513   3.491   2.986 -0.0136 -0.1929 -0.0058
 6434SOL    HW130764   4.452   3.464   2.917  0.0705  3.1492 -1.4304
 6434SOL    HW230765   4.584   3.519   2.928  1.8304 -2.3733  1.2363
 6435SOL     OW30766   3.860   1.307   4.497 -0.1035  0.2000  0.4502
 6435SOL    HW130767   3.835   1.320   4.589  1.4804  0.3263  0.8640
 6435SOL    HW230768   3.863   1.398   4.468  0.2530 -0.0911 -0.4292
 6436SOL     OW30769   3.941   2.105   3.665 -0.2674 -0.1559 -0.5984
 6436SOL    HW130770   3.959   2.029   3.610  0.7047  0.2271 -0.8163
 6436SOL    HW230771   3.942   2.179   3.604  0.8299  1.2830  1.1633
 6437SOL     OW30772   1.039   2.378   5.453  0.1530 -0.5781  0.0971
 6437SOL    HW130773   1.000   2.363   5.367 -0.3564 -1.1540  0.4285
 6437SOL    HW230774   1.122   2.420   5.430 -0.8140  0.8945 -0.7121
 6438SOL     OW30775   2.746   2.926   5.602 -0.0014 -0.0048  0.3574
 6438SOL    HW130776   2.799   2.861   5.557 -1.9143 -1.0574 -0.3598
 6438SOL    HW230777   2.776   3.009   5.566 -1.0043  1.3836  2.6716
 6439SOL     OW30778   1.686   4.692   2.570  0.0076 -0.3900 -0.4363
 6439SOL    HW130779   1.636   4.610   2.571 -0.9210  0.1773 -0.6132
 6439SOL    HW230780   1.619   0.036   2.564 -0.0749 -0.3277  1.2421
 6440SOL     OW30781   4.671   3.665   7.130  0.1351  0.1240  0.1314
 6440SOL    HW130782   4.682   3.609   7.054  0.3107  1.6217 -0.9414
 6440SOL    HW230783   0.041   3.685   7.133  0.1910  0.1336 -1.7481
 6441SOL     OW30784   3.301   2.623   6.666 -0.9338 -0.1988  0.2091
 6441SOL    HW130785   3.232   2.594   6.725 -2.0652  4.0807  0.9409
 6441SOL    HW230786   3.267   2.587   6.584  0.2372 -0.3251 -0.2198
 6442SOL     OW30787   4.511   1.765   4.843 -0.1917 -0.0290 -0.5792
 6442SOL    HW130788   4.523   1.853   4.809  2.1060  0.2135  0.9080
 6442SOL    HW230789   4.566   1.770   4.921 -0.0293 -1.7166 -0.5682
 6443SOL     OW30790   4.587   4.087   0.626  0.0894  0.5904 -0.4763
 6443SOL    HW130791   4.655   4.044   0.574  0.3049  0.0843  0.2301
 6443SOL    HW230792   4.589   4.176   0.591  1.2342  0.7164 -0.0845
 6444SOL     OW30793   2.829   4.436   7.877 -0.1218 -0.0774 -0.0997
 6444SOL    HW130794   2.759   4.446   7.942 -0.0582 -0.4001  0.0179
 6444SOL    HW230795   2.863   4.352   7.906  1.0715  0.4769  0.0723
 6445SOL     OW30796   1.951   3.670  13.190 -0.0466 -0.0481  0.1986
 6445SOL    HW130797   1.998   3.753  13.204 -0.7706  0.2458  0.8713
 6445SOL    HW230798   1.912   3.686  13.105  1.7362  2.3787 -0.1713
 6446SOL     OW30799   3.192   2.301   2.515 -0.1325 -0.3594 -0.1009
 6446SOL    HW130800   3.123   2.252   2.559 -1.4646  0.4177 -1.3376
 6446SOL    HW230801   3.240   2.322   2.595  0.3039 -1.8994  0.0543
 6447SOL     OW30802   0.996   3.791   9.455  0.5699 -0.2985  0.0927
 6447SOL    HW130803   0.903   3.792   9.432  0.3797  3.4175  1.0880
 6447SOL    HW230804   1.002   3.713   9.510 -0.4620  2.5649  4.2062
 6448SOL     OW30805   1.082   2.991  14.295  0.1029 -0.9189  0.4115
 6448SOL    HW130806   1.027   3.064  14.324  0.6000 -0.6126  0.5779
 6448SOL    HW230807   1.025   2.931  14.247 -2.1609  1.5772 -0.0145
 6449SOL     OW30808   3.079   2.661   3.549 -0.0486 -0.4005 -0.2350
 6449SOL    HW130809   3.107   2.672   3.458 -0.1009 -3.4577 -0.6211
 6449SOL    HW230810   3.136   2.726   3.590 -0.2228 -0.2800 -0.1848
 6450SOL     OW30811   4.181   0.982   4.100  0.1781  0.1753 -0.1233
 6450SOL    HW130812   4.105   0.953   4.150  1.0023 -1.7427  0.0230
 6450SOL    HW230813   4.180   0.917   4.030  4.8082 -0.0082 -0.0197
 6451SOL     OW30814   1.836   4.624   6.414 -0.0633 -0.0173  0.2870
 6451SOL    HW130815   1.888   4.668   6.481 -1.8849 -0.3600  1.9360
 6451SOL    HW230816   1.837   4.692   6.347 -0.6035  1.0710  1.3783
 6452SOL     OW30817   2.500   3.256  13.831  0.4119  0.2701  0.5830
 6452SOL    HW130818   2.478   3.287  13.919  0.9101 -2.2066  1.5688
 6452SOL    HW230819   2.590   3.230  13.851  0.3811 -0.4820 -0.2614
 6453SOL     OW30820   1.793   0.772  10.777  0.5969  0.2809 -0.2015
 6453SOL    HW130821   1.860   0.717  10.817 -1.1140 -0.5131  1.5607
 6453SOL    HW230822   1.844   0.850  10.755 -2.3280  2.6495  1.5212
 6454SOL     OW30823   1.434   0.660  17.649  0.3002  0.2009  0.0186
 6454SOL    HW130824   1.446   0.749  17.682 -1.8385  0.7581 -0.6668
 6454SOL    HW230825   1.339   0.656  17.664  0.5746 -1.2364  1.3874
 6455SOL     OW30826   2.756   1.566   3.596  0.1633 -0.1826 -0.8574
 6455SOL    HW130827   2.703   1.492   3.565 -2.0738  1.2924 -0.5555
 6455SOL    HW230828   2.844   1.530   3.585  0.6172  0.3871  0.8939
 6456SOL     OW30829   0.773   0.147  14.409  0.0379  0.0765  0.5813
 6456SOL    HW130830   0.835   0.075  14.400 -1.4819 -1.1338 -0.1203
 6456SOL    HW230831   0.782   0.172  14.501 -0.6092  1.1002  0.3673
 6457SOL     OW30832   2.694   1.978   9.593 -0.1925  0.3466  0.2704
 6457SOL    HW130833   2.684   1.896   9.546 -0.1070 -0.0058  0.8760
 6457SOL    HW230834   2.790   1.979   9.595 -0.1310  2.6322 -2.8538
 6458SOL     OW30835   0.963   2.392   9.568  0.1380  0.0206 -0.0505
 6458SOL    HW130836   0.934   2.331   9.636  1.2119 -0.4098  0.0127
 6458SOL    HW230837   1.036   2.427   9.619 -0.8239  1.4884  0.3262
 6459SOL     OW30838   2.072   1.088  16.406  0.0934 -0.3637 -0.5467
 6459SOL    HW130839   2.060   1.023  16.337 -3.4780 -0.7041  0.3571
 6459SOL    HW230840   2.115   1.039  16.475 -2.5254  0.1186  1.4537
 6460SOL     OW30841   0.967   1.260  15.273  0.0549 -0.2308 -0.2396
 6460SOL    HW130842   0.984   1.171  15.243  2.2174  0.1630 -0.1606
 6460SOL    HW230843   0.933   1.305  15.195  3.2834 -0.6597 -1.8977
 6461SOL     OW30844   1.958   0.210   7.214  0.4800 -0.2215 -0.4818
 6461SOL    HW130845   1.882   0.175   7.168  0.7567 -1.0764 -0.3030
 6461SOL    HW230846   2.004   0.253   7.142  0.4736 -0.5334 -0.6728
 6462SOL     OW30847   4.412   0.288   5.973  0.3351  0.7308  0.0781
 6462SOL    HW130848   4.478   0.220   5.990 -0.7384 -0.2230  0.4412
 6462SOL    HW230849   4.397   0.313   6.065  0.6804 -0.3335  0.4236
 6463SOL     OW30850   2.351   1.392   2.662  0.0946 -0.4259 -0.1058
 6463SOL    HW130851   2.357   1.446   2.742  1.4079  0.1839 -0.6167
 6463SOL    HW230852   2.257   1.373   2.666 -0.0526 -0.2411 -2.7592
 6464SOL     OW30853   0.141   2.887   4.025  0.2910 -0.0526 -0.5711
 6464SOL    HW130854   0.096   2.970   4.041 -1.0419 -0.7771 -0.5763
 6464SOL    HW230855   0.177   2.902   3.937 -0.8984 -2.9539 -1.5454
 6465SOL     OW30856   2.658   1.158   4.340  0.7907  0.0231  0.0009
 6465SOL    HW130857   2.601   1.090   4.304  2.1657 -0.7396 -0.7585
 6465SOL    HW230858   2.745   1.119   4.351  0.4528 -0.7291  0.0631
 6466SOL     OW30859   2.005   2.047   7.357  0.0245  0.3520  0.0957
 6466SOL    HW130860   2.031   1.982   7.422  0.0584 -0.1560 -0.4202
 6466SOL    HW230861   2.089   2.076   7.320  1.0648  0.5225  2.5925
 6467SOL     OW30862   3.883   2.426   7.410  0.0483 -0.2262  0.3515
 6467SOL    HW130863   3.945   2.479   7.459 -1.4344  1.0110  0.8674
 6467SOL    HW230864   3.820   2.495   7.391  0.9057  0.1792 -1.0332
 6468SOL     OW30865   1.658   1.830   7.810  0.3721 -0.2500 -0.1065
 6468SOL    HW130866   1.586   1.844   7.748  1.1338  1.4331 -0.6111
 6468SOL    HW230867   1.721   1.892   7.773  2.5088 -1.3247  1.7651
 6469SOL     OW30868   2.430   3.826   7.531  0.6552  0.2710 -0.3659
 6469SOL    HW130869   2.386   3.902   7.571  0.3467 -0.1872  0.1650
 6469SOL    HW230870   2.525   3.839   7.526  0.6140 -0.0894 -2.2577
 6470SOL     OW30871   3.138   3.419   4.691 -0.2867 -0.1741 -0.6101
 6470SOL    HW130872   3.097   3.387   4.772  1.8749 -1.1552  0.0905
 6470SOL    HW230873   3.080   3.385   4.622 -2.0611 -2.0188  1.7815
 6471SOL     OW30874   3.602   0.071   8.203 -0.7056  0.1995  0.3393
 6471SOL    HW130875   3.636   4.706   8.215  1.2188  0.8328 -0.3424
 6471SOL    HW230876   3.581   0.098   8.293 -1.8851  0.3103  0.0257
 6472SOL     OW30877   2.183   2.043  16.768 -0.4052  0.1929  0.0806
 6472SOL    HW130878   2.141   2.128  16.776 -0.2085  0.2349  0.7111
 6472SOL    HW230879   2.253   2.063  16.705  0.1211 -2.0309 -0.0664
 6473SOL     OW30880   1.709   2.257   7.729  0.3764 -0.0257 -0.1039
 6473SOL    HW130881   1.667   2.184   7.775  2.5142 -0.5414  1.0314
 6473SOL    HW230882   1.784   2.216   7.686  1.5462  2.4683 -0.4239
 6474SOL     OW30883   1.385   3.470  11.454  0.2610 -0.3772  0.1635
 6474SOL    HW130884   1.447   3.496  11.386 -2.2249  0.6511 -1.7098
 6474SOL    HW230885   1.373   3.378  11.431 -0.2592 -0.3042  0.1441
 6475SOL     OW30886   0.756   3.164   6.768 -0.0656  0.5290  0.9266
 6475SOL    HW130887   0.690   3.126   6.827  0.9324 -2.2062  0.2867
 6475SOL    HW230888   0.750   3.254   6.801  0.3030  1.0237 -0.3414
 6476SOL     OW30889   1.300   0.735   9.145 -0.0979  0.7706  0.2276
 6476SOL    HW130890   1.385   0.773   9.167  0.3251  1.0749 -1.8554
 6476SOL    HW230891   1.311   0.711   9.053 -0.3163  0.0132  0.4040
 6477SOL     OW30892   1.666   3.030   5.420  0.6173  0.2848 -1.0582
 6477SOL    HW130893   1.644   3.060   5.331 -1.9311  1.9583  0.1272
 6477SOL    HW230894   1.740   3.085   5.446  0.1885 -0.0151  0.8111
 6478SOL     OW30895   0.723   2.210   4.007  0.5081  0.7390 -0.0749
 6478SOL    HW130896   0.660   2.159   3.956  0.0197  0.8096  0.4653
 6478SOL    HW230897   0.710   2.291   3.957 -0.8205  0.1106 -0.7532
 6479SOL     OW30898   1.057   2.692   9.445  0.0560 -0.0320 -0.6040
 6479SOL    HW130899   0.968   2.708   9.475  0.5766  1.2501  0.2452
 6479SOL    HW230900   1.089   2.677   9.534 -0.4861 -1.2841 -0.6275
 6480SOL     OW30901   2.679   3.626   6.636 -0.1275  0.7091 -0.0891
 6480SOL    HW130902   2.633   3.655   6.715  0.0561 -0.1461  0.3341
 6480SOL    HW230903   2.633   3.545   6.615 -1.7872  1.7664 -0.5205
 6481SOL     OW30904   4.498   2.941   3.004 -0.2339 -0.2101 -0.0690
 6481SOL    HW130905   4.555   2.879   3.049  0.5812  1.4467  1.1912
 6481SOL    HW230906   4.425   2.951   3.064  0.2460  2.5299  0.0750
 6482SOL     OW30907   2.510   2.900  11.788 -0.0225  0.0673 -0.2116
 6482SOL    HW130908   2.594   2.855  11.776 -0.2941  0.1708 -2.6456
 6482SOL    HW230909   2.475   2.845  11.858  0.6441  0.8503  0.7308
 6483SOL     OW30910   3.673   4.596  15.423  0.1055 -0.1238  0.0061
 6483SOL    HW130911   3.642   4.535  15.355  0.8880 -1.9138  1.2544
 6483SOL    HW230912   3.697   4.535  15.493  2.4007  1.7469  0.8116
 6484SOL     OW30913   2.741   0.158  14.873  0.5543  0.1693 -0.2572
 6484SOL    HW130914   2.718   0.071  14.840  0.5894  0.0345  0.0725
 6484SOL    HW230915   2.673   0.156  14.941  0.0197 -0.9730 -0.8120
 6485SOL     OW30916   1.611   0.571  11.783 -0.0377 -0.1392  0.5412
 6485SOL    HW130917   1.542   0.538  11.840 -0.4899 -1.2374 -0.6510
 6485SOL    HW230918   1.630   0.641  11.845 -2.5728  0.7558  0.2956
 6486SOL     OW30919   1.991   4.071   8.333 -0.0051  0.0386  0.4811
 6486SOL    HW130920   2.069   4.124   8.316 -1.8724  3.3299  2.3235
 6486SOL    HW230921   1.984   4.035   8.244 -2.4579  2.6066 -0.3873
 6487SOL     OW30922   0.637   2.406   3.754  0.0316  0.0984 -0.0324
 6487SOL    HW130923   0.582   2.338   3.712  0.9749  0.5000 -1.9247
 6487SOL    HW230924   0.724   2.370   3.738 -0.8360 -0.9937 -2.3446
 6488SOL     OW30925   2.890   3.107   7.502 -0.0573  0.1993 -0.8064
 6488SOL    HW130926   2.840   3.067   7.572  2.6165 -0.8927  0.4740
 6488SOL    HW230927   2.842   3.185   7.473 -0.2242  0.6740  0.7942
 6489SOL     OW30928   2.945   0.074   4.571 -0.4444  0.4874  0.8387
 6489SOL    HW130929   2.854   0.094   4.549  0.5814  1.9378 -2.1718
 6489SOL    HW230930   2.938   0.066   4.666  1.1415 -0.0858  0.9118
 6490SOL     OW30931   4.111   1.963  10.015 -0.4338  0.0718  0.6429
 6490SOL    HW130932   4.184   1.916  10.056  0.6358  1.3640  0.2216
 6490SOL    HW230933   4.156   2.047  10.016  0.1908 -0.2416 -1.2914
 6491SOL     OW30934   2.126   4.595   2.595 -0.4701  0.0185  0.3276
 6491SOL    HW130935   2.072   4.555   2.527  0.1884  0.9629 -0.7600
 6491SOL    HW230936   2.065   4.583   2.668 -0.1533 -0.5959  0.4962
 6492SOL     OW30937   3.611   1.633  15.729  0.2249 -0.0561  0.4702
 6492SOL    HW130938   3.519   1.656  15.739 -0.3370 -0.9501 -2.8057
 6492SOL    HW230939   3.617   1.649  15.635  1.2197 -0.1621  0.5093
 6493SOL     OW30940   1.243   4.188   3.115 -0.2526  0.4564 -0.2191
 6493SOL    HW130941   1.230   4.166   3.023  0.7176 -0.8690 -0.0346
 6493SOL    HW230942   1.180   4.257   3.138  0.8632  0.3801  3.0289
 6494SOL     OW30943   0.323   0.345   8.884 -0.3868  0.5829  0.1419
 6494SOL    HW130944   0.339   0.322   8.793 -0.6837  0.7218  0.0559
 6494SOL    HW230945   0.323   0.440   8.883  2.5527  0.5729  0.1904
 6495SOL     OW30946   0.049   3.152  10.268  0.2811 -0.1748 -0.1805
 6495SOL    HW130947   0.065   3.198  10.351  2.0588  1.2271 -1.2960
 6495SOL    HW230948   0.003   3.074  10.298  0.5660 -0.3318 -0.1542
 6496SOL     OW30949   3.757   1.072   4.941  0.1648  0.6035 -0.1600
 6496SOL    HW130950   3.746   1.023   4.860 -2.2647 -1.6780  1.5697
 6496SOL    HW230951   3.670   1.085   4.979 -0.4008 -0.5690 -1.0744
 6497SOL     OW30952   3.989   3.941   6.674  0.0042  0.1314 -0.0177
 6497SOL    HW130953   3.914   3.969   6.622  0.0025 -0.9847 -0.5974
 6497SOL    HW230954   4.013   3.858   6.633  0.6041 -0.0349  0.6701
 6498SOL     OW30955   4.102   0.072   4.417  0.0090  0.0544 -0.3840
 6498SOL    HW130956   4.073   0.132   4.486  0.8462 -1.0599  0.9422
 6498SOL    HW230957   4.020   0.021   4.414  0.3330 -0.5134  0.4434
 6499SOL     OW30958   1.516   2.548  16.586 -0.3286 -0.8148  0.0621
 6499SOL    HW130959   1.490   2.457  16.567  2.7998 -1.1607 -2.5735
 6499SOL    HW230960   1.430   2.590  16.586  0.2968  0.4577  2.0331
 6500SOL     OW30961   3.551   0.007  12.315  0.5491 -0.0801  0.4794
 6500SOL    HW130962   3.518   4.672  12.383  2.6349 -1.1123  0.6121
 6500SOL    HW230963   3.581   0.079  12.370  0.1256  0.7477 -0.3801
 6501SOL     OW30964   2.392   3.080   6.972 -0.4583  0.8916  0.3654
 6501SOL    HW130965   2.347   3.164   6.962 -1.6927  0.1230 -0.4511
 6501SOL    HW230966   2.413   3.099   7.063  1.1802 -1.5540  0.4908
 6502SOL     OW30967   3.873   2.999  16.219  0.4119 -0.6309  0.6816
 6502SOL    HW130968   3.867   3.038  16.306  2.2093  0.6100  0.2584
 6502SOL    HW230969   3.790   2.951  16.219  0.7757 -1.2436  2.6118
 6503SOL     OW30970   2.422   2.339  15.460  0.0306  0.6475  0.4703
 6503SOL    HW130971   2.513   2.349  15.486  0.3071  0.7890 -0.5577
 6503SOL    HW230972   2.417   2.244  15.446  2.5136  0.6040 -0.0591
 6504SOL     OW30973   2.464   0.660   6.134  0.5603  0.1251 -0.6010
 6504SOL    HW130974   2.514   0.720   6.189  0.3094 -0.4530  0.2710
 6504SOL    HW230975   2.530   0.590   6.137 -1.7224 -1.9652  1.6776
 6505SOL     OW30976   0.382   3.948   4.660  0.6295  0.2469  0.0502
 6505SOL    HW130977   0.409   4.012   4.594  0.8099 -1.3515 -1.4405
 6505SOL    HW230978   0.391   3.997   4.742  1.2614  0.1493  0.0359
 6506SOL     OW30979   2.763   1.790  12.229 -0.3737 -0.0830  0.2418
 6506SOL    HW130980   2.796   1.792  12.318  3.4129  1.5908 -1.2190
 6506SOL    HW230981   2.725   1.878  12.235  0.1664  0.2184 -0.7348
 6507SOL     OW30982   2.703   4.438   7.622  0.3284  0.2101  0.1340
 6507SOL    HW130983   2.723   4.455   7.714  0.7747  1.6779 -0.2329
 6507SOL    HW230984   2.627   4.381   7.636 -0.2874  1.5344  2.2285
 6508SOL     OW30985   1.700   1.552   3.008 -0.1921 -0.4742  0.2299
 6508SOL    HW130986   1.675   1.634   3.050  1.1971  1.3453 -2.4902
 6508SOL    HW230987   1.782   1.583   2.971  0.2777 -0.3902  1.3457
 6509SOL     OW30988   0.244   4.634   8.607  0.0372  0.0647 -0.7334
 6509SOL    HW130989   0.269   4.542   8.591  0.3490 -0.6342  3.9233
 6509SOL    HW230990   0.289   4.676   8.534  0.3190 -1.2478 -1.3291
 6510SOL     OW30991   3.461   1.281   8.318 -0.2011 -1.2042  0.1112
 6510SOL    HW130992   3.463   1.212   8.384 -0.5457 -0.3199  1.0468
 6510SOL    HW230993   3.440   1.355   8.374 -0.3761 -0.4584 -0.9449
 6511SOL     OW30994   3.586   4.466   1.569  0.0664  0.1334  0.0524
 6511SOL    HW130995   3.494   4.484   1.589 -0.3857 -2.8769  0.8326
 6511SOL    HW230996   3.620   4.552   1.593  2.8075 -0.3827 -2.0330
 6512SOL     OW30997   3.359   4.069  17.671  0.5734  0.0379  0.1311
 6512SOL    HW130998   3.373   3.979   0.003  0.3425  0.1377  0.5608
 6512SOL    HW230999   3.292   4.083   0.042  1.0681 -0.3382  0.6931
 6513SOL     OW31000   0.783   1.425   7.747 -0.1481  0.5479 -0.0702
 6513SOL    HW131001   0.701   1.439   7.700  0.1859  0.0719 -0.8036
 6513SOL    HW231002   0.743   1.347   7.786  0.5724  0.2156  0.0065
 6514SOL     OW31003   1.981   0.921   2.652 -0.5613 -0.4644 -0.8798
 6514SOL    HW131004   2.039   0.908   2.578  0.1386 -1.4449 -0.1600
 6514SOL    HW231005   1.902   0.942   2.601 -1.1950 -0.6555  0.0186
 6515SOL     OW31006   3.408   1.700  16.366 -0.0230  0.1398 -0.7593
 6515SOL    HW131007   3.357   1.663  16.294  0.5125 -0.1123 -1.0164
 6515SOL    HW231008   3.481   1.727  16.310 -0.4171  0.1803 -1.2570
 6516SOL     OW31009   4.442   3.916   5.954  0.2358  0.1706  0.0353
 6516SOL    HW131010   4.397   3.834   5.976  1.5208 -0.1897  1.3442
 6516SOL    HW231011   4.447   3.961   6.038  1.1536 -1.3718  0.8130
 6517SOL     OW31012   3.818   2.205   4.936  0.3925 -0.1010  0.4512
 6517SOL    HW131013   3.861   2.121   4.917 -0.2901 -0.6281  1.2370
 6517SOL    HW231014   3.728   2.175   4.945  0.2558 -0.2471 -1.5303
 6518SOL     OW31015   0.222   3.655   2.799 -0.1424  0.5350 -0.2796
 6518SOL    HW131016   0.174   3.732   2.831 -2.0930 -1.2505  1.0219
 6518SOL    HW231017   0.158   3.586   2.814  1.9171 -0.7044  2.6371
 6519SOL     OW31018   4.193   0.548   0.854  0.4382 -0.3771 -0.0384
 6519SOL    HW131019   4.204   0.528   0.761 -0.1807 -2.8112  0.3991
 6519SOL    HW231020   4.265   0.507   0.902 -0.1219 -0.4005  0.7851
 6520SOL     OW31021   4.692   2.086   5.436 -0.0053  0.4742  0.5356
 6520SOL    HW131022   0.048   2.123   5.398 -0.2830 -0.6447 -1.1461
 6520SOL    HW231023   4.626   2.128   5.382  0.5069  0.1927 -0.3076
 6521SOL     OW31024   0.605   4.243   3.971  0.0625 -0.3584  0.0503
 6521SOL    HW131025   0.682   4.259   4.025 -0.0442 -1.4926  0.5382
 6521SOL    HW231026   0.534   4.300   4.001 -1.5005 -2.5231  0.5011
 6522SOL     OW31027   2.867   3.297   1.355 -0.1073  0.0906 -0.3592
 6522SOL    HW131028   2.878   3.205   1.379  0.7571  0.5117  0.8701
 6522SOL    HW231029   2.781   3.306   1.314  0.5324 -0.5926 -1.8452
 6523SOL     OW31030   2.268   3.326  10.316 -0.4260 -0.7774  0.3393
 6523SOL    HW131031   2.277   3.314  10.221 -1.9979 -1.8800  0.3328
 6523SOL    HW231032   2.325   3.251  10.333 -0.4521 -0.3864  2.1138
 6524SOL     OW31033   2.419   4.426  13.178  0.1434 -0.5269  0.2176
 6524SOL    HW131034   2.381   4.400  13.094  0.2912 -2.1070  0.6367
 6524SOL    HW231035   2.384   4.357  13.235  1.3588  0.3054  1.9664
 6525SOL     OW31036   2.173   1.608   8.031 -0.4501  0.5197 -0.2599
 6525SOL    HW131037   2.196   1.524   8.069 -0.6161  0.8717  0.6163
 6525SOL    HW231038   2.219   1.611   7.946  1.1322 -0.2949  0.5575
 6526SOL     OW31039   1.594   0.146   3.269  0.2586  0.3332 -0.0475
 6526SOL    HW131040   1.690   0.145   3.265  0.3098 -0.6871  1.3056
 6526SOL    HW231041   1.585   0.073   3.208 -0.1784  1.4339 -1.2991
 6527SOL     OW31042   3.606   2.499   1.608  0.0652 -0.4589 -0.3339
 6527SOL    HW131043   3.595   2.416   1.655  2.3667 -0.0960  0.8128
 6527SOL    HW231044   3.701   2.507   1.602 -0.0276 -0.3139 -1.5683
 6528SOL     OW31045   4.285   3.848   6.546  0.0486  0.0879  0.9042
 6528SOL    HW131046   4.234   3.784   6.596  0.1749 -0.5927  0.1702
 6528SOL    HW231047   4.278   3.926   6.600  1.3952  0.4898  0.4913
 6529SOL     OW31048   0.367   2.982   7.147 -0.0401 -0.0320 -0.0355
 6529SOL    HW131049   0.277   2.993   7.116  0.3750 -0.8743 -1.5200
 6529SOL    HW231050   0.417   2.948   7.072 -0.1600  0.4913 -0.3510
 6530SOL     OW31051   0.577   3.083   4.690 -0.2558  0.7634  0.0808
 6530SOL    HW131052   0.569   3.083   4.785  2.1119 -2.3274  0.2786
 6530SOL    HW231053   0.535   3.002   4.663  0.1671  1.1052 -1.6404
 6531SOL     OW31054   3.238   2.191  11.947  0.1196 -0.3575 -0.3194
 6531SOL    HW131055   3.307   2.127  11.932  0.3209  0.0143 -0.9840
 6531SOL    HW231056   3.289   2.256  11.995 -0.2215 -0.5249  0.2692
 6532SOL     OW31057   0.669   2.457   1.880 -0.1345  0.3372 -0.3679
 6532SOL    HW131058   0.677   2.529   1.818  1.3567  0.4582 -0.0513
 6532SOL    HW231059   0.585   2.416   1.860 -0.2414 -0.9860  2.7301
 6533SOL     OW31060   2.309   1.549   1.993  0.4743  0.2083  0.0959
 6533SOL    HW131061   2.220   1.538   1.961  1.3844  4.0838 -3.7343
 6533SOL    HW231062   2.307   1.478   2.058 -1.1746  0.0352 -0.1514
 6534SOL     OW31063   4.460   2.190   4.547 -0.0468  0.0371 -0.1745
 6534SOL    HW131064   4.480   2.133   4.621 -1.7350 -2.0628 -1.3369
 6534SOL    HW231065   4.430   2.268   4.594  0.1336  0.8258 -1.3582
 6535SOL     OW31066   0.398   1.156   2.721 -0.0715  0.0465  0.1566
 6535SOL    HW131067   0.457   1.179   2.649 -1.6906 -1.8414 -1.7715
 6535SOL    HW231068   0.375   1.240   2.761  0.6440  0.3900 -0.1466
 6536SOL     OW31069   2.688   4.677   8.207 -0.0142  0.2180  0.0820
 6536SOL    HW131070   2.662   4.617   8.137  1.1564 -2.3370  1.8686
 6536SOL    HW231071   2.766   4.636   8.243  0.3924  2.5770  1.8988
 6537SOL     OW31072   0.080   0.526  10.215  0.0095 -0.3917 -0.3905
 6537SOL    HW131073   0.042   0.583  10.282  0.5504  0.4998 -0.8426
 6537SOL    HW231074   0.031   0.446  10.231 -0.3390  0.1145  1.1529
 6538SOL     OW31075   2.748   2.411   9.784  0.3844 -0.2034  0.8310
 6538SOL    HW131076   2.754   2.426   9.878  0.2909 -0.0061  0.8042
 6538SOL    HW231077   2.824   2.355   9.765  0.4909  0.5016 -0.8353
 6539SOL     OW31078   1.297   1.362   6.559 -0.0812  0.1749 -0.1475
 6539SOL    HW131079   1.239   1.379   6.485 -2.3551  2.2666  2.1170
 6539SOL    HW231080   1.303   1.454   6.584 -0.0503  0.0424  0.3476
 6540SOL     OW31081   1.784   0.154   0.802 -0.3303  0.0887 -0.5762
 6540SOL    HW131082   1.805   0.241   0.835 -1.8401 -0.8026  2.7230
 6540SOL    HW231083   1.878   0.135   0.810 -0.3272  0.2861 -0.1380
 6541SOL     OW31084   1.294   3.193   7.296 -0.1820  0.1664 -0.4377
 6541SOL    HW131085   1.235   3.259   7.335 -1.2182 -0.2419 -1.3097
 6541SOL    HW231086   1.284   3.205   7.202  2.1140  1.8822 -0.4552
 6542SOL     OW31087   3.959   3.636   8.659 -0.5032  0.7034  0.4967
 6542SOL    HW131088   4.051   3.614   8.670 -0.4990  0.5498  0.1271
 6542SOL    HW231089   3.927   3.549   8.680  1.5562  0.4239  2.5066
 6543SOL     OW31090   3.343   2.006   8.365  0.6027 -0.0134  0.6474
 6543SOL    HW131091   3.289   2.027   8.289 -1.3030 -0.0070  2.0206
 6543SOL    HW231092   3.433   2.023   8.337  0.4336  0.1218  0.1819
 6544SOL     OW31093   3.787   3.945   3.562 -0.5521 -0.6038  0.3452
 6544SOL    HW131094   3.850   4.012   3.537 -1.4810  0.0003 -0.3905
 6544SOL    HW231095   3.709   3.986   3.523  0.6541 -1.3666 -2.8855
 6545SOL     OW31096   1.953   1.861  16.755  0.4578  0.0173 -0.1270
 6545SOL    HW131097   1.915   1.894  16.836 -0.3798 -1.3493  0.0454
 6545SOL    HW231098   2.021   1.925  16.734 -1.0924  1.0248 -2.0409
 6546SOL     OW31099   1.944   2.676   9.587  0.2015 -0.3909  0.3371
 6546SOL    HW131100   2.037   2.660   9.568  0.3658 -1.1710  1.8125
 6546SOL    HW231101   1.899   2.651   9.506 -1.9833  0.2395  1.3552
 6547SOL     OW31102   2.518   3.748  14.941  0.0131 -0.5293 -0.0575
 6547SOL    HW131103   2.602   3.779  14.974 -0.3376  2.9482 -2.5081
 6547SOL    HW231104   2.463   3.737  15.019  2.4391 -0.5089  1.6496
 6548SOL     OW31105   3.967   2.936   1.813 -0.0293  0.1354  0.2398
 6548SOL    HW131106   4.059   2.949   1.792  0.1839 -1.6654  0.0252
 6548SOL    HW231107   3.974   2.844   1.839 -2.8071 -0.4109 -0.9389
 6549SOL     OW31108   1.409   2.518  10.811  0.2427  0.7124  0.1418
 6549SOL    HW131109   1.464   2.552  10.882  0.5218  0.0754  0.2308
 6549SOL    HW231110   1.381   2.433  10.845  0.9172  0.3099 -0.3181
 6550SOL     OW31111   1.107   2.894  16.723  0.3340  0.0942 -0.3778
 6550SOL    HW131112   1.061   2.923  16.802 -3.0064 -1.9897 -1.5490
 6550SOL    HW231113   1.170   2.965  16.714 -0.8168  1.2024  0.2187
 6551SOL     OW31114   3.715   1.675   4.015 -0.1902 -0.4039 -0.4953
 6551SOL    HW131115   3.803   1.696   3.985 -0.1673  1.7462  1.0379
 6551SOL    HW231116   3.682   1.760   4.047  1.0238  0.0542 -0.4781
 6552SOL     OW31117   1.822   2.194  10.979  0.2051  0.0403  0.1117
 6552SOL    HW131118   1.871   2.189  11.062  1.3046 -1.0633 -0.6072
 6552SOL    HW231119   1.745   2.139  10.993  0.9299 -1.0215 -0.1045
 6553SOL     OW31120   1.705   2.168   5.895  0.2306 -0.1475 -0.1082
 6553SOL    HW131121   1.780   2.159   5.954  0.3453 -1.6720 -0.4857
 6553SOL    HW231122   1.670   2.252   5.925 -0.1005  0.3761 -1.9445
 6554SOL     OW31123   2.441   0.754   5.504 -0.0668 -0.0572 -0.2658
 6554SOL    HW131124   2.463   0.847   5.510  0.9151 -0.1581 -2.2298
 6554SOL    HW231125   2.475   0.739   5.592  0.7880 -1.1272 -0.7878
 6555SOL     OW31126   0.600   2.849   4.239 -0.1254  0.0516 -0.1145
 6555SOL    HW131127   0.594   2.926   4.183  0.5893 -0.8524 -1.4594
 6555SOL    HW231128   0.572   2.878   4.325  0.9432  0.8012 -0.0227
 6556SOL     OW31129   1.940   4.374   8.250  0.1593  0.1008 -0.0340
 6556SOL    HW131130   1.848   4.365   8.273  0.2911  0.4548  0.6225
 6556SOL    HW231131   1.972   4.378   8.340  0.2151  3.1336 -0.1979
 6557SOL     OW31132   1.519   3.461   6.026 -0.4685  0.1571 -0.5690
 6557SOL    HW131133   1.444   3.441   5.969 -1.0329 -0.5243  0.4077
 6557SOL    HW231134   1.550   3.372   6.043  0.9591  0.9317  0.8016
 6558SOL     OW31135   3.849   1.417   1.764 -0.5617 -0.2465 -0.1250
 6558SOL    HW131136   3.780   1.352   1.751 -1.1599  0.1795  0.9167
 6558SOL    HW231137   3.801   1.484   1.714  1.7616  0.6131 -1.1932
 6559SOL     OW31138   1.114   2.237   2.491 -0.1382  0.2728  0.1131
 6559SOL    HW131139   1.154   2.302   2.434  0.3408 -1.0453 -1.0403
 6559SOL    HW231140   1.129   2.260   2.583  4.1415 -1.1375 -0.2771
 6560SOL     OW31141   3.533   1.846   1.937 -0.4040 -0.3648  0.5385
 6560SOL    HW131142   3.492   1.904   2.002 -1.8604 -1.7684  0.8528
 6560SOL    HW231143   3.624   1.860   1.963 -0.5809  2.9385 -0.5700
 6561SOL     OW31144   2.210   0.965  14.275  0.6262  0.0666 -0.3184
 6561SOL    HW131145   2.129   0.934  14.315  0.6058  0.4167 -0.0897
 6561SOL    HW231146   2.217   0.894  14.212 -1.5883 -0.9554  0.5866
 6562SOL     OW31147   2.639   4.424  14.272  0.1723  0.4803  0.0769
 6562SOL    HW131148   2.707   4.372  14.315  1.2662  1.0110 -1.0087
 6562SOL    HW231149   2.640   4.506  14.321  2.6641  0.6158 -0.1742
 6563SOL     OW31150   2.922   0.729   3.915  0.2334  0.3696 -0.0970
 6563SOL    HW131151   2.850   0.745   3.854 -0.3020 -2.6740 -0.2352
 6563SOL    HW231152   2.889   0.786   3.985 -0.8602  1.0524 -1.1800
 6564SOL     OW31153   1.736   2.126   3.681 -0.0730  0.2168 -0.3474
 6564SOL    HW131154   1.656   2.110   3.732 -0.6015  0.6726 -1.0270
 6564SOL    HW231155   1.803   2.088   3.738  0.8023  1.8617 -0.2826
 6565SOL     OW31156   4.216   1.081   8.964  0.2638 -0.4577 -0.0294
 6565SOL    HW131157   4.195   1.172   8.943 -0.5412 -1.5461 -3.9818
 6565SOL    HW231158   4.265   1.053   8.886 -0.0729 -1.9347  0.2994
 6566SOL     OW31159   1.456   0.249  17.377 -0.1168 -0.1120  0.0260
 6566SOL    HW131160   1.549   0.251  17.355 -0.4092  0.4330 -1.1766
 6566SOL    HW231161   1.426   0.257  17.286  0.8289  2.6083 -0.0432
 6567SOL     OW31162   1.178   4.287   8.231 -0.0162  0.1669  0.2044
 6567SOL    HW131163   1.111   4.327   8.175  2.6333  0.9484 -2.4192
 6567SOL    HW231164   1.130   4.229   8.290 -1.5190  0.7051 -0.4900
 6568SOL     OW31165   1.435   3.518  12.202 -0.6012  0.3221  1.0014
 6568SOL    HW131166   1.380   3.483  12.273  0.5660  2.0186  2.7410
 6568SOL    HW231167   1.423   3.468  12.121 -1.0285  2.3840 -0.2138
 6569SOL     OW31168   2.813   4.308  11.310  0.5578  0.6960 -0.3981
 6569SOL    HW131169   2.767   4.387  11.284 -0.9865  0.4823  1.6333
 6569SOL    HW231170   2.891   4.352  11.344  1.6710 -1.8622  0.4091
 6570SOL     OW31171   3.761   2.437  15.404  0.1806 -0.0390 -0.0098
 6570SOL    HW131172   3.852   2.427  15.376  0.5486 -0.9590  1.5290
 6570SOL    HW231173   3.716   2.381  15.342  2.4254 -0.9177 -0.8193
 6571SOL     OW31174   1.316   0.026   8.672  0.4186 -0.1857 -0.2994
 6571SOL    HW131175   1.300   4.686   8.603 -1.5699  0.0476 -0.0374
 6571SOL    HW231176   1.395   0.079   8.656  0.4961 -0.9980 -2.5289
 6572SOL     OW31177   0.314   0.861  15.177  0.6898 -0.0917 -0.7190
 6572SOL    HW131178   0.356   0.789  15.224 -0.3028  1.3582  2.3821
 6572SOL    HW231179   0.270   0.904  15.249  0.4741  1.2660 -1.6750
 6573SOL     OW31180   1.108   1.235  16.518 -0.1844  0.4218  0.8789
 6573SOL    HW131181   1.096   1.297  16.447  2.2134  0.6232  0.6706
 6573SOL    HW231182   1.101   1.292  16.595 -1.5803 -0.1270  1.1580
 6574SOL     OW31183   1.718   2.652  16.401 -0.5843  0.6317  1.0157
 6574SOL    HW131184   1.655   2.626  16.469 -1.5210  0.6552  0.1569
 6574SOL    HW231185   1.781   2.705  16.450 -1.0194  1.7563  0.3466
 6575SOL     OW31186   1.945   2.210  11.208  0.3558 -0.2685  0.1260
 6575SOL    HW131187   2.040   2.202  11.199  0.0740 -1.4825 -1.7715
 6575SOL    HW231188   1.931   2.272  11.280 -0.8826  0.2711 -0.5848
 6576SOL     OW31189   2.550   1.752   0.609 -0.0704  0.5296  0.2769
 6576SOL    HW131190   2.460   1.753   0.643  0.2182  1.8099  1.0051
 6576SOL    HW231191   2.529   1.717   0.523 -0.7840 -0.9048  1.0218
 6577SOL     OW31192   4.672   0.026   0.874 -0.0219  0.2615  0.0176
 6577SOL    HW131193   4.676   0.122   0.871 -1.9443  0.4416  2.9005
 6577SOL    HW231194   4.665   0.018   0.970 -1.3028  2.5918  0.1212
 6578SOL     OW31195   0.006   1.495  16.850 -0.3911 -0.7532  0.4814
 6578SOL    HW131196   4.721   1.485  16.945  0.1749  0.9814  0.7045
 6578SOL    HW231197   4.721   1.589  16.834  1.7176 -0.6133  0.1933
 6579SOL     OW31198   3.391   3.734   9.196  0.3278  0.3589  0.4293
 6579SOL    HW131199   3.394   3.731   9.292 -2.6470 -0.1539  0.4898
 6579SOL    HW231200   3.300   3.758   9.180  0.5432  0.3782 -0.7925
 6580SOL     OW31201   1.503   1.666   7.436  0.7630 -0.2541 -0.0849
 6580SOL    HW131202   1.440   1.594   7.444  1.2634 -0.3905  2.5272
 6580SOL    HW231203   1.454   1.746   7.417 -1.4717 -1.4725  0.5489
 6581SOL     OW31204   4.421   1.729   4.291  0.0537 -0.1080  0.2082
 6581SOL    HW131205   4.446   1.713   4.200  2.4222  2.2229  0.4390
 6581SOL    HW231206   4.438   1.646   4.335  0.2643 -0.0111  0.3065
 6582SOL     OW31207   0.542   0.448   9.184 -0.0764 -0.4017  0.1341
 6582SOL    HW131208   0.636   0.466   9.175 -0.1616  0.1097  0.2725
 6582SOL    HW231209   0.552   0.357   9.210  1.5236 -0.1192  0.5465
 6583SOL     OW31210   1.693   0.903  10.552  0.0842  0.3214 -0.2871
 6583SOL    HW131211   1.732   0.965  10.613 -0.9053  0.6768 -0.0103
 6583SOL    HW231212   1.712   0.827  10.605  0.2755  1.3253  1.0798
 6584SOL     OW31213   4.166   4.588   8.720  0.1013 -0.2682  0.0448
 6584SOL    HW131214   4.071   4.596   8.725 -0.2069 -1.4959 -3.6891
 6584SOL    HW231215   4.196   4.616   8.806 -2.4410 -3.3453  1.9270
 6585SOL     OW31216   0.524   0.243   2.759  0.1373 -0.3797 -1.0817
 6585SOL    HW131217   0.459   0.193   2.710  0.4262 -2.6141  0.8230
 6585SOL    HW231218   0.608   0.207   2.731 -0.1285 -0.7843 -1.3417
 6586SOL     OW31219   4.484   0.500  10.717  0.3684 -0.3965 -0.6972
 6586SOL    HW131220   4.536   0.560  10.771  0.3138  0.3239 -1.4433
 6586SOL    HW231221   4.398   0.539  10.734  0.9283  0.1131  1.0558
 6587SOL     OW31222   3.294   3.555  11.183  0.0946 -0.1532  0.1646
 6587SOL    HW131223   3.254   3.641  11.177 -1.0485 -0.7510 -0.9655
 6587SOL    HW231224   3.251   3.510  11.256  0.6097 -3.0088 -1.2679
 6588SOL     OW31225   0.609   0.251  12.923  0.0272 -0.5822 -0.0311
 6588SOL    HW131226   0.561   0.322  12.964 -0.6957 -1.5612  0.8215
 6588SOL    HW231227   0.560   0.174  12.954  0.2100 -0.5723  0.2841
 6589SOL     OW31228   3.572   1.358   4.958 -0.4962  0.2716  0.3851
 6589SOL    HW131229   3.550   1.451   4.952 -0.2587  0.1554 -2.1151
 6589SOL    HW231230   3.531   1.330   5.040 -0.7912 -2.1781 -0.6041
 6590SOL     OW31231   3.671   4.211   7.908 -0.1874  0.0798  0.5305
 6590SOL    HW131232   3.758   4.225   7.870 -1.3778  3.1915 -1.0849
 6590SOL    HW231233   3.622   4.271   7.851  1.2355  0.2607 -0.4873
 6591SOL     OW31234   0.115   2.682   7.828 -0.3765  0.0457 -0.2942
 6591SOL    HW131235   0.119   2.777   7.827  1.8385 -0.0500 -0.6207
 6591SOL    HW231236   0.200   2.652   7.860 -0.1852 -0.6377 -1.4233
 6592SOL     OW31237   2.384   0.017   5.636  0.7083 -0.2399  0.3582
 6592SOL    HW131238   2.463   0.053   5.595 -1.1361  3.4474  0.0813
 6592SOL    HW231239   2.412   4.714   5.723 -0.4121 -1.7066  0.2653
 6593SOL     OW31240   0.745   1.310   2.961  0.5057  0.0293  0.2207
 6593SOL    HW131241   0.765   1.274   2.874  0.8012  0.2753  0.1868
 6593SOL    HW231242   0.705   1.393   2.938  1.6273 -0.0648 -2.1800
 6594SOL     OW31243   0.167   0.280   9.115 -0.0134 -0.2963  0.0664
 6594SOL    HW131244   0.243   0.250   9.165  0.1811 -0.5255 -0.3700
 6594SOL    HW231245   0.216   0.306   9.037  0.5550 -0.8198  0.2448
 6595SOL     OW31246   3.543   0.024   5.026 -0.1531 -0.8724 -0.4697
 6595SOL    HW131247   3.632   4.712   5.028  0.2504  0.1925  1.0717
 6595SOL    HW231248   3.488   4.677   4.994 -1.6385 -0.5252  1.2990
 6596SOL     OW31249   4.370   0.354   0.992 -0.5950 -0.2822  0.5668
 6596SOL    HW131250   4.374   0.389   1.081 -1.4304 -0.2928  0.6022
 6596SOL    HW231251   4.285   0.313   0.975 -1.8908  2.2136  1.1095
 6597SOL     OW31252   0.009   1.405  11.853  0.6898 -0.1955  0.3901
 6597SOL    HW131253   0.005   1.383  11.760  0.2362  0.4348  0.2624
 6597SOL    HW231254   0.029   1.321  11.893 -1.5262 -1.3300 -0.9017
 6598SOL     OW31255   4.451   1.170   5.964  0.1356  0.6248 -0.1251
 6598SOL    HW131256   4.379   1.210   5.915 -0.0819 -0.9828 -1.1164
 6598SOL    HW231257   4.483   1.249   6.009  0.2676  1.2619 -1.3433
 6599SOL     OW31258   4.054   1.263   5.519  0.3441  0.1396 -0.1675
 6599SOL    HW131259   4.045   1.177   5.477 -0.7308 -0.0336  0.4203
 6599SOL    HW231260   3.962   1.285   5.532  0.5611  1.2705 -0.5291
 6600SOL     OW31261   2.908   2.109   1.974  0.0216 -0.2634  0.3825
 6600SOL    HW131262   2.818   2.079   1.979 -0.2308  0.7097  1.8175
 6600SOL    HW231263   2.930   2.097   2.066 -0.3803  0.5158  0.5758
 6601SOL     OW31264   2.000   2.568   3.612 -0.2962  0.3564 -0.0164
 6601SOL    HW131265   2.071   2.536   3.668  0.5828  1.3968 -0.5186
 6601SOL    HW231266   2.004   2.499   3.546 -0.9994 -3.6477  4.1449
 6602SOL     OW31267   0.164   0.997   0.775  0.1188 -0.6100 -0.0629
 6602SOL    HW131268   0.259   0.987   0.782  0.4310  0.4288 -2.4829
 6602SOL    HW231269   0.136   0.953   0.855 -1.9191  1.1710  0.1953
 6603SOL     OW31270   4.284   0.918   0.953  0.1865 -0.1198  0.6262
 6603SOL    HW131271   4.223   0.876   0.891  1.2789  1.1002 -1.2998
 6603SOL    HW231272   4.360   0.930   0.895 -0.8544  2.0686 -0.3099
 6604SOL     OW31273   0.530   4.700  16.953 -0.1524 -0.6558  0.0186
 6604SOL    HW131274   0.475   4.711  16.876 -1.8449 -0.3892  1.2572
 6604SOL    HW231275   0.587   4.634  16.914  0.9131  0.2313  0.0700
 6605SOL     OW31276   4.294   1.026   7.641 -0.5818  0.4857  0.0688
 6605SOL    HW131277   4.377   1.048   7.683  0.2725  0.2474 -1.4989
 6605SOL    HW231278   4.294   0.935   7.671  0.4787  0.3910 -0.2328
 6606SOL     OW31279   4.220   2.130   3.289 -0.7209  0.4659  0.2801
 6606SOL    HW131280   4.129   2.114   3.312 -0.5639  0.9313  1.2020
 6606SOL    HW231281   4.219   2.204   3.229  1.7189  0.7954  0.6555
 6607SOL     OW31282   3.337   0.379   4.692 -0.3890 -0.4130  0.3261
 6607SOL    HW131283   3.252   0.362   4.731  0.4283 -1.6146  1.5653
 6607SOL    HW231284   3.307   0.431   4.617  0.3270 -1.3543 -0.6257
 6608SOL     OW31285   2.183   3.328  13.250  0.2555  0.1879 -0.2190
 6608SOL    HW131286   2.254   3.264  13.262 -0.6413 -0.9721 -1.1506
 6608SOL    HW231287   2.113   3.263  13.243 -0.3834  0.8471  0.0607
 6609SOL     OW31288   0.497   0.677   3.024  0.2404  0.2710  0.5010
 6609SOL    HW131289   0.454   0.731   2.957 -1.5603  0.2645  1.6735
 6609SOL    HW231290   0.563   0.630   2.973 -0.1073 -0.2909  0.5659
 6610SOL     OW31291   1.352   2.503   3.126 -0.4568  0.6029 -0.2870
 6610SOL    HW131292   1.359   2.498   3.030 -0.3292  2.3330 -0.3670
 6610SOL    HW231293   1.411   2.434   3.156 -2.0886 -0.7617 -0.2078
 6611SOL     OW31294   3.580   1.805  10.008 -0.2873  0.3146 -0.6918
 6611SOL    HW131295   3.600   1.768   9.922 -1.1119  1.1353 -1.2283
 6611SOL    HW231296   3.671   1.816  10.035 -0.8752  0.9002  1.0569
 6612SOL     OW31297   2.552   2.737   3.405  0.0538  0.9502 -0.0225
 6612SOL    HW131298   2.467   2.705   3.437  1.1399 -2.2989 -0.3792
 6612SOL    HW231299   2.601   2.660   3.434 -0.4193  0.0034 -1.7178
 6613SOL     OW31300   3.869   2.550  10.042  0.6516 -0.1623  0.1301
 6613SOL    HW131301   3.845   2.608   9.970  0.5422  0.1049  0.3849
 6613SOL    HW231302   3.889   2.618  10.106  1.4305  1.3890 -1.7489
 6614SOL     OW31303   2.212   0.343   7.870 -0.2000  0.3721  0.1045
 6614SOL    HW131304   2.240   0.303   7.787  0.3569 -1.5290  1.2085
 6614SOL    HW231305   2.287   0.312   7.920 -0.3028  0.4463  0.3053
 6615SOL     OW31306   3.990   4.073   3.428  0.0193 -0.2095 -0.5735
 6615SOL    HW131307   4.051   4.145   3.447 -2.1127  1.5058 -0.1444
 6615SOL    HW231308   4.048   3.999   3.411 -0.2954 -0.3796 -0.8962
 6616SOL     OW31309   2.776   2.227   6.496 -0.5197 -0.3973  0.1613
 6616SOL    HW131310   2.723   2.257   6.570 -1.3427 -1.1175 -0.1460
 6616SOL    HW231311   2.780   2.134   6.516 -1.0064  0.0111  2.1353
 6617SOL     OW31312   3.100   2.576   5.724 -0.2168 -0.2481  0.3103
 6617SOL    HW131313   3.021   2.609   5.681 -0.3242 -0.7581  0.1157
 6617SOL    HW231314   3.160   2.587   5.650 -1.0216 -2.8411 -0.7324
 6618SOL     OW31315   2.610   2.251   1.295 -0.0737 -0.0395  0.1879
 6618SOL    HW131316   2.606   2.162   1.258  0.1118 -0.8581  2.1111
 6618SOL    HW231317   2.563   2.306   1.232 -1.0648 -1.2943 -0.1854
 6619SOL     OW31318   0.449   4.193  17.007 -0.3463  0.0151 -0.3050
 6619SOL    HW131319   0.470   4.118  16.952  0.0383 -0.7876  0.9441
 6619SOL    HW231320   0.394   4.148  17.071 -1.0151  1.4899  0.1522
 6620SOL     OW31321   4.358   3.503   5.959  0.4528 -0.2442 -0.0807
 6620SOL    HW131322   4.431   3.529   6.015  1.6289 -1.9815 -0.8159
 6620SOL    HW231323   4.372   3.408   5.955 -0.7620 -0.4170 -0.3058
 6621SOL     OW31324   3.026   0.601  13.810 -0.0999  0.1210 -0.3721
 6621SOL    HW131325   3.090   0.660  13.851  0.9026  1.0673 -3.3576
 6621SOL    HW231326   3.024   0.533  13.878  0.1348 -0.3284 -0.8184
 6622SOL     OW31327   2.675   0.613   9.090 -0.2004  0.7322  0.8492
 6622SOL    HW131328   2.698   0.639   9.000 -1.8679  0.1512  0.2531
 6622SOL    HW231329   2.750   0.560   9.116  1.6722  3.3967  0.8880
 6623SOL     OW31330   4.333   4.335  12.077  0.3479 -0.1385 -0.2414
 6623SOL    HW131331   4.286   4.349  11.995 -0.7445  0.9438  0.5700
 6623SOL    HW231332   4.421   4.357  12.047 -0.0733  1.6059 -0.1837
 6624SOL     OW31333   1.902   4.601  11.099  0.1498 -0.1072  0.1819
 6624SOL    HW131334   1.874   4.615  11.009  1.2487  0.3741 -0.0875
 6624SOL    HW231335   1.823   4.571  11.144 -0.6899  0.2620 -1.0477
 6625SOL     OW31336   1.630   4.301  14.338 -0.1380 -0.1780 -0.1352
 6625SOL    HW131337   1.701   4.366  14.343  0.7131 -0.8020 -4.0854
 6625SOL    HW231338   1.562   4.363  14.312  0.9427  1.2338  0.3882
 6626SOL     OW31339   4.699   1.547  10.321  0.3546 -0.0569 -0.2458
 6626SOL    HW131340   4.668   1.465  10.359 -2.5610  0.8470 -0.6776
 6626SOL    HW231341   0.039   1.507  10.262 -0.2821 -1.9979  0.3726
 6627SOL     OW31342   0.861   0.533   1.683 -0.3305  0.4282 -0.6085
 6627SOL    HW131343   0.853   0.503   1.592 -2.4760  0.0659 -0.2997
 6627SOL    HW231344   0.943   0.583   1.677 -1.3066  1.9860 -0.9345
 6628SOL     OW31345   2.854   1.777   7.322 -0.7656 -0.1543  0.1922
 6628SOL    HW131346   2.934   1.781   7.374 -0.7462  0.3177  0.1237
 6628SOL    HW231347   2.879   1.704   7.265  2.3872  1.9913 -1.1027
 6629SOL     OW31348   2.544   1.585   4.157 -0.1722  0.1850 -0.0534
 6629SOL    HW131349   2.531   1.558   4.067  0.4260 -1.9384  0.5066
 6629SOL    HW231350   2.622   1.640   4.154 -0.4418  0.5436 -0.3935
 6630SOL     OW31351   0.305   1.885   4.373  0.3865 -0.0353 -0.3483
 6630SOL    HW131352   0.321   1.826   4.447 -0.9754  0.0426 -0.0052
 6630SOL    HW231353   0.345   1.835   4.301  1.2495 -0.2664  0.2923
 6631SOL     OW31354   4.580   0.679  14.149  0.1940 -0.7516 -0.0187
 6631SOL    HW131355   4.608   0.686  14.058  1.3083 -1.8817  0.2492
 6631SOL    HW231356   4.533   0.596  14.153 -0.3219 -0.5280 -1.4561
 6632SOL     OW31357   1.297   1.781   1.900  0.4580 -0.6904  0.4404
 6632SOL    HW131358   1.340   1.735   1.828 -0.9824  0.2998 -1.0497
 6632SOL    HW231359   1.216   1.798   1.852 -0.4045 -1.7107  1.5322
 6633SOL     OW31360   1.444   2.020  15.893  0.3424 -0.5191  0.0896
 6633SOL    HW131361   1.533   1.992  15.914  1.8200  3.4182 -0.9159
 6633SOL    HW231362   1.467   2.054  15.806  0.0460 -0.5086  0.0132
 6634SOL     OW31363   2.740   3.622   3.824  0.0197  0.3123  0.2302
 6634SOL    HW131364   2.803   3.569   3.874 -1.7457 -1.7657  0.2191
 6634SOL    HW231365   2.795   3.657   3.754 -1.5250  0.7659 -0.7463
 6635SOL     OW31366   3.189   0.271   5.680 -0.2656 -0.0475 -0.3123
 6635SOL    HW131367   3.229   0.275   5.593  3.0259 -0.5314  1.1866
 6635SOL    HW231368   3.267   0.244   5.729 -0.6259 -0.5999 -0.0375
 6636SOL     OW31369   2.120   2.916   2.216 -0.2782  0.0422 -0.3380
 6636SOL    HW131370   2.093   2.992   2.267 -0.6871  0.3658 -1.0320
 6636SOL    HW231371   2.136   2.968   2.137  1.2407  1.0587  0.6292
 6637SOL     OW31372   2.915   2.972   0.483  0.4438  0.0618  0.0739
 6637SOL    HW131373   2.886   2.979   0.392  0.6276 -2.1016 -0.1565
 6637SOL    HW231374   2.997   3.020   0.492  0.1597  0.7176 -0.8815
 6638SOL     OW31375   4.477   1.280   8.367  0.2440  0.1482  1.0351
 6638SOL    HW131376   4.490   1.347   8.300 -0.2926  0.8660  1.6516
 6638SOL    HW231377   4.515   1.322   8.444  1.8304 -0.9373  0.8402
 6639SOL     OW31378   2.672   2.619   5.137  0.2420  0.5069 -0.1169
 6639SOL    HW131379   2.738   2.684   5.160  1.4285 -1.1572  1.2317
 6639SOL    HW231380   2.603   2.678   5.106  1.0714  1.1027 -0.8094
 6640SOL     OW31381   0.233   1.810   6.278  0.0894 -0.6053 -0.2923
 6640SOL    HW131382   0.288   1.835   6.203  1.0421  0.6447  0.8429
 6640SOL    HW231383   0.292   1.746   6.318  1.5676  0.9768  0.0805
 6641SOL     OW31384   0.474   2.372   3.266  0.5674  0.5978  0.2494
 6641SOL    HW131385   0.501   2.462   3.286 -3.3047  1.8541 -0.2798
 6641SOL    HW231386   0.520   2.346   3.186  0.2051 -0.9961  0.5517
 6642SOL     OW31387   2.362   1.692   2.312  0.6356 -0.1476 -0.4192
 6642SOL    HW131388   2.424   1.680   2.384  0.0884 -1.7819 -0.2297
 6642SOL    HW231389   2.400   1.768   2.267  1.0408  0.4235  0.8827
 6643SOL     OW31390   3.937   1.641   1.454 -0.6105 -0.3739 -0.0454
 6643SOL    HW131391   3.987   1.706   1.405 -2.4297  0.4211 -0.8345
 6643SOL    HW231392   3.964   1.668   1.542  0.2246  0.6435 -0.6052
 6644SOL     OW31393   2.089   0.600   4.192 -0.1062  0.4491  1.2353
 6644SOL    HW131394   2.069   0.596   4.285  1.6576  0.9131  1.6448
 6644SOL    HW231395   2.042   0.681   4.172 -0.7265 -0.1186  0.4340
 6645SOL     OW31396   4.523   0.983   6.400 -0.1953 -0.0354  0.2105
 6645SOL    HW131397   4.534   0.888   6.397  0.6044  0.0616  0.0831
 6645SOL    HW231398   4.470   1.007   6.323 -0.1850  1.3526  0.6386
 6646SOL     OW31399   1.557   0.646  12.333 -0.2677  0.1848  0.4805
 6646SOL    HW131400   1.595   0.670  12.417 -0.8575 -1.0044  1.0781
 6646SOL    HW231401   1.639   0.620  12.291 -0.7146 -2.3786  1.2369
 6647SOL     OW31402   2.308   0.120  15.194 -0.0027 -0.2703 -0.0664
 6647SOL    HW131403   2.369   0.137  15.122 -1.2491  3.0083 -0.3672
 6647SOL    HW231404   2.353   0.167  15.265 -0.9494  1.5582 -0.6592
 6648SOL     OW31405   2.502   2.259   8.032 -0.4580 -0.4393  0.5855
 6648SOL    HW131406   2.592   2.293   8.035 -0.6439  0.1553 -0.7236
 6648SOL    HW231407   2.500   2.213   7.948  1.9274 -0.5509  0.5763
 6649SOL     OW31408   0.597   4.224   8.836  0.6527 -0.0433  0.3825
 6649SOL    HW131409   0.687   4.192   8.828  0.7883  0.9648 -2.0852
 6649SOL    HW231410   0.575   4.161   8.904 -3.4760 -0.6410 -1.5262
 6650SOL     OW31411   3.362   0.034   7.066 -0.6604  0.0593  0.1064
 6650SOL    HW131412   3.276   0.077   7.069  1.1903  3.7304  0.5679
 6650SOL    HW231413   3.404   0.045   7.151 -1.7649 -0.8166  0.7539
 6651SOL     OW31414   0.261   2.301   8.423  0.1733  0.2283 -0.1144
 6651SOL    HW131415   0.326   2.317   8.355 -1.0766  0.3472 -1.2820
 6651SOL    HW231416   0.223   2.215   8.406  0.0207 -0.0942  1.8550
 6652SOL     OW31417   3.209   1.042   0.140  0.5905  0.2283  0.0056
 6652SOL    HW131418   3.178   1.045   0.230 -0.8765  0.4097 -0.5171
 6652SOL    HW231419   3.125   1.036   0.096 -0.1497  0.0870  1.4521
 6653SOL     OW31420   2.105   1.474   7.204  0.0976 -0.4269  0.1647
 6653SOL    HW131421   2.015   1.443   7.208 -0.3548  1.0837  1.7685
 6653SOL    HW231422   2.096   1.566   7.180  0.2386 -0.6870 -0.8578
 6654SOL     OW31423   3.286   3.807   1.863  0.3695 -0.0532  0.6186
 6654SOL    HW131424   3.338   3.783   1.940  0.9946  1.5249  0.7017
 6654SOL    HW231425   3.280   3.725   1.815 -0.6374  1.3425 -1.6296
 6655SOL     OW31426   3.468   2.932   8.920  0.1260 -0.5581  0.1567
 6655SOL    HW131427   3.388   2.984   8.912 -1.0903 -2.4972 -0.1430
 6655SOL    HW231428   3.435   2.848   8.889 -0.2633 -0.1321 -0.5758
 6656SOL     OW31429   3.901   1.509   2.494 -0.5574 -0.0858  0.3922
 6656SOL    HW131430   3.895   1.451   2.418  0.4635  0.0500  0.2035
 6656SOL    HW231431   3.898   1.453   2.572 -0.4275  1.0335  1.2042
 6657SOL     OW31432   2.967   3.839   7.215  0.6069 -0.1539  0.3435
 6657SOL    HW131433   3.052   3.834   7.258  1.7205  2.1167 -1.6150
 6657SOL    HW231434   2.936   3.929   7.224  0.8435 -0.0956  0.5683
 6658SOL     OW31435   0.658   3.804   0.020 -0.3452 -0.4317 -0.3582
 6658SOL    HW131436   0.615   3.765   0.097  0.4476  0.0292  0.3208
 6658SOL    HW231437   0.686   3.887   0.057 -0.1758  0.6640 -2.9708
 6659SOL     OW31438   0.506   4.258  13.148  1.1095 -0.6846 -0.0366
 6659SOL    HW131439   0.560   4.336  13.135  0.6134 -0.5928 -1.5468
 6659SOL    HW231440   0.519   4.202  13.071 -1.9093 -0.2693 -0.8410
 6660SOL     OW31441   1.524   1.674  15.801 -0.5174  0.1021  0.0027
 6660SOL    HW131442   1.536   1.718  15.885  1.6165  1.3300 -0.9362
 6660SOL    HW231443   1.605   1.624  15.788  0.8389  2.2543  0.1835
 6661SOL     OW31444   0.221   0.527   0.400 -0.3409 -0.5937  0.3411
 6661SOL    HW131445   0.296   0.586   0.396  0.6559 -1.8070  1.2016
 6661SOL    HW231446   0.266   0.444   0.384 -0.9454 -0.6367 -1.1441
 6662SOL     OW31447   0.802   3.540   4.138 -0.3875  0.7162 -0.1050
 6662SOL    HW131448   0.813   3.445   4.139 -2.1888  0.5064 -0.2924
 6662SOL    HW231449   0.876   3.573   4.088 -0.1103  0.4060  0.1017
 6663SOL     OW31450   0.428   3.000   5.837 -0.2958  0.0325 -0.4570
 6663SOL    HW131451   0.345   3.045   5.850  0.8172  1.7516  0.7967
 6663SOL    HW231452   0.460   3.058   5.768 -1.1879 -1.3156 -1.9817
 6664SOL     OW31453   3.389   1.762   5.584  0.4016  0.4163  0.0553
 6664SOL    HW131454   3.310   1.720   5.618 -1.0860  2.6041 -0.6374
 6664SOL    HW231455   3.399   1.829   5.653 -0.8269 -1.0195  1.6362
 6665SOL     OW31456   1.311   2.180   3.235 -0.2541  0.2057 -0.0842
 6665SOL    HW131457   1.243   2.246   3.248 -0.5733 -0.2920  0.7606
 6665SOL    HW231458   1.322   2.152   3.326 -0.2860 -0.6706 -0.3483
 6666SOL     OW31459   4.068   4.448  14.102 -0.1874 -0.0991  0.4867
 6666SOL    HW131460   4.006   4.520  14.104  0.2717  0.3536 -1.2800
 6666SOL    HW231461   4.034   4.391  14.171 -0.6769 -1.5668 -0.9357
 6667SOL     OW31462   0.311   2.614   4.657  0.1475  0.5084 -0.4788
 6667SOL    HW131463   0.342   2.617   4.566  0.6537 -1.4391 -0.3820
 6667SOL    HW231464   0.254   2.538   4.664  2.0594 -0.8330  0.6507
 6668SOL     OW31465   3.138   4.562   5.046 -0.3903 -0.3550  0.2985
 6668SOL    HW131466   3.053   4.530   5.018 -1.0519  2.3928 -0.8501
 6668SOL    HW231467   3.131   4.655   5.024  0.1451 -0.4983 -0.4626
 6669SOL     OW31468   4.632   2.135   8.261 -0.6299 -0.0823  0.0139
 6669SOL    HW131469   4.640   2.230   8.249  0.8314 -0.4646 -2.0532
 6669SOL    HW231470   4.717   2.115   8.299  0.1334 -0.0218 -1.6571
 6670SOL     OW31471   0.288   4.200  17.635  0.5453  0.0747 -0.5785
 6670SOL    HW131472   0.341   4.197  17.555 -0.9490  0.7106 -1.5926
 6670SOL    HW231473   0.243   4.116  17.645 -1.2638  1.2742  1.3666
 6671SOL     OW31474   0.480   1.280   8.795  0.1586  0.5858 -0.2402
 6671SOL    HW131475   0.493   1.362   8.748  1.3170  0.6411  0.1685
 6671SOL    HW231476   0.472   1.228   8.715  0.6866 -0.7738  0.5888
 6672SOL     OW31477   2.423   0.847  16.450  0.0824  0.3319 -0.6030
 6672SOL    HW131478   2.519   0.851  16.451  0.0617  0.6463  0.4558
 6672SOL    HW231479   2.393   0.872  16.363 -1.3640  3.2094  0.7208
 6673SOL     OW31480   0.477   0.043   4.405  0.0692  0.0336 -0.0942
 6673SOL    HW131481   0.488   4.672   4.398 -0.2805 -0.0070 -0.0832
 6673SOL    HW231482   0.412   0.059   4.337 -0.4746 -3.2405 -0.3513
 6674SOL     OW31483   4.225   0.731   9.579 -0.0786 -0.1908 -0.3764
 6674SOL    HW131484   4.131   0.735   9.597  0.8538  0.1380  4.2967
 6674SOL    HW231485   4.254   0.697   9.663 -0.2072  0.7912  0.0639
 6675SOL     OW31486   3.610   2.494   8.601  0.4933  0.6983  0.5731
 6675SOL    HW131487   3.667   2.549   8.547 -0.5026 -0.9177 -2.1035
 6675SOL    HW231488   3.677   2.482   8.668  0.4005 -1.2964  0.3101
 6676SOL     OW31489   3.049   2.565   9.914  0.0175  0.1397  0.0538
 6676SOL    HW131490   2.985   2.558   9.984  1.0908 -1.9311  0.8207
 6676SOL    HW231491   3.127   2.549   9.966 -0.8560 -2.7132  0.4335
 6677SOL     OW31492   3.219   2.768   9.660 -0.6134  0.2218 -0.4319
 6677SOL    HW131493   3.204   2.692   9.604 -2.6462 -1.4023  2.3281
 6677SOL    HW231494   3.263   2.726   9.734  1.3122  2.5298 -0.2455
 6678SOL     OW31495   4.313   2.488   1.495  0.0111  0.5737 -0.0401
 6678SOL    HW131496   4.239   2.431   1.516 -0.6611  1.8579  1.1517
 6678SOL    HW231497   4.355   2.441   1.424  0.2372  2.1657 -0.9703
 6679SOL     OW31498   1.177   4.570   2.870  0.1536 -0.3578  0.3878
 6679SOL    HW131499   1.089   4.574   2.908  0.8242 -2.5569  2.2268
 6679SOL    HW231500   1.210   4.659   2.866  2.2058 -1.1625 -0.7578
 6680SOL     OW31501   1.378   0.126  14.968 -0.0133 -0.5722 -0.3726
 6680SOL    HW131502   1.369   0.212  15.010  0.3682 -0.2728 -0.9040
 6680SOL    HW231503   1.298   0.080  14.994 -0.4681  2.0295  2.8704
 6681SOL     OW31504   4.143   3.823   2.341  0.1982  0.5975 -0.4440
 6681SOL    HW131505   4.214   3.764   2.369 -0.8151  0.0940  1.0451
 6681SOL    HW231506   4.068   3.812   2.399  1.0710 -0.9516  0.4049
 6682SOL     OW31507   1.092   1.745   4.055 -0.2779 -0.2395 -0.1587
 6682SOL    HW131508   1.144   1.683   4.106  0.8441  1.5239  0.8356
 6682SOL    HW231509   1.038   1.778   4.127  0.0773 -0.1948  0.0901
 6683SOL     OW31510   3.139   3.815   4.124 -0.2903  0.3298 -0.0699
 6683SOL    HW131511   3.157   3.890   4.182  0.6890 -1.1979  1.6027
 6683SOL    HW231512   3.195   3.835   4.049 -0.6989 -0.9300 -0.6965
 6684SOL     OW31513   0.648   3.502   8.839  0.1724  0.2706  0.3025
 6684SOL    HW131514   0.600   3.449   8.903 -1.6953  2.1641  0.4668
 6684SOL    HW231515   0.737   3.471   8.855  0.6490  0.9092 -1.1318
 6685SOL     OW31516   1.100   2.300  10.265  0.1170  0.0346 -0.8244
 6685SOL    HW131517   1.076   2.383  10.224  0.3063  0.0926 -0.8200
 6685SOL    HW231518   1.188   2.327  10.294 -0.3019  1.6006 -0.9938
 6686SOL     OW31519   1.945   0.233   0.146  0.1541 -0.3714  0.2785
 6686SOL    HW131520   2.004   0.305   0.168  1.4982 -1.1870 -0.6072
 6686SOL    HW231521   2.002   0.170   0.100 -0.0433 -0.8574  0.7019
 6687SOL     OW31522   3.884   0.857   0.571 -0.0852  0.3867 -0.4740
 6687SOL    HW131523   3.839   0.773   0.563  0.4373  0.1377 -0.7573
 6687SOL    HW231524   3.938   0.852   0.650  1.1166 -1.1853 -1.4028
 6688SOL     OW31525   1.388   2.333   6.712 -0.3793 -0.4139 -0.3809
 6688SOL    HW131526   1.365   2.393   6.783  1.0628  0.2439 -0.4758
 6688SOL    HW231527   1.327   2.364   6.644 -0.0581 -0.0965 -0.5225
 6689SOL     OW31528   3.785   4.331   7.042 -0.0477 -0.1384  0.1357
 6689SOL    HW131529   3.826   4.346   7.127 -0.6561 -0.7305  0.5317
 6689SOL    HW231530   3.699   4.298   7.067 -0.8139  1.0320 -0.9049
 6690SOL     OW31531   2.892   2.573  11.973  0.2006 -0.1639  1.0581
 6690SOL    HW131532   2.881   2.522  11.892 -0.4439  0.4416  0.7593
 6690SOL    HW231533   2.981   2.605  11.959  0.4968 -1.6748 -0.4707
 6691SOL     OW31534   2.100   1.113   8.446 -0.0190  0.0860 -0.6427
 6691SOL    HW131535   2.080   1.051   8.375 -1.4674 -1.4594  1.0976
 6691SOL    HW231536   2.024   1.102   8.503 -0.1958 -0.4749 -0.9792
 6692SOL     OW31537   4.186   3.407   6.329 -0.3065 -0.4605 -0.2963
 6692SOL    HW131538   4.157   3.370   6.246 -3.2866  1.0953  0.0263
 6692SOL    HW231539   4.108   3.397   6.383 -0.4726 -0.5556 -0.5547
 6693SOL     OW31540   0.964   0.573   6.027 -0.1989  0.3705  0.4757
 6693SOL    HW131541   0.974   0.545   5.936 -0.1384 -1.2593  0.9776
 6693SOL    HW231542   0.871   0.588   6.042 -0.2290  2.1543 -1.6170
 6694SOL     OW31543   2.879   0.804   1.427 -0.3254 -0.2227 -0.7273
 6694SOL    HW131544   2.850   0.883   1.471 -0.0251  0.3538 -1.5615
 6694SOL    HW231545   2.968   0.798   1.462 -1.0929 -1.5301  0.9673
 6695SOL     OW31546   1.719   3.068   3.827 -0.1718  0.2542 -0.0675
 6695SOL    HW131547   1.777   3.091   3.754 -1.5995 -0.9191 -1.5463
 6695SOL    HW231548   1.733   3.141   3.888 -3.1049  0.4206  0.3971
 6696SOL     OW31549   0.298   2.760  10.494 -0.2791  0.2779 -0.1800
 6696SOL    HW131550   0.228   2.763  10.429  0.6215 -3.3011 -1.3049
 6696SOL    HW231551   0.244   2.717  10.559  2.2250 -2.0695  0.3625
 6697SOL     OW31552   3.340   4.481   9.398  0.2774 -0.3102 -0.7419
 6697SOL    HW131553   3.325   4.574   9.382 -0.7942 -0.3242  0.1842
 6697SOL    HW231554   3.416   4.462   9.343  1.1191 -0.2391  0.3803
 6698SOL     OW31555   1.571   1.285   4.352  0.5526 -0.3063 -0.3855
 6698SOL    HW131556   1.588   1.197   4.388 -1.4593 -0.1247  0.9680
 6698SOL    HW231557   1.502   1.316   4.410  0.6392  0.4679 -0.6947
 6699SOL     OW31558   4.161   4.666   0.988 -0.1701  1.0150 -0.0932
 6699SOL    HW131559   4.183   0.034   1.003 -1.5194  1.1994  0.7823
 6699SOL    HW231560   4.178   4.673   0.895 -1.4192 -1.7410 -0.5394
 6700SOL     OW31561   3.563   1.227   6.355 -0.1056 -0.0828  0.4807
 6700SOL    HW131562   3.537   1.297   6.415 -1.6327  1.7831 -2.4032
 6700SOL    HW231563   3.642   1.199   6.401  1.0616 -0.4492 -1.7554
 6701SOL     OW31564   1.491   1.401   4.914  0.1080  0.4619  0.1358
 6701SOL    HW131565   1.443   1.378   4.994 -1.2799 -1.5549 -1.2586
 6701SOL    HW231566   1.434   1.453   4.857  0.1744  0.0051 -0.3480
 6702SOL     OW31567   1.803   3.256   2.461  0.3897 -0.4328 -0.2578
 6702SOL    HW131568   1.891   3.233   2.431  1.0212 -0.6248  1.7626
 6702SOL    HW231569   1.816   3.261   2.556 -1.7057 -0.8216  0.0535
 6703SOL     OW31570   0.802   3.455   9.517  0.5361  0.4298 -0.6127
 6703SOL    HW131571   0.753   3.536   9.499 -1.5604 -0.1685  2.5129
 6703SOL    HW231572   0.750   3.416   9.587  0.4651  0.5345 -0.6074
 6704SOL     OW31573   4.588   1.705  11.218  0.2382 -0.7830 -0.3994
 6704SOL    HW131574   4.641   1.758  11.277  0.8861 -1.7721 -0.0889
 6704SOL    HW231575   4.512   1.759  11.198  0.2488 -0.5476  0.1903
 6705SOL     OW31576   3.869   3.464   5.319  0.2696  0.4052 -0.1204
 6705SOL    HW131577   3.911   3.519   5.386  1.0230 -1.0312  0.5877
 6705SOL    HW231578   3.817   3.403   5.371 -0.5959  1.2268 -0.0249
 6706SOL     OW31579   0.407   1.619   6.373 -0.2914  0.1513  0.5319
 6706SOL    HW131580   0.485   1.641   6.425 -0.8676  1.2407  0.9339
 6706SOL    HW231581   0.419   1.524   6.378  1.2772  0.2432 -1.6458
 6707SOL     OW31582   2.940   2.015   3.603  0.3185  0.2297  0.4037
 6707SOL    HW131583   2.882   1.949   3.567 -2.3402  1.8775  1.6869
 6707SOL    HW231584   2.881   2.090   3.596 -0.7143 -0.6859 -0.5489
 6708SOL     OW31585   2.554   4.422   4.658  0.6241 -0.1913  0.2059
 6708SOL    HW131586   2.600   4.475   4.723  0.4283 -0.8555  0.8932
 6708SOL    HW231587   2.463   4.452   4.666  0.2848 -0.9146 -0.9256
 6709SOL     OW31588   1.661   1.515   6.266 -0.6744 -0.0168 -0.1480
 6709SOL    HW131589   1.640   1.456   6.338 -0.5567 -0.4799 -0.4947
 6709SOL    HW231590   1.588   1.577   6.265 -0.5820  0.1068  1.1475
 6710SOL     OW31591   0.399   2.529   8.636 -0.1037 -0.0625  0.1610
 6710SOL    HW131592   0.447   2.468   8.579 -0.9518 -0.5984  0.0233
 6710SOL    HW231593   0.310   2.534   8.600  0.0498  1.4727  0.0099
 6711SOL     OW31594   1.761   0.427   6.331  0.3284  0.2853 -0.3877
 6711SOL    HW131595   1.836   0.472   6.291  2.1469 -1.9544  0.5250
 6711SOL    HW231596   1.782   0.435   6.424 -0.2466 -0.1489 -0.2217
 6712SOL     OW31597   4.366   4.534   2.265 -0.5027  0.6040  0.5168
 6712SOL    HW131598   4.322   4.484   2.333 -0.5415 -0.0606  0.0082
 6712SOL    HW231599   4.442   4.568   2.312  0.4439  0.2227 -0.7472
 6713SOL     OW31600   2.613   1.164  10.822  0.5344 -0.0266 -0.0041
 6713SOL    HW131601   2.645   1.078  10.851  0.3711 -0.2544 -0.4938
 6713SOL    HW231602   2.687   1.218  10.847  0.6341  0.4374 -1.3055
 6714SOL     OW31603   1.852   3.911   6.464 -0.0340 -0.2465  0.8336
 6714SOL    HW131604   1.806   3.843   6.513 -1.3736 -1.3055 -1.8913
 6714SOL    HW231605   1.785   3.949   6.407  1.3449  0.7006 -0.1554
 6715SOL     OW31606   3.906   0.794   6.493  0.1111 -0.4492 -0.1517
 6715SOL    HW131607   4.001   0.791   6.496  0.0877 -0.2267  0.8152
 6715SOL    HW231608   3.899   0.843   6.412  1.8999 -1.5453 -0.9611
 6716SOL     OW31609   3.588   0.948   8.226 -0.0689 -0.0005 -0.0659
 6716SOL    HW131610   3.560   0.901   8.304 -1.3524 -0.6000 -0.8724
 6716SOL    HW231611   3.633   0.876   8.180  0.3190  0.0578  0.2243
 6717SOL     OW31612   3.456   1.003  11.284 -0.1426 -0.2553  0.3652
 6717SOL    HW131613   3.452   0.973  11.193  3.0713 -1.0577  0.4863
 6717SOL    HW231614   3.367   1.032  11.305  0.6367  2.4451 -0.1121
 6718SOL     OW31615   1.588   2.102   8.330  0.2193 -0.6822 -0.7064
 6718SOL    HW131616   1.655   2.034   8.334  2.3356  1.5659  2.0503
 6718SOL    HW231617   1.653   2.171   8.318  0.6889 -1.2833 -1.6149
 6719SOL     OW31618   2.181   0.364  10.880 -0.2139 -0.2005  0.3072
 6719SOL    HW131619   2.160   0.457  10.872  2.4235  0.5822  2.4558
 6719SOL    HW231620   2.110   0.323  10.831  1.5484 -0.5732 -1.9310
 6720SOL     OW31621   0.731   3.098   3.549  0.3254 -0.1892 -0.2667
 6720SOL    HW131622   0.791   3.082   3.621 -0.3275 -0.5109  0.2008
 6720SOL    HW231623   0.712   3.191   3.561  1.3511 -0.1732  1.2528
 6721SOL     OW31624   2.038   3.360   4.283  0.2565 -0.5380  0.0933
 6721SOL    HW131625   2.036   3.298   4.210 -1.7389 -0.2258 -0.1070
 6721SOL    HW231626   2.090   3.307   4.344  0.8480 -0.9556 -0.7828
 6722SOL     OW31627   0.336   2.170   1.961  0.2507 -0.2309  0.2602
 6722SOL    HW131628   0.359   2.247   1.909 -2.3488  0.4558  0.1419
 6722SOL    HW231629   0.309   2.202   2.047 -0.3091 -0.7631  0.2817
 6723SOL     OW31630   0.577   1.508   3.340 -0.5333  0.1397  0.8307
 6723SOL    HW131631   0.573   1.597   3.305  0.1680 -0.2685 -0.2695
 6723SOL    HW231632   0.655   1.518   3.395 -0.4884 -0.7785  0.9293
 6724SOL     OW31633   2.271   3.749   8.926 -0.0285  0.6788  1.0210
 6724SOL    HW131634   2.195   3.703   8.961  0.5942  0.1826  1.7426
 6724SOL    HW231635   2.313   3.770   9.010 -0.3605 -1.5105  1.7386
 6725SOL     OW31636   1.839   2.462  16.262  0.6435 -0.0375  0.3099
 6725SOL    HW131637   1.804   2.533  16.316  0.3194  0.3000 -0.3423
 6725SOL    HW231638   1.758   2.414  16.247  1.7170 -1.1796 -1.7935
 6726SOL     OW31639   4.161   4.066   2.201  0.1303 -0.2893  0.3446
 6726SOL    HW131640   4.109   4.021   2.135  0.7246 -0.5033  0.0168
 6726SOL    HW231641   4.163   4.006   2.276 -0.0519  1.1816  1.5183
 6727SOL     OW31642   3.175   0.155   2.061  0.6147 -0.3992  0.3853
 6727SOL    HW131643   3.109   0.088   2.083  2.7727 -1.8773  2.3154
 6727SOL    HW231644   3.121   0.199   1.995 -0.9446 -2.3146  0.3724
 6728SOL     OW31645   1.591   2.556   7.311 -0.1535 -0.2529 -0.0169
 6728SOL    HW131646   1.638   2.635   7.337  0.4944  0.2163 -2.5866
 6728SOL    HW231647   1.573   2.528   7.400  0.4596 -1.3586 -0.2321
 6729SOL     OW31648   2.904   0.358   3.089  0.5485  0.0183  0.3753
 6729SOL    HW131649   2.981   0.324   3.045  0.9373  0.9348  0.3430
 6729SOL    HW231650   2.944   0.402   3.164  1.7644 -3.5911  1.8195
 6730SOL     OW31651   0.640   3.074  13.134 -0.1759  0.0665 -0.7446
 6730SOL    HW131652   0.678   3.156  13.103 -0.6334 -0.1856 -2.0193
 6730SOL    HW231653   0.583   3.058  13.058 -0.9017  0.0597 -0.1950
 6731SOL     OW31654   0.592   1.663   4.378 -0.1558 -0.7299 -0.0279
 6731SOL    HW131655   0.528   1.687   4.311  2.0496  1.0935 -1.4591
 6731SOL    HW231656   0.544   1.670   4.461 -0.6132  0.5812 -0.4177
 6732SOL     OW31657   1.802   0.133   9.154 -0.0505 -0.0842  0.4951
 6732SOL    HW131658   1.868   0.183   9.202 -2.1461  2.0549  1.1246
 6732SOL    HW231659   1.812   0.046   9.193 -0.8021 -0.9073 -1.1341
 6733SOL     OW31660   0.724   4.520  11.480 -0.7730  0.0612 -0.3883
 6733SOL    HW131661   0.763   4.603  11.507 -2.1032  0.9077 -1.0504
 6733SOL    HW231662   0.637   4.527  11.519 -0.2505  1.2413  0.5579
 6734SOL     OW31663   3.633   2.506  15.015  0.0664 -0.2007 -0.4449
 6734SOL    HW131664   3.559   2.475  14.964 -1.3734 -0.7278  2.0036
 6734SOL    HW231665   3.605   2.585  15.060  0.2446 -0.0624 -0.5741
 6735SOL     OW31666   2.002   1.365  16.770 -0.4273  0.1376  0.1892
 6735SOL    HW131667   2.014   1.274  16.799  2.3714 -0.2549 -2.2150
 6735SOL    HW231668   1.918   1.359  16.724 -1.0335  0.6623  1.2293
 6736SOL     OW31669   2.886   4.425   5.017 -0.1301  0.6163  0.0899
 6736SOL    HW131670   2.869   4.332   5.035  0.2802  0.5879  0.3345
 6736SOL    HW231671   2.837   4.462   5.090 -1.8983  1.0160 -1.3111
 6737SOL     OW31672   3.325   1.512   0.303 -0.2359  0.8866 -0.0350
 6737SOL    HW131673   3.365   1.588   0.346  1.0620  0.3860 -0.3910
 6737SOL    HW231674   3.285   1.465   0.377  0.4295  0.6711  0.1833
 6738SOL     OW31675   3.517   3.118   8.286 -0.5051  0.1185 -0.3110
 6738SOL    HW131676   3.598   3.088   8.328 -1.8448 -1.5078  1.1322
 6738SOL    HW231677   3.469   3.037   8.270 -1.1688  0.6265 -0.9041
 6739SOL     OW31678   4.671   0.709  14.670 -0.4106  0.0153 -0.3159
 6739SOL    HW131679   4.648   0.715  14.577 -0.0204  1.4820 -0.3231
 6739SOL    HW231680   4.587   0.729  14.712 -0.5652 -1.1559 -0.0686
 6740SOL     OW31681   2.286   1.950   9.823  0.4626  0.0372 -0.5560
 6740SOL    HW131682   2.296   1.958   9.728 -2.1573  1.5067 -0.7287
 6740SOL    HW231683   2.233   1.871   9.834  0.5102  0.5566  3.3075
 6741SOL     OW31684   0.073   0.016   5.445 -0.2127  1.0536  0.8917
 6741SOL    HW131685   0.014   0.084   5.413 -0.9835 -0.7225 -1.5022
 6741SOL    HW231686   0.124   0.044   5.521  0.7017 -1.3594  1.1748
 6742SOL     OW31687   3.359   4.028   8.885  0.5074  0.5007 -0.1189
 6742SOL    HW131688   3.426   3.964   8.909  0.0900  0.7903  1.8104
 6742SOL    HW231689   3.288   3.968   8.863 -0.2979  1.2403  0.4222
 6743SOL     OW31690   2.517   2.529   4.063 -0.0092  0.4065  0.0378
 6743SOL    HW131691   2.530   2.616   4.027 -1.1917  1.4018  2.0456
 6743SOL    HW231692   2.426   2.533   4.092 -0.3891 -3.5172 -0.6017
 6744SOL     OW31693   1.202   0.370   5.081 -0.2056  0.5798 -0.0242
 6744SOL    HW131694   1.220   0.361   4.987  1.4125  0.7072  0.2752
 6744SOL    HW231695   1.276   0.421   5.113 -0.4420  2.0405 -1.8109
 6745SOL     OW31696   1.435   4.298   5.946 -0.3742  0.1079 -0.6303
 6745SOL    HW131697   1.362   4.236   5.941 -0.5104  0.1308  1.1118
 6745SOL    HW231698   1.395   4.384   5.959  0.3731  0.9274 -3.7870
 6746SOL     OW31699   3.133   2.424  11.754 -0.6345  0.4020  0.6795
 6746SOL    HW131700   3.221   2.432  11.717 -0.7657 -1.2932 -0.0470
 6746SOL    HW231701   3.149   2.345  11.806 -2.0536 -0.9313 -0.9190
 6747SOL     OW31702   3.920   2.662  16.234  0.8205 -0.1695  0.3407
 6747SOL    HW131703   3.950   2.574  16.215 -0.9656 -0.7732  0.2921
 6747SOL    HW231704   3.991   2.698  16.288  1.0358 -0.4808  0.2616
 6748SOL     OW31705   0.099   1.197   6.185  0.4258  0.2842  0.1054
 6748SOL    HW131706   0.049   1.121   6.156  2.3204 -0.8499 -0.1728
 6748SOL    HW231707   0.099   1.265   6.117  1.6509 -0.1602 -0.3248
 6749SOL     OW31708   2.333   4.402   8.498  0.7780 -0.3825  0.2110
 6749SOL    HW131709   2.414   4.391   8.549  1.2047  0.6982 -0.2114
 6749SOL    HW231710   2.293   4.465   8.558  1.1564  0.9734 -0.9608
 6750SOL     OW31711   3.722   3.583   3.907  0.5395  0.4750 -0.2765
 6750SOL    HW131712   3.803   3.567   3.859  1.8167 -0.7094  2.2654
 6750SOL    HW231713   3.742   3.643   3.979 -2.1323  0.9348  0.0937
 6751SOL     OW31714   4.531   2.936  14.685  0.9291 -0.5222  0.0207
 6751SOL    HW131715   4.574   2.864  14.640 -1.1010 -1.9980  0.4468
 6751SOL    HW231716   4.550   3.014  14.632  0.3530 -0.6980 -0.4450
 6752SOL     OW31717   2.839   2.770   1.344 -0.0341  0.1984  0.0924
 6752SOL    HW131718   2.772   2.750   1.279 -0.8041  1.7063  0.4255
 6752SOL    HW231719   2.835   2.692   1.400 -1.7371  0.0194 -0.2697
 6753SOL     OW31720   1.564   1.940   6.102 -0.3368 -0.0365 -0.0491
 6753SOL    HW131721   1.644   1.971   6.145  0.8621 -0.3872 -2.0285
 6753SOL    HW231722   1.554   1.992   6.023  1.2428  1.7415  0.9147
 6754SOL     OW31723   0.686   2.040   2.236  0.4169 -0.1086 -0.2441
 6754SOL    HW131724   0.607   2.094   2.238  0.2393 -0.3394 -1.0522
 6754SOL    HW231725   0.744   2.101   2.282 -1.4229  1.7539 -0.4307
 6755SOL     OW31726   0.534   2.632   5.992 -0.3372 -1.0932 -0.4582
 6755SOL    HW131727   0.569   2.719   6.012 -0.8185 -0.7468 -1.1030
 6755SOL    HW231728   0.574   2.622   5.906  0.6317 -0.3533 -0.0851
 6756SOL     OW31729   2.578   1.528  16.716  0.0451  0.2556 -0.1064
 6756SOL    HW131730   2.505   1.549  16.658 -0.4411  0.1098  0.4468
 6756SOL    HW231731   2.622   1.463  16.662  1.8127  0.1397  1.4525
 6757SOL     OW31732   2.456   1.749  10.236 -0.0112  0.4804  0.4604
 6757SOL    HW131733   2.476   1.710  10.321 -1.4591  1.9855  1.5007
 6757SOL    HW231734   2.489   1.682  10.176  2.5397  3.1056 -1.0283
 6758SOL     OW31735   0.626   2.997   9.142  0.5969  0.0660 -0.5269
 6758SOL    HW131736   0.608   3.030   9.054  1.0346  1.2304 -0.1771
 6758SOL    HW231737   0.693   2.934   9.115  0.0927  0.1338 -1.9732
 6759SOL     OW31738   3.893   1.280   6.178 -0.2859  0.0927 -0.5245
 6759SOL    HW131739   3.858   1.203   6.224  0.7568  0.5564  1.0307
 6759SOL    HW231740   3.936   1.334   6.244 -0.5253  0.4431 -0.6563
 6760SOL     OW31741   2.669   3.903   4.488  0.4504  0.5891 -0.0613
 6760SOL    HW131742   2.612   3.874   4.417 -0.1616 -1.0833  1.0861
 6760SOL    HW231743   2.625   3.986   4.506  0.9045  0.8071  0.0358
 6761SOL     OW31744   1.305   1.076   8.998 -0.1279  0.0646  0.1794
 6761SOL    HW131745   1.340   1.154   8.956  0.1127  1.0105  2.1176
 6761SOL    HW231746   1.214   1.077   8.967  0.1831  1.3228 -0.6470
 6762SOL     OW31747   0.951   0.071   7.783  0.1791 -0.1594  0.2447
 6762SOL    HW131748   0.888   0.136   7.813  0.3143  0.7646 -1.5435
 6762SOL    HW231749   1.011   0.130   7.738 -0.1654  1.4745  1.9534
 6763SOL     OW31750   1.442   1.018   3.837 -0.4675  0.2711  0.3823
 6763SOL    HW131751   1.405   1.041   3.752  0.1194  2.1768  0.6416
 6763SOL    HW231752   1.410   1.092   3.888  1.1291 -0.3536  2.3235
 6764SOL     OW31753   0.530   0.259   7.085 -0.0250 -0.5823 -0.1170
 6764SOL    HW131754   0.492   0.292   7.003 -1.4884 -0.8657  0.4376
 6764SOL    HW231755   0.497   0.330   7.140  1.1214 -2.2808  2.7533
 6765SOL     OW31756   0.590   2.387  17.374  0.0603  0.7503  0.2460
 6765SOL    HW131757   0.507   2.387  17.421  0.2321  4.5753  0.4962
 6765SOL    HW231758   0.571   2.358  17.284 -0.5260  1.1032  0.2592
 6766SOL     OW31759   2.821   3.520   8.771  0.2657  0.2215  0.0441
 6766SOL    HW131760   2.758   3.477   8.829  3.5371 -0.2795  3.1878
 6766SOL    HW231761   2.794   3.611   8.766  1.0214  0.3868 -1.0893
 6767SOL     OW31762   4.011   2.165   1.284 -0.0171  0.7595 -0.2550
 6767SOL    HW131763   3.983   2.153   1.193  1.6668  0.3848 -0.7191
 6767SOL    HW231764   3.971   2.248   1.308 -0.7938 -0.0868  1.3594
 6768SOL     OW31765   2.124   1.352   6.326 -0.1772 -0.0664  0.2882
 6768SOL    HW131766   2.085   1.279   6.280  0.4698  0.4536 -1.0800
 6768SOL    HW231767   2.074   1.354   6.408  1.1079  0.0674  1.0723
 6769SOL     OW31768   1.093   2.605  16.119  0.1175 -0.8468 -0.1848
 6769SOL    HW131769   1.171   2.660  16.127 -1.1066  1.1667 -1.9438
 6769SOL    HW231770   1.096   2.572  16.209 -0.2883 -0.6794 -0.1099
 6770SOL     OW31771   2.576   0.900   9.517  0.3743 -0.2795 -0.1663
 6770SOL    HW131772   2.524   0.822   9.541 -0.1386  0.3380  0.7439
 6770SOL    HW231773   2.508   0.961   9.490 -0.0170 -0.0536  1.3192
 6771SOL     OW31774   2.327   0.803   2.253 -0.4318  0.3114  0.4085
 6771SOL    HW131775   2.405   0.752   2.277 -0.4596 -0.2352 -0.6497
 6771SOL    HW231776   2.279   0.756   2.185 -0.5682 -0.0100  0.7283
 6772SOL     OW31777   1.678   4.668   5.419  1.1510  0.4947 -0.8294
 6772SOL    HW131778   1.596   4.696   5.377 -0.2453 -0.4198  1.3210
 6772SOL    HW231779   1.653   4.607   5.488  1.5944 -0.6032 -1.6431
 6773SOL     OW31780   2.027   0.508   5.472  0.1111  0.8048  0.3510
 6773SOL    HW131781   2.055   0.599   5.470  0.0575  0.8392  0.9718
 6773SOL    HW231782   1.972   0.497   5.394 -0.3399 -0.8528  0.9005
 6774SOL     OW31783   1.374   0.142   6.845  0.4968  0.5668 -0.2570
 6774SOL    HW131784   1.412   0.217   6.891 -1.2481  1.5531 -0.4197
 6774SOL    HW231785   1.308   0.114   6.909 -1.2318  2.4903 -1.2161
 6775SOL     OW31786   3.656   4.237   1.917  0.3359 -0.4177 -0.5202
 6775SOL    HW131787   3.667   4.330   1.938 -0.9467 -0.1379 -1.1358
 6775SOL    HW231788   3.578   4.226   1.971  0.5929 -3.4330 -0.7524
 6776SOL     OW31789   2.055   4.349   5.411  0.1011  0.5071  0.9395
 6776SOL    HW131790   2.069   4.444   5.407 -2.2026  0.7518 -0.8094
 6776SOL    HW231791   2.054   4.336   5.506  0.6927 -1.0402  0.7336
 6777SOL     OW31792   2.090   3.644   2.745  0.3378 -0.5308 -0.3472
 6777SOL    HW131793   2.007   3.617   2.705  0.1555 -0.2470 -0.1601
 6777SOL    HW231794   2.065   3.721   2.796  0.1318 -0.7864 -0.0612
 6778SOL     OW31795   3.363   4.305  14.376 -0.3927  0.1370  0.2994
 6778SOL    HW131796   3.419   4.239  14.334 -0.2834  1.6253 -1.8661
 6778SOL    HW231797   3.419   4.382  14.366 -0.1854 -0.2392 -1.4821
 6779SOL     OW31798   3.271   4.005   2.737 -0.3110 -0.1189 -0.2749
 6779SOL    HW131799   3.310   3.928   2.779 -3.0677  0.1693  2.7968
 6779SOL    HW231800   3.283   3.982   2.645 -0.8112 -0.3672 -0.2777
 6780SOL     OW31801   2.763   4.215  12.593  0.2124  0.6317  0.4488
 6780SOL    HW131802   2.743   4.129  12.630  0.1656  0.8591  0.9576
 6780SOL    HW231803   2.759   4.198  12.499 -3.5785  4.3511 -0.1037
 6781SOL     OW31804   2.502   2.868   5.458 -0.0801 -0.5865  0.3136
 6781SOL    HW131805   2.573   2.929   5.480 -1.7816  1.4566  0.1623
 6781SOL    HW231806   2.530   2.779   5.480  1.7002  0.1585  0.9975
 6782SOL     OW31807   1.388   3.691   6.161 -0.2903  0.0611 -0.2550
 6782SOL    HW131808   1.469   3.690   6.213  0.6805 -0.7642 -1.7759
 6782SOL    HW231809   1.396   3.604   6.122  0.1737  0.6198 -1.4077
 6783SOL     OW31810   4.649   3.393  16.796  0.3851  0.0555  0.1831
 6783SOL    HW131811   4.635   3.466  16.736 -0.0467  0.6955  1.0578
 6783SOL    HW231812   4.564   3.394  16.841 -0.0695 -0.2785 -0.6751
 6784SOL     OW31813   4.358   1.023  16.958  0.0423  0.2468  0.1870
 6784SOL    HW131814   4.376   0.936  16.992  2.2570  0.8855  0.6899
 6784SOL    HW231815   4.267   1.018  16.931  0.5566  0.1321 -1.4947
 6785SOL     OW31816   4.402   1.011   2.202  0.6712 -0.4691 -0.2807
 6785SOL    HW131817   4.439   1.054   2.125 -1.9475  0.6990 -0.8652
 6785SOL    HW231818   4.350   0.939   2.167  0.2577  0.9998 -2.6936
 6786SOL     OW31819   3.967   0.316   0.051  0.3323  0.0722 -0.1462
 6786SOL    HW131820   4.032   0.344   0.115 -1.0928 -1.0123  1.7828
 6786SOL    HW231821   4.019   0.327  17.668 -0.8382  2.0713 -0.6321
 6787SOL     OW31822   3.940   3.755   1.836  0.0967  0.5257  0.0911
 6787SOL    HW131823   3.869   3.710   1.789 -0.2213  3.0005 -1.7407
 6787SOL    HW231824   3.992   3.676   1.853 -0.0974  0.4144  0.1836
 6788SOL     OW31825   3.289   4.369   3.306 -0.7823 -0.0662  0.1528
 6788SOL    HW131826   3.332   4.445   3.266 -0.0680 -0.6256 -0.1424
 6788SOL    HW231827   3.246   4.406   3.383 -0.8591 -0.7480  0.4286
 6789SOL     OW31828   1.988   0.402   8.456  0.7122 -0.0276 -0.4469
 6789SOL    HW131829   2.075   0.426   8.489 -0.1738 -1.1156  2.6086
 6789SOL    HW231830   1.997   0.391   8.361  2.1240 -0.0644 -0.3111
 6790SOL     OW31831   0.106   4.097   7.311 -0.1270  0.1381  0.4777
 6790SOL    HW131832   0.089   4.160   7.241 -0.1007 -0.0357  0.3172
 6790SOL    HW231833   0.135   4.018   7.266 -0.3974  0.9364 -1.1032
 6791SOL     OW31834   3.296   4.499   3.791  0.2633  0.6960 -0.1412
 6791SOL    HW131835   3.324   4.409   3.774 -0.1299  0.5508 -0.0054
 6791SOL    HW231836   3.376   4.516   3.841  0.0890  1.7354 -0.2158
 6792SOL     OW31837   1.208   1.382   7.814  0.5099 -0.6260  0.1467
 6792SOL    HW131838   1.139   1.350   7.872 -0.8276  0.5880 -0.7955
 6792SOL    HW231839   1.269   1.419   7.878  1.0260 -3.3285  1.2085
 6793SOL     OW31840   2.158   1.619   7.532  0.2754  0.0600 -0.1167
 6793SOL    HW131841   2.106   1.547   7.570  0.9756  0.7924  2.2014
 6793SOL    HW231842   2.188   1.582   7.449  2.0325  0.1015  0.5019
 6794SOL     OW31843   0.425   0.479   7.239 -0.0239  0.6835 -0.4019
 6794SOL    HW131844   0.373   0.530   7.178  1.1586  0.4339 -1.6310
 6794SOL    HW231845   0.374   0.488   7.319 -1.1398  0.7367 -1.1225
 6795SOL     OW31846   1.581   3.176  11.014  0.0254  0.2855 -0.1422
 6795SOL    HW131847   1.528   3.243  11.058  0.2101 -0.3149  1.0070
 6795SOL    HW231848   1.526   3.098  11.018  0.2315  0.1126 -0.7543
 6796SOL     OW31849   1.057   1.488   5.448  0.1480  0.3384  0.0330
 6796SOL    HW131850   1.146   1.457   5.464 -0.4493 -1.2328  0.3014
 6796SOL    HW231851   1.038   1.479   5.542 -1.7000  0.7221 -0.3067
 6797SOL     OW31852   2.494   2.585   2.949  0.6082 -0.1737  0.6820
 6797SOL    HW131853   2.463   2.640   3.022 -3.5981 -1.4113 -0.1562
 6797SOL    HW231854   2.518   2.658   2.891  1.5060 -0.3410  0.8471
 6798SOL     OW31855   1.595   2.707  16.147  0.0267 -0.1213 -0.5052
 6798SOL    HW131856   1.620   2.701  16.239  0.4088  0.6624 -0.5587
 6798SOL    HW231857   1.649   2.774  16.105  0.0568  0.0816 -0.1359
 6799SOL     OW31858   0.854   1.545   6.660  0.6587 -0.0662  0.3910
 6799SOL    HW131859   0.872   1.639   6.650  2.9079 -0.3994  1.2561
 6799SOL    HW231860   0.784   1.538   6.725  0.1284 -1.3855 -0.3471
 6800SOL     OW31861   0.171   1.844   2.439  0.0888 -0.1090  0.1855
 6800SOL    HW131862   0.225   1.874   2.365  2.9086 -1.9643  1.4881
 6800SOL    HW231863   0.130   1.763   2.408 -1.7914  0.5714  0.8622
 6801SOL     OW31864   3.711   4.596  14.447 -0.2360  0.0096  0.3420
 6801SOL    HW131865   3.802   4.589  14.477 -0.0589  1.0221  0.0521
 6801SOL    HW231866   3.682   4.669  14.502  0.9329  0.7027  0.0438
 6802SOL     OW31867   2.913   1.816  10.838  0.2533  0.1938  0.7748
 6802SOL    HW131868   2.870   1.883  10.891  1.0304  0.6132  0.8744
 6802SOL    HW231869   2.988   1.854  10.792 -0.6916  0.2630 -0.7420
 6803SOL     OW31870   3.818   1.178   6.487  0.3892 -0.1733  0.0760
 6803SOL    HW131871   3.862   1.213   6.565  1.2230  0.9296 -0.8929
 6803SOL    HW231872   3.876   1.102   6.483 -1.0206 -1.0399 -4.1053
 6804SOL     OW31873   2.568   2.980   1.665 -0.1605 -0.7451  0.3192
 6804SOL    HW131874   2.613   2.911   1.714  2.2200  0.2746 -0.4482
 6804SOL    HW231875   2.607   2.967   1.579  0.0340  2.3528 -0.0462
 6805SOL     OW31876   1.844   2.587   5.082 -0.3639  0.0494 -0.0536
 6805SOL    HW131877   1.862   2.676   5.110  1.6353  0.5783 -2.9284
 6805SOL    HW231878   1.929   2.543   5.083  0.2229  1.1773 -0.1969
 6806SOL     OW31879   2.564   1.652   2.535 -0.2423 -0.0976  0.1889
 6806SOL    HW131880   2.612   1.606   2.466  0.5468 -1.7457  1.8259
 6806SOL    HW231881   2.622   1.644   2.611  1.1983  0.0867 -0.8909
 6807SOL     OW31882   1.183   0.389   2.560 -0.7441 -0.5186 -0.8148
 6807SOL    HW131883   1.173   0.484   2.558  0.2900 -0.4432 -2.4786
 6807SOL    HW231884   1.117   0.384   2.490 -1.2402 -1.5616 -0.2719
 6808SOL     OW31885   3.221   0.770   7.468  0.0147 -0.2059  1.0256
 6808SOL    HW131886   3.251   0.846   7.418  0.6798 -1.6729 -0.7964
 6808SOL    HW231887   3.212   0.700   7.404 -1.6043 -0.7961  1.9150
 6809SOL     OW31888   4.490   2.167   8.505 -0.3256 -0.2399  0.1097
 6809SOL    HW131889   4.557   2.111   8.545  1.6140  2.0358  0.1194
 6809SOL    HW231890   4.529   2.194   8.422  2.2296 -2.0232  0.7085
 6810SOL     OW31891   2.236   4.541   5.119 -0.1467  0.5164 -0.1046
 6810SOL    HW131892   2.245   4.633   5.144 -0.3875  0.6888 -0.6493
 6810SOL    HW231893   2.145   4.545   5.090 -0.5874  0.7260  1.3278
 6811SOL     OW31894   2.402   4.553  16.134 -0.0457  0.1136  0.1932
 6811SOL    HW131895   2.410   4.465  16.170  2.2883 -0.0896 -0.8463
 6811SOL    HW231896   2.308   4.568  16.145 -0.0258  1.9562 -2.2241
 6812SOL     OW31897   0.977   0.211  15.750 -0.3864  0.1942  0.0367
 6812SOL    HW131898   0.985   0.140  15.686 -0.0703 -0.8728  1.2676
 6812SOL    HW231899   0.977   0.166  15.834  0.1117 -0.5848 -0.3779
 6813SOL     OW31900   0.547   2.294   3.037 -0.1698  0.0150  0.2352
 6813SOL    HW131901   0.548   2.277   2.942 -1.4170 -0.6633  0.3429
 6813SOL    HW231902   0.500   2.216   3.068  1.1410 -0.1055  1.9107
 6814SOL     OW31903   0.757   3.126   2.777  0.0163  0.3526 -0.3468
 6814SOL    HW131904   0.678   3.097   2.732 -0.9467 -1.1043  2.2426
 6814SOL    HW231905   0.804   3.042   2.770 -1.6736 -0.5204 -1.0244
 6815SOL     OW31906   3.127   3.724   9.201  0.0264 -0.6566  0.1709
 6815SOL    HW131907   3.073   3.726   9.279  1.2153  1.1506  0.9393
 6815SOL    HW231908   3.056   3.742   9.139  0.1931  0.5420  0.3274
 6816SOL     OW31909   2.574   4.038   2.816  0.0022 -0.7261  0.0842
 6816SOL    HW131910   2.519   4.098   2.767  1.1316  0.2693  0.0402
 6816SOL    HW231911   2.651   4.019   2.763  1.6919  0.1108  2.2329
 6817SOL     OW31912   1.554   2.253   6.248 -0.1225  0.2851  0.0151
 6817SOL    HW131913   1.508   2.196   6.309  1.4753 -0.8823  0.1221
 6817SOL    HW231914   1.529   2.220   6.162  1.7667 -0.6588 -0.1724
 6818SOL     OW31915   0.716   1.154   4.459 -0.0835 -0.1709 -0.3464
 6818SOL    HW131916   0.656   1.208   4.407  0.5600  0.4642 -0.4211
 6818SOL    HW231917   0.783   1.212   4.494 -1.0978  1.8564 -1.8368
 6819SOL     OW31918   2.280   0.404   1.104  0.1029  0.1622 -0.2937
 6819SOL    HW131919   2.265   0.475   1.165 -2.4586 -1.6782  1.2200
 6819SOL    HW231920   2.303   0.445   1.021 -0.6831 -1.7595 -1.4596
 6820SOL     OW31921   4.086   1.291   8.550 -0.0956 -0.2905  0.4347
 6820SOL    HW131922   4.081   1.372   8.500  1.6107 -1.1117 -1.0686
 6820SOL    HW231923   3.993   1.267   8.553 -0.6323  1.4152 -2.4140
 6821SOL     OW31924   2.153   1.411   9.246 -0.1527  0.5286  0.1378
 6821SOL    HW131925   2.117   1.425   9.334 -2.1642  2.3512 -0.9859
 6821SOL    HW231926   2.155   1.501   9.216  4.8569  0.3519  0.0115
 6822SOL     OW31927   4.267   1.735   2.535  0.2951 -0.1935  0.5724
 6822SOL    HW131928   4.262   1.644   2.567  3.2337 -0.7871 -0.6662
 6822SOL    HW231929   4.319   1.776   2.605  1.5342 -1.0947  0.1816
 6823SOL     OW31930   3.255   0.913   3.868 -0.0381 -0.3525  0.1949
 6823SOL    HW131931   3.226   0.856   3.797 -2.3055 -0.6574  1.3485
 6823SOL    HW231932   3.258   0.851   3.941 -1.1893  1.7193  2.0235
 6824SOL     OW31933   0.333   3.789   2.247 -0.2571  0.7956  0.3811
 6824SOL    HW131934   0.254   3.776   2.300  1.1888 -1.4201  1.9906
 6824SOL    HW231935   0.296   3.854   2.187  0.3759  0.8544  0.0538
 6825SOL     OW31936   4.458   0.208   5.108  0.0865  0.1839 -0.3108
 6825SOL    HW131937   4.458   0.142   5.178 -0.4738 -3.3098 -3.6285
 6825SOL    HW231938   4.481   0.286   5.157 -1.5932 -0.2061  1.1143
 6826SOL     OW31939   0.598   2.683   8.047 -0.3514  0.3726  0.2054
 6826SOL    HW131940   0.587   2.686   8.142  1.1672 -2.9810  0.4949
 6826SOL    HW231941   0.598   2.777   8.029  2.2762  0.8619  2.6540
 6827SOL     OW31942   1.951   0.735   5.906 -0.4782 -0.1405 -0.3844
 6827SOL    HW131943   1.970   0.642   5.922 -0.3338  0.2607  1.7788
 6827SOL    HW231944   2.027   0.784   5.937 -0.0816 -0.4429 -0.8751
 6828SOL     OW31945   0.594   2.990  12.825  0.0414 -0.2910  0.4314
 6828SOL    HW131946   0.665   2.929  12.805 -0.1024 -0.9841  2.0419
 6828SOL    HW231947   0.512   2.940  12.827  0.3287 -0.6659  2.7417
 6829SOL     OW31948   3.252   4.555   2.875 -0.0199 -0.4775  0.5541
 6829SOL    HW131949   3.226   4.644   2.853 -1.2336 -1.0434 -0.3032
 6829SOL    HW231950   3.194   4.507   2.816 -1.0431 -0.1266  1.2899
 6830SOL     OW31951   2.690   4.235   0.948  0.3180  0.1858  0.1484
 6830SOL    HW131952   2.743   4.195   0.880  0.1147  0.4162 -0.1479
 6830SOL    HW231953   2.758   4.282   0.995  0.0139  0.2107  0.5650
 6831SOL     OW31954   1.496   0.381   6.972 -0.7166  0.3678 -0.2070
 6831SOL    HW131955   1.528   0.420   6.891 -0.8394 -0.8550 -0.8519
 6831SOL    HW231956   1.419   0.435   6.989 -1.1800 -0.8234  1.5367
 6832SOL     OW31957   0.172   1.941   2.970  0.1221  0.4387 -0.0826
 6832SOL    HW131958   0.153   1.994   3.047  1.5488 -0.2707  0.7618
 6832SOL    HW231959   0.236   1.881   3.007 -0.9906 -0.8261 -0.2305
 6833SOL     OW31960   2.505   2.792  12.042 -0.0584 -0.8299  0.0516
 6833SOL    HW131961   2.446   2.774  12.116 -3.1141  2.0654 -1.6471
 6833SOL    HW231962   2.574   2.843  12.084 -1.7717  0.4000  1.4053
 6834SOL     OW31963   3.403   1.383  11.517 -0.3745 -0.3080 -0.4194
 6834SOL    HW131964   3.415   1.306  11.572  0.9444  1.1593  1.3338
 6834SOL    HW231965   3.425   1.453  11.579  1.7354 -1.0028 -0.4186
 6835SOL     OW31966   4.632   4.259   7.061 -0.3436  0.3090  0.0438
 6835SOL    HW131967   4.722   4.228   7.051 -0.0225 -0.7928  6.0868
 6835SOL    HW231968   4.652   4.331   7.121 -1.7776 -0.1242  1.0684
 6836SOL     OW31969   2.948   4.468  10.994 -0.3827  0.3865 -0.1640
 6836SOL    HW131970   3.001   4.512  11.061  0.1726 -0.6015  0.0459
 6836SOL    HW231971   3.015   4.440  10.931 -1.3222 -1.7048 -0.2082
 6837SOL     OW31972   2.972   0.967   2.795  0.2118  0.3009 -0.3281
 6837SOL    HW131973   2.891   0.988   2.842  0.1667 -2.0768  0.6350
 6837SOL    HW231974   2.956   0.873   2.792 -0.0437  0.3214  0.4382
 6838SOL     OW31975   3.157   1.895   0.827  0.2815 -0.5653 -0.2494
 6838SOL    HW131976   3.173   1.988   0.810 -3.2653 -0.4235 -2.6944
 6838SOL    HW231977   3.113   1.866   0.748 -1.0374  1.3068 -0.2036
 6839SOL     OW31978   1.092   1.425   7.275 -0.8857 -0.0568 -0.2403
 6839SOL    HW131979   1.018   1.478   7.244 -2.0449 -1.6722 -0.2227
 6839SOL    HW231980   1.091   1.360   7.205 -1.2441  1.3690 -1.5468
 6840SOL     OW31981   3.952   0.222   3.831 -0.6754 -0.1616 -0.4796
 6840SOL    HW131982   4.026   0.164   3.847 -1.1807 -0.1097  2.1405
 6840SOL    HW231983   3.980   0.261   3.749  2.2969 -2.8062 -0.7175
 6841SOL     OW31984   2.715   1.761   7.912 -0.2005  0.1800 -0.2244
 6841SOL    HW131985   2.800   1.805   7.903 -1.0051  0.9713 -4.0496
 6841SOL    HW231986   2.744   1.672   7.934  0.5333  0.3406 -0.5362
 6842SOL     OW31987   4.689   1.789   2.882 -0.8591  0.3235  0.0756
 6842SOL    HW131988   0.036   1.844   2.916  1.5632 -3.1147  0.6385
 6842SOL    HW231989   0.028   1.732   2.838 -2.3455 -0.3815 -1.1271
 6843SOL     OW31990   0.199   4.228   2.929 -0.0168  0.2930 -0.8127
 6843SOL    HW131991   0.190   4.230   3.024  0.7994  1.2751 -0.7482
 6843SOL    HW231992   0.253   4.151   2.909 -0.1274  0.1496 -0.5561
 6844SOL     OW31993   3.334   2.087   9.200  0.1264 -0.1202  0.2701
 6844SOL    HW131994   3.428   2.108   9.199  0.6481 -2.4255  0.6074
 6844SOL    HW231995   3.303   2.079   9.110 -0.3657 -1.4251  0.5614
 6845SOL     OW31996   3.954   0.911   4.239  0.3388  0.2471  0.1234
 6845SOL    HW131997   3.859   0.919   4.230  0.2751  0.1907  0.7625
 6845SOL    HW231998   3.974   0.912   4.332 -2.5126  0.1155  0.7184
 6846SOL     OW31999   1.615   3.143  15.114  0.4702  0.3845 -0.3028
 6846SOL    HW132000   1.534   3.179  15.077  0.2910 -0.0556 -0.3481
 6846SOL    HW232001   1.580   3.070  15.166  0.1105  1.0101  0.3408
 6847SOL     OW32002   1.219   4.596   2.044  0.1204  0.3909 -0.2764
 6847SOL    HW132003   1.262   4.553   2.118  0.5000 -1.8592 -1.8063
 6847SOL    HW232004   1.127   4.597   2.068  0.1463 -1.1597 -0.1492
 6848SOL     OW32005   0.681   2.487   0.785 -0.2874 -0.2391  0.4303
 6848SOL    HW132006   0.746   2.557   0.795 -0.5028 -0.2084  1.6110
 6848SOL    HW232007   0.598   2.511   0.829 -0.4394 -0.7837  0.4355
 6849SOL     OW32008   0.468   2.842   2.516 -0.6236  0.0882 -0.0336
 6849SOL    HW132009   0.557   2.862   2.486 -0.5904  1.2087  0.8491
 6849SOL    HW232010   0.448   2.760   2.469 -0.8173  0.6500 -0.9340
 6850SOL     OW32011   0.848   4.390  10.385  0.7457 -0.2101  0.3753
 6850SOL    HW132012   0.757   4.377  10.409  0.8899 -1.1524  0.4091
 6850SOL    HW232013   0.874   4.308  10.343 -1.5930 -0.9377  0.3450
 6851SOL     OW32014   1.791   3.840  13.006  0.2556 -0.1537  0.0623
 6851SOL    HW132015   1.821   3.923  13.042 -0.8551  0.6835 -0.9744
 6851SOL    HW232016   1.774   3.859  12.914 -1.2955  0.2392  0.4428
 6852SOL     OW32017   2.850   4.126   4.412 -0.0547 -0.3748  0.1750
 6852SOL    HW132018   2.766   4.156   4.446  0.7989 -0.7788  2.6729
 6852SOL    HW232019   2.834   4.032   4.404 -1.7385 -0.0572 -0.1330
 6853SOL     OW32020   0.805   1.418   5.963 -0.1227 -0.3426  0.1846
 6853SOL    HW132021   0.827   1.494   6.017  1.4120 -0.1732 -0.6861
 6853SOL    HW232022   0.713   1.407   5.987 -0.6111  1.7056 -0.7827
 6854SOL     OW32023   4.479   4.678   0.707 -0.2430  0.6657 -0.0003
 6854SOL    HW132024   4.544   4.717   0.765  0.1584  3.6607 -2.4357
 6854SOL    HW232025   4.519   4.694   0.621  1.3038 -0.7795  0.4469
 6855SOL     OW32026   0.459   3.320   6.390 -0.1131 -0.3595 -0.3553
 6855SOL    HW132027   0.470   3.409   6.358  1.7894 -1.0161 -1.5162
 6855SOL    HW232028   0.544   3.285   6.365 -0.3968 -0.2303 -1.4699
 6856SOL     OW32029   2.417   2.037   0.114  0.4158  0.5012 -0.4273
 6856SOL    HW132030   2.507   2.056   0.143 -0.0012  1.3845  0.2754
 6856SOL    HW232031   2.428   1.955   0.065 -0.2042  0.9774 -1.3615
 6857SOL     OW32032   1.612   0.950   2.358  0.0463 -0.0924  0.6127
 6857SOL    HW132033   1.700   0.932   2.324 -1.4473 -2.4235 -2.0124
 6857SOL    HW232034   1.639   0.965   2.448 -0.4615 -0.8448  0.8924
 6858SOL     OW32035   4.637   4.044   6.608 -0.7450  0.2069 -0.4140
 6858SOL    HW132036   4.653   4.002   6.524 -0.2889 -0.9693  0.2723
 6858SOL    HW232037   4.543   4.064   6.604 -0.2761  3.0022  2.7490
 6859SOL     OW32038   2.082   1.764   2.210 -0.4750 -0.6914  0.4431
 6859SOL    HW132039   2.043   1.770   2.122 -3.6758 -0.0785  1.8927
 6859SOL    HW232040   2.163   1.812   2.201  0.0547 -1.7668 -0.5693
 6860SOL     OW32041   2.034   4.190   5.660 -0.1365  0.2116 -0.4599
 6860SOL    HW132042   1.997   4.108   5.693 -2.5510  2.1452  1.6381
 6860SOL    HW232043   1.998   4.251   5.725  2.7034  1.0167  0.3851
 6861SOL     OW32044   1.203   2.839   8.137  0.3772  0.2070 -0.6015
 6861SOL    HW132045   1.150   2.810   8.212 -0.0702  3.5399  0.3739
 6861SOL    HW232046   1.172   2.779   8.070 -2.4240 -0.9186  1.7094
 6862SOL     OW32047   3.183   2.517   1.493  0.0904  0.0224 -0.6661
 6862SOL    HW132048   3.236   2.587   1.531 -0.9834  1.2938 -1.5045
 6862SOL    HW232049   3.241   2.505   1.418  1.4315  0.1474  0.3413
 6863SOL     OW32050   2.258   3.803   6.804 -0.2561  0.1064 -0.0553
 6863SOL    HW132051   2.321   3.732   6.818  0.6981  1.2192  1.2945
 6863SOL    HW232052   2.281   3.846   6.721  1.5006  2.0719  1.4501
 6864SOL     OW32053   4.563   0.181   2.259 -0.6900  0.0708  0.4330
 6864SOL    HW132054   4.524   0.264   2.284  0.5245  0.3149  1.5464
 6864SOL    HW232055   4.539   0.117   2.325  0.3004 -0.6878  0.0602
 6865SOL     OW32056   3.199   4.600   2.231  0.2359 -0.0788  0.1661
 6865SOL    HW132057   3.130   4.655   2.193 -0.9023 -1.2459  0.5591
 6865SOL    HW232058   3.147   4.571   2.306  1.5434 -0.0364  1.0905
 6866SOL     OW32059   1.817   0.978  11.040  0.0749  0.2286  0.5572
 6866SOL    HW132060   1.841   0.886  11.036 -0.1340  0.1120  2.0773
 6866SOL    HW232061   1.854   1.024  10.964 -2.9369  1.5718 -0.1174
 6867SOL     OW32062   1.735   3.515   4.816 -0.3194 -0.1424 -0.2478
 6867SOL    HW132063   1.815   3.547   4.775 -0.7507 -0.5348 -1.4056
 6867SOL    HW232064   1.681   3.588   4.786 -1.4749  0.6523  3.7724
 6868SOL     OW32065   1.967   4.474   5.001  0.4131  0.5294 -0.1040
 6868SOL    HW132066   1.917   4.395   4.982  2.2646 -0.4373 -0.9555
 6868SOL    HW232067   1.955   4.477   5.096  0.7187 -3.3659  0.0547
 6869SOL     OW32068   3.385   1.827  10.471 -0.0145  0.0006 -0.1997
 6869SOL    HW132069   3.445   1.782  10.531 -0.2903  1.2731  1.0455
 6869SOL    HW232070   3.421   1.786  10.393  0.4898  1.3676 -0.6893
 6870SOL     OW32071   0.440   0.235  10.228 -0.0703  0.0363  0.0857
 6870SOL    HW132072   0.434   0.140  10.240  1.9744 -0.1330 -0.2439
 6870SOL    HW232073   0.448   0.251  10.134  0.5444  0.1952  0.1673
 6871SOL     OW32074   3.594   3.789   4.673  0.3634 -0.3174  0.6972
 6871SOL    HW132075   3.666   3.840   4.710  1.2890 -1.7076  0.7978
 6871SOL    HW232076   3.550   3.757   4.751  1.9262  1.7769  2.4550
 6872SOL     OW32077   1.613   0.327   7.852 -0.0577  0.2938 -0.3265
 6872SOL    HW132078   1.539   0.387   7.862 -2.1310 -2.7151  2.3480
 6872SOL    HW232079   1.649   0.317   7.940 -0.8537  1.7478  0.1671
 6873SOL     OW32080   0.766   2.410  10.009 -0.1221 -0.2560  0.0718
 6873SOL    HW132081   0.771   2.351  10.084 -0.0410  0.5661  0.7142
 6873SOL    HW232082   0.782   2.492  10.055  1.4786 -1.5613  1.8678
 6874SOL     OW32083   4.003   4.155   6.383 -0.0484  0.1508  0.0298
 6874SOL    HW132084   3.943   4.090   6.419  0.3127 -0.4492 -0.4364
 6874SOL    HW232085   4.078   4.097   6.368  1.6211  1.1870  4.5908
 6875SOL     OW32086   3.948   4.083   4.499 -0.3392 -0.0951  0.1046
 6875SOL    HW132087   3.937   4.107   4.591  1.0724 -0.1255  0.2821
 6875SOL    HW232088   3.970   4.173   4.472  0.9078 -0.1238  1.0248
 6876SOL     OW32089   1.812   2.826   5.765 -0.6144  0.2017 -0.2160
 6876SOL    HW132090   1.906   2.837   5.780 -0.8546  3.3351 -0.9272
 6876SOL    HW232091   1.790   2.780   5.845  0.4930  1.9345  1.0954
 6877SOL     OW32092   0.808   1.479   8.749 -0.5089  0.1183  0.0647
 6877SOL    HW132093   0.720   1.469   8.714  0.2226 -2.2900 -1.1195
 6877SOL    HW232094   0.795   1.559   8.799  0.7482 -0.0223  0.6237
 6878SOL     OW32095   0.808   3.010   5.807  0.5537  0.3531  0.3314
 6878SOL    HW132096   0.852   3.093   5.828  0.8775 -0.2997  2.2469
 6878SOL    HW232097   0.872   2.965   5.752 -0.1080 -0.8114  0.5139
 6879SOL     OW32098   2.302   1.611   6.106 -0.8564  0.9376  0.3051
 6879SOL    HW132099   2.296   1.587   6.199 -0.1695  0.4089  0.2019
 6879SOL    HW232100   2.208   1.615   6.086 -1.0665 -0.7049  0.9334
 6880SOL     OW32101   4.044   1.051   5.172 -0.5084  0.1576 -0.6159
 6880SOL    HW132102   3.969   1.107   5.152  0.3443  1.4563 -0.1681
 6880SOL    HW232103   4.011   0.992   5.240 -0.8650  0.1612 -0.7849
 6881SOL     OW32104   3.227   0.444   2.078 -0.1057  0.1624  0.2791
 6881SOL    HW132105   3.213   0.349   2.086  0.2292  0.3190  2.5965
 6881SOL    HW232106   3.186   0.463   1.994  0.2741 -1.7550 -0.3528
 6882SOL     OW32107   3.067   1.765   7.464  0.1285 -0.3918 -0.2431
 6882SOL    HW132108   3.150   1.722   7.443 -0.3393 -0.4903 -1.8806
 6882SOL    HW232109   3.032   1.698   7.523  0.4864  1.2430  1.8003
 6883SOL     OW32110   1.129   2.542   7.590 -0.1451 -0.4996  0.3462
 6883SOL    HW132111   1.083   2.491   7.657 -1.2454  0.1900  0.1088
 6883SOL    HW232112   1.163   2.473   7.533 -3.1092 -1.0033 -0.7729
 6884SOL     OW32113   0.984   3.125   0.096 -0.3096  0.0321 -0.5689
 6884SOL    HW132114   0.969   3.215   0.125 -1.2015  0.0604 -1.1236
 6884SOL    HW232115   0.911   3.080   0.140  0.0788 -0.3296 -0.2968
 6885SOL     OW32116   0.633   4.293   3.255 -0.0771  0.0713 -0.2524
 6885SOL    HW132117   0.581   4.226   3.212  0.2659  0.4834 -1.3109
 6885SOL    HW232118   0.721   4.260   3.237 -1.0735 -1.6139 -2.0643
 6886SOL     OW32119   3.086   3.365   2.983 -0.3670  0.1771 -0.5119
 6886SOL    HW132120   3.078   3.401   3.072 -1.0303  0.4817 -0.6936
 6886SOL    HW232121   3.131   3.440   2.943  0.0612 -0.3047 -0.9198
 6887SOL     OW32122   0.481   4.031   7.483  0.6365 -0.4500 -0.4014
 6887SOL    HW132123   0.466   3.937   7.467  1.2924 -0.4320 -1.1084
 6887SOL    HW232124   0.393   4.047   7.517  0.9659 -0.7370  0.5968
 6888SOL     OW32125   1.813   3.334   5.898 -0.2454  0.0691 -0.2417
 6888SOL    HW132126   1.737   3.392   5.910 -0.6192  0.0955 -2.6987
 6888SOL    HW232127   1.762   3.263   5.860  0.2491  0.3347 -1.3904
 6889SOL     OW32128   1.156   0.697   6.465 -0.2289 -0.4630  0.2083
 6889SOL    HW132129   1.175   0.720   6.374  0.2598 -0.0913  0.4043
 6889SOL    HW232130   1.070   0.655   6.462 -0.5719  0.0910  1.9353
 6890SOL     OW32131   0.241   4.540   2.851  0.4809  0.1549 -0.1288
 6890SOL    HW132132   0.163   4.487   2.860 -1.8535  3.4721 -0.7360
 6890SOL    HW232133   0.290   4.509   2.928  0.2957  0.3307  0.0595
 6891SOL     OW32134   1.526   0.783   5.210 -0.1127  0.0162 -0.5778
 6891SOL    HW132135   1.617   0.797   5.236 -0.4110  1.4130 -0.2837
 6891SOL    HW232136   1.497   0.859   5.160 -1.7866  0.3158  0.8663
 6892SOL     OW32137   3.874   1.677   1.128  0.3881  0.3833  0.3735
 6892SOL    HW132138   3.955   1.672   1.078 -0.6480  0.3635 -1.2750
 6892SOL    HW232139   3.865   1.772   1.120 -2.4794 -0.0529 -1.5501
 6893SOL     OW32140   1.519   1.033   0.683 -0.6955  0.2709 -0.1337
 6893SOL    HW132141   1.511   1.127   0.696  1.4662  0.4960 -0.3774
 6893SOL    HW232142   1.527   1.000   0.772 -0.8341 -0.4896 -0.4039
 6894SOL     OW32143   1.124   0.975  16.565 -0.3445  0.1200  0.4513
 6894SOL    HW132144   1.113   1.069  16.553 -0.6419 -0.1780 -1.5760
 6894SOL    HW232145   1.087   0.952  16.480 -0.6229 -0.0605  0.6188
 6895SOL     OW32146   1.004   0.290   2.373 -0.2218  0.9100 -0.0004
 6895SOL    HW132147   0.910   0.275   2.371  0.0890 -1.0156 -0.4156
 6895SOL    HW232148   1.039   0.244   2.297 -0.5563  0.3547  0.1815
 6896SOL     OW32149   3.124   1.382   4.591  0.0607  0.2601  0.3108
 6896SOL    HW132150   3.199   1.342   4.548 -0.0841  0.5720 -0.2323
 6896SOL    HW232151   3.160   1.468   4.613  0.9797  0.2580 -1.2201
 6897SOL     OW32152   1.141   0.114   7.033 -0.0864 -0.2514 -0.8374
 6897SOL    HW132153   1.126   0.063   7.113 -1.2625 -1.3048 -1.7256
 6897SOL    HW232154   1.137   0.205   7.061 -0.9305 -0.7122  0.5284
 6898SOL     OW32155   1.753   0.266  15.252  0.0114  0.3555 -0.1097
 6898SOL    HW132156   1.661   0.281  15.230  0.3288  0.6790 -1.2445
 6898SOL    HW232157   1.795   0.306  15.175  2.3931 -2.9713 -0.5737
 6899SOL     OW32158   1.799   1.471   2.665 -0.2973  0.0496  0.7583
 6899SOL    HW132159   1.738   1.493   2.595 -1.8092  1.7915  2.5897
 6899SOL    HW232160   1.778   1.538   2.731  2.5862  1.0295  0.6642
 6900SOL     OW32161   0.424   0.673   4.885 -0.3019 -0.4568 -0.4525
 6900SOL    HW132162   0.366   0.745   4.908 -0.7138 -0.6294 -0.9554
 6900SOL    HW232163   0.386   0.594   4.925 -0.3734  0.6263  1.6263
 6901SOL     OW32164   1.930   4.123   4.109 -0.1762 -0.9079  0.0935
 6901SOL    HW132165   1.857   4.184   4.112 -0.5689 -1.3510 -0.3951
 6901SOL    HW232166   1.921   4.096   4.017  0.7349  0.4137 -0.3873
 6902SOL     OW32167   4.052   3.088   0.523 -0.3459  0.0876 -0.1008
 6902SOL    HW132168   4.072   3.032   0.598 -0.9409  0.5440  0.3987
 6902SOL    HW232169   4.140   3.122   0.505  0.6645 -1.1215  2.4608
 6903SOL     OW32170   1.721   4.483   4.757  0.6265  0.2592 -0.0590
 6903SOL    HW132171   1.696   4.514   4.844  0.4618 -0.4712  0.1572
 6903SOL    HW232172   1.812   4.507   4.775  0.4048  0.4421  0.8552
 6904SOL     OW32173   4.340   0.228   7.471  0.1316 -0.1103  0.2270
 6904SOL    HW132174   4.255   0.248   7.510  0.4116  0.9040  0.3405
 6904SOL    HW232175   4.325   0.136   7.451 -1.5596  0.4088 -0.9045
 6905SOL     OW32176   0.548   1.049   7.763  0.3392 -0.6927 -0.1109
 6905SOL    HW132177   0.643   1.045   7.762  0.3533 -0.0283 -1.1044
 6905SOL    HW232178   0.538   0.979   7.828 -1.5313 -1.2238 -0.9773
 6906SOL     OW32179   1.130   4.371  10.262  0.0917  0.1274  0.2647
 6906SOL    HW132180   1.092   4.283  10.258  0.6513 -0.1665  1.7544
 6906SOL    HW232181   1.164   4.377  10.351 -0.1933  0.0002  0.3841
 6907SOL     OW32182   3.006   2.907  13.918  0.0642  0.5381 -0.0405
 6907SOL    HW132183   3.039   2.902  13.829  2.7108  0.6571  0.9336
 6907SOL    HW232184   3.010   2.814  13.940 -0.5913  0.5339  0.0446
 6908SOL     OW32185   3.435   0.103   1.988  0.1891  0.3667  0.3139
 6908SOL    HW132186   3.340   0.111   1.984  0.1865  0.4207  0.5226
 6908SOL    HW232187   3.459   0.162   1.916  0.2171 -0.4741 -0.3756
 6909SOL     OW32188   1.413   2.403   1.253 -0.3811 -0.0478  0.5560
 6909SOL    HW132189   1.452   2.485   1.223 -1.0151  0.3934  0.9390
 6909SOL    HW232190   1.425   2.409   1.348 -0.6026  0.5302  0.5469
 6910SOL     OW32191   3.670   1.406  10.957 -0.2615 -0.2183 -0.2534
 6910SOL    HW132192   3.614   1.329  10.950 -1.3768  0.3299  2.4465
 6910SOL    HW232193   3.713   1.394  11.042 -3.3055 -0.3484  1.2591
 6911SOL     OW32194   4.019   3.559  10.766 -0.4800 -0.1748  0.0910
 6911SOL    HW132195   4.071   3.577  10.688 -0.0468 -1.3101  0.1210
 6911SOL    HW232196   4.059   3.474  10.783  0.5920  0.2846 -0.1558
 6912SOL     OW32197   1.595   1.750   4.683 -0.2391 -0.2022  0.2894
 6912SOL    HW132198   1.647   1.670   4.676  1.5309  1.0024 -0.3645
 6912SOL    HW232199   1.661   1.808   4.643  0.0159 -0.2986  0.5695
 6913SOL     OW32200   2.905   3.776   0.763  0.5275  0.3004 -0.4492
 6913SOL    HW132201   2.898   3.724   0.683 -0.0257  2.1875 -1.6307
 6913SOL    HW232202   2.823   3.758   0.808  1.8805 -1.2010  1.4169
 6914SOL     OW32203   0.128   0.497  17.506  0.1459  0.5732 -0.4087
 6914SOL    HW132204   0.167   0.425  17.555 -1.0960  0.9143  1.1025
 6914SOL    HW232205   0.183   0.567  17.541  0.5534  0.8781 -1.6544
 6915SOL     OW32206   0.686   0.747   6.277 -0.1525 -0.3688 -0.5817
 6915SOL    HW132207   0.732   0.776   6.356  2.9905 -2.5477 -1.5717
 6915SOL    HW232208   0.742   0.670   6.266 -0.8606 -0.8146 -1.0826
 6916SOL     OW32209   4.548   1.506   4.403  0.4697  0.3216  0.0331
 6916SOL    HW132210   4.511   1.511   4.491  0.4330  0.3318  0.0169
 6916SOL    HW232211   4.531   1.412   4.390  2.4995 -0.4118  2.7436
 6917SOL     OW32212   0.728   3.452  12.171  0.0637 -0.6954  0.0392
 6917SOL    HW132213   0.797   3.423  12.111  0.8888 -1.1132  1.2017
 6917SOL    HW232214   0.650   3.406  12.138 -0.7333  0.0955  0.8251
 6918SOL     OW32215   3.570   2.607   4.071  0.3654  0.1998 -0.5264
 6918SOL    HW132216   3.497   2.623   4.012  0.0994 -0.8822 -0.4855
 6918SOL    HW232217   3.620   2.689   4.066  0.0501  0.5015  1.2562
 6919SOL     OW32218   4.454   3.978   8.495 -0.4334 -0.4235 -0.4200
 6919SOL    HW132219   4.507   3.981   8.574  0.1882 -0.0074 -0.8547
 6919SOL    HW232220   4.371   4.011   8.530 -0.4599 -0.1355 -0.7502
 6920SOL     OW32221   1.077   1.922   1.174 -0.8254 -0.2678 -0.0561
 6920SOL    HW132222   1.130   1.860   1.123  0.0225 -0.2125  0.7519
 6920SOL    HW232223   1.137   1.994   1.190  2.7095 -2.7364 -2.3163
 6921SOL     OW32224   1.307   2.455   4.188  0.1777 -0.4121 -0.3926
 6921SOL    HW132225   1.355   2.526   4.145 -2.9054  1.9008 -0.0441
 6921SOL    HW232226   1.365   2.428   4.259  0.2064  0.0521 -0.2404
 6922SOL     OW32227   0.984   4.625  16.398  0.5100 -0.1343  0.1087
 6922SOL    HW132228   1.020   4.537  16.386 -0.5505 -0.4009 -1.1321
 6922SOL    HW232229   1.044   4.653  16.329 -0.6846  1.2738 -0.3435
 6923SOL     OW32230   1.216   1.813   6.986  0.3486  0.0876 -0.4586
 6923SOL    HW132231   1.310   1.808   6.968  0.2930 -1.1893 -0.3981
 6923SOL    HW232232   1.209   1.872   7.061  2.6358 -3.5402  2.6329
 6924SOL     OW32233   3.663   0.890   5.338  0.1199 -0.4037  0.2127
 6924SOL    HW132234   3.608   0.898   5.416 -0.9772  5.0331 -1.0874
 6924SOL    HW232235   3.604   0.861   5.268 -0.2401  0.3817  0.1857
 6925SOL     OW32236   2.084   0.714   5.166  0.3560 -0.1065 -0.3691
 6925SOL    HW132237   2.094   0.671   5.081 -1.3024  0.2608 -0.7489
 6925SOL    HW232238   2.129   0.657   5.228 -1.1971 -0.9011  0.0117
 6926SOL     OW32239   0.341   1.182   5.794  0.1117  0.1850  0.0916
 6926SOL    HW132240   0.253   1.219   5.793 -0.0611 -0.0862  3.4068
 6926SOL    HW232241   0.324   1.088   5.787  0.6433 -0.0346  1.7375
 6927SOL     OW32242   1.620   1.645   5.875  0.6239  0.1463 -0.6581
 6927SOL    HW132243   1.527   1.651   5.853  0.5690  0.6205 -0.2889
 6927SOL    HW232244   1.650   1.732   5.846 -2.0797  0.7535 -1.5971
 6928SOL     OW32245   2.611   3.295  17.469 -0.7327  0.5207 -0.5249
 6928SOL    HW132246   2.546   3.273  17.536 -0.2899  0.1312 -0.2226
 6928SOL    HW232247   2.692   3.309  17.518  0.3281 -2.2794 -1.4930
 6929SOL     OW32248   4.564   2.539   7.851 -0.0131  0.0244 -0.3737
 6929SOL    HW132249   4.575   2.624   7.809  0.8387  0.5578  0.9163
 6929SOL    HW232250   4.653   2.504   7.855 -1.5403 -3.6936  0.9204
 6930SOL     OW32251   3.998   0.012  11.330 -0.2257 -0.2287 -0.3204
 6930SOL    HW132252   4.035   4.677  11.264 -0.7486 -0.2866 -0.5615
 6930SOL    HW232253   3.926   0.048  11.278  0.8300  2.8080  0.2964
 6931SOL     OW32254   2.836   4.297  16.334 -0.0930 -0.6115 -0.3576
 6931SOL    HW132255   2.785   4.270  16.411  1.8649 -0.3818  1.0236
 6931SOL    HW232256   2.913   4.244  16.353  0.5321  0.3004 -0.3754
 6932SOL     OW32257   1.612   3.699  17.518 -0.1340 -0.8959 -0.6270
 6932SOL    HW132258   1.535   3.751  17.496 -0.0431 -1.2850 -1.8660
 6932SOL    HW232259   1.570   3.632  17.573 -1.0179  0.5595  0.4593
 6933SOL     OW32260   0.895   4.583   2.968  0.9966 -0.4875 -0.2419
 6933SOL    HW132261   0.848   4.539   2.896  0.0798 -1.4469  0.9422
 6933SOL    HW232262   0.821   4.636   2.997  2.4208  1.4051 -0.0849
 6934SOL     OW32263   2.843   4.694  12.511 -0.5523 -0.7104 -0.2669
 6934SOL    HW132264   2.837   0.054  12.558 -1.1647 -2.5203  2.8524
 6934SOL    HW232265   2.859   4.636  12.585  1.8845  1.9295  1.2871
 6935SOL     OW32266   4.564   4.128   3.869  0.1250  0.3971  0.6648
 6935SOL    HW132267   4.648   4.083   3.858 -0.3546 -0.6741  1.3371
 6935SOL    HW232268   4.596   4.215   3.890  0.3798  0.5113 -0.2071
 6936SOL     OW32269   4.353   4.246  13.607  0.0857  0.3930 -0.1154
 6936SOL    HW132270   4.393   4.278  13.526  0.6952 -0.3123 -0.0951
 6936SOL    HW232271   4.424   4.192  13.642  0.0501  0.0321 -0.6061
 6937SOL     OW32272   1.371   0.953  16.737  0.1653 -0.2377 -0.0630
 6937SOL    HW132273   1.312   0.932  16.664  1.7904  1.6723 -1.9172
 6937SOL    HW232274   1.350   1.046  16.746  1.5122  0.1126 -0.5787
 6938SOL     OW32275   1.082   1.119   2.416  0.0071 -0.1560 -0.3878
 6938SOL    HW132276   1.142   1.045   2.426 -0.7973 -0.7994 -0.4025
 6938SOL    HW232277   1.027   1.088   2.344  0.2909 -0.2724 -0.5537
 6939SOL     OW32278   1.004   1.764   2.055  0.3846  0.0736  0.1935
 6939SOL    HW132279   1.018   1.853   2.024 -2.2582  0.2006 -0.5969
 6939SOL    HW232280   0.962   1.777   2.140 -0.4693 -1.9944  0.1028
 6940SOL     OW32281   0.678   1.750   7.841  0.0821  0.2005  0.2479
 6940SOL    HW132282   0.598   1.766   7.790  1.3841 -1.4503 -2.3089
 6940SOL    HW232283   0.664   1.664   7.880  0.0012  0.6397  1.2062
 6941SOL     OW32284   3.382   0.342   8.595 -0.2211  0.1084 -0.1464
 6941SOL    HW132285   3.413   0.431   8.607 -1.9682  0.8593 -1.1555
 6941SOL    HW232286   3.346   0.321   8.681 -2.1933 -1.2592 -1.2926
 6942SOL     OW32287   2.523   2.814   8.179  0.3307  0.4393  0.4501
 6942SOL    HW132288   2.474   2.895   8.164  0.6411  0.5163 -0.1628
 6942SOL    HW232289   2.564   2.832   8.263  1.3286 -0.7539  0.2137
 6943SOL     OW32290   1.527   4.648   7.868  0.0675 -0.1655  0.1589
 6943SOL    HW132291   1.445   4.640   7.820  0.2464  1.6521 -0.4472
 6943SOL    HW232292   1.561   4.716   7.810  1.2772 -2.4636 -1.8307
 6944SOL     OW32293   3.563   4.204   4.498  0.2124 -0.3458 -0.2414
 6944SOL    HW132294   3.553   4.229   4.406 -0.7258  1.1699  0.2817
 6944SOL    HW232295   3.606   4.285   4.524  0.8961 -0.9898  0.6455
 6945SOL     OW32296   4.372   4.408   8.686  0.4783 -0.4217 -0.0855
 6945SOL    HW132297   4.332   4.326   8.714  0.4295 -0.8915 -1.5652
 6945SOL    HW232298   4.300   4.467   8.708  1.2284  0.1181  0.9731
 6946SOL     OW32299   2.543   0.853   6.729  0.0466 -0.7935 -0.4103
 6946SOL    HW132300   2.589   0.935   6.709  0.2350 -1.0176 -0.8885
 6946SOL    HW232301   2.543   0.802   6.648 -1.4118 -2.0460  0.3713
 6947SOL     OW32302   4.693   3.382   5.828 -0.0522 -0.0214  0.0300
 6947SOL    HW132303   4.637   3.418   5.759  1.5657  0.4325 -1.0701
 6947SOL    HW232304   4.661   3.292   5.821 -1.4794  0.5306 -0.6108
 6948SOL     OW32305   2.066   0.169   6.711  0.1291  0.2080  0.3394
 6948SOL    HW132306   2.132   0.234   6.689 -0.4067 -0.1201 -2.1710
 6948SOL    HW232307   2.088   0.140   6.800  1.9260 -0.5381 -0.3457
 6949SOL     OW32308   2.104   1.742  16.441  0.3195  0.0944  0.6816
 6949SOL    HW132309   2.150   1.715  16.520 -0.9960 -1.7181  0.8242
 6949SOL    HW232310   2.038   1.674  16.433 -1.1461  1.7657 -1.5611
 6950SOL     OW32311   2.860   0.947   5.462  0.3180 -0.2040 -0.6341
 6950SOL    HW132312   2.917   0.928   5.537  1.3263  1.1996 -1.0514
 6950SOL    HW232313   2.922   0.929   5.391  0.2899  0.1840 -0.7574
 6951SOL     OW32314   0.106   0.664   0.087  0.3170 -0.3633 -0.8623
 6951SOL    HW132315   0.092   0.621   0.171  1.9834 -1.5184 -1.1833
 6951SOL    HW232316   0.198   0.690   0.087  0.4626 -0.8925  0.4405
 6952SOL     OW32317   0.671   4.589  17.327  0.0346  0.6594  0.0884
 6952SOL    HW132318   0.668   4.511  17.383 -0.3793  0.2891 -0.4446
 6952SOL    HW232319   0.666   4.551  17.239  1.4710 -0.3259  0.4281
 6953SOL     OW32320   2.085   3.787   5.151 -0.0797 -0.3039 -0.2339
 6953SOL    HW132321   2.171   3.762   5.118  0.2313 -1.1648  1.2550
 6953SOL    HW232322   2.108   3.843   5.224  1.7534 -1.4765  0.0815
 6954SOL     OW32323   1.141   0.745  12.194  0.7471 -0.7024  0.0624
 6954SOL    HW132324   1.229   0.718  12.170  0.4800 -0.7816 -0.8105
 6954SOL    HW232325   1.148   0.833  12.158  1.9672 -1.3037 -1.1518
 6955SOL     OW32326   4.018   1.701   2.328  0.5013 -0.7328  0.2107
 6955SOL    HW132327   3.953   1.688   2.259 -0.1694  0.2385  0.6594
 6955SOL    HW232328   3.980   1.639   2.391 -1.4583  0.5421  0.2607
 6956SOL     OW32329   0.458   4.026  11.020  0.1532  0.4576 -0.1951
 6956SOL    HW132330   0.505   4.110  11.016  0.1513  0.4122 -1.2332
 6956SOL    HW232331   0.526   3.974  10.977  0.3421  2.2604 -2.1061
 6957SOL     OW32332   2.171   2.993  13.428 -0.1652  0.2016 -0.0968
 6957SOL    HW132333   2.229   2.971  13.501 -0.3526 -1.0373 -0.3214
 6957SOL    HW232334   2.240   2.996  13.362  0.3374  2.5091  0.5400
 6958SOL     OW32335   1.958   0.587  17.596  0.3493  0.5603  0.3709
 6958SOL    HW132336   2.012   0.666  17.605  1.0463  0.2299 -0.9231
 6958SOL    HW232337   1.896   0.601  17.667 -1.8386 -2.9460 -0.8485
 6959SOL     OW32338   2.368   2.182  14.035  0.3993  0.6863  0.0845
 6959SOL    HW132339   2.438   2.235  13.998 -0.6764  1.7281 -0.4404
 6959SOL    HW232340   2.399   2.091  14.030 -0.9359  0.1291  1.7531
 6960SOL     OW32341   2.426   3.001   4.592 -0.0859 -0.4775  0.1409
 6960SOL    HW132342   2.426   3.074   4.529  0.5055  0.1686  0.8864
 6960SOL    HW232343   2.463   2.929   4.541  1.3502  0.0898  0.3722
 6961SOL     OW32344   1.934   2.059   7.060 -0.0387  0.7420  0.0661
 6961SOL    HW132345   1.921   2.044   7.154 -1.8525 -0.7151 -0.4106
 6961SOL    HW232346   1.854   2.109   7.044 -0.2005  0.7848  1.0020
 6962SOL     OW32347   0.663   4.158   0.021  0.0641 -0.2409 -0.8821
 6962SOL    HW132348   0.620   4.242   0.008  0.7830  0.8542  3.6774
 6962SOL    HW232349   0.683   4.167   0.114  0.6954  3.0082 -1.3209
 6963SOL     OW32350   0.254   2.146   6.489  0.2197 -0.2965  0.4299
 6963SOL    HW132351   0.307   2.126   6.567  0.0071  2.0839  1.1731
 6963SOL    HW232352   0.313   2.205   6.442 -2.2455  0.1830 -2.0732
 6964SOL     OW32353   3.138   3.538   4.247  0.0826 -0.4345 -0.0660
 6964SOL    HW132354   3.158   3.629   4.229 -0.0907 -0.4037 -0.1020
 6964SOL    HW232355   3.224   3.496   4.235 -0.4904 -1.6995  0.2185
 6965SOL     OW32356   0.580   0.139   7.499  0.1235  0.0514  0.2313
 6965SOL    HW132357   0.491   0.150   7.464 -0.5547 -1.5381  1.5052
 6965SOL    HW232358   0.590   0.224   7.543  2.3732 -1.5968  2.8941
 6966SOL     OW32359   3.720   3.241   8.520 -0.3555  0.3710  0.0021
 6966SOL    HW132360   3.783   3.169   8.530  0.9406  1.6671  1.2010
 6966SOL    HW232361   3.657   3.201   8.580  0.0950 -2.9214 -1.7233
 6967SOL     OW32362   1.800   3.789   6.083  0.5205  0.2894  0.4088
 6967SOL    HW132363   1.875   3.743   6.045 -0.3628  0.7450 -1.8658
 6967SOL    HW232364   1.813   3.880   6.054  0.6438  0.0554 -0.2633
 6968SOL     OW32365   3.203   1.037   8.399 -0.3491  0.4962 -0.1409
 6968SOL    HW132366   3.204   1.118   8.448 -0.5714 -0.6610  1.7806
 6968SOL    HW232367   3.215   0.973   8.469 -2.2233  0.7987  0.4537
 6969SOL     OW32368   1.716   0.629   9.013 -0.1592 -0.9258  0.5303
 6969SOL    HW132369   1.647   0.689   9.041  0.0306 -0.5693  0.2267
 6969SOL    HW232370   1.769   0.698   8.973 -0.8066 -0.2456  0.8479
 6970SOL     OW32371   1.244   1.571  17.250  0.1045  0.1690 -0.2007
 6970SOL    HW132372   1.245   1.666  17.260 -1.7603  0.1349  0.3359
 6970SOL    HW232373   1.150   1.564  17.229  0.2351 -0.4068 -0.6092
 6971SOL     OW32374   0.577   4.352   6.252  0.2334  0.6124 -0.0314
 6971SOL    HW132375   0.601   4.355   6.160  0.9244  0.8358  0.1542
 6971SOL    HW232376   0.587   4.440   6.289 -1.5971  0.4078  0.9851
 6972SOL     OW32377   4.017   0.050   1.515 -0.8730  0.0010  0.0421
 6972SOL    HW132378   3.964   4.703   1.480 -1.9397 -0.0929  1.8907
 6972SOL    HW232379   4.098   0.033   1.466 -1.2716  0.4146 -0.7546
 6973SOL     OW32380   4.386   1.687   1.732 -0.2554  0.8087  0.2615
 6973SOL    HW132381   4.358   1.668   1.822  0.4514 -1.1255  0.0733
 6973SOL    HW232382   4.476   1.656   1.746 -1.4183 -2.9150 -0.6491
 6974SOL     OW32383   3.118   1.060  14.138 -0.0806  0.0989 -0.2314
 6974SOL    HW132384   3.090   0.979  14.182 -2.4433  1.4074  0.6297
 6974SOL    HW232385   3.081   1.036  14.053  0.6374  2.8748 -1.3154
 6975SOL     OW32386   2.370   0.540  14.298  0.1185  0.4334  0.0096
 6975SOL    HW132387   2.415   0.509  14.376  0.8692 -0.4991 -0.7895
 6975SOL    HW232388   2.312   0.467  14.277 -0.3044 -0.4759  4.3574
 6976SOL     OW32389   3.924   3.885   5.351 -0.1154  0.1161  0.3030
 6976SOL    HW132390   3.970   3.901   5.433  1.3259  2.4898 -0.9873
 6976SOL    HW232391   3.852   3.830   5.382 -0.3567 -1.1179 -2.4845
 6977SOL     OW32392   3.718   0.339   2.494 -0.4260  0.1114 -0.1309
 6977SOL    HW132393   3.785   0.277   2.467 -1.0986 -0.9760  0.6862
 6977SOL    HW232394   3.700   0.387   2.413 -2.3837 -1.1140 -0.4488
 6978SOL     OW32395   2.764   0.410   6.888 -0.0170  0.1276  0.1224
 6978SOL    HW132396   2.772   0.350   6.814 -0.3328  0.3699 -0.1029
 6978SOL    HW232397   2.674   0.401   6.920 -0.6891  2.6286 -1.1043
 6979SOL     OW32398   1.357   1.626   4.787 -0.7228 -0.1311  0.1477
 6979SOL    HW132399   1.386   1.691   4.723 -2.3981  1.2206  0.7713
 6979SOL    HW232400   1.424   1.644   4.853  0.0006 -0.8152 -0.3968
 6980SOL     OW32401   2.039   0.258  12.615  0.4247 -0.3028  0.1605
 6980SOL    HW132402   2.101   0.328  12.635 -1.9117  1.2163  2.0613
 6980SOL    HW232403   1.971   0.267  12.682  0.7274 -0.6500  0.5138
 6981SOL     OW32404   0.072   3.003   0.403 -0.1702 -0.1640  0.0680
 6981SOL    HW132405   0.147   3.062   0.405  0.1937 -0.5707 -2.0473
 6981SOL    HW232406   0.097   2.937   0.339  0.8426  0.6344 -0.3611
 6982SOL     OW32407   0.533   1.421   6.001  0.0386 -0.7402  0.2802
 6982SOL    HW132408   0.533   1.418   5.905 -0.0306  2.3048  0.1856
 6982SOL    HW232409   0.499   1.509   6.019  0.2609 -0.9655  1.7690
 6983SOL     OW32410   2.094   2.915   8.053 -0.3687  0.5683  0.4963
 6983SOL    HW132411   2.039   2.882   8.124 -1.2078  0.1591 -0.3588
 6983SOL    HW232412   2.099   3.007   8.079 -4.2441  0.3825  1.8845
 6984SOL     OW32413   0.166   3.148   5.981 -0.3634  0.1553 -0.1780
 6984SOL    HW132414   0.180   3.200   5.902 -1.2804 -0.9879 -1.1119
 6984SOL    HW232415   0.213   3.181   6.057 -1.8218  0.5115  0.5819
 6985SOL     OW32416   2.016   1.087   7.865  0.5166  0.0034  0.0141
 6985SOL    HW132417   2.014   1.048   7.777  1.4031  0.3656 -0.1653
 6985SOL    HW232418   2.093   1.139   7.846  0.1629  0.4336 -0.2496
 6986SOL     OW32419   4.666   3.190   4.304  0.4538 -0.2529 -0.2396
 6986SOL    HW132420   4.636   3.280   4.314 -0.1121 -0.7468  2.4334
 6986SOL    HW232421   0.021   3.182   4.358  1.6739 -0.2576 -2.0260
 6987SOL     OW32422   4.350   4.688   5.737  0.2981  0.0697 -0.2131
 6987SOL    HW132423   4.261   4.699   5.771  0.7426 -0.7686  1.2293
 6987SOL    HW232424   4.391   4.659   5.818 -0.7957  1.0632  0.6997
 6988SOL     OW32425   4.526   0.510   3.873 -0.1580 -0.4031 -0.0383
 6988SOL    HW132426   4.500   0.507   3.781  0.7359  1.0382 -0.3294
 6988SOL    HW232427   4.503   0.422   3.903  2.1148 -1.1298 -0.4542
 6989SOL     OW32428   1.286   1.108   4.362 -0.2275  0.0101  0.2851
 6989SOL    HW132429   1.242   1.150   4.436  0.8418  1.0791  0.3053
 6989SOL    HW232430   1.243   1.149   4.286  1.0111  0.9617  0.0960
 6990SOL     OW32431   3.291   1.140   7.840  0.0416 -0.3418  0.4497
 6990SOL    HW132432   3.329   1.056   7.865 -1.5074 -1.1889 -0.0908
 6990SOL    HW232433   3.361   1.198   7.872 -0.8878  1.1047 -0.1507
 6991SOL     OW32434   1.588   2.962   1.941  0.5493 -0.5153  0.2714
 6991SOL    HW132435   1.666   2.980   1.890  0.4115  4.9663  1.9760
 6991SOL    HW232436   1.517   3.009   1.897  1.7207  0.8112 -0.1898
 6992SOL     OW32437   0.000   0.524  14.907 -0.1510  0.0507  0.2660
 6992SOL    HW132438   0.093   0.525  14.932 -0.1275  0.2211  0.1718
 6992SOL    HW232439   4.719   0.618  14.922 -1.4822 -0.0873  0.6268
 6993SOL     OW32440   2.126   1.665   9.083 -0.1186 -0.1852 -0.3488
 6993SOL    HW132441   2.103   1.661   8.990 -1.7919  1.6239 -0.0261
 6993SOL    HW232442   2.135   1.759   9.101 -1.4254  0.2697 -2.1009
 6994SOL     OW32443   2.252   2.859   8.493 -0.4070 -0.0432  0.0847
 6994SOL    HW132444   2.324   2.879   8.435 -0.3261 -0.6871 -0.0399
 6994SOL    HW232445   2.291   2.799   8.557 -2.9377  0.2996  1.9929
 6995SOL     OW32446   2.966   0.086   4.141  0.3944  0.1915  0.2046
 6995SOL    HW132447   2.971   0.016   4.207  0.4000 -0.9121 -0.9528
 6995SOL    HW232448   3.023   0.047   4.074 -1.1236  0.3222 -1.1492
 6996SOL     OW32449   2.234   4.556  10.855  0.5128  0.0062 -0.3919
 6996SOL    HW132450   2.225   4.497  10.930 -0.1018 -0.2841 -0.6951
 6996SOL    HW232451   2.157   4.538  10.801  0.4436 -0.5334 -0.1162
 6997SOL     OW32452   3.812   4.693   1.249  0.0817 -0.2900 -0.1382
 6997SOL    HW132453   3.771   0.019   1.320 -1.2906 -0.4329 -0.8478
 6997SOL    HW232454   3.750   4.624   1.228 -0.2355  0.2561 -0.9805
 6998SOL     OW32455   0.418   1.366  17.173 -0.4514 -0.3333 -0.2688
 6998SOL    HW132456   0.487   1.432  17.177  0.8116 -1.6199 -1.0490
 6998SOL    HW232457   0.375   1.392  17.255  1.3350 -1.7551  1.1198
 6999SOL     OW32458   2.680   1.840   8.608  0.1942 -0.2692 -0.5667
 6999SOL    HW132459   2.655   1.775   8.543  2.0938 -1.2486 -0.3184
 6999SOL    HW232460   2.612   1.907   8.593 -1.3655 -1.7741 -0.1970
 7000SOL     OW32461   4.258   1.358   7.393  0.2537  0.4407 -0.1069
 7000SOL    HW132462   4.290   1.332   7.480 -2.6286 -1.3131  0.4342
 7000SOL    HW232463   4.226   1.447   7.410  2.0825  1.3310 -1.2720
 7001SOL     OW32464   3.371   1.661  10.839  0.3428 -0.4648 -0.0295
 7001SOL    HW132465   3.365   1.591  10.904 -0.2098  1.2940  1.7954
 7001SOL    HW232466   3.280   1.648  10.811 -0.0880 -0.6173  1.4263
 7002SOL     OW32467   4.137   1.510   0.787 -0.0806 -0.6260 -0.0024
 7002SOL    HW132468   4.088   1.566   0.726 -4.0225 -2.0230  1.8766
 7002SOL    HW232469   4.170   1.449   0.722  0.8623  0.7754 -0.8385
 7003SOL     OW32470   4.010   0.575   5.225  0.2366 -0.4347 -0.3112
 7003SOL    HW132471   3.984   0.529   5.304  0.3011 -1.9539 -1.1758
 7003SOL    HW232472   4.092   0.617   5.253  0.2841 -1.0511  0.4562
 7004SOL     OW32473   0.739   1.983   2.760  0.0781 -0.2106  0.3639
 7004SOL    HW132474   0.657   2.008   2.803 -0.3560 -1.1989  0.1126
 7004SOL    HW232475   0.709   1.983   2.669  0.9561 -1.6836  0.0850
 7005SOL     OW32476   4.712   1.400   5.661 -0.7194 -0.0221  0.3656
 7005SOL    HW132477   0.011   1.468   5.597 -0.5536  2.1008  2.6868
 7005SOL    HW232478   4.636   1.438   5.703 -1.1463 -0.0567 -0.3746
 7006SOL     OW32479   0.099   0.324  10.551  0.0213  0.1219  0.1291
 7006SOL    HW132480   0.069   0.328  10.460 -2.4543  0.5385  0.9728
 7006SOL    HW232481   0.135   0.412  10.550  0.7519 -0.1771  0.4086
 7007SOL     OW32482   3.784   3.659  17.279  0.1886  0.0658  0.0614
 7007SOL    HW132483   3.725   3.611  17.338  1.3228 -1.7457 -0.2801
 7007SOL    HW232484   3.854   3.593  17.284  1.6174  1.6939  1.8498
 7008SOL     OW32485   2.382   0.285  15.441 -0.1509  0.0141  0.2196
 7008SOL    HW132486   2.325   0.361  15.431  1.1705  1.2844  2.2786
 7008SOL    HW232487   2.435   0.298  15.519 -0.7547 -0.0941  0.6476
 7009SOL     OW32488   0.529   1.172   5.494 -0.4277  0.6701 -0.2420
 7009SOL    HW132489   0.520   1.147   5.402 -1.3342  0.9124 -0.2265
 7009SOL    HW232490   0.522   1.085   5.533 -0.5678  1.1736  0.8600
 7010SOL     OW32491   2.556   2.740   6.089  0.2969  0.3088  0.6994
 7010SOL    HW132492   2.577   2.647   6.081  4.8210  1.5284 -1.3947
 7010SOL    HW232493   2.486   2.737   6.154 -1.4937 -1.1555 -1.2642
 7011SOL     OW32494   2.981   1.195   6.301 -0.0490 -0.6235 -0.5675
 7011SOL    HW132495   3.030   1.234   6.373 -0.6626  0.5083 -0.7622
 7011SOL    HW232496   2.968   1.265   6.237  0.1354 -0.1797 -0.1108
 7012SOL     OW32497   0.438   4.338  11.825  0.0234  0.1163 -0.0574
 7012SOL    HW132498   0.491   4.281  11.882 -0.3073  0.3683  0.5064
 7012SOL    HW232499   0.418   4.404  11.891 -0.5190 -0.2577  0.1519
 7013SOL     OW32500   4.310   4.534   5.510  0.1543  0.4521  0.1445
 7013SOL    HW132501   4.316   4.599   5.581  0.4864  0.4075  0.1539
 7013SOL    HW232502   4.229   4.561   5.466  0.9539 -2.7895 -3.2102
 7014SOL     OW32503   1.031   4.604   2.554 -0.1657  0.1173 -0.2940
 7014SOL    HW132504   1.077   4.661   2.617  1.4727 -0.4507 -0.9886
 7014SOL    HW232505   1.107   4.548   2.562 -1.8313 -2.3773 -1.9787
 7015SOL     OW32506   3.221   1.277   3.607 -0.8953 -0.2392 -0.3643
 7015SOL    HW132507   3.248   1.297   3.517 -0.0045 -0.0542 -0.0576
 7015SOL    HW232508   3.308   1.270   3.645 -0.3958  0.7372 -1.3310
 7016SOL     OW32509   4.702   1.512   4.170 -0.2783 -0.9668  0.2579
 7016SOL    HW132510   4.680   1.524   4.262 -1.5681  0.6951 -0.2624
 7016SOL    HW232511   0.067   1.476   4.168 -0.0729 -0.3559 -1.6028
 7017SOL     OW32512   0.955   1.006  13.392 -0.0517 -0.3579 -0.2528
 7017SOL    HW132513   0.892   0.966  13.332 -1.6377 -0.2959  1.3883
 7017SOL    HW232514   1.036   0.962  13.363  0.5953  0.7949 -0.1776
 7018SOL     OW32515   3.031   4.406  15.259  0.4316  0.1386 -0.0950
 7018SOL    HW132516   2.941   4.420  15.228  0.2683  0.1675  0.3905
 7018SOL    HW232517   3.035   4.311  15.271  0.1495  0.1777  0.3121
 7019SOL     OW32518   0.016   2.911   7.222 -0.0275 -0.5241 -0.4983
 7019SOL    HW132519   4.650   2.944   7.211  0.9010  2.3389  0.4874
 7019SOL    HW232520   0.049   2.957   7.145 -0.3763 -2.9676 -2.0950
 7020SOL     OW32521   0.101   2.963   1.483  0.6575  0.1506 -0.3657
 7020SOL    HW132522   0.182   2.971   1.432  1.1504 -0.4613  0.3281
 7020SOL    HW232523   0.128   2.935   1.570 -0.4946  0.8115  0.1982
 7021SOL     OW32524   1.092   1.738  14.595  0.4303  0.4543  0.0247
 7021SOL    HW132525   1.065   1.823  14.559 -0.7535 -0.2710 -0.7924
 7021SOL    HW232526   1.171   1.768  14.640 -1.0312  2.1421  1.4467
 7022SOL     OW32527   1.265   3.646   2.352 -0.6684  0.3772  0.1350
 7022SOL    HW132528   1.325   3.577   2.324 -0.6100  0.8106 -0.7983
 7022SOL    HW232529   1.326   3.712   2.385 -1.2536 -0.2998  2.5907
 7023SOL     OW32530   2.903   0.376   7.787 -0.0275 -0.0659 -0.4319
 7023SOL    HW132531   2.940   0.290   7.809  1.3728  0.2121 -1.7172
 7023SOL    HW232532   2.809   0.369   7.806 -0.2219  0.4243 -1.2370
 7024SOL     OW32533   1.617   1.529   7.198  0.3057 -0.2979 -0.5125
 7024SOL    HW132534   1.558   1.604   7.191  1.1296  0.1061 -2.9699
 7024SOL    HW232535   1.562   1.451   7.203  0.2732 -0.1586  1.2932
 7025SOL     OW32536   1.225   0.709   6.716 -0.0473 -0.7026  0.1330
 7025SOL    HW132537   1.309   0.663   6.712  0.5705  0.1963  3.3315
 7025SOL    HW232538   1.194   0.702   6.625  0.1523 -0.3696  0.0379
 7026SOL     OW32539   0.399   4.099  15.339 -0.4595 -0.6910 -0.1016
 7026SOL    HW132540   0.457   4.153  15.393  0.5081  1.5817 -3.4174
 7026SOL    HW232541   0.422   4.137  15.255 -2.3055 -1.5977 -1.0216
 7027SOL     OW32542   1.673   2.348   6.657 -0.2351  0.0094  0.8051
 7027SOL    HW132543   1.681   2.440   6.681  2.6623 -0.3322  1.1231
 7027SOL    HW232544   1.578   2.348   6.657 -0.2316  2.3018 -0.0529
 7028SOL     OW32545   2.964   0.605   8.590 -0.6149  0.2270 -0.2957
 7028SOL    HW132546   3.010   0.551   8.526 -1.7213 -0.1395 -0.7726
 7028SOL    HW232547   3.036   0.631   8.647 -1.3039 -0.1275  0.7486
 7029SOL     OW32548   1.064   0.188   6.796 -0.1243  0.1496  0.3264
 7029SOL    HW132549   0.977   0.201   6.835 -1.1907  0.9092 -2.2751
 7029SOL    HW232550   1.109   0.159   6.875  1.0612 -0.6600 -0.6544
 7030SOL     OW32551   1.196   3.364   8.346 -0.1007 -0.0170  0.8478
 7030SOL    HW132552   1.202   3.280   8.301  0.6580 -0.4848  1.8105
 7030SOL    HW232553   1.258   3.423   8.302  1.0794 -1.6064  0.3657
 7031SOL     OW32554   1.287   1.989   9.159 -0.4292  0.4614 -0.2590
 7031SOL    HW132555   1.193   1.997   9.140 -0.2501 -0.0160 -1.3414
 7031SOL    HW232556   1.326   2.064   9.113  1.8574  0.5151  1.8017
 7032SOL     OW32557   0.131   2.919   4.949  0.0914  0.5160  0.2768
 7032SOL    HW132558   0.041   2.917   4.983 -0.3891  0.2451 -1.0161
 7032SOL    HW232559   0.169   2.997   4.990  1.6703  0.0132 -0.2511
 7033SOL     OW32560   0.125   0.371   0.804 -0.7154 -0.3303 -0.3961
 7033SOL    HW132561   0.136   0.366   0.899  0.0963 -1.0263 -0.5275
 7033SOL    HW232562   0.201   0.319   0.779 -0.6235 -0.7607  0.7456
 7034SOL     OW32563   0.494   2.958  15.875 -0.0129 -0.5695  0.5218
 7034SOL    HW132564   0.512   2.910  15.794  0.0047  2.6968 -1.3885
 7034SOL    HW232565   0.434   3.027  15.847 -0.0140 -1.1430 -0.8909
 7035SOL     OW32566   3.572   2.545  12.250 -0.8911 -0.3378 -0.5227
 7035SOL    HW132567   3.662   2.525  12.223 -0.6956  2.0487 -1.6084
 7035SOL    HW232568   3.584   2.548  12.345  0.3675 -0.2316 -0.6847
 7036SOL     OW32569   2.292   1.808  16.818 -0.6795 -0.2052 -0.3558
 7036SOL    HW132570   2.240   1.733  16.789  0.2484 -0.9340 -0.1324
 7036SOL    HW232571   2.227   1.879  16.820  0.6358  1.0236 -1.5266
 7037SOL     OW32572   2.506   3.195  15.954 -0.6531  0.3344  0.6493
 7037SOL    HW132573   2.475   3.266  16.010 -0.0394  1.6646 -0.6998
 7037SOL    HW232574   2.470   3.117  15.998 -1.3069  0.2724  0.0108
 7038SOL     OW32575   3.472   1.251   9.424 -0.0709  0.3492 -0.2744
 7038SOL    HW132576   3.474   1.319   9.357  2.3527 -0.6277 -1.2080
 7038SOL    HW232577   3.540   1.200   9.379 -0.3529 -1.0681  0.9159
 7039SOL     OW32578   2.185   0.247   3.631 -0.4159 -0.2172  0.0398
 7039SOL    HW132579   2.181   0.241   3.536 -2.2087  2.2016 -0.0185
 7039SOL    HW232580   2.176   0.154   3.653 -1.6806 -0.3819 -1.1993
 7040SOL     OW32581   1.227   2.131   6.874 -0.2044  0.7795 -0.1677
 7040SOL    HW132582   1.275   2.202   6.917  2.1710  0.8128 -2.8713
 7040SOL    HW232583   1.266   2.117   6.788  1.3509  2.3743  0.2762
 7041SOL     OW32584   2.074   2.375   8.996  0.0960 -0.0827  0.1048
 7041SOL    HW132585   2.083   2.420   9.080  1.4823  0.2025 -0.2001
 7041SOL    HW232586   2.058   2.438   8.926 -0.5168 -0.7597 -0.3783
 7042SOL     OW32587   1.409   0.335  13.859  0.0630  0.6154  0.1930
 7042SOL    HW132588   1.491   0.315  13.903 -0.7749 -0.5352  1.2251
 7042SOL    HW232589   1.355   0.369  13.930 -0.6200  1.5388 -0.7574
 7043SOL     OW32590   4.714   3.994  13.042  0.6678 -0.1190 -0.1515
 7043SOL    HW132591   0.079   4.019  13.017 -0.2400  1.8122 -1.4428
 7043SOL    HW232592   0.009   3.971  13.133 -0.2915 -1.1825 -0.2211
 7044SOL     OW32593   2.341   3.758   5.054 -0.0036  0.6838  0.0998
 7044SOL    HW132594   2.356   3.801   4.970 -0.1189 -1.0237 -0.7967
 7044SOL    HW232595   2.394   3.818   5.106 -0.5807 -0.4825  2.0310
 7045SOL     OW32596   2.349   3.153   8.542  0.9782  0.2993 -0.0044
 7045SOL    HW132597   2.278   3.089   8.533  0.9090  0.6392 -1.9476
 7045SOL    HW232598   2.295   3.223   8.580  0.7904  0.4799 -0.5996
 7046SOL     OW32599   3.113   1.135   5.551 -0.0675 -0.1962  0.0829
 7046SOL    HW132600   3.076   1.067   5.607 -0.4588  1.3677  1.7507
 7046SOL    HW232601   3.038   1.190   5.526  0.4736  1.0312  1.1154
 7047SOL     OW32602   1.438   0.318  16.552  0.3470 -0.3010 -0.9149
 7047SOL    HW132603   1.472   0.405  16.575  0.3237  0.0905 -2.3667
 7047SOL    HW232604   1.456   0.319  16.458  0.5525  1.1507 -0.8612
 7048SOL     OW32605   0.326   4.553   1.111 -0.5988 -0.4400  0.6814
 7048SOL    HW132606   0.337   4.459   1.127 -0.5817 -0.5872 -0.2004
 7048SOL    HW232607   0.258   4.542   1.045  1.6957 -0.5063 -1.6657
 7049SOL     OW32608   3.667   4.705   5.927 -0.0813  0.1048  0.1218
 7049SOL    HW132609   3.696   4.721   6.017 -0.4390 -0.7142  0.3773
 7049SOL    HW232610   3.595   4.643   5.930 -0.8908  1.0207 -0.4284
 7050SOL     OW32611   3.515   3.211   8.025  0.5786 -0.6170 -0.2460
 7050SOL    HW132612   3.475   3.137   7.980 -3.0698 -0.1750  2.2452
 7050SOL    HW232613   3.493   3.198   8.118 -1.0690  0.1773 -0.5276
 7051SOL     OW32614   4.492   1.869   7.497 -0.5904  0.6110  1.0094
 7051SOL    HW132615   4.537   1.787   7.515 -0.7129  0.7039  1.7298
 7051SOL    HW232616   4.560   1.935   7.503 -0.6277  0.8521 -1.1078
 7052SOL     OW32617   2.627   0.691   2.700  0.4471  0.2385  0.3378
 7052SOL    HW132618   2.612   0.723   2.611 -1.2996 -1.2730  0.0936
 7052SOL    HW232619   2.542   0.671   2.738  1.1993 -0.7655  1.4802
 7053SOL     OW32620   4.117   3.570  10.493 -0.0626  0.0187  0.2422
 7053SOL    HW132621   4.048   3.504  10.485 -0.0778  0.2753 -1.9630
 7053SOL    HW232622   4.132   3.583  10.399  2.7229 -1.9220  0.4105
 7054SOL     OW32623   1.832   3.285  16.065 -0.4515  0.0472  0.4772
 7054SOL    HW132624   1.864   3.209  16.016 -0.3912 -0.0745  0.7076
 7054SOL    HW232625   1.784   3.323  15.991  0.5856  1.6478  0.6219
 7055SOL     OW32626   0.998   0.552   5.755 -0.0755 -0.0840 -0.1980
 7055SOL    HW132627   1.068   0.492   5.731 -1.5745 -1.0758 -2.1200
 7055SOL    HW232628   0.979   0.610   5.681  2.2538 -0.7819 -1.3248
 7056SOL     OW32629   2.369   0.064  16.652 -0.1940  0.1934  0.4309
 7056SOL    HW132630   2.387   0.155  16.628 -0.7425  0.7034  1.9181
 7056SOL    HW232631   2.382   0.015  16.571 -1.1128  0.4247  0.1486
 7057SOL     OW32632   2.155   0.119   3.937 -0.4487 -0.8418  0.1722
 7057SOL    HW132633   2.240   0.141   3.975 -0.3733 -1.2532  0.2425
 7057SOL    HW232634   2.155   0.027   3.964 -3.6441 -1.1339 -0.8814
 7058SOL     OW32635   2.378   3.715  15.159 -0.4622  0.3155  0.0047
 7058SOL    HW132636   2.398   3.733  15.251  0.4797 -0.0711 -0.1260
 7058SOL    HW232637   2.310   3.648  15.161 -0.8706  0.6686 -1.9175
 7059SOL     OW32638   1.746   3.661   1.912 -0.4753  0.4303  0.7508
 7059SOL    HW132639   1.760   3.691   1.822  0.1154 -0.9709  0.3805
 7059SOL    HW232640   1.822   3.606   1.928 -0.4844 -0.2433 -1.4711
 7060SOL     OW32641   3.006   3.532   5.173  0.1571  0.5790  0.6552
 7060SOL    HW132642   2.941   3.572   5.116 -0.8523  0.5325  1.7835
 7060SOL    HW232643   3.070   3.603   5.175  2.9995 -1.9766  1.0209
 7061SOL     OW32644   0.762   3.503   1.190 -0.1492 -0.0395 -0.2725
 7061SOL    HW132645   0.852   3.530   1.212 -0.4625 -0.3188  1.3753
 7061SOL    HW232646   0.768   3.416   1.229 -1.4166  0.5385  1.1942
 7062SOL     OW32647   4.535   3.725   7.367 -0.3442  0.2207 -0.5936
 7062SOL    HW132648   4.452   3.679   7.352 -1.5367  1.7887  1.3146
 7062SOL    HW232649   4.582   3.696   7.288  0.5766  0.0392  0.0261
 7063SOL     OW32650   3.398   3.901  11.971 -0.3745  0.1878  0.1011
 7063SOL    HW132651   3.408   3.991  12.003  1.1672  0.0583 -0.0142
 7063SOL    HW232652   3.318   3.916  11.921  0.4054  3.0062 -0.3246
 7064SOL     OW32653   3.537   0.803   7.173 -0.3192 -0.3814  0.1342
 7064SOL    HW132654   3.521   0.820   7.081  3.2063 -3.1110 -0.9784
 7064SOL    HW232655   3.605   0.737   7.168 -0.0470  0.1337 -2.5915
 7065SOL     OW32656   2.412   0.961   7.530  0.6015 -0.1161 -0.0826
 7065SOL    HW132657   2.346   0.931   7.467  0.1510  0.9202 -0.0940
 7065SOL    HW232658   2.436   0.876   7.567 -0.6284  0.0154  1.0299
 7066SOL     OW32659   1.327   2.390   1.537  0.0443  0.1739  0.8798
 7066SOL    HW132660   1.290   2.307   1.508  0.1948  0.4778 -0.1941
 7066SOL    HW232661   1.290   2.413   1.622 -3.0082  1.5347 -0.8116
 7067SOL     OW32662   1.011   1.124   5.740  0.0591 -0.7236 -0.4165
 7067SOL    HW132663   1.079   1.171   5.693 -0.5785  0.2629 -0.3442
 7067SOL    HW232664   0.952   1.089   5.673 -0.9049  2.2689 -1.1159
 7068SOL     OW32665   4.423   1.582  15.750  0.1502  0.1567 -0.3823
 7068SOL    HW132666   4.337   1.625  15.753  0.7439  1.3702 -0.7230
 7068SOL    HW232667   4.474   1.652  15.711 -0.9492  0.5806 -1.0588
 7069SOL     OW32668   4.365   3.022   2.273  0.1492 -0.2909 -0.2084
 7069SOL    HW132669   4.339   2.944   2.224 -1.9092 -0.3165  0.9707
 7069SOL    HW232670   4.458   3.016   2.248  0.6847  1.4485  1.3885
 7070SOL     OW32671   1.502   4.150   3.153 -0.2157  0.7425 -0.2270
 7070SOL    HW132672   1.521   4.067   3.110 -1.1013  1.1074 -1.3128
 7070SOL    HW232673   1.411   4.164   3.128 -0.2328  0.0441 -0.5714
 7071SOL     OW32674   3.346   0.181   5.433  0.1926  0.7079 -0.3138
 7071SOL    HW132675   3.264   0.133   5.445  0.1740  0.9139  0.4263
 7071SOL    HW232676   3.336   0.192   5.339 -3.0226  0.7037  0.0241
 7072SOL     OW32677   0.853   2.682   0.905  0.0799  0.4140  0.4474
 7072SOL    HW132678   0.941   2.643   0.901 -1.4834 -3.0276 -0.7263
 7072SOL    HW232679   0.831   2.664   0.996 -0.4069 -3.3191 -0.3982
 7073SOL     OW32680   3.855   4.434  12.714  0.3948  0.8226 -0.9421
 7073SOL    HW132681   3.849   4.349  12.670  0.3604  0.2564  0.1558
 7073SOL    HW232682   3.893   4.405  12.797 -1.0015 -0.0684 -0.6082
 7074SOL     OW32683   0.312   3.245   6.658 -0.6086  0.0302  0.2558
 7074SOL    HW132684   0.251   3.187   6.613 -1.8565  0.4836  1.3712
 7074SOL    HW232685   0.365   3.287   6.591  0.3316 -1.8921 -0.2144
 7075SOL     OW32686   1.097   2.096   5.525  0.8468 -0.0846  0.3978
 7075SOL    HW132687   1.117   2.053   5.442 -1.7430 -0.9995  0.2242
 7075SOL    HW232688   1.086   2.188   5.503  1.6533  0.4343  2.1883
 7076SOL     OW32689   4.048   2.882  12.548 -0.5419  0.4419 -0.2614
 7076SOL    HW132690   4.143   2.869  12.543 -0.7926 -0.0519 -3.6641
 7076SOL    HW232691   4.015   2.798  12.515  1.1714 -0.8591  1.3390
 7077SOL     OW32692   1.477   3.669   4.026 -0.2994  0.2199 -0.0634
 7077SOL    HW132693   1.403   3.719   4.060 -0.2645 -0.2069  0.6547
 7077SOL    HW232694   1.515   3.630   4.105  1.4213 -1.2039 -1.5938
 7078SOL     OW32695   1.468   0.012   7.440 -0.2857  0.6062  0.0685
 7078SOL    HW132696   1.497   0.045   7.525  0.4055  1.7656 -0.6228
 7078SOL    HW232697   1.526   0.051   7.375  1.9013 -0.4053  1.3849
 7079SOL     OW32698   4.056   4.056   6.931  0.0021  0.2180  0.3182
 7079SOL    HW132699   4.033   4.008   6.851  0.9579  0.2195  0.0507
 7079SOL    HW232700   3.997   4.025   6.999  0.1156  0.3416  0.4712
 7080SOL     OW32701   1.193   3.020   3.716 -0.1098 -0.5518  0.0926
 7080SOL    HW132702   1.200   2.924   3.710 -2.6939 -0.6777 -0.5145
 7080SOL    HW232703   1.098   3.022   3.709 -0.2149 -2.8565  0.5868
 7081SOL     OW32704   4.245   0.205  17.305  0.1068 -0.0700 -0.2708
 7081SOL    HW132705   4.222   0.272  17.241  1.3763  1.2402  0.6535
 7081SOL    HW232706   4.188   0.230  17.378  0.2078 -3.4387  0.9679
 7082SOL     OW32707   1.907   4.145   0.748 -0.4591  0.0418  0.3921
 7082SOL    HW132708   1.889   4.228   0.792  0.2571  0.1789  0.4372
 7082SOL    HW232709   1.856   4.145   0.668  2.8702  0.5619 -1.7234
 7083SOL     OW32710   3.840   0.458  13.605  1.1686  0.2288  0.0147
 7083SOL    HW132711   3.880   0.430  13.687  0.0292 -0.9313  0.1857
 7083SOL    HW232712   3.786   0.382  13.585 -1.7963  1.7333  2.3134
 7084SOL     OW32713   2.669   1.554  11.194 -0.4862 -0.3658 -0.0245
 7084SOL    HW132714   2.684   1.459  11.196 -0.5946 -0.3789  0.1884
 7084SOL    HW232715   2.574   1.552  11.206 -0.5844  1.4395 -0.5900
 7085SOL     OW32716   3.557   2.576  15.532 -0.4290 -0.4499  0.3320
 7085SOL    HW132717   3.617   2.630  15.583 -1.3487  0.3907  0.5083
 7085SOL    HW232718   3.623   2.531  15.480 -1.4513 -0.1379 -1.2101
 7086SOL     OW32719   0.292   3.026   4.714  0.6147  0.5279  0.0529
 7086SOL    HW132720   0.238   2.972   4.771  0.5682  0.8742  0.3385
 7086SOL    HW232721   0.266   3.112   4.745 -1.2301  0.0477 -0.1657
 7087SOL     OW32722   1.566   2.645   2.364  0.0600  0.1985  0.0025
 7087SOL    HW132723   1.608   2.702   2.429 -3.0954  1.2258  1.1446
 7087SOL    HW232724   1.607   2.679   2.285 -2.3202  1.4599 -0.7004
 7088SOL     OW32725   4.136   1.235   7.625 -0.5598 -0.3687 -0.5227
 7088SOL    HW132726   4.204   1.168   7.625  1.3354  1.5278  0.5712
 7088SOL    HW232727   4.073   1.204   7.561 -1.8491 -2.2180  1.6618
 7089SOL     OW32728   2.512   3.382   3.046 -0.1146  0.3052 -0.4065
 7089SOL    HW132729   2.434   3.347   3.003  1.2282  0.0044 -2.6134
 7089SOL    HW232730   2.535   3.297   3.085 -0.4694 -0.0957 -1.0601
 7090SOL     OW32731   2.521   1.446   8.328 -0.5072 -0.0742 -0.0472
 7090SOL    HW132732   2.433   1.461   8.295 -1.2733  1.7057  2.8168
 7090SOL    HW232733   2.568   1.417   8.250  0.8211 -1.7053  1.3493
 7091SOL     OW32734   2.510   0.871   3.148  0.1862  0.1217 -0.0557
 7091SOL    HW132735   2.472   0.820   3.220 -0.1258  0.0057 -0.3023
 7091SOL    HW232736   2.436   0.878   3.087 -0.5090  0.6963  0.8507
 7092SOL     OW32737   1.646   0.794   6.722 -0.1176 -0.5424  0.0744
 7092SOL    HW132738   1.593   0.843   6.785 -1.0113 -1.0038 -0.3211
 7092SOL    HW232739   1.738   0.812   6.742 -0.1624  1.8731 -1.8995
 7093SOL     OW32740   0.236   4.305   2.669  0.5274  0.4555  0.0002
 7093SOL    HW132741   0.252   4.227   2.616  1.2185 -0.3855  1.4720
 7093SOL    HW232742   0.242   4.272   2.758  2.0958 -3.5814 -1.5823
 7094SOL     OW32743   2.743   4.537   4.798  0.4788 -0.1005  0.0914
 7094SOL    HW132744   2.781   4.625   4.805  2.7658 -1.0556 -0.3869
 7094SOL    HW232745   2.785   4.503   4.877  1.7156 -1.9169 -1.3432
 7095SOL     OW32746   0.853   2.308   8.786  0.6339 -0.0256 -0.6472
 7095SOL    HW132747   0.840   2.216   8.811  0.4999  0.5249  1.3609
 7095SOL    HW232748   0.932   2.293   8.734 -1.1180 -0.0310 -3.2968
 7096SOL     OW32749   3.135   2.849   6.800 -0.1938 -0.7289  0.0088
 7096SOL    HW132750   3.191   2.801   6.739  0.1525  1.4864 -1.4168
 7096SOL    HW232751   3.065   2.883   6.745  0.0582 -0.0870  0.0771
 7097SOL     OW32752   2.976   4.600   8.238  0.1298 -0.3296  0.5892
 7097SOL    HW132753   3.033   4.560   8.304  0.4871  0.9378  1.0454
 7097SOL    HW232754   3.001   4.537   8.171 -0.5401  0.3868 -0.3170
 7098SOL     OW32755   0.072   2.200  15.170 -1.1680  0.2137 -0.1529
 7098SOL    HW132756   0.027   2.201  15.085 -0.7771  1.5815 -0.3591
 7098SOL    HW232757   0.053   2.287  15.205 -2.4734 -0.7579  1.5310
 7099SOL     OW32758   3.489   2.765  14.313  0.9956  0.0212  0.4065
 7099SOL    HW132759   3.491   2.685  14.366  0.0796 -1.0978 -1.2464
 7099SOL    HW232760   3.405   2.802  14.341 -1.6345 -4.1684 -2.0025
 7100SOL     OW32761   3.379   1.507   8.471  0.0304  0.0940 -0.5257
 7100SOL    HW132762   3.326   1.586   8.478 -0.1362 -0.4378  4.3410
 7100SOL    HW232763   3.407   1.498   8.562  0.0142  0.5323 -0.4787
 7101SOL     OW32764   2.240   4.163   6.535  0.4892  0.2584  0.2730
 7101SOL    HW132765   2.188   4.166   6.616  0.4759  0.4918  0.2578
 7101SOL    HW232766   2.188   4.213   6.472 -1.6870 -2.5616 -0.1589
 7102SOL     OW32767   4.104   3.755   5.162  0.1195  0.7484 -0.5969
 7102SOL    HW132768   4.031   3.773   5.221 -1.9628  0.2436 -3.0543
 7102SOL    HW232769   4.156   3.834   5.182 -3.5203  2.9353  0.1764
 7103SOL     OW32770   2.302   2.631   0.255 -0.6890  0.0580  0.2518
 7103SOL    HW132771   2.317   2.625   0.350 -0.4497  0.9231  0.2730
 7103SOL    HW232772   2.208   2.613   0.256 -0.3743 -1.6773 -1.5872
 7104SOL     OW32773   1.816   4.476   3.203  0.3455 -0.1631 -0.0033
 7104SOL    HW132774   1.794   4.540   3.135  0.8994  0.0974  0.0612
 7104SOL    HW232775   1.770   4.402   3.163 -1.7408 -0.0794  2.2403
 7105SOL     OW32776   4.040   4.009   0.680 -0.5118  0.2956  0.2822
 7105SOL    HW132777   3.975   4.076   0.658  1.1719  2.1545  0.8990
 7105SOL    HW232778   3.997   3.928   0.652  0.1625 -0.2959  0.9808
 7106SOL     OW32779   4.085   2.502   3.363  0.0391 -0.4234 -0.1080
 7106SOL    HW132780   4.126   2.453   3.291  0.7882  1.2942 -0.8584
 7106SOL    HW232781   4.116   2.592   3.354 -0.8321 -0.2939 -1.8898
 7107SOL     OW32782   4.286   4.034   5.744 -0.3926 -0.3349  0.5844
 7107SOL    HW132783   4.311   3.976   5.816  1.8164  0.1073  0.1820
 7107SOL    HW232784   4.372   4.068   5.720 -2.3774  3.2341 -1.4057
 7108SOL     OW32785   3.515   0.967   9.832 -0.2774 -0.3973  0.5456
 7108SOL    HW132786   3.455   1.031   9.871  0.3763 -0.8667  2.3185
 7108SOL    HW232787   3.484   0.973   9.742 -0.5576 -1.6326  0.5487
 7109SOL     OW32788   2.755   1.408   3.839 -0.5951 -0.0830 -0.0148
 7109SOL    HW132789   2.781   1.324   3.801 -0.8437  0.1978 -0.8174
 7109SOL    HW232790   2.835   1.455   3.864 -1.2302  1.7573 -1.4047
 7110SOL     OW32791   4.324   0.574   1.909  0.0068  0.1662  0.5709
 7110SOL    HW132792   4.289   0.567   1.820 -1.0061 -0.9061  1.0605
 7110SOL    HW232793   4.418   0.584   1.894  0.3531 -2.9673  0.5943
 7111SOL     OW32794   4.215   1.925   6.283  0.0547  0.1247  0.0338
 7111SOL    HW132795   4.149   1.981   6.324 -1.1328 -0.4951 -1.0326
 7111SOL    HW232796   4.293   1.965   6.322  0.2310 -0.7887  0.6095
 7112SOL     OW32797   4.355   4.682   8.555  0.0852  0.3445 -0.0151
 7112SOL    HW132798   4.419   4.666   8.624  0.4874 -0.3506 -0.5391
 7112SOL    HW232799   4.285   4.641   8.605  2.6263 -1.5426  1.9922
 7113SOL     OW32800   4.127   2.335   7.671 -0.2081  0.3013 -0.3166
 7113SOL    HW132801   4.133   2.377   7.585  0.1298 -1.0508 -0.9654
 7113SOL    HW232802   4.178   2.402   7.717 -1.7446  1.5557 -0.4851
 7114SOL     OW32803   0.082   0.225   0.174  0.0383 -0.5659 -0.1651
 7114SOL    HW132804   0.120   0.247   0.089  2.0724 -1.5814  0.4737
 7114SOL    HW232805   0.136   0.152   0.204  0.3342 -0.4180 -0.3488
 7115SOL     OW32806   3.069   3.630   2.232 -0.1744  0.1673 -0.6031
 7115SOL    HW132807   3.013   3.640   2.309  0.0419 -0.7813 -0.3228
 7115SOL    HW232808   3.108   3.717   2.235 -2.2534  1.0112  1.9795
 7116SOL     OW32809   1.341   4.256  12.821 -0.0502 -0.0141  0.1038
 7116SOL    HW132810   1.379   4.192  12.881  0.7157  2.8080  2.6168
 7116SOL    HW232811   1.251   4.223  12.829 -0.3505  0.7883  0.0227
 7117SOL     OW32812   0.199   2.936   1.723 -0.1794 -0.4211  0.7540
 7117SOL    HW132813   0.155   2.956   1.805  0.4278  1.1632  0.6865
 7117SOL    HW232814   0.269   3.000   1.736 -0.8423  0.1916  1.3273
 7118SOL     OW32815   1.225   3.917   6.121 -0.2143  0.4213 -0.5487
 7118SOL    HW132816   1.268   3.833   6.105 -0.0113  0.1245  1.5600
 7118SOL    HW232817   1.179   3.905   6.203  1.0414 -3.5205 -0.4109
 7119SOL     OW32818   0.541   1.956   8.363 -0.2340  0.5615 -0.0263
 7119SOL    HW132819   0.481   1.898   8.317 -3.7271  3.1188  1.2872
 7119SOL    HW232820   0.588   1.998   8.292  1.1791  1.6784  1.5661
 7120SOL     OW32821   1.928   0.118   9.750 -0.0562  0.0806 -0.0398
 7120SOL    HW132822   1.940   0.185   9.817 -0.9721  0.2903 -0.0970
 7120SOL    HW232823   2.001   0.064   9.782  0.9868  1.9668  0.8065
 7121SOL     OW32824   1.442   2.433  15.380 -0.2394  0.2589 -0.1366
 7121SOL    HW132825   1.500   2.419  15.306 -0.5360 -1.1701 -0.1018
 7121SOL    HW232826   1.397   2.517  15.365  1.4938  0.8140 -2.0670
 7122SOL     OW32827   0.123   2.059   8.902 -0.3851  0.6941  0.1275
 7122SOL    HW132828   0.156   2.041   8.815  1.5767 -0.7205  1.1679
 7122SOL    HW232829   0.028   2.044   8.901 -0.6220  2.2457 -1.2309
 7123SOL     OW32830   2.726   2.288  14.793  0.7469  0.2148 -0.7561
 7123SOL    HW132831   2.722   2.196  14.820 -0.5140  0.6025  0.4030
 7123SOL    HW232832   2.796   2.281  14.729  1.6811 -3.1321  0.5842
 7124SOL     OW32833   1.538   2.827   8.438  0.0582  0.1050  0.1118
 7124SOL    HW132834   1.489   2.745   8.426  0.2174  0.1479 -0.8108
 7124SOL    HW232835   1.508   2.844   8.527  0.4325 -0.3394  0.3205
 7125SOL     OW32836   4.692   1.244   8.102 -0.2542  0.6375  0.9122
 7125SOL    HW132837   4.662   1.334   8.113  0.7441  0.8240  2.0968
 7125SOL    HW232838   0.039   1.243   8.038 -2.7829  2.0161 -1.8953
 7126SOL     OW32839   0.474   3.769   2.842  0.0356 -0.2871 -0.0268
 7126SOL    HW132840   0.526   3.724   2.775 -1.1107 -1.2662 -0.2581
 7126SOL    HW232841   0.391   3.723   2.828  1.1392 -2.3480  0.1900
 7127SOL     OW32842   4.693   0.407   7.249 -0.2636 -0.1249 -0.8220
 7127SOL    HW132843   0.022   0.340   7.205  2.1258 -0.1280  2.0744
 7127SOL    HW232844   4.667   0.460   7.174 -2.9769  0.8854  0.8265
 7128SOL     OW32845   1.431   2.916   4.396  0.0205  0.0773 -0.1326
 7128SOL    HW132846   1.516   2.872   4.393 -0.2512 -0.4577 -0.0437
 7128SOL    HW232847   1.386   2.850   4.449  0.4935 -1.0494 -1.1299
 7129SOL     OW32848   0.166   2.305   7.011  0.2999  0.3228  0.1606
 7129SOL    HW132849   0.250   2.315   7.056  1.8524 -1.8159 -2.2653
 7129SOL    HW232850   0.110   2.269   7.080  0.1158  1.5313  0.6405
 7130SOL     OW32851   3.970   3.849   5.893 -0.0150  0.1328  0.6511
 7130SOL    HW132852   4.048   3.794   5.881  0.1798  0.7460 -1.0018
 7130SOL    HW232853   3.983   3.896   5.975  0.1110 -2.4024  2.0721
 7131SOL     OW32854   0.162   0.077   3.719 -0.0372  0.0794  0.0306
 7131SOL    HW132855   0.157   0.161   3.766  1.6440 -0.0350  0.4298
 7131SOL    HW232856   0.176   0.097   3.626 -1.5470  2.5011  0.3272
 7132SOL     OW32857   3.487   0.817  13.986 -0.2459 -0.1090 -0.6155
 7132SOL    HW132858   3.548   0.752  13.953 -0.8900 -0.6254 -0.7770
 7132SOL    HW232859   3.507   0.844  14.076 -1.3920 -0.4100 -0.2840
 7133SOL     OW32860   0.651   1.936  11.610 -0.1347  0.2994  0.1920
 7133SOL    HW132861   0.732   1.900  11.647 -0.0002  0.2856 -0.1158
 7133SOL    HW232862   0.654   1.877  11.534  1.8290 -0.2405  0.6680
 7134SOL     OW32863   0.778   4.198   5.837  0.6599 -0.3286  0.3842
 7134SOL    HW132864   0.708   4.248   5.878 -0.0631 -1.6621  0.7776
 7134SOL    HW232865   0.756   4.195   5.744  2.3904 -0.5366 -0.0111
 7135SOL     OW32866   4.520   1.603   9.926 -0.3025  0.7562  0.7602
 7135SOL    HW132867   4.442   1.555   9.952  0.1948  0.2687  1.3673
 7135SOL    HW232868   4.579   1.534   9.897  0.3980  0.6793  2.3761
 7136SOL     OW32869   2.914   4.653  17.415 -1.0702  0.1390 -0.0811
 7136SOL    HW132870   2.942   4.590  17.482 -2.8682 -1.8875 -1.2328
 7136SOL    HW232871   2.906   4.603  17.334  0.8462  0.2978 -0.3749
 7137SOL     OW32872   1.613   3.022  16.866 -0.1171 -0.1914  0.4746
 7137SOL    HW132873   1.542   3.076  16.830  0.0694 -1.0158 -1.1139
 7137SOL    HW232874   1.633   2.966  16.791  0.8457  1.6711 -0.6480
 7138SOL     OW32875   4.633   0.264   1.613 -0.3932 -0.3078 -0.0688
 7138SOL    HW132876   4.712   0.231   1.570  0.3871  1.3268  0.1279
 7138SOL    HW232877   4.643   0.359   1.604  2.2860 -0.5574  0.3855
 7139SOL     OW32878   0.036   3.694  13.459 -0.0672  0.0698  0.1252
 7139SOL    HW132879   0.113   3.750  13.451  0.6371 -1.2130 -2.1685
 7139SOL    HW232880   0.013   3.702  13.551 -1.0478 -1.8350  0.0583
 7140SOL     OW32881   2.819   4.522   5.285 -0.0845  0.5081  0.1691
 7140SOL    HW132882   2.770   4.585   5.233  1.6235  1.7565  0.0708
 7140SOL    HW232883   2.761   4.516   5.361 -0.0771  0.9023  0.2035
 7141SOL     OW32884   2.638   3.186   9.147 -0.1601 -0.4650 -0.1363
 7141SOL    HW132885   2.709   3.230   9.099 -0.3512  1.1886  1.1100
 7141SOL    HW232886   2.629   3.254   9.213 -0.9721 -0.3972 -0.3250
 7142SOL     OW32887   4.404   0.192   6.709 -0.2302  0.5036  0.3612
 7142SOL    HW132888   4.455   0.187   6.790 -0.5618  1.1864  0.6088
 7142SOL    HW232889   4.361   0.277   6.711 -0.2908  0.4625  0.6906
 7143SOL     OW32890   3.251   0.094  10.238  0.1260  0.6491  0.0548
 7143SOL    HW132891   3.284   0.009  10.209 -0.1671  1.2692 -2.1369
 7143SOL    HW232892   3.333   0.143  10.240 -0.1028  1.0461 -0.2405
 7144SOL     OW32893   3.282   0.451   9.093 -0.2867  0.0601  0.3663
 7144SOL    HW132894   3.192   0.447   9.124 -1.2749 -0.3036 -2.5955
 7144SOL    HW232895   3.331   0.381   9.137  0.8867  0.1135 -0.8287
 7145SOL     OW32896   2.995   0.534   8.949 -0.2571 -0.0856 -0.1597
 7145SOL    HW132897   2.947   0.465   8.902  0.5325 -0.8259  0.1202
 7145SOL    HW232898   3.008   0.492   9.034  1.0864  1.1829  0.2529
 7146SOL     OW32899   1.685   0.210   7.103  0.5708 -0.0235  0.5771
 7146SOL    HW132900   1.632   0.266   7.046 -0.3231  0.0790  1.4950
 7146SOL    HW232901   1.697   0.130   7.052 -2.3093 -0.3269  0.3670
 7147SOL     OW32902   0.227   1.493  16.658 -0.3886 -0.5563 -0.3580
 7147SOL    HW132903   0.150   1.473  16.712  0.6360  0.3048  1.4140
 7147SOL    HW232904   0.269   1.409  16.674  0.5418  0.2809  1.5613
 7148SOL     OW32905   2.546   4.133   8.243 -0.2181 -0.0459 -0.5528
 7148SOL    HW132906   2.573   4.182   8.320 -2.4388  0.5854 -0.1545
 7148SOL    HW232907   2.530   4.051   8.289 -1.4302 -0.0364 -0.9541
 7149SOL     OW32908   3.865   2.657  15.966 -0.1624  0.0491 -0.4074
 7149SOL    HW132909   3.840   2.630  16.055  1.2342 -3.5572 -1.1176
 7149SOL    HW232910   3.905   2.743  15.980 -0.4844  0.3984 -1.7005
 7150SOL     OW32911   4.274   4.368   0.883  0.7077  0.2274  0.3475
 7150SOL    HW132912   4.307   4.281   0.861 -0.8010 -0.7653  1.9808
 7150SOL    HW232913   4.292   4.413   0.801  0.4758  0.2627  0.3152
 7151SOL     OW32914   1.441   1.479   4.503 -0.4355 -0.3907  0.4621
 7151SOL    HW132915   1.386   1.539   4.553 -0.7587 -0.4358  0.1608
 7151SOL    HW232916   1.504   1.453   4.570 -1.0831 -2.6326  0.1949
 7152SOL     OW32917   2.136   4.098   4.984  0.7008  0.0294  0.3179
 7152SOL    HW132918   2.184   4.093   5.067  1.7377 -0.4459 -0.3090
 7152SOL    HW232919   2.185   4.176   4.957 -1.9523  1.8255  0.7903
 7153SOL     OW32920   3.233   0.414   3.921 -0.4513  0.0984 -0.1864
 7153SOL    HW132921   3.238   0.321   3.902 -0.7042 -0.0738  0.6026
 7153SOL    HW232922   3.165   0.396   3.985  1.3166 -1.4128  1.2380
 7154SOL     OW32923   2.881   0.536   5.136  0.2736  0.1382 -0.5417
 7154SOL    HW132924   2.827   0.614   5.147 -0.5149 -0.6931  1.4455
 7154SOL    HW232925   2.957   0.578   5.094 -1.6279  0.7000 -3.4071
 7155SOL     OW32926   3.035   3.051   0.097 -0.6412 -0.2960 -0.3583
 7155SOL    HW132927   2.954   3.081   0.138 -1.2325 -0.3370 -1.4988
 7155SOL    HW232928   3.022   2.957   0.086  0.5750 -0.6608  1.2317
 7156SOL     OW32929   3.655   4.189   8.186 -0.6531 -0.1562 -0.2137
 7156SOL    HW132930   3.658   4.197   8.091  2.0254 -0.6071 -0.1562
 7156SOL    HW232931   3.657   4.095   8.203  2.7825  0.2184  1.3840
 7157SOL     OW32932   3.848   0.760   5.498 -0.1475 -0.0110  0.0773
 7157SOL    HW132933   3.802   0.677   5.489 -1.2823  0.5543  0.7057
 7157SOL    HW232934   3.790   0.820   5.450 -1.4897 -0.7145  0.8298
 7158SOL     OW32935   2.349   0.874  16.171  0.0286  1.1355 -0.0038
 7158SOL    HW132936   2.378   0.821  16.098 -0.4406  0.4141  0.3360
 7158SOL    HW232937   2.256   0.855  16.180 -0.1655  2.1491  0.1734
 7159SOL     OW32938   1.717   2.026   5.205 -0.0401  0.1269  1.0162
 7159SOL    HW132939   1.724   2.098   5.142 -0.9034  1.3727  2.3313
 7159SOL    HW232940   1.723   1.952   5.144 -2.7861 -0.3252  1.2876
 7160SOL     OW32941   1.939   3.398  12.278  0.1076  0.1241  0.2453
 7160SOL    HW132942   1.942   3.430  12.188 -0.6682  0.5671  0.3778
 7160SOL    HW232943   2.003   3.327  12.281 -0.7003 -0.5890  0.3971
 7161SOL     OW32944   3.413   0.883  14.939 -0.0375  0.3133 -0.3685
 7161SOL    HW132945   3.421   0.837  14.856 -0.1463  1.6312 -1.1138
 7161SOL    HW232946   3.456   0.962  14.907 -0.7707  0.2851 -1.4320
 7162SOL     OW32947   1.065   1.507   2.023 -0.2803 -0.3989 -0.2773
 7162SOL    HW132948   0.972   1.486   2.019 -0.6764  0.6536  3.7700
 7162SOL    HW232949   1.063   1.602   2.038 -0.8708 -0.7039  1.5543
 7163SOL     OW32950   3.080   4.104  16.937 -0.0932 -0.5809 -0.1750
 7163SOL    HW132951   3.037   4.189  16.928  1.6041  0.1363 -1.6760
 7163SOL    HW232952   3.090   4.080  16.845 -2.0663 -1.4086 -0.1700
 7164SOL     OW32953   1.276   1.455  11.414  0.7057 -0.2794  0.1743
 7164SOL    HW132954   1.212   1.388  11.391 -0.5746  0.4405  1.6164
 7164SOL    HW232955   1.318   1.457  11.328  2.2850  2.7123  1.0289
 7165SOL     OW32956   0.034   4.438   7.209 -0.6080  0.2670  0.4483
 7165SOL    HW132957   4.696   4.511   7.198  0.4189  1.2511  1.1439
 7165SOL    HW232958   0.051   4.431   7.303  2.9280 -1.1199 -0.3125
 7166SOL     OW32959   0.419   3.038   8.648 -0.0137  0.1853  0.3529
 7166SOL    HW132960   0.345   2.980   8.662  0.2705 -0.4216 -0.7005
 7166SOL    HW232961   0.381   3.117   8.609  0.1144  0.6222  1.1139
 7167SOL     OW32962   3.718   0.035   3.046  0.0648  0.0778 -0.4379
 7167SOL    HW132963   3.639   0.080   3.077  0.0996  0.8562 -1.4576
 7167SOL    HW232964   3.788   0.079   3.094 -1.0366  2.6556 -1.1809
 7168SOL     OW32965   4.357   4.025   5.430 -0.0029 -0.4064 -0.2862
 7168SOL    HW132966   4.307   4.026   5.349 -0.8005  0.5043  0.2095
 7168SOL    HW232967   4.312   4.084   5.490 -1.2549 -0.5194 -1.1107
 7169SOL     OW32968   2.830   1.326  10.809  0.6802  0.8769  0.5434
 7169SOL    HW132969   2.905   1.284  10.853 -0.1830 -1.6547 -0.4157
 7169SOL    HW232970   2.822   1.401  10.868  2.1800  1.5803 -0.1521
 7170SOL     OW32971   3.403   0.030   2.623 -0.3447 -0.4939 -0.6749
 7170SOL    HW132972   3.318   0.059   2.656  1.2945  2.2512  1.0597
 7170SOL    HW232973   3.401   4.660   2.645 -0.0130 -0.3122  0.1213
 7171SOL     OW32974   1.928   2.368   5.716 -0.3164  0.5276  0.5187
 7171SOL    HW132975   1.988   2.326   5.778 -2.1470 -1.1066  1.1963
 7171SOL    HW232976   1.982   2.443   5.694  1.6275 -1.2008 -0.5963
 7172SOL     OW32977   0.570   1.057   6.988 -0.3411 -0.0109  0.5008
 7172SOL    HW132978   0.479   1.069   6.963 -0.5765  0.8691  1.7760
 7172SOL    HW232979   0.569   1.106   7.071 -0.1357 -0.0614  0.5351
 7173SOL     OW32980   1.764   3.394   4.453  0.4774 -0.2838 -0.2930
 7173SOL    HW132981   1.835   3.337   4.425  0.9603 -0.2506  0.8516
 7173SOL    HW232982   1.806   3.457   4.512 -1.3084 -0.0365  0.7103
 7174SOL     OW32983   4.123   3.321   6.092 -0.1115 -0.6824 -0.0171
 7174SOL    HW132984   4.074   3.339   6.011  0.1217 -0.5538 -0.1280
 7174SOL    HW232985   4.206   3.282   6.065 -1.3935 -1.4942 -2.7652
 7175SOL     OW32986   4.552   3.793   3.400 -0.3683  0.2861 -0.2228
 7175SOL    HW132987   4.633   3.791   3.348 -0.7563 -1.7824 -0.7330
 7175SOL    HW232988   4.520   3.706   3.379 -0.9094  0.4178  0.0632
 7176SOL     OW32989   2.722   2.941   7.708 -0.0032 -0.6794  0.1064
 7176SOL    HW132990   2.630   2.963   7.716 -0.3843 -2.4066  0.5744
 7176SOL    HW232991   2.765   3.015   7.751 -1.9386  0.4644  0.0477
 7177SOL     OW32992   0.732   3.870   2.395 -0.0054  0.5187  0.4280
 7177SOL    HW132993   0.797   3.913   2.339  0.3423  1.6168  1.6731
 7177SOL    HW232994   0.771   3.792   2.433  0.4067  0.3998 -0.2425
 7178SOL     OW32995   1.349   4.585  15.181  0.1224 -0.3771  0.1504
 7178SOL    HW132996   1.323   4.494  15.188 -0.3992 -0.3481 -1.4700
 7178SOL    HW232997   1.275   4.621  15.132 -1.1393  0.5453  2.7735
 7179SOL     OW32998   2.426   3.436   8.811  0.9162  0.2923 -0.4911
 7179SOL    HW132999   2.494   3.455   8.876  1.1108 -0.3860 -0.4949
 7179SOL    HW233000   2.357   3.489   8.850  0.4537  0.1214 -1.0900
 7180SOL     OW33001   3.723   0.415   4.447 -0.1776 -0.0278  0.5467
 7180SOL    HW133002   3.706   0.380   4.360 -0.8851 -0.3937  0.8355
 7180SOL    HW233003   3.796   0.476   4.432  1.1012 -1.6779  0.0243
 7181SOL     OW33004   0.193   2.705  12.923  0.1797  0.0593  0.1443
 7181SOL    HW133005   0.177   2.657  12.842  0.9272 -0.7071  0.4460
 7181SOL    HW233006   0.269   2.753  12.892  0.0027  0.3254  0.1263
 7182SOL     OW33007   1.366   2.354   8.704  0.3003  0.0447 -0.6715
 7182SOL    HW133008   1.422   2.330   8.777  0.5393  0.6725 -0.6443
 7182SOL    HW233009   1.417   2.382   8.628  0.4020  1.0127 -0.2561
 7183SOL     OW33010   3.302   0.591   2.518 -0.1115 -0.5422 -0.1313
 7183SOL    HW133011   3.337   0.607   2.431  1.5823 -1.9629  0.2775
 7183SOL    HW233012   3.317   0.497   2.527  0.3598 -0.4787 -0.2168
 7184SOL     OW33013   1.082   1.065   4.712 -0.0631 -0.3036  0.3117
 7184SOL    HW133014   1.060   0.990   4.657 -2.7723 -0.8485  2.1374
 7184SOL    HW233015   1.138   1.024   4.779 -1.5524 -1.6397  0.7374
 7185SOL     OW33016   1.899   3.179   3.585 -0.8468 -0.5492 -0.2961
 7185SOL    HW133017   1.828   3.177   3.520  0.3112  0.4439 -1.5992
 7185SOL    HW233018   1.934   3.092   3.569 -0.5097 -0.4081 -0.3357
 7186SOL     OW33019   4.387   4.181   1.786  0.0674 -0.0558  0.4570
 7186SOL    HW133020   4.407   4.090   1.808  0.1271 -0.5338 -1.6069
 7186SOL    HW233021   4.474   4.218   1.772 -0.4238  1.2152  0.7499
 7187SOL     OW33022   0.151   0.279   6.258 -0.4405 -0.0870  0.1387
 7187SOL    HW133023   0.119   0.329   6.333 -0.5981  0.5505 -0.3524
 7187SOL    HW233024   0.169   0.194   6.298  0.6035 -0.5882 -1.3883
 7188SOL     OW33025   0.956   1.889   6.418 -0.5164  0.0117 -0.1909
 7188SOL    HW133026   1.004   1.808   6.402  0.7373  0.4643  1.2980
 7188SOL    HW233027   0.900   1.899   6.341  0.2357 -1.3375 -0.9093
 7189SOL     OW33028   3.113   0.872   7.908  0.1088  0.5010 -0.0551
 7189SOL    HW133029   3.205   0.880   7.931  0.8401 -1.0531 -2.4363
 7189SOL    HW233030   3.075   0.926   7.977  1.1323 -0.7241  1.4886
 7190SOL     OW33031   2.966   0.659  11.102 -0.1486 -0.1106  0.2740
 7190SOL    HW133032   2.924   0.667  11.016  1.3019  1.0281 -0.3265
 7190SOL    HW233033   3.050   0.704  11.088 -0.9671  1.6299  0.9652
 7191SOL     OW33034   4.046   0.689   0.428 -0.2904 -0.0536 -0.0646
 7191SOL    HW133035   4.111   0.754   0.398  1.8639 -1.9721  0.4396
 7191SOL    HW233036   3.999   0.756   0.478  1.6643  1.9750 -0.9104
 7192SOL     OW33037   0.786   1.299  10.868  0.4176  0.0317 -0.1070
 7192SOL    HW133038   0.697   1.333  10.878  0.1454 -0.8207  0.3458
 7192SOL    HW233039   0.828   1.379  10.837 -4.0519  1.5786 -2.1211
 7193SOL     OW33040   0.837   0.530   1.256  0.6009  0.1254 -0.3310
 7193SOL    HW133041   0.863   0.613   1.296  1.0177  0.3576 -1.0852
 7193SOL    HW233042   0.908   0.477   1.294 -0.0857  0.2256  1.0891
 7194SOL     OW33043   4.721   3.722   8.256  0.0725 -0.3335  0.3515
 7194SOL    HW133044   0.077   3.733   8.206  1.0020  2.0135  2.3159
 7194SOL    HW233045   4.702   3.808   8.295 -0.0597  0.2544 -1.0110
 7195SOL     OW33046   2.646   2.278   7.198 -0.0904  0.1083 -0.2953
 7195SOL    HW133047   2.689   2.226   7.266 -0.6117 -0.8341 -0.6779
 7195SOL    HW233048   2.649   2.366   7.235 -2.4081  0.3117 -0.5940
 7196SOL     OW33049   4.536   2.496   5.801 -0.1022  0.4739  0.5115
 7196SOL    HW133050   4.525   2.448   5.883 -0.2670  2.2849  1.5440
 7196SOL    HW233051   4.586   2.431   5.752  0.2504  1.0463  0.1186
 7197SOL     OW33052   4.287   4.698   3.302 -0.2899  0.1804 -0.4436
 7197SOL    HW133053   4.341   0.022   3.238  1.9151  0.2731  1.4637
 7197SOL    HW233054   4.300   4.605   3.284 -1.2452 -0.1511  0.6408
 7198SOL     OW33055   4.586   1.012   5.759  0.1306 -0.2320  0.3177
 7198SOL    HW133056   4.516   1.074   5.783  0.3378  0.2951 -0.4375
 7198SOL    HW233057   4.605   1.038   5.669 -1.0916  1.9942  0.6943
 7199SOL     OW33058   3.940   4.038   7.167 -0.0957  0.2406 -0.1305
 7199SOL    HW133059   3.847   4.059   7.157 -0.1811 -0.4565 -0.8928
 7199SOL    HW233060   3.952   4.024   7.260  0.1737 -0.0100 -0.2047
 7200SOL     OW33061   1.783   3.102   2.139  0.1972  0.7122  0.1445
 7200SOL    HW133062   1.782   3.145   2.053  0.0938  1.0046  0.2942
 7200SOL    HW233063   1.698   3.059   2.129 -0.4847  2.1611 -0.2355
 7201SOL     OW33064   4.596   1.549  12.967  0.5823 -0.0209  0.3967
 7201SOL    HW133065   4.516   1.600  12.973 -1.6380 -3.6059  1.3310
 7201SOL    HW233066   4.563   1.461  12.986  2.7833 -0.8077  0.5877
 7202SOL     OW33067   1.444   3.338   3.818 -0.0940  0.4105 -0.7351
 7202SOL    HW133068   1.510   3.288   3.769 -0.9246 -1.1993 -0.2075
 7202SOL    HW233069   1.394   3.268   3.859 -0.1780  0.5078 -0.6742
 7203SOL     OW33070   0.364   3.901   5.624 -0.2908 -0.5218 -0.2671
 7203SOL    HW133071   0.351   3.807   5.611  1.0178 -1.1608  3.1765
 7203SOL    HW233072   0.438   3.911   5.684 -0.1671 -1.6848 -0.2152
 7204SOL     OW33073   1.077   4.397   5.210  0.4079  0.0573  0.0218
 7204SOL    HW133074   1.006   4.334   5.198  0.9292 -0.1837 -1.8254
 7204SOL    HW233075   1.039   4.447   5.282  0.9254 -0.0861  0.3920
 7205SOL     OW33076   4.366   4.384   9.542  0.5485 -0.5139 -0.3474
 7205SOL    HW133077   4.389   4.380   9.635 -2.7317 -0.9196  0.4659
 7205SOL    HW233078   4.423   4.455   9.514 -0.3589  1.3857  2.6494
 7206SOL     OW33079   0.313   0.849   3.284  0.1481 -0.0099 -0.4807
 7206SOL    HW133080   0.250   0.869   3.215 -0.4924 -1.4068 -0.2992
 7206SOL    HW233081   0.334   0.759   3.259  0.0097 -0.1054 -0.2427
 7207SOL     OW33082   2.801   1.156   3.345 -0.3074  0.2369  0.5597
 7207SOL    HW133083   2.716   1.172   3.305  0.0998 -0.6385 -0.6276
 7207SOL    HW233084   2.772   1.120   3.429  0.1569  0.8460  0.9857
 7208SOL     OW33085   3.051   3.016   3.167 -0.2751 -0.1331 -0.1282
 7208SOL    HW133086   3.136   3.015   3.123 -1.3410  1.1533 -2.2570
 7208SOL    HW233087   2.984   3.015   3.098 -2.7887 -0.7488  2.3297
 7209SOL     OW33088   1.020   1.312  15.548  0.6087  0.0085 -0.0230
 7209SOL    HW133089   0.986   1.273  15.467 -0.3463  0.6009  0.0946
 7209SOL    HW233090   1.094   1.258  15.577  1.2096  0.0167 -1.5285
 7210SOL     OW33091   1.408   3.349  11.146 -0.9752  0.0483  0.4131
 7210SOL    HW133092   1.399   3.258  11.175 -2.0179  0.4785  1.4204
 7210SOL    HW233093   1.314   3.363  11.133 -0.8351  0.4008 -0.2555
 7211SOL     OW33094   2.256   2.279   4.410 -0.2172 -0.0062 -0.5292
 7211SOL    HW133095   2.256   2.201   4.465  0.5363 -1.0289 -1.9818
 7211SOL    HW233096   2.316   2.338   4.456 -1.2094  1.4828 -1.1425
 7212SOL     OW33097   2.175   4.456   3.348 -0.3349 -0.5701 -0.0485
 7212SOL    HW133098   2.196   4.365   3.371  2.2281  0.8930  3.3936
 7212SOL    HW233099   2.264   4.488   3.334 -1.9301  3.4536 -0.8740
 7213SOL     OW33100   3.150   1.111   4.392  0.0397 -0.0920 -0.3916
 7213SOL    HW133101   3.206   1.131   4.317  0.9929 -0.6697  0.1551
 7213SOL    HW233102   3.192   1.156   4.465 -1.1521 -1.7222  1.3116
 7214SOL     OW33103   1.461   3.572   1.561  0.4241 -0.1221 -0.0891
 7214SOL    HW133104   1.464   3.663   1.588 -0.3825 -0.2638  0.4831
 7214SOL    HW233105   1.530   3.542   1.620  1.9833  1.5836 -1.0385
 7215SOL     OW33106   3.410   0.716   4.627  0.4730  0.5537  0.1427
 7215SOL    HW133107   3.444   0.805   4.617  0.6392  0.4850  0.0864
 7215SOL    HW233108   3.489   0.666   4.650  0.2733  0.3341  0.3637
 7216SOL     OW33109   0.435   1.959   5.847  0.3381 -0.0280 -0.5787
 7216SOL    HW133110   0.463   2.049   5.861  2.7076 -0.5455 -2.1015
 7216SOL    HW233111   0.493   1.916   5.784 -0.7831 -0.1823 -1.5049
 7217SOL     OW33112   1.888   4.418   7.608 -0.5916 -0.1853  0.0072
 7217SOL    HW133113   1.854   4.508   7.598  0.3857  0.0021 -1.6394
 7217SOL    HW233114   1.895   4.417   7.703 -2.0954 -3.2045  0.0859
 7218SOL     OW33115   2.529   1.715   9.353 -0.3606 -0.0952 -0.1774
 7218SOL    HW133116   2.458   1.653   9.370  0.4551 -1.4679 -1.6922
 7218SOL    HW233117   2.498   1.766   9.278 -1.5576  2.3335  1.9551
 7219SOL     OW33118   3.667   1.818  12.386 -0.2234 -0.4252  0.1835
 7219SOL    HW133119   3.747   1.775  12.357 -1.1517 -2.7585  1.1224
 7219SOL    HW233120   3.614   1.794  12.310  1.2084  1.9815 -1.5995
 7220SOL     OW33121   0.874   3.705   0.709 -0.0660 -0.0557 -0.0428
 7220SOL    HW133122   0.949   3.659   0.671 -0.3849  0.0740 -0.8198
 7220SOL    HW233123   0.802   3.645   0.689  0.2399  0.5597 -2.9740
 7221SOL     OW33124   2.745   3.510   4.576 -0.2951 -0.4398 -0.3256
 7221SOL    HW133125   2.821   3.525   4.520  0.0646 -1.3136 -0.0823
 7221SOL    HW233126   2.765   3.432   4.628  1.1147 -0.5778 -1.0730
 7222SOL     OW33127   4.514   0.143  14.132 -0.0845  0.1564  0.0497
 7222SOL    HW133128   4.487   0.121  14.043  0.4507 -3.4297  0.7904
 7222SOL    HW233129   4.427   0.161  14.167 -0.7534  0.0095 -1.5690
 7223SOL     OW33130   2.240   2.284   3.107 -0.4667 -0.0260  0.0118
 7223SOL    HW133131   2.317   2.238   3.140 -1.9926 -1.3635  1.6931
 7223SOL    HW233132   2.253   2.371   3.144  2.0598  0.2680 -1.5708
 7224SOL     OW33133   1.740   2.496   8.043 -0.0755  0.2955 -0.2880
 7224SOL    HW133134   1.715   2.491   8.136 -0.5975  0.2157 -0.4284
 7224SOL    HW233135   1.818   2.550   8.045  0.7762 -0.9166 -1.3619
 7225SOL     OW33136   3.187   2.696   5.344  0.1067  0.7815  0.5814
 7225SOL    HW133137   3.189   2.689   5.249 -0.7483 -1.6569  0.7531
 7225SOL    HW233138   3.223   2.611   5.369 -0.6604  0.6458  1.2474
 7226SOL     OW33139   4.356   0.093  10.518 -0.2279 -0.3268 -0.2520
 7226SOL    HW133140   4.416   0.162  10.545 -0.6929 -0.6244  1.5234
 7226SOL    HW233141   4.282   0.149  10.494  1.0758  0.9177 -1.3505
 7227SOL     OW33142   0.900   1.534  10.802  0.2170 -0.4601 -0.0924
 7227SOL    HW133143   0.921   1.549  10.894  0.1798 -0.1402 -0.1359
 7227SOL    HW233144   0.979   1.493  10.767  0.5701 -1.4808  1.8585
 7228SOL     OW33145   1.469   2.710   7.840  0.7526  0.3233  0.1268
 7228SOL    HW133146   1.506   2.623   7.855 -0.3725 -0.1024  0.4376
 7228SOL    HW233147   1.550   2.762   7.834  0.4258  0.7453 -0.7242
 7229SOL     OW33148   1.391   4.041   8.354  0.7450  0.1797  0.4700
 7229SOL    HW133149   1.333   4.117   8.362  1.6137  1.4268 -4.7473
 7229SOL    HW233150   1.479   4.075   8.338  0.7027 -0.0145 -0.1738
 7230SOL     OW33151   2.581   1.769   3.643 -0.0935 -0.2832  0.5602
 7230SOL    HW133152   2.637   1.697   3.613  0.3227  0.4621 -0.4648
 7230SOL    HW233153   2.536   1.780   3.559  0.2979 -0.3031  0.3448
 7231SOL     OW33154   4.640   2.327  15.007  0.0088  0.1562  0.3133
 7231SOL    HW133155   4.641   2.389  15.080 -1.6892  1.8066 -1.0510
 7231SOL    HW233156   4.561   2.281  15.036 -1.5874  2.6666 -0.0818
 7232SOL     OW33157   0.690   4.645  10.021 -0.1629  0.0847 -0.3423
 7232SOL    HW133158   0.764   4.601  10.063  0.4062 -0.5789 -2.0193
 7232SOL    HW233159   0.635   4.566  10.024  0.1972 -0.1732 -0.5180
 7233SOL     OW33160   3.350   0.126   8.054 -0.1627 -0.1802  0.3664
 7233SOL    HW133161   3.361   0.051   7.995 -0.4842 -1.1308  1.5127
 7233SOL    HW233162   3.428   0.127   8.109 -0.4981  2.4809  0.8007
 7234SOL     OW33163   3.996   1.891   2.593  0.3019 -0.0378  0.5093
 7234SOL    HW133164   3.985   1.815   2.536 -0.7366  1.7916 -1.7498
 7234SOL    HW233165   4.088   1.901   2.615  0.3671  0.5482  0.0023
 7235SOL     OW33166   0.555   1.816   6.968  0.8232 -0.4282 -0.2023
 7235SOL    HW133167   0.623   1.754   6.941  0.2931 -0.7027 -0.8959
 7235SOL    HW233168   0.593   1.897   6.934  0.3579  0.5293  1.5969
 7236SOL     OW33169   3.768   1.034   1.466  0.2964 -0.6360 -0.0547
 7236SOL    HW133170   3.859   1.041   1.438  0.2691 -0.8894 -0.2110
 7236SOL    HW233171   3.766   0.940   1.480 -0.9791 -0.6850 -0.5262
 7237SOL     OW33172   1.853   0.202   1.291 -0.2555 -0.3282 -0.2220
 7237SOL    HW133173   1.941   0.187   1.256  0.1893  1.2877  0.2344
 7237SOL    HW233174   1.873   0.169   1.379 -0.3173  3.4630  1.1818
 7238SOL     OW33175   3.412   2.577   2.880 -0.3454 -0.0084  0.2589
 7238SOL    HW133176   3.416   2.506   2.944 -1.0968 -0.3173 -0.0330
 7238SOL    HW233177   3.499   2.617   2.877 -0.4383  0.1419 -0.3811
 7239SOL     OW33178   1.551   3.023   9.831 -0.0190  0.1872 -0.0578
 7239SOL    HW133179   1.527   3.070   9.751 -0.8943  0.0529  0.1248
 7239SOL    HW233180   1.638   2.988   9.808 -2.0626 -3.4597 -2.2484
 7240SOL     OW33181   3.190   4.073   1.754  0.2007  0.6403  0.4717
 7240SOL    HW133182   3.231   3.994   1.791 -0.6221 -1.3479 -2.7853
 7240SOL    HW233183   3.109   4.087   1.803 -0.5549 -0.7146 -0.3872
 7241SOL     OW33184   2.813   4.471  12.096 -0.5153  0.0168 -0.4241
 7241SOL    HW133185   2.904   4.488  12.117 -0.2022  0.1401 -1.8847
 7241SOL    HW233186   2.768   4.503  12.175 -0.6547  0.0658 -0.5235
 7242SOL     OW33187   0.403   1.742  16.630  0.1394  0.1000 -0.7428
 7242SOL    HW133188   0.394   1.647  16.628  1.3904 -0.0026 -2.0076
 7242SOL    HW233189   0.335   1.766  16.692 -0.5862  0.6953 -1.7658
 7243SOL     OW33190   0.543   0.796  15.773  0.5069 -0.4193 -0.2832
 7243SOL    HW133191   0.615   0.845  15.732 -0.0858  2.1865  1.8704
 7243SOL    HW233192   0.497   0.763  15.696  1.3422 -3.4205  0.5071
 7244SOL     OW33193   3.047   4.553   2.499  0.6276  0.3139  0.1544
 7244SOL    HW133194   2.969   4.512   2.462 -1.0342 -0.1624  4.2968
 7244SOL    HW233195   3.017   4.643   2.506  1.1171  0.7329 -2.8698
 7245SOL     OW33196   3.768   1.169   8.234  0.5396 -0.1350  0.0102
 7245SOL    HW133197   3.844   1.124   8.197 -0.4094 -0.7017 -1.2368
 7245SOL    HW233198   3.700   1.104   8.215 -1.0552  0.7924  2.6177
 7246SOL     OW33199   3.802   2.667  13.006  0.6362  0.3976  0.2305
 7246SOL    HW133200   3.785   2.730  12.936  1.4147  2.1657  1.6373
 7246SOL    HW233201   3.724   2.676  13.060  0.3266 -0.2818 -0.0978
 7247SOL     OW33202   4.612   2.741   7.662  0.2430  0.6191  0.2148
 7247SOL    HW133203   4.702   2.714   7.676  0.2546  1.3592  1.5342
 7247SOL    HW233204   4.583   2.690   7.586  4.0100 -0.5604 -0.4374
 7248SOL     OW33205   2.207   4.535  17.638 -0.0157  0.8643  0.4727
 7248SOL    HW133206   2.184   4.501  17.551 -1.3026  0.8836  0.8129
 7248SOL    HW233207   2.205   4.456  17.691  1.2901 -1.6232 -3.1349
 7249SOL     OW33208   0.524   3.082  11.990  0.0080 -0.3445  0.3768
 7249SOL    HW133209   0.597   3.110  11.935  1.2711 -0.8277  1.8076
 7249SOL    HW233210   0.470   3.049  11.919  1.5152 -1.9792 -0.0060
 7250SOL     OW33211   1.072   3.431   6.703 -0.6737 -0.6749  0.3349
 7250SOL    HW133212   0.980   3.411   6.683 -1.0405  0.5635  0.8126
 7250SOL    HW233213   1.086   3.373   6.778  0.1577 -0.3528  0.4257
 7251SOL     OW33214   2.046   3.330  13.601  0.0576  0.0054  0.6246
 7251SOL    HW133215   2.089   3.248  13.576 -0.0075  0.6698 -1.6915
 7251SOL    HW233216   1.998   3.360  13.524 -0.6757 -0.1357  1.0200
 7252SOL     OW33217   1.279   3.095   6.894 -0.6564  0.6112 -0.1468
 7252SOL    HW133218   1.343   3.058   6.834 -1.3657 -0.9098  0.0504
 7252SOL    HW233219   1.316   3.183   6.906  1.4660 -0.2355 -0.5297
 7253SOL     OW33220   3.482   0.387   6.350  0.4417  0.1544 -0.3285
 7253SOL    HW133221   3.557   0.338   6.383  0.8938  1.1973  0.2117
 7253SOL    HW233222   3.431   0.322   6.302 -0.8914  0.4424  0.6741
 7254SOL     OW33223   4.719   1.211   2.705 -0.4487  0.1478 -0.0467
 7254SOL    HW133224   0.065   1.258   2.660  0.3040  0.2787  1.2684
 7254SOL    HW233225   0.015   1.118   2.696  2.5912  0.8799 -0.8942
 7255SOL     OW33226   2.959   3.290   8.005  0.0884  0.1830 -0.4250
 7255SOL    HW133227   2.910   3.330   8.077 -1.7245 -0.8850 -1.0681
 7255SOL    HW233228   3.044   3.333   8.020 -0.4659  0.3704  2.1185
 7256SOL     OW33229   0.082   2.728  10.327  0.7246  0.1122  0.1852
 7256SOL    HW133230   0.071   2.711  10.233  3.8588 -2.8925  0.3488
 7256SOL    HW233231   0.057   2.641  10.359  1.4542 -0.4049 -0.6492
 7257SOL     OW33232   4.243   2.901   4.985  0.1572  0.3118  0.0425
 7257SOL    HW133233   4.190   2.824   5.005 -0.8552  0.1318 -3.4962
 7257SOL    HW233234   4.253   2.944   5.070  0.0177 -0.4930  0.4674
 7258SOL     OW33235   2.971   0.598   6.305 -0.2486 -0.2948 -0.0820
 7258SOL    HW133236   3.066   0.613   6.308 -0.0138 -1.7908  0.2352
 7258SOL    HW233237   2.956   0.575   6.214 -2.2621 -0.6840  0.3537
 7259SOL     OW33238   3.491   3.852   0.465 -0.0379  0.7866  0.9543
 7259SOL    HW133239   3.482   3.885   0.554  0.3926  1.0278  0.9079
 7259SOL    HW233240   3.429   3.780   0.471  0.7751  0.1922  2.1387
 7260SOL     OW33241   4.271   0.439  17.167  0.0073 -0.5396  0.1938
 7260SOL    HW133242   4.200   0.499  17.191  0.5494  0.2215 -0.1123
 7260SOL    HW233243   4.283   0.446  17.072  1.1697  0.3616  0.4089
 7261SOL     OW33244   4.440   2.187   7.443 -0.2931  0.1807 -0.0613
 7261SOL    HW133245   4.484   2.107   7.472  0.0796  0.5924  0.5135
 7261SOL    HW233246   4.421   2.236   7.523  0.7710  2.0853 -0.9772
 7262SOL     OW33247   3.791   2.072   8.798 -0.1083 -0.4238 -0.5288
 7262SOL    HW133248   3.721   2.008   8.810  0.8276 -1.2057  0.8417
 7262SOL    HW233249   3.861   2.006   8.789 -0.6727 -1.4759  2.5742
 7263SOL     OW33250   1.379   4.649   3.552  0.3038  0.2718  0.0578
 7263SOL    HW133251   1.357   4.617   3.639  0.7041  0.8071  0.3573
 7263SOL    HW233252   1.475   4.649   3.558  0.1356 -0.7306  2.4735
 7264SOL     OW33253   2.770   2.336  12.671  0.5620 -0.1700  0.2822
 7264SOL    HW133254   2.697   2.386  12.708  0.0093 -1.0214  0.3324
 7264SOL    HW233255   2.834   2.355  12.740 -1.4435  0.1607  2.0744
 7265SOL     OW33256   3.259   2.642   7.686  0.1562  0.2447  0.2364
 7265SOL    HW133257   3.325   2.583   7.723  0.0589 -1.2514 -1.9943
 7265SOL    HW233258   3.279   2.728   7.723  0.1500  0.2089  0.3248
 7266SOL     OW33259   2.845   3.212   7.189  0.0753 -0.1657  0.0570
 7266SOL    HW133260   2.825   3.119   7.189  1.4035 -0.4539 -2.4596
 7266SOL    HW233261   2.843   3.226   7.094 -0.9685  1.1498  0.2561
 7267SOL     OW33262   4.706   3.434   3.819 -0.3868 -0.5624  0.1169
 7267SOL    HW133263   4.697   3.429   3.724 -3.9069 -0.4832  0.4648
 7267SOL    HW233264   4.647   3.361   3.839 -2.0629  0.8923  0.3785
 7268SOL     OW33265   3.696   1.828   8.894 -0.0795 -0.0789  0.4627
 7268SOL    HW133266   3.776   1.810   8.844 -0.0447  2.0825 -0.2807
 7268SOL    HW233267   3.721   1.808   8.984 -0.8734 -1.9707  0.2531
 7269SOL     OW33268   3.024   2.633  13.941  0.1838  0.1911 -0.1437
 7269SOL    HW133269   3.021   2.568  13.871  0.1467  1.6931 -1.5458
 7269SOL    HW233270   2.941   2.613  13.983  0.9765 -0.8158  0.9504
 7270SOL     OW33271   3.268   2.938   2.987 -0.2576 -0.4202  0.1568
 7270SOL    HW133272   3.208   2.871   2.955 -1.7586  0.7796  0.4940
 7270SOL    HW233273   3.258   3.004   2.920 -0.0913  1.1597  1.6935
 7271SOL     OW33274   3.224   1.626  16.903 -0.0771 -0.3075  0.0692
 7271SOL    HW133275   3.213   1.684  16.979  1.3690  0.3162 -0.1952
 7271SOL    HW233276   3.319   1.616  16.895  0.1820  2.0021  0.3110
 7272SOL     OW33277   1.031   0.636   8.536 -0.3360 -0.2846 -0.7415
 7272SOL    HW133278   0.941   0.612   8.513 -0.1662 -2.4395  0.8579
 7272SOL    HW233279   1.076   0.573   8.479  0.5420  0.2813 -0.6685
 7273SOL     OW33280   0.308   2.546   4.374  0.4368 -0.3652 -0.3757
 7273SOL    HW133281   0.242   2.495   4.327 -0.7644 -0.1024  1.0210
 7273SOL    HW233282   0.331   2.604   4.301 -0.9547  0.0433 -0.5086
 7274SOL     OW33283   2.133   2.051  14.035  0.3017 -0.0032  0.0111
 7274SOL    HW133284   2.217   2.099  14.030  1.5134 -1.9683  1.8394
 7274SOL    HW233285   2.117   2.057  13.941  0.8488 -0.1793 -0.0971
 7275SOL     OW33286   4.268   1.763   8.819  0.3044 -0.1223 -0.6918
 7275SOL    HW133287   4.364   1.761   8.813  0.4115  2.0022  0.1920
 7275SOL    HW233288   4.241   1.745   8.729  1.1369 -1.5756 -0.6492
 7276SOL     OW33289   4.222   3.982   6.296  0.6519 -0.7469  0.0257
 7276SOL    HW133290   4.179   3.913   6.247  1.8872  0.8343 -3.3205
 7276SOL    HW233291   4.288   3.928   6.340  2.6059  0.6838 -1.1803
 7277SOL     OW33292   2.127   1.926   9.128  0.1410  0.0767 -0.1105
 7277SOL    HW133293   2.193   1.995   9.120  2.2909 -2.0628 -1.1517
 7277SOL    HW233294   2.075   1.928   9.048  0.3236 -0.1724 -0.2367
 7278SOL     OW33295   0.756   2.151   4.534  0.2182  0.1304 -0.1710
 7278SOL    HW133296   0.684   2.163   4.595  0.4880  3.1463 -0.4588
 7278SOL    HW233297   0.715   2.193   4.458 -1.1585  2.6373  1.9358
 7279SOL     OW33298   3.195   3.108   3.964 -0.1628  0.5394 -0.7072
 7279SOL    HW133299   3.261   3.065   3.909 -0.4478  0.1934 -0.7811
 7279SOL    HW233300   3.141   3.039   4.002  2.8285 -0.9318  0.8860
 7280SOL     OW33301   2.415   1.962   3.774  0.3083  0.0274 -0.0249
 7280SOL    HW133302   2.322   1.937   3.777  0.1081  0.7791  0.1294
 7280SOL    HW233303   2.444   1.881   3.732  0.3404  0.6382 -1.1796
 7281SOL     OW33304   4.582   3.662   8.833 -0.1815  0.3804  0.0193
 7281SOL    HW133305   4.522   3.589   8.819 -0.7390  0.5937  1.3237
 7281SOL    HW233306   4.558   3.685   8.923 -0.7845  1.1722 -0.3465
 7282SOL     OW33307   0.100   3.098   7.036  0.4819  0.0853 -0.4944
 7282SOL    HW133308   0.141   3.182   7.058 -1.7674  0.5978  1.7895
 7282SOL    HW233309   0.038   3.128   6.970  0.7216  1.9267  0.1242
 7283SOL     OW33310   3.757   2.205   8.526 -0.2996  0.1472  0.1197
 7283SOL    HW133311   3.844   2.241   8.512 -0.3827  0.2830 -0.0432
 7283SOL    HW233312   3.771   2.153   8.606  0.1508  1.9564  1.2280
 7284SOL     OW33313   3.422   0.026   0.745 -0.2621 -0.5726  0.2133
 7284SOL    HW133314   3.372   0.019   0.827 -1.5579  2.4036 -0.3129
 7284SOL    HW233315   3.501   4.699   0.762  1.7119  2.6411  0.6921
 7285SOL     OW33316   2.749   3.675   7.219 -0.1284 -0.3212  0.6045
 7285SOL    HW133317   2.830   3.725   7.231  0.4960 -1.6082  1.7070
 7285SOL    HW233318   2.785   3.593   7.253  1.2361 -1.1805 -2.7992
 7286SOL     OW33319   2.062   1.175  14.792 -0.4933 -0.0450  0.1720
 7286SOL    HW133320   2.080   1.221  14.874 -0.9868  1.8979 -0.7996
 7286SOL    HW233321   2.102   1.240  14.734 -1.1931 -0.9717 -1.3569
 7287SOL     OW33322   3.049   4.333   0.393  0.2060  0.0507 -0.3097
 7287SOL    HW133323   3.000   4.343   0.312 -0.0361 -0.4487 -0.2268
 7287SOL    HW233324   3.134   4.308   0.357  0.1759 -0.7989  0.2060
 7288SOL     OW33325   2.493   3.367  15.742  0.1821  0.0988 -0.1245
 7288SOL    HW133326   2.407   3.406  15.761 -0.2563 -1.1099  0.3841
 7288SOL    HW233327   2.502   3.307  15.816 -1.0221  1.8324  1.4520
 7289SOL     OW33328   2.019   4.256  15.663 -0.0147 -0.2517 -0.3175
 7289SOL    HW133329   2.031   4.257  15.568 -3.7446  1.2801 -0.7641
 7289SOL    HW233330   2.030   4.163  15.685  1.5179 -0.0675 -0.2582
 7290SOL     OW33331   0.031   0.046   8.467 -0.6100 -0.0307  0.0770
 7290SOL    HW133332   0.087   0.009   8.536  0.4114  0.0277 -0.7277
 7290SOL    HW233333   4.695   4.700   8.439  0.4827 -1.1935  0.6290
 7291SOL     OW33334   0.433   2.730  13.854 -0.4389  0.8437  0.0257
 7291SOL    HW133335   0.435   2.693  13.766  1.1226 -0.9688  0.8085
 7291SOL    HW233336   0.358   2.789  13.849 -0.8340  0.2555 -1.0559
 7292SOL     OW33337   4.160   3.817  12.498 -0.1443 -1.0555  0.1480
 7292SOL    HW133338   4.182   3.776  12.582 -0.4938 -1.1630  0.1874
 7292SOL    HW233339   4.249   3.846  12.483  0.4727 -1.5497  2.7605
 7293SOL     OW33340   2.238   1.065   3.669  0.0101  0.2312 -0.0515
 7293SOL    HW133341   2.143   1.059   3.686  0.5735 -2.1156  2.2719
 7293SOL    HW233342   2.254   1.008   3.593 -0.5735 -1.4525  1.0855
 7294SOL     OW33343   1.392   0.875   2.733 -0.4261  0.0024  0.3440
 7294SOL    HW133344   1.405   0.860   2.827 -0.4983 -2.4427 -0.0376
 7294SOL    HW233345   1.432   0.962   2.729 -0.4154 -0.0449 -0.6584
 7295SOL     OW33346   3.573   0.180   8.476  0.1906 -0.5306 -0.3327
 7295SOL    HW133347   3.632   0.245   8.513 -0.3167 -0.5556  0.5220
 7295SOL    HW233348   3.495   0.225   8.508  0.7684  0.4474 -0.3211
 7296SOL     OW33349   2.778   2.998   2.473 -0.3650  0.1848 -0.5995
 7296SOL    HW133350   2.733   2.914   2.461  1.3820 -0.4694 -2.6851
 7296SOL    HW233351   2.866   2.975   2.443 -0.5834  0.2113 -1.2828
 7297SOL     OW33352   4.422   0.151   9.134 -0.3573 -0.2761 -0.3130
 7297SOL    HW133353   4.507   0.140   9.090 -0.7835  1.2749 -1.5273
 7297SOL    HW233354   4.430   0.172   9.227 -2.1577 -2.4080  0.2999
 7298SOL     OW33355   4.416   0.779   3.687 -0.5371 -0.7884 -0.1598
 7298SOL    HW133356   4.424   0.686   3.668 -2.3668 -0.7744 -1.0459
 7298SOL    HW233357   4.339   0.780   3.744 -0.2489 -0.6226  0.2193
 7299SOL     OW33358   2.880   3.090  14.420  0.4203  0.4576  0.8630
 7299SOL    HW133359   2.853   3.082  14.329  0.6200  3.4265  0.5700
 7299SOL    HW233360   2.820   3.156  14.453  0.4064  0.6450  0.4600
 7300SOL     OW33361   0.811   2.189  15.926  0.2351  0.0185  0.6768
 7300SOL    HW133362   0.756   2.215  15.852 -0.2584 -0.3366  0.9176
 7300SOL    HW233363   0.823   2.278  15.959  1.0734  0.3703 -0.5644
 7301SOL     OW33364   2.000   3.229   6.427  0.6520  0.4801  0.1045
 7301SOL    HW133365   1.932   3.272   6.478  1.6656 -0.0212  1.8861
 7301SOL    HW233366   1.981   3.257   6.338  0.3646  0.3531  0.1253
 7302SOL     OW33367   0.261   2.103   9.350 -0.0120  0.2482 -0.4652
 7302SOL    HW133368   0.251   2.167   9.280 -1.2589  0.2904 -0.2535
 7302SOL    HW233369   0.167   2.084   9.347 -0.1998  1.3388 -1.2338
 7303SOL     OW33370   3.073   1.589   6.940 -0.4276 -0.4285  0.3336
 7303SOL    HW133371   3.121   1.665   6.975 -0.7553  0.7563 -1.8261
 7303SOL    HW233372   3.016   1.582   7.016 -3.6479 -1.5221 -2.2146
 7304SOL     OW33373   2.969   2.415   7.087  0.3383 -0.5812  0.3722
 7304SOL    HW133374   2.921   2.497   7.094 -2.5684 -2.3141  0.7988
 7304SOL    HW233375   2.952   2.386   6.998 -1.5684  1.5285  0.0633
 7305SOL     OW33376   1.826   0.249  11.704 -0.1069 -0.8434 -0.5068
 7305SOL    HW133377   1.782   0.320  11.658 -0.6225 -1.9489 -1.7044
 7305SOL    HW233378   1.765   0.256  11.778  1.7049 -0.1477  0.9033
 7306SOL     OW33379   1.230   1.192  14.054 -0.2807 -0.2299 -0.3159
 7306SOL    HW133380   1.207   1.117  13.999 -0.0709 -0.8048  0.3688
 7306SOL    HW233381   1.175   1.257  14.012 -0.6746  0.0351  0.6027
 7307SOL     OW33382   0.615   2.834   6.308  0.3076 -0.6224  0.2510
 7307SOL    HW133383   0.579   2.874   6.228 -0.5873 -0.4056  0.7630
 7307SOL    HW233384   0.588   2.897   6.375 -1.1851 -2.3109  1.2378
 7308SOL     OW33385   1.603   3.177  14.404  0.2563 -0.2197 -0.1383
 7308SOL    HW133386   1.531   3.120  14.379 -0.4527  0.8313 -0.5166
 7308SOL    HW233387   1.678   3.118  14.404 -0.5312 -1.2140 -0.2861
 7309SOL     OW33388   1.371   4.668   5.766 -0.2720  0.0088 -0.6214
 7309SOL    HW133389   1.338   4.599   5.823  0.5774  2.3196  2.6404
 7309SOL    HW233390   1.282   4.697   5.744 -0.8428 -1.4509 -0.2061
 7310SOL     OW33391   0.673   3.117   7.590  0.1639  0.0970 -0.1068
 7310SOL    HW133392   0.631   3.061   7.655  2.3156 -0.8838  0.4473
 7310SOL    HW233393   0.721   3.179   7.645  0.0355 -0.5338  0.7274
 7311SOL     OW33394   2.993   1.676   3.033  0.1568  0.7117 -0.0824
 7311SOL    HW133395   2.974   1.745   2.970 -1.0990  0.5626  0.1245
 7311SOL    HW233396   3.084   1.650   3.022 -0.3658 -1.1099 -0.1462
 7312SOL     OW33397   2.195   2.571   9.453  0.4608  0.8092 -0.5395
 7312SOL    HW133398   2.260   2.641   9.457  0.9363  0.1497  2.9299
 7312SOL    HW233399   2.173   2.572   9.360 -1.0118 -0.6806 -0.2168
 7313SOL     OW33400   3.451   1.179  10.556  0.3567 -0.4250 -0.4775
 7313SOL    HW133401   3.411   1.094  10.540 -0.8347  0.3977 -1.7669
 7313SOL    HW233402   3.539   1.175  10.594 -0.3691 -1.8972  1.0505
 7314SOL     OW33403   1.495   0.904   2.125  0.4348  0.1029 -0.2413
 7314SOL    HW133404   1.490   0.999   2.125 -0.6040  0.0577  1.0358
 7314SOL    HW233405   1.523   0.894   2.216  2.1081  2.2675 -0.5362
 7315SOL     OW33406   1.393   2.951   7.280  0.4711 -0.8638 -0.6606
 7315SOL    HW133407   1.368   3.043   7.272 -1.2535 -1.3792 -1.1786
 7315SOL    HW233408   1.466   2.949   7.341 -0.5111 -1.2738  0.4972
 7316SOL     OW33409   2.536   2.499   2.560  0.5054 -0.5514  0.0793
 7316SOL    HW133410   2.480   2.427   2.530 -1.2484  1.7397 -2.1102
 7316SOL    HW233411   2.474   2.571   2.572  2.7639  1.3920  0.1579
 7317SOL     OW33412   0.152   3.509   4.510 -0.1234 -0.3387 -0.2346
 7317SOL    HW133413   0.147   3.580   4.573 -1.1419 -2.7977  2.4434
 7317SOL    HW233414   0.240   3.477   4.529 -0.9023 -1.0351  2.1286
 7318SOL     OW33415   4.196   4.547   7.809 -0.0248  0.2778  0.0382
 7318SOL    HW133416   4.199   4.595   7.892 -1.0518 -0.2698  0.3953
 7318SOL    HW233417   4.284   4.510   7.810  0.3981  1.3145  3.4091
 7319SOL     OW33418   4.260   4.649   1.412 -0.1239  0.0122  0.1493
 7319SOL    HW133419   4.287   4.599   1.489 -0.7710  2.7515  2.1628
 7319SOL    HW233420   4.342   4.690   1.383 -1.5755  2.9664  0.1733
 7320SOL     OW33421   0.370   0.428  17.349  0.2671  0.1084  0.2426
 7320SOL    HW133422   0.355   0.336  17.370  3.8092 -0.5748 -0.1153
 7320SOL    HW233423   0.351   0.476  17.430  1.0601 -1.4190  1.3220
 7321SOL     OW33424   1.392   1.984   8.525 -0.2859  0.2728 -0.2450
 7321SOL    HW133425   1.454   1.992   8.597  2.4203  1.4307 -2.7108
 7321SOL    HW233426   1.445   2.015   8.452  2.7515 -1.5566  1.1881
 7322SOL     OW33427   4.439   3.328  10.702  0.1544 -0.0475  0.0070
 7322SOL    HW133428   4.347   3.356  10.704 -0.6230 -2.6992  1.0311
 7322SOL    HW233429   4.475   3.404  10.657 -1.5276 -0.2627 -1.7052
 7323SOL     OW33430   1.149   2.614   9.714  0.1397 -0.5636 -0.1343
 7323SOL    HW133431   1.178   2.686   9.770 -2.0917 -0.3488  0.7645
 7323SOL    HW233432   1.198   2.540   9.749  0.8643 -0.1381 -0.2410
 7324SOL     OW33433   2.274   2.334   1.413 -0.3325  0.3153 -0.1716
 7324SOL    HW133434   2.319   2.267   1.465  1.6056 -0.3095 -2.6595
 7324SOL    HW233435   2.310   2.420   1.434 -0.4410 -0.4770  3.4037
 7325SOL     OW33436   2.008   4.229   2.238 -0.2922 -0.5477  1.0107
 7325SOL    HW133437   1.996   4.175   2.160  2.5513  0.5058 -0.1824
 7325SOL    HW233438   1.966   4.178   2.308 -1.5129 -1.9895 -0.7718
 7326SOL     OW33439   0.232   0.053   6.374  0.2407  0.4747 -0.3394
 7326SOL    HW133440   0.296   4.723   6.328 -0.7714 -1.5559  0.6336
 7326SOL    HW233441   0.297   0.089   6.434  0.1246  0.3107 -0.1123
 7327SOL     OW33442   0.413   2.306  11.347 -0.1505 -0.1115  0.7350
 7327SOL    HW133443   0.337   2.310  11.289  1.4808 -2.9035 -1.5917
 7327SOL    HW233444   0.391   2.382  11.401  0.7552 -0.7467  1.9733
 7328SOL     OW33445   4.361   4.102   6.646 -0.0276 -0.5314 -0.2218
 7328SOL    HW133446   4.361   4.110   6.741  2.2076 -2.0172 -0.0837
 7328SOL    HW233447   4.288   4.155   6.615  1.6528  0.6867 -2.1252
 7329SOL     OW33448   2.440   0.877  17.331 -0.5217  0.4241 -0.8835
 7329SOL    HW133449   2.354   0.835  17.339  0.2574 -1.0922 -0.4507
 7329SOL    HW233450   2.429   0.971  17.342 -1.6726 -0.1268  2.9141
 7330SOL     OW33451   2.589   4.449   5.925  0.1509  0.0343  0.2091
 7330SOL    HW133452   2.579   4.535   5.884  4.1795  0.9579  1.2637
 7330SOL    HW233453   2.581   4.476   6.016  2.6376  2.3671 -0.2918
 7331SOL     OW33454   1.563   2.274   9.503 -0.3335 -0.2825  1.0470
 7331SOL    HW133455   1.555   2.364   9.535  1.9167  0.0603  0.6249
 7331SOL    HW233456   1.630   2.241   9.564  0.6278 -0.8379 -0.3184
 7332SOL     OW33457   3.389   4.637   0.266  0.4034  0.1192  0.4293
 7332SOL    HW133458   3.312   4.690   0.288 -0.4155 -0.8184 -0.1692
 7332SOL    HW233459   3.345   4.569   0.214  1.6816 -0.4880  0.1459
 7333SOL     OW33460   3.378   3.837   1.289 -0.0612  0.2693  0.4284
 7333SOL    HW133461   3.360   3.746   1.267 -2.5171  0.8748 -0.0446
 7333SOL    HW233462   3.355   3.838   1.382 -1.2782  1.0750  0.1234
 7334SOL     OW33463   3.558   3.231   7.137  0.3222  0.2206  1.0082
 7334SOL    HW133464   3.472   3.190   7.142  0.3799  0.0230  0.3347
 7334SOL    HW233465   3.585   3.212   7.227 -1.1646 -1.4002  1.1082
 7335SOL     OW33466   4.407   0.400  11.520 -0.2624  0.1920  0.0686
 7335SOL    HW133467   4.357   0.452  11.458  0.3091  2.6322  1.6774
 7335SOL    HW233468   4.352   0.324  11.539 -3.1415  1.8099 -1.9316
 7336SOL     OW33469   2.722   2.879   6.608  0.2557 -0.3227  0.1056
 7336SOL    HW133470   2.747   2.853   6.519 -0.1413 -1.6408  0.3858
 7336SOL    HW233471   2.627   2.874   6.602  0.4168 -1.4234 -1.5411
 7337SOL     OW33472   1.045   4.722  15.546  0.1696  0.7170 -0.4705
 7337SOL    HW133473   1.026   4.679  15.463 -1.3039 -1.6597  1.0604
 7337SOL    HW233474   1.139   0.016  15.547  0.4543 -0.7660  2.6692
 7338SOL     OW33475   0.222   2.122  14.362  0.1333 -0.4138  0.5551
 7338SOL    HW133476   0.130   2.124  14.390 -0.1969 -2.7977 -0.3297
 7338SOL    HW233477   0.242   2.215  14.359  0.3376 -0.3712  3.1683
 7339SOL     OW33478   2.199   2.961  11.369  0.0717  0.4154 -0.1478
 7339SOL    HW133479   2.288   2.990  11.348  1.0047 -1.3539  1.3202
 7339SOL    HW233480   2.155   2.960  11.284  0.0842  0.3214 -0.1541
 7340SOL     OW33481   0.743   1.004  12.361 -0.0864 -0.3205  0.0559
 7340SOL    HW133482   0.796   0.998  12.440 -2.4747 -1.2414  1.5972
 7340SOL    HW233483   0.653   1.003  12.393 -0.4687  0.4648 -0.9890
 7341SOL     OW33484   3.236   2.454   3.218  0.0225  0.5329 -0.2584
 7341SOL    HW133485   3.201   2.373   3.180  1.2311 -0.5766  0.9927
 7341SOL    HW233486   3.303   2.420   3.278  0.3275  1.3941 -0.1164
 7342SOL     OW33487   1.562   2.467   7.850  0.3570  0.1009  0.1251
 7342SOL    HW133488   1.619   2.452   7.925 -1.1369 -0.3766  1.1503
 7342SOL    HW233489   1.585   2.395   7.791  1.4914 -0.8555  1.7256
 7343SOL     OW33490   0.909   3.026   3.748  0.4766  0.4639 -0.0289
 7343SOL    HW133491   0.894   2.939   3.785  0.1384  0.2931 -0.5600
 7343SOL    HW233492   0.847   3.072   3.804 -0.0263  1.0344 -1.0483
 7344SOL     OW33493   0.169   2.400   7.755 -0.5159 -0.1386 -0.0034
 7344SOL    HW133494   0.218   2.467   7.803 -0.2151 -0.0167 -0.4799
 7344SOL    HW233495   0.241   2.366   7.701  0.5285  0.2521  1.1195
 7345SOL     OW33496   4.032   0.781   9.205  0.4540 -0.0463 -0.0991
 7345SOL    HW133497   4.119   0.763   9.242 -0.0718 -1.3213  0.5137
 7345SOL    HW233498   4.058   0.856   9.152  1.1950 -0.7873 -0.7816
 7346SOL     OW33499   2.460   4.715  11.005  0.3305  0.2397 -0.0932
 7346SOL    HW133500   2.527   4.653  10.977 -0.9473 -1.0814 -0.2734
 7346SOL    HW233501   2.501   0.072  10.975 -0.0492  1.3731  2.4530
 7347SOL     OW33502   4.544   3.283   6.650  0.4725  0.3288  0.1883
 7347SOL    HW133503   4.597   3.356   6.618  1.1644  0.4094  1.5377
 7347SOL    HW233504   4.464   3.335   6.641 -0.3247 -0.6834  1.4474
 7348SOL     OW33505   3.519   3.923   2.278 -0.2423  0.3443  0.3260
 7348SOL    HW133506   3.522   3.974   2.197  0.7492  1.5542  1.1361
 7348SOL    HW233507   3.600   3.958   2.316  1.0452 -0.7479 -1.3636
 7349SOL     OW33508   4.640   0.358  11.629 -0.0334 -0.2380 -0.0331
 7349SOL    HW133509   4.553   0.388  11.601  0.1851 -0.5674 -1.0816
 7349SOL    HW233510   4.673   0.308  11.554 -1.6534 -0.6169 -0.4923
 7350SOL     OW33511   0.084   3.478   3.139 -0.2077 -0.0202 -0.3308
 7350SOL    HW133512   0.166   3.450   3.181 -1.7391 -1.1957  1.8508
 7350SOL    HW233513   0.034   3.398   3.126  2.8359 -1.6658 -1.8789
 7351SOL     OW33514   0.174   3.403   7.163 -0.2495  0.3341 -0.4819
 7351SOL    HW133515   0.097   3.404   7.106 -0.4273 -1.8160 -0.2808
 7351SOL    HW233516   0.141   3.347   7.233  1.6892 -0.1000  0.0833
 7352SOL     OW33517   1.117   3.929   7.247  0.1944  0.4066  0.1526
 7352SOL    HW133518   1.026   3.942   7.275 -0.4012  1.5818 -2.2953
 7352SOL    HW233519   1.114   3.937   7.151 -0.7138 -0.2555  0.1197
 7353SOL     OW33520   2.413   3.109   3.364  0.5270  0.6694 -0.1418
 7353SOL    HW133521   2.366   3.166   3.426 -0.4103 -1.2984  0.9434
 7353SOL    HW233522   2.353   3.034   3.361 -2.0044  2.6709 -0.2246
 7354SOL     OW33523   1.461   1.427  13.868 -0.6359  0.1691 -0.3852
 7354SOL    HW133524   1.520   1.373  13.920 -3.1972 -0.5357  1.8264
 7354SOL    HW233525   1.526   1.473  13.816 -3.9414  0.6866 -4.0449
 7355SOL     OW33526   4.257   4.065   1.016 -0.3909 -0.0590 -0.0705
 7355SOL    HW133527   4.294   4.093   0.932 -0.1111 -0.1940  0.0068
 7355SOL    HW233528   4.197   4.137   1.037 -0.5716 -0.0779 -0.5309
 7356SOL     OW33529   2.326   1.275   4.522 -0.4505  0.2874  0.3530
 7356SOL    HW133530   2.238   1.272   4.486 -0.8240 -2.8320  1.4995
 7356SOL    HW233531   2.367   1.302   4.440  1.1727  0.1835  1.1265
 7357SOL     OW33532   0.732   0.163  16.988  0.6578 -0.0034 -0.5216
 7357SOL    HW133533   0.656   0.105  16.986 -0.2852  1.2528 -1.3448
 7357SOL    HW233534   0.738   0.167  17.083 -4.1599  1.5411 -0.2969
 7358SOL     OW33535   4.202   1.797   2.063 -0.4451 -0.1188 -0.4746
 7358SOL    HW133536   4.205   1.847   1.982  1.1953  2.2592  1.0444
 7358SOL    HW233537   4.194   1.708   2.030  0.3925 -0.7063  0.8926
 7359SOL     OW33538   3.604   1.976   4.499  0.5235 -0.1001  0.1207
 7359SOL    HW133539   3.637   2.043   4.439 -0.4373 -0.0763 -0.3731
 7359SOL    HW233540   3.681   1.920   4.510  0.4879 -0.2442 -0.3686
 7360SOL     OW33541   1.497   2.848  10.262  0.3555 -0.0433 -0.3257
 7360SOL    HW133542   1.443   2.772  10.244 -0.2885  0.7258 -1.5868
 7360SOL    HW233543   1.497   2.833  10.357  0.1232  1.6309 -0.0523
 7361SOL     OW33544   2.746   3.042  13.449  0.3329 -0.3101 -0.4895
 7361SOL    HW133545   2.817   3.105  13.435 -1.8580  2.0136 -1.1861
 7361SOL    HW233546   2.787   2.959  13.427  0.4616 -0.2092 -0.6344
 7362SOL     OW33547   1.991   2.280  15.234 -0.5052 -0.5351 -0.0387
 7362SOL    HW133548   1.985   2.257  15.141  0.6449  3.1405 -1.0239
 7362SOL    HW233549   1.951   2.366  15.249  0.3090 -0.3282  0.9301
 7363SOL     OW33550   4.212   2.604  16.491  0.7804  0.1497 -0.5227
 7363SOL    HW133551   4.158   2.683  16.486 -2.7057 -2.1973  0.2036
 7363SOL    HW233552   4.160   2.555  16.556  0.9906  1.4195  0.6107
 7364SOL     OW33553   1.755   2.757   7.350 -0.1569  0.4391  0.0956
 7364SOL    HW133554   1.789   2.754   7.261 -1.0954  3.1640 -0.3810
 7364SOL    HW233555   1.801   2.834   7.386 -1.1951  1.1510 -0.0830
 7365SOL     OW33556   3.976   2.083   2.842  0.9532 -0.3641  0.0594
 7365SOL    HW133557   4.005   2.022   2.909  0.2170 -1.5270 -0.6783
 7365SOL    HW233558   3.881   2.081   2.856  0.7593  1.1228 -0.9719
 7366SOL     OW33559   2.002   1.025   7.591 -0.2338 -0.2852  0.3335
 7366SOL    HW133560   1.956   0.955   7.545 -1.5330 -0.9879  2.6957
 7366SOL    HW233561   2.016   1.079   7.514  2.3883 -0.7478  0.4861
 7367SOL     OW33562   1.422   0.315   4.881 -0.4112  0.4829 -0.4616
 7367SOL    HW133563   1.435   0.405   4.851  1.5571  0.3601 -0.0203
 7367SOL    HW233564   1.446   0.266   4.802  1.9130 -0.3949  0.7779
 7368SOL     OW33565   4.107   3.404   7.345  0.5739 -0.1910  0.0429
 7368SOL    HW133566   4.053   3.392   7.266 -0.2548  1.7810  0.3013
 7368SOL    HW233567   4.046   3.451   7.402  2.0625  2.7908 -0.7920
 7369SOL     OW33568   0.816   1.541   3.498 -0.7269 -0.7779  0.4573
 7369SOL    HW133569   0.824   1.631   3.466  0.8485 -0.5295  1.5599
 7369SOL    HW233570   0.814   1.554   3.592  0.7958 -0.5964  0.4600
 7370SOL     OW33571   0.270   4.582   7.854 -0.2335  0.5091 -0.7179
 7370SOL    HW133572   0.303   4.671   7.842 -1.7118  1.3536  1.4091
 7370SOL    HW233573   0.349   4.529   7.859  1.1741  2.8012  1.1555
 7371SOL     OW33574   1.278   1.975   7.190 -0.2769  0.0915 -0.3622
 7371SOL    HW133575   1.204   2.029   7.218 -1.0784 -0.6022 -1.1357
 7371SOL    HW233576   1.334   2.047   7.160  2.4615 -2.3331 -1.0863
 7372SOL     OW33577   3.120   1.691   8.015 -0.4116  0.4707 -0.3145
 7372SOL    HW133578   3.110   1.638   7.937 -0.8245  2.5901 -1.6958
 7372SOL    HW233579   3.112   1.625   8.084  0.0960 -0.9543 -1.6148
 7373SOL     OW33580   0.349   0.620   8.009  0.2322  0.0665  0.4755
 7373SOL    HW133581   0.286   0.635   8.079  1.1886  0.5547  1.2369
 7373SOL    HW233582   0.327   0.531   7.982 -0.9236  0.0812  1.3598
 7374SOL     OW33583   1.064   1.651   8.524 -0.2910 -0.2230  0.4210
 7374SOL    HW133584   1.061   1.679   8.616  0.7857 -0.7459  0.6171
 7374SOL    HW233585   1.089   1.735   8.486  1.3713 -0.1732  1.5979
 7375SOL     OW33586   2.594   3.301   3.660 -0.2176 -0.3852 -0.1271
 7375SOL    HW133587   2.592   3.296   3.565 -0.1930  0.1388 -0.1567
 7375SOL    HW233588   2.508   3.271   3.690 -0.3620  0.9973  0.8662
 7376SOL     OW33589   4.476   3.226   2.461  1.2479 -0.8200  0.2661
 7376SOL    HW133590   4.438   3.276   2.389  0.9728 -0.9676  0.3095
 7376SOL    HW233591   4.461   3.139   2.424 -2.2658 -0.2683  0.3899
 7377SOL     OW33592   1.943   3.617  17.672  0.5506 -0.3817  0.5295
 7377SOL    HW133593   1.960   3.712  17.674  0.8870 -0.4242 -0.2798
 7377SOL    HW233594   1.894   3.607   0.056 -1.5199  1.6641 -0.4605
 7378SOL     OW33595   3.591   2.891  10.088 -0.7548  0.1874  0.6328
 7378SOL    HW133596   3.680   2.925  10.090 -0.8071  0.3204  0.6709
 7378SOL    HW233597   3.553   2.918  10.172  0.7554  1.8479  0.7808
 7379SOL     OW33598   0.603   3.991   9.302  0.1974  0.1316 -0.3025
 7379SOL    HW133599   0.685   3.973   9.255  0.0291 -2.0079  0.2150
 7379SOL    HW233600   0.612   4.065   9.362 -0.4965  0.8957 -1.1209
 7380SOL     OW33601   1.218   1.535   6.938 -0.0590 -0.2451  0.2387
 7380SOL    HW133602   1.302   1.534   6.892 -0.7233 -1.5737 -0.9171
 7380SOL    HW233603   1.221   1.625   6.970  0.8663  0.1458 -0.9673
 7381SOL     OW33604   4.369   4.353   5.274 -0.2664 -0.4358  0.1058
 7381SOL    HW133605   4.325   4.418   5.329 -0.0098 -0.7675  0.6984
 7381SOL    HW233606   4.364   4.278   5.333  0.1069 -2.4774 -2.4605
 7382SOL     OW33607   3.657   2.606  16.398 -0.0485  0.2486 -0.4665
 7382SOL    HW133608   3.614   2.687  16.425  0.7733  1.2500 -2.0886
 7382SOL    HW233609   3.733   2.639  16.349 -0.1644  1.2083  0.0045
 7383SOL     OW33610   2.035   3.307   4.918 -0.0084 -0.3326 -0.1968
 7383SOL    HW133611   2.090   3.365   4.971 -0.7117  0.1950 -0.0440
 7383SOL    HW233612   2.080   3.285   4.837  0.5222  2.6923 -0.7256
 7384SOL     OW33613   3.126   0.809   1.563  0.2472 -0.7549 -0.0150
 7384SOL    HW133614   3.172   0.739   1.610  0.3880  0.8269  2.2032
 7384SOL    HW233615   3.194   0.873   1.540  2.4777 -2.9645  0.3643
 7385SOL     OW33616   1.914   1.875  10.200 -0.3064 -0.0879 -0.4641
 7385SOL    HW133617   1.964   1.819  10.141 -0.5176 -1.6779  0.8728
 7385SOL    HW233618   1.977   1.881  10.272  1.3690 -1.1562 -1.8544
 7386SOL     OW33619   1.032   3.475   1.111 -0.3451  0.4971  0.1708
 7386SOL    HW133620   1.060   3.384   1.118 -0.3383  0.4982  0.1577
 7386SOL    HW233621   1.049   3.492   1.018 -2.0865  1.8435  0.1019
 7387SOL     OW33622   1.448   1.080   9.233  0.4587  0.0796 -0.4251
 7387SOL    HW133623   1.431   1.076   9.139  0.3498 -2.0856 -0.3024
 7387SOL    HW233624   1.359   1.105   9.260  0.4929  0.8810 -1.0356
 7388SOL     OW33625   2.753   0.298   5.152  0.0375  0.2198 -0.4326
 7388SOL    HW133626   2.797   0.284   5.236  0.3805  3.1893 -0.1202
 7388SOL    HW233627   2.784   0.388   5.139  1.7473  0.3277  4.2388
 7389SOL     OW33628   2.242   2.457   6.711  0.0211  0.3212 -0.3418
 7389SOL    HW133629   2.254   2.485   6.802 -2.1359 -1.8229  0.6060
 7389SOL    HW233630   2.157   2.492   6.688 -1.1535 -1.4166  1.2852
 7390SOL     OW33631   0.121   2.053   3.216 -0.1031  0.0016 -0.0007
 7390SOL    HW133632   0.074   2.136   3.213 -0.7881 -0.2839  2.9533
 7390SOL    HW233633   0.093   2.019   3.301  1.8584  0.8135  0.9625
 7391SOL     OW33634   4.656   4.712   2.973  0.2588  0.2518  0.3930
 7391SOL    HW133635   4.717   4.641   2.994  0.8684 -0.0565 -2.4578
 7391SOL    HW233636   4.716   0.062   2.972  0.1461  0.3371 -0.1188
 7392SOL     OW33637   0.740   3.059  12.169  0.1629  0.1858  0.1231
 7392SOL    HW133638   0.657   3.054  12.122  1.2023  1.2014 -1.7993
 7392SOL    HW233639   0.717   3.119  12.240 -1.0364  0.2651 -0.3369
 7393SOL     OW33640   1.578   3.441  14.492  0.1370 -0.2263  0.1843
 7393SOL    HW133641   1.598   3.358  14.448  2.6663 -0.0471  0.9940
 7393SOL    HW233642   1.547   3.402  14.574  0.7512 -2.7898 -0.8176
 7394SOL     OW33643   2.957   0.783   9.035 -0.7664  0.2344 -0.7511
 7394SOL    HW133644   2.969   0.772   9.129  2.7725 -0.6180 -1.2879
 7394SOL    HW233645   2.957   0.692   9.004  0.0757 -0.6076  1.7391
 7395SOL     OW33646   3.703   4.467  15.642 -0.2289  0.2446 -0.1320
 7395SOL    HW133647   3.636   4.438  15.703 -0.4637 -0.5637 -0.7796
 7395SOL    HW233648   3.781   4.426  15.680 -0.1511 -0.5923 -1.1838
 7396SOL     OW33649   1.559   3.231   4.696 -0.0817  0.3536  0.3093
 7396SOL    HW133650   1.608   3.206   4.617 -1.1601 -3.4580  0.8256
 7396SOL    HW233651   1.631   3.236   4.758 -0.2741 -0.2229  0.5779
 7397SOL     OW33652   2.123   1.265  12.251 -0.4194 -0.0825 -0.6734
 7397SOL    HW133653   2.039   1.254  12.208 -1.8714  1.9493  1.6389
 7397SOL    HW233654   2.113   1.203  12.323 -0.7613  0.5714 -0.1627
 7398SOL     OW33655   4.128   1.858   4.077 -0.2559  0.3986 -0.3182
 7398SOL    HW133656   4.210   1.868   4.030 -0.4385  1.7363 -0.3598
 7398SOL    HW233657   4.088   1.787   4.027  0.5534  1.1616 -2.0361
 7399SOL     OW33658   0.186   0.693  15.843 -0.4011 -0.4089  0.2218
 7399SOL    HW133659   0.118   0.719  15.906 -0.5217  2.0390 -0.8875
 7399SOL    HW233660   0.245   0.653  15.906 -0.5686 -2.5468 -0.9823
 7400SOL     OW33661   4.276   0.451   4.477 -0.3366  0.3280 -0.0370
 7400SOL    HW133662   4.306   0.541   4.461 -1.3252  0.6569  0.0091
 7400SOL    HW233663   4.190   0.466   4.516  0.0232 -1.7764  1.5480
 7401SOL     OW33664   0.914   2.486   4.796  0.2293  0.4822  0.4739
 7401SOL    HW133665   0.908   2.429   4.719  0.6243  1.9793 -0.6646
 7401SOL    HW233666   0.923   2.566   4.745 -1.1408 -0.5740 -1.4222
 7402SOL     OW33667   1.614   2.934   4.047  0.0702 -0.1118 -0.3088
 7402SOL    HW133668   1.657   2.953   3.964  1.3872 -1.3063  0.1023
 7402SOL    HW233669   1.601   3.019   4.090 -5.5110 -0.1627 -1.9049
 7403SOL     OW33670   3.453   3.468   1.823  0.5625 -0.2770  0.1588
 7403SOL    HW133671   3.519   3.471   1.892 -0.3758 -1.7024  1.1317
 7403SOL    HW233672   3.471   3.549   1.776 -0.3101 -0.2810 -0.1926
 7404SOL     OW33673   3.803   1.778   1.965  0.0245  0.0572 -0.4341
 7404SOL    HW133674   3.816   1.715   1.893  1.5004  0.6973 -0.7206
 7404SOL    HW233675   3.838   1.749   2.049 -2.0787 -0.3981  0.2767
 7405SOL     OW33676   0.728   1.090  13.027  0.2211 -0.2403 -0.2677
 7405SOL    HW133677   0.671   1.165  13.009  1.2205  0.8564  1.0326
 7405SOL    HW233678   0.660   1.023  13.025  0.1672 -0.2562  1.9454
 7406SOL     OW33679   2.035   0.310  11.871 -0.0673 -0.2365  0.2132
 7406SOL    HW133680   2.113   0.303  11.816 -1.3798  0.1810 -1.7109
 7406SOL    HW233681   1.967   0.277  11.813 -0.9148  0.7052  0.6665
 7407SOL     OW33682   1.311   2.489   5.303 -0.2855  0.2304 -0.3873
 7407SOL    HW133683   1.260   2.568   5.322 -0.1339  1.0561 -3.4394
 7407SOL    HW233684   1.342   2.519   5.217 -1.2564  0.7685 -0.5551
 7408SOL     OW33685   3.278   3.973   7.744 -0.4778  0.0031  0.1137
 7408SOL    HW133686   3.200   4.005   7.698 -1.0536  0.3986  1.3742
 7408SOL    HW233687   3.268   3.878   7.746  1.3246 -0.1642  1.1589
 7409SOL     OW33688   2.788   1.077   9.406  0.0460 -0.2906  0.0431
 7409SOL    HW133689   2.729   1.023   9.458 -0.0687 -0.7389 -0.5454
 7409SOL    HW233690   2.832   1.134   9.469 -0.5700 -0.0960  0.2954
 7410SOL     OW33691   3.965   1.615   0.597  0.1473 -0.6360 -0.7801
 7410SOL    HW133692   3.992   1.562   0.522  0.4616 -0.4190 -0.8188
 7410SOL    HW233693   3.893   1.662   0.553 -0.5837 -0.2342  0.8658
 7411SOL     OW33694   4.250   0.810   1.256  0.6201 -0.2434 -0.0028
 7411SOL    HW133695   4.297   0.798   1.173 -0.2314  1.4300 -0.7063
 7411SOL    HW233696   4.302   0.875   1.302  1.1914 -0.2829 -0.5836
 7412SOL     OW33697   3.213   2.070  12.545 -0.0880 -0.0630  0.2776
 7412SOL    HW133698   3.308   2.080  12.557  0.2854 -2.2435 -0.8481
 7412SOL    HW233699   3.179   2.148  12.590 -1.9801 -0.7162 -0.0299
 7413SOL     OW33700   0.428   2.821   5.579  0.5011 -0.0210  0.1590
 7413SOL    HW133701   0.364   2.884   5.548  0.7436  0.2610  0.2299
 7413SOL    HW233702   0.506   2.872   5.602  0.2965  0.3963 -0.0731
 7414SOL     OW33703   3.784   2.694   5.041 -0.1749 -0.8153 -0.1574
 7414SOL    HW133704   3.754   2.744   4.965 -1.5704 -1.2010  0.1267
 7414SOL    HW233705   3.824   2.622   4.993  2.4126 -0.5217  1.5785
 7415SOL     OW33706   2.151   1.963   9.404 -0.4595  0.9247 -0.4166
 7415SOL    HW133707   2.060   1.936   9.420  0.1811  0.3138  2.1910
 7415SOL    HW233708   2.153   1.933   9.313 -0.8151  2.4619 -0.9197
 7416SOL     OW33709   2.149   2.737   1.288 -0.1223  0.0667  0.5542
 7416SOL    HW133710   2.153   2.816   1.234  0.5310  0.3936  1.0764
 7416SOL    HW233711   2.088   2.680   1.243 -1.4264  0.6318  1.6024
 7417SOL     OW33712   4.137   3.206   0.962  0.6409 -0.8005 -0.1347
 7417SOL    HW133713   4.177   3.293   0.957 -0.6113 -0.1111  1.7110
 7417SOL    HW233714   4.076   3.214   0.889 -2.1375 -0.7341  2.1964
 7418SOL     OW33715   3.133   2.348   5.011  0.0136 -0.3196  0.1927
 7418SOL    HW133716   3.065   2.324   4.948  0.9768  1.0367 -1.3718
 7418SOL    HW233717   3.094   2.300   5.084 -1.3525 -1.7341 -1.4573
 7419SOL     OW33718   1.486   1.288   8.867  0.5035  0.5617 -0.3219
 7419SOL    HW133719   1.550   1.323   8.805 -2.2126  0.7039 -3.0947
 7419SOL    HW233720   1.532   1.312   8.947 -1.8342 -1.7236  1.6962
 7420SOL     OW33721   3.184   1.334  14.145 -0.1874  0.8282 -0.0611
 7420SOL    HW133722   3.145   1.246  14.142 -0.2481  0.8134  1.3471
 7420SOL    HW233723   3.221   1.340  14.233  1.2959  0.5921 -0.6660
 7421SOL     OW33724   0.999   3.183   5.911 -0.1351 -0.5167 -0.3155
 7421SOL    HW133725   1.010   3.191   6.006 -0.8222 -2.7568 -0.0464
 7421SOL    HW233726   1.034   3.095   5.898 -1.4121 -0.8904 -1.2015
 7422SOL     OW33727   2.634   1.601   7.010 -0.0883 -0.1270  0.4533
 7422SOL    HW133728   2.616   1.609   6.917  1.1254 -0.3886  0.1886
 7422SOL    HW233729   2.573   1.540   7.050 -0.5628  0.0399 -0.0193
 7423SOL     OW33730   1.336   0.880   3.370  0.2751  0.4650 -0.7454
 7423SOL    HW133731   1.372   0.925   3.293  0.2421  0.0807 -0.9850
 7423SOL    HW233732   1.406   0.817   3.388  0.6371  0.9498 -0.4592
 7424SOL     OW33733   2.062   2.616   8.850 -0.2081 -0.6488 -0.1506
 7424SOL    HW133734   2.153   2.615   8.878  0.3224 -0.2194 -1.8533
 7424SOL    HW233735   2.053   2.708   8.824  1.4988  0.3979  2.9884
 7425SOL     OW33736   0.261   3.107   5.655 -0.4933  0.0419  0.2961
 7425SOL    HW133737   0.301   3.107   5.568  0.0048 -0.2801  0.5219
 7425SOL    HW233738   0.172   3.074   5.654 -0.5587  0.2237  0.0270
 7426SOL     OW33739   3.514   1.780   6.034 -0.2961  0.4883  0.1505
 7426SOL    HW133740   3.590   1.818   6.077 -0.7838  0.2344  1.2388
 7426SOL    HW233741   3.453   1.767   6.106  0.0742 -0.1062  0.3534
 7427SOL     OW33742   2.062   0.935   0.759 -0.3989 -0.3871  0.4644
 7427SOL    HW133743   2.054   1.018   0.712  0.6979  0.8622  2.5020
 7427SOL    HW233744   2.149   0.952   0.795  0.1213 -1.1767 -0.4240
 7428SOL     OW33745   0.004   2.180   7.768  0.8380 -0.1946 -0.0649
 7428SOL    HW133746   0.039   2.126   7.838 -0.8050 -0.6794  0.3850
 7428SOL    HW233747   0.062   2.255   7.780  1.9962 -0.7781 -1.9630
 7429SOL     OW33748   3.824   3.571   6.220  0.6443  0.0111 -0.4167
 7429SOL    HW133749   3.791   3.644   6.273 -1.6182 -1.7335  0.5949
 7429SOL    HW233750   3.917   3.591   6.233  0.5981 -1.0316  1.5918
 7430SOL     OW33751   2.194   2.187  10.674  0.5541  0.1349  0.0631
 7430SOL    HW133752   2.272   2.136  10.694  0.4533 -0.2885 -0.6298
 7430SOL    HW233753   2.211   2.211  10.583  0.0444 -0.7099 -0.2550
 7431SOL     OW33754   3.802   3.020   0.467 -0.4251  0.6795  0.5515
 7431SOL    HW133755   3.889   3.059   0.481 -0.3335  1.5578 -2.3767
 7431SOL    HW233756   3.796   2.957   0.539 -0.6891 -0.4897 -0.4965
 7432SOL     OW33757   4.268   3.592   8.240 -0.3683 -0.7758 -0.0614
 7432SOL    HW133758   4.293   3.652   8.169  0.0508  0.1786  0.8863
 7432SOL    HW233759   4.173   3.606   8.244 -0.2798 -0.8056  2.0665
 7433SOL     OW33760   1.927   1.770   3.616 -0.2155  0.0623  0.4694
 7433SOL    HW133761   2.018   1.774   3.584 -0.2680  0.3784  0.3553
 7433SOL    HW233762   1.896   1.784   3.526  0.5734  0.4821  0.2535
 7434SOL     OW33763   0.969   4.024  14.335 -0.3308  0.3516 -0.4328
 7434SOL    HW133764   0.970   4.023  14.239 -0.0812  0.0139 -0.4242
 7434SOL    HW233765   0.897   3.972  14.368 -0.7255  0.3564 -1.2904
 7435SOL     OW33766   4.054   3.408   0.548 -0.2993 -0.9967  0.6189
 7435SOL    HW133767   4.065   3.497   0.580 -1.4033 -0.7105  0.1905
 7435SOL    HW233768   4.141   3.375   0.573  0.8256  1.8155  0.3524
 7436SOL     OW33769   3.786   1.094   2.189  0.1782  1.1570  0.0561
 7436SOL    HW133770   3.822   1.010   2.219  0.8869  2.1750  2.0066
 7436SOL    HW233771   3.694   1.097   2.214 -0.6385  0.6894 -2.8692
 7437SOL     OW33772   4.596   4.686   2.086 -0.1271 -0.6198  0.1109
 7437SOL    HW133773   4.534   4.617   2.113 -0.1815 -0.3834  0.5797
 7437SOL    HW233774   4.615   4.653   1.998  0.5504  0.6342 -0.1967
 7438SOL     OW33775   2.302   2.687   3.524  0.4442  0.4824  0.3620
 7438SOL    HW133776   2.209   2.676   3.543  0.9274 -1.7601  1.3906
 7438SOL    HW233777   2.325   2.736   3.603  2.9753 -0.4866  0.2571
 7439SOL     OW33778   0.013   4.011  15.176  0.0446 -0.1416 -0.5934
 7439SOL    HW133779   4.672   4.061  15.125 -1.6469 -1.1974  0.5396
 7439SOL    HW233780   0.062   4.085  15.212 -0.9619  0.3959 -0.3463
 7440SOL     OW33781   0.207   0.491   7.398  0.3477  0.2700 -0.2736
 7440SOL    HW133782   0.159   0.574   7.394 -0.2851 -0.0019  1.7019
 7440SOL    HW233783   0.132   0.440   7.366  0.6687  1.0901 -2.2871
 7441SOL     OW33784   2.298   2.266  14.322 -0.6245  0.4309 -0.1835
 7441SOL    HW133785   2.332   2.246  14.235 -0.7949  0.1532 -0.1871
 7441SOL    HW233786   2.218   2.313  14.299 -1.1229 -0.0692  0.5382
 7442SOL     OW33787   2.328   0.976   8.446 -0.1349 -0.0341 -0.3111
 7442SOL    HW133788   2.250   1.032   8.440  0.4339  0.8252  0.3172
 7442SOL    HW233789   2.337   0.943   8.356  1.0518  1.3845 -0.7178
 7443SOL     OW33790   1.931   0.897   4.867 -0.2301  0.3627  0.3712
 7443SOL    HW133791   2.017   0.906   4.827  0.0581 -1.8470  0.4538
 7443SOL    HW233792   1.957   0.948   4.943 -0.8099  0.9667  0.1649
 7444SOL     OW33793   4.129   1.691   0.995 -0.0849  0.0234  0.5899
 7444SOL    HW133794   4.189   1.717   1.064  0.6869  0.4552 -0.2398
 7444SOL    HW233795   4.182   1.636   0.937  0.8821 -0.0226  1.5214
 7445SOL     OW33796   1.574   2.005   1.165 -0.3085 -0.2214  0.4532
 7445SOL    HW133797   1.645   2.012   1.101 -0.1592 -0.2326  0.6195
 7445SOL    HW233798   1.604   1.922   1.202 -3.9283 -2.6218 -1.9655
 7446SOL     OW33799   3.096   1.657   6.339 -0.3232 -0.0998  0.4033
 7446SOL    HW133800   3.028   1.658   6.272 -0.0060  0.3438  0.0895
 7446SOL    HW233801   3.109   1.749   6.360 -1.3926  0.3866 -1.1143
 7447SOL     OW33802   3.407   2.267  10.575  0.0509 -0.2212 -0.1013
 7447SOL    HW133803   3.346   2.198  10.548  0.3442  0.1406 -1.6994
 7447SOL    HW233804   3.427   2.240  10.665  1.5096 -0.3281 -0.4584
 7448SOL     OW33805   2.112   4.215   6.091  0.4496 -0.5300 -0.3013
 7448SOL    HW133806   2.126   4.139   6.033  1.7911 -0.1003 -0.5316
 7448SOL    HW233807   2.084   4.170   6.170 -0.8573 -1.4269 -1.2647
 7449SOL     OW33808   2.083   1.796  14.403  0.4322  0.0429 -0.5966
 7449SOL    HW133809   2.060   1.746  14.481  0.2371 -1.4277 -1.5823
 7449SOL    HW233810   2.062   1.734  14.333 -0.5242  0.6597 -0.8465
 7450SOL     OW33811   3.279   3.860   0.119  0.1846  0.0865 -0.1406
 7450SOL    HW133812   3.344   3.817   0.174  0.0774 -2.2358 -1.8286
 7450SOL    HW233813   3.197   3.845   0.167 -1.9009  0.3213 -3.6284
 7451SOL     OW33814   3.860   4.501  11.493  0.2114 -0.1497  0.3265
 7451SOL    HW133815   3.893   4.580  11.449 -0.7953 -0.6200 -1.2868
 7451SOL    HW233816   3.919   4.513  11.568 -0.0270  0.7182  0.3765
 7452SOL     OW33817   0.899   4.202   5.241 -0.4963  0.4607 -0.1237
 7452SOL    HW133818   0.889   4.169   5.331  1.1338  0.3190  0.0052
 7452SOL    HW233819   0.809   4.232   5.227 -0.2492  1.5769  0.7067
 7453SOL     OW33820   1.773   1.201   6.019  0.2195 -0.4379 -0.3661
 7453SOL    HW133821   1.779   1.293   5.991 -1.3435  0.2041  1.4524
 7453SOL    HW233822   1.692   1.207   6.069  0.4856  0.9188 -0.0991
 7454SOL     OW33823   3.250   0.160   2.345  0.0577 -0.1714 -0.4739
 7454SOL    HW133824   3.313   0.088   2.340  1.3279  0.9536 -0.6897
 7454SOL    HW233825   3.238   0.179   2.251  1.6411 -1.3411 -0.9080
 7455SOL     OW33826   1.641   3.183   9.051 -0.3338 -0.6240  0.4563
 7455SOL    HW133827   1.718   3.190   8.995  0.7873  0.0017  2.0577
 7455SOL    HW233828   1.672   3.231   9.128 -0.1795 -0.1536  0.1008
 7456SOL     OW33829   4.555   3.395   3.563  0.1982  0.0431  0.2034
 7456SOL    HW133830   4.570   3.451   3.487 -0.6260  0.3848  0.3050
 7456SOL    HW233831   4.470   3.428   3.590 -0.1278 -2.2347  1.9950
 7457SOL     OW33832   2.736   1.980  11.015  0.4845  0.0619  0.7597
 7457SOL    HW133833   2.680   2.004  11.089 -2.0476 -2.5939 -0.2701
 7457SOL    HW233834   2.673   1.916  10.980  0.8026  0.7776 -1.1519
 7458SOL     OW33835   1.163   0.913   5.261  0.2590 -0.2570 -0.3580
 7458SOL    HW133836   1.124   0.987   5.215 -4.5863 -2.4483  0.1883
 7458SOL    HW233837   1.254   0.936   5.282  0.2923  1.2699 -2.2822
 7459SOL     OW33838   2.036   3.472   9.505  0.0435 -0.0718 -0.2549
 7459SOL    HW133839   1.993   3.542   9.555  3.2435  1.9342 -0.3437
 7459SOL    HW233840   2.126   3.505   9.498 -0.1412  0.4725 -0.0380
 7460SOL     OW33841   4.457   2.243   3.378 -0.6538  0.1210 -0.2839
 7460SOL    HW133842   4.382   2.200   3.336 -0.2383 -1.9426  1.0913
 7460SOL    HW233843   4.498   2.164   3.413  0.7940  1.1728  0.3951
 7461SOL     OW33844   2.218   2.544   2.800  0.8837  0.4781  0.5103
 7461SOL    HW133845   2.293   2.500   2.841 -1.4641 -3.3145  0.7274
 7461SOL    HW233846   2.219   2.630   2.841 -0.2009  0.5970  0.2752
 7462SOL     OW33847   3.305   4.593   1.645 -0.7107 -0.0231 -0.2025
 7462SOL    HW133848   3.279   4.509   1.683 -3.3752  0.5325 -0.8004
 7462SOL    HW233849   3.229   4.637   1.682 -0.6527 -1.0275  1.0893
 7463SOL     OW33850   1.196   4.394   6.124 -0.1804  0.1209  0.1227
 7463SOL    HW133851   1.144   4.365   6.199 -0.5323  2.4982  0.8186
 7463SOL    HW233852   1.205   4.311   6.077  1.4631 -0.2998  1.1952
 7464SOL     OW33853   1.612   3.938   3.575 -0.2255  0.2437 -0.6342
 7464SOL    HW133854   1.581   3.848   3.572  1.0841 -0.1759 -2.4505
 7464SOL    HW233855   1.630   3.933   3.669 -1.3185 -1.1743 -0.5003
 7465SOL     OW33856   3.283   0.416  10.103 -0.0041  0.1585 -0.1506
 7465SOL    HW133857   3.272   0.495  10.155  3.6024 -0.3920  1.4142
 7465SOL    HW233858   3.324   0.362  10.171 -3.0241  1.7885  2.9915
 7466SOL     OW33859   4.057   2.460   2.928 -0.1476 -0.0554  0.3147
 7466SOL    HW133860   4.089   2.454   2.838 -0.2822  0.4940  0.2325
 7466SOL    HW233861   3.974   2.504   2.913  0.0961 -0.5007 -2.3184
 7467SOL     OW33862   3.463   0.924  11.738  0.1747 -0.5903  0.4992
 7467SOL    HW133863   3.516   0.970  11.672  1.5836 -0.9659  1.3583
 7467SOL    HW233864   3.483   0.834  11.714  2.8010 -0.4202  1.9547
 7468SOL     OW33865   3.909   3.127   1.269 -0.2526 -0.3271 -0.2551
 7468SOL    HW133866   3.837   3.181   1.303  0.4564 -0.1432  0.9518
 7468SOL    HW233867   3.965   3.193   1.228 -0.5859 -0.6189 -1.1726
 7469SOL     OW33868   0.523   4.266  13.918  0.1288  0.1138 -0.0395
 7469SOL    HW133869   0.472   4.325  13.863 -0.7182 -1.8887 -1.3964
 7469SOL    HW233870   0.611   4.301  13.901 -0.5015  1.2116 -1.0355
 7470SOL     OW33871   4.296   2.803  12.462  0.1048  0.4297 -0.4909
 7470SOL    HW133872   4.388   2.809  12.436 -0.0462  2.9151 -0.5121
 7470SOL    HW233873   4.250   2.754  12.393  1.4931 -3.4341  1.3420
 7471SOL     OW33874   3.269   2.084  10.474 -0.3469 -0.1054 -0.3863
 7471SOL    HW133875   3.310   1.999  10.459  0.4430  0.4334 -1.2466
 7471SOL    HW233876   3.217   2.093  10.394 -1.0630  1.4380  0.2608
 7472SOL     OW33877   4.664   4.361   3.934 -0.1814 -0.7170 -0.6200
 7472SOL    HW133878   0.024   4.397   3.905  0.2191  0.5051  2.0285
 7472SOL    HW233879   4.607   4.437   3.918  1.4117  0.7686  0.7489
 7473SOL     OW33880   3.655   3.078   6.378  0.1926 -0.7216  0.0651
 7473SOL    HW133881   3.566   3.107   6.396 -0.4415 -3.1570  0.8622
 7473SOL    HW233882   3.688   3.148   6.320 -0.0257  0.6111  1.5597
 7474SOL     OW33883   4.178   2.105   4.965 -0.1848  0.0354 -0.4075
 7474SOL    HW133884   4.145   2.060   4.887 -1.6989 -1.2106  0.9731
 7474SOL    HW233885   4.131   2.054   5.031 -0.1818 -1.4831 -1.5748
 7475SOL     OW33886   0.846   1.826   2.284  0.7161  0.0585 -0.5028
 7475SOL    HW133887   0.804   1.902   2.244 -1.3964 -1.0185 -0.3145
 7475SOL    HW233888   0.765   1.776   2.297 -0.7096  1.8857 -2.2821
 7476SOL     OW33889   3.884   0.260   3.372  0.2141  0.1233  0.0114
 7476SOL    HW133890   3.944   0.254   3.447 -0.5854  0.2420  0.6533
 7476SOL    HW233891   3.868   0.166   3.360 -1.5812  0.4732 -0.3426
 7477SOL     OW33892   3.241   4.319   7.617 -0.8341 -0.0470  0.0963
 7477SOL    HW133893   3.149   4.345   7.625 -0.5729  0.0246  2.5711
 7477SOL    HW233894   3.279   4.377   7.551  1.8504 -1.2347  0.5900
 7478SOL     OW33895   3.318   0.556  10.706  0.5186  0.8716  0.2956
 7478SOL    HW133896   3.234   0.585  10.741 -0.4998 -2.8302  0.9074
 7478SOL    HW233897   3.327   0.620  10.635  1.6919 -0.9095 -1.1990
 7479SOL     OW33898   4.204   2.149   7.292 -0.3806  0.4951 -0.0666
 7479SOL    HW133899   4.218   2.176   7.201  2.2417  0.2428  0.2685
 7479SOL    HW233900   4.290   2.167   7.331 -0.7082 -0.2507  0.9906
 7480SOL     OW33901   2.997   4.321   3.586  0.2845 -0.4129 -0.0129
 7480SOL    HW133902   2.953   4.365   3.513  2.3888  0.3859 -0.8031
 7480SOL    HW233903   2.977   4.387   3.652  3.3785  0.1181  0.4038
 7481SOL     OW33904   1.945   2.126   9.019  0.1582 -0.3944  0.6345
 7481SOL    HW133905   1.984   2.213   9.009  0.7540 -0.7354  0.0521
 7481SOL    HW233906   1.943   2.130   9.115  0.2380  0.9489  0.5835
 7482SOL     OW33907   4.618   4.558   8.376 -0.1681 -0.2545  0.4750
 7482SOL    HW133908   4.530   4.522   8.385 -0.7702  0.7986 -1.1686
 7482SOL    HW233909   4.651   4.509   8.451 -1.1711 -1.8060 -0.1133
 7483SOL     OW33910   3.598   2.962   6.839 -0.3209  0.2140 -0.3582
 7483SOL    HW133911   3.593   2.897   6.770 -0.0199 -0.1690 -0.0185
 7483SOL    HW233912   3.536   2.930   6.905  0.0765 -2.1585 -1.1399
 7484SOL     OW33913   3.727   0.736   4.085 -0.1635 -0.2978  0.2208
 7484SOL    HW133914   3.746   0.732   3.992  0.7887 -0.2908  0.4030
 7484SOL    HW233915   3.771   0.658   4.121 -0.3214  0.2340  1.5650
 7485SOL     OW33916   0.763   4.522   3.644 -0.3196 -0.4708 -0.1370
 7485SOL    HW133917   0.827   4.589   3.669  2.1714 -2.3069 -1.4814
 7485SOL    HW233918   0.684   4.576   3.637 -0.0383  0.1338  1.3525
 7486SOL     OW33919   2.207   2.042  14.473  0.1238 -0.0517  0.7157
 7486SOL    HW133920   2.178   1.951  14.474  0.3687 -0.1550 -1.4887
 7486SOL    HW233921   2.211   2.051  14.378  0.4753  2.8759  0.9921
 7487SOL     OW33922   2.114   4.517  16.150  0.0109  0.7120  0.0903
 7487SOL    HW133923   2.052   4.445  16.155  1.1735 -0.3203 -0.4335
 7487SOL    HW233924   2.083   4.560  16.070 -2.1792  1.4339  1.3308
 7488SOL     OW33925   3.031   0.315   2.386 -0.1055  0.4149 -0.3849
 7488SOL    HW133926   3.022   0.270   2.470 -0.5964  0.5181 -0.3813
 7488SOL    HW233927   3.114   0.271   2.368  0.6732  1.3549  0.8400
 7489SOL     OW33928   0.588   3.505   2.478 -0.2147 -0.4790 -0.7668
 7489SOL    HW133929   0.507   3.556   2.475  1.2708  1.9947  0.7593
 7489SOL    HW233930   0.646   3.548   2.415  0.2721  0.2773  0.1991
 7490SOL     OW33931   2.398   0.134   6.026 -0.1306 -0.5247 -0.4759
 7490SOL    HW133932   2.403   0.080   6.105  0.8962  0.9491  0.4676
 7490SOL    HW233933   2.314   0.099   5.996 -0.0629 -0.9317 -0.1818
 7491SOL     OW33934   0.157   4.190   4.538  0.2473  0.7805  0.4147
 7491SOL    HW133935   0.115   4.138   4.606  1.6607  0.6900  1.2315
 7491SOL    HW233936   0.145   4.129   4.465 -0.5133  0.1312  1.0818
 7492SOL     OW33937   0.706   2.183   1.923  0.2026  0.0963  0.0861
 7492SOL    HW133938   0.741   2.267   1.891  1.2620  0.2924  1.7662
 7492SOL    HW233939   0.651   2.208   1.997  1.2170 -2.7547  1.7652
 7493SOL     OW33940   1.895   0.702  16.391  0.0751 -0.4047  0.5265
 7493SOL    HW133941   1.825   0.649  16.353  0.7184 -1.3192  0.6248
 7493SOL    HW233942   1.842   0.756  16.449 -0.5908  0.5574 -0.9578
 7494SOL     OW33943   1.673   0.247  11.923  0.0095 -0.3069  0.8230
 7494SOL    HW133944   1.690   0.211  12.011 -0.2347  0.6939  1.2767
 7494SOL    HW233945   1.580   0.225  11.917  0.8714 -3.4308 -0.9815
 7495SOL     OW33946   0.686   2.654   7.737  0.6974  0.1432  0.0030
 7495SOL    HW133947   0.754   2.712   7.771 -0.7369  2.0731 -0.4078
 7495SOL    HW233948   0.618   2.711   7.700  2.4811 -0.1187 -3.7856
 7496SOL     OW33949   2.054   1.385   4.469  0.6135  0.5965 -0.8188
 7496SOL    HW133950   2.008   1.396   4.386  1.2793  0.4791 -1.2071
 7496SOL    HW233951   2.033   1.462   4.521 -4.6197 -1.5950  0.2508
 7497SOL     OW33952   2.241   0.545  16.127 -0.4620  0.1604 -0.7008
 7497SOL    HW133953   2.306   0.590  16.072  1.4805 -1.4821  0.2472
 7497SOL    HW233954   2.191   0.492  16.065  1.1544  0.2863 -2.1442
 7498SOL     OW33955   0.468   1.264  13.994  0.0964  0.0906  0.3152
 7498SOL    HW133956   0.392   1.306  13.952  1.4553 -0.2657 -2.4618
 7498SOL    HW233957   0.470   1.315  14.076  2.0756  0.0144  0.3067
 7499SOL     OW33958   3.816   2.626  16.799  0.2205 -0.0300 -0.4810
 7499SOL    HW133959   3.801   2.655  16.888  0.5969  0.5298 -0.6059
 7499SOL    HW233960   3.785   2.708  16.761  1.7551  0.2079 -1.2179
 7500SOL     OW33961   2.132   0.656  12.196 -0.0367 -0.0425  0.0741
 7500SOL    HW133962   2.041   0.626  12.193 -0.5285  1.4414  0.5736
 7500SOL    HW233963   2.157   0.638  12.105  0.6117 -0.3700  0.3123
 7501SOL     OW33964   4.718   3.867   3.756 -0.3404 -0.1881 -0.4301
 7501SOL    HW133965   0.037   3.924   3.820  1.1537 -0.0128 -1.5971
 7501SOL    HW233966   0.066   3.809   3.732 -1.1826 -1.3981 -0.0339
 7502SOL     OW33967   4.454   2.718  16.881  0.1238  0.4849  0.4797
 7502SOL    HW133968   4.419   2.792  16.930 -1.2343  1.2956 -1.7063
 7502SOL    HW233969   4.509   2.773  16.825 -1.1880  1.5110  0.1955
 7503SOL     OW33970   3.215   4.074   7.318 -0.2261 -1.1464 -0.5242
 7503SOL    HW133971   3.182   4.101   7.403 -0.0895  2.3326 -1.5820
 7503SOL    HW233972   3.208   3.979   7.310  0.9774 -1.0942 -2.3282
 7504SOL     OW33973   1.747   1.133  12.268  0.0984 -0.0188  0.4489
 7504SOL    HW133974   1.783   1.170  12.187 -1.3163  0.0771 -0.1258
 7504SOL    HW233975   1.735   1.217  12.313  1.6725  1.4905 -2.0061
 7505SOL     OW33976   0.340   2.571   7.480 -0.5948  0.0011  0.0609
 7505SOL    HW133977   0.421   2.519   7.480 -0.1728  0.6585 -0.1055
 7505SOL    HW233978   0.354   2.623   7.401  1.5327  0.7416  0.9226
 7506SOL     OW33979   4.203   1.720   8.543  0.2736  0.3548 -0.2251
 7506SOL    HW133980   4.128   1.763   8.503 -0.3627  0.5542  1.1816
 7506SOL    HW233981   4.196   1.625   8.532  0.3539  0.7443 -3.4063
 7507SOL     OW33982   4.239   2.495  16.211  0.3688 -0.5666  0.1265
 7507SOL    HW133983   4.282   2.410  16.221  0.7179 -0.6208 -2.0026
 7507SOL    HW233984   4.244   2.524  16.303 -1.6073  2.3102 -0.6709
 7508SOL     OW33985   3.605   2.966   5.633  0.2290  0.0986 -0.4921
 7508SOL    HW133986   3.556   3.030   5.685  2.4296  1.4967 -0.1371
 7508SOL    HW233987   3.543   2.894   5.643  1.3453 -0.9238 -0.8903
 7509SOL     OW33988   1.133   2.581   8.913 -0.3456  0.5922  0.1287
 7509SOL    HW133989   1.089   2.544   8.990 -2.2722 -0.0859 -1.3104
 7509SOL    HW233990   1.209   2.613   8.962  1.2904  0.4317 -2.3368
 7510SOL     OW33991   4.667   2.466  15.257 -0.0288 -0.0129 -0.0453
 7510SOL    HW133992   4.674   2.441  15.349 -1.1467 -0.1670  0.0046
 7510SOL    HW233993   4.635   2.556  15.257 -1.1135 -0.4003  0.4333
 7511SOL     OW33994   3.394   3.558   6.732  0.1629 -0.0544  0.4977
 7511SOL    HW133995   3.385   3.507   6.813  0.5120  1.8763  1.7409
 7511SOL    HW233996   3.427   3.492   6.671 -1.1616 -0.6627  0.4468
 7512SOL     OW33997   1.376   4.459   4.105 -0.3836 -0.5337  0.0744
 7512SOL    HW133998   1.312   4.449   4.176 -0.1728  0.7478  0.4486
 7512SOL    HW233999   1.351   4.382   4.054  3.8125 -1.8036 -0.0378
 7513SOL     OW34000   1.010   2.649   8.651  0.0093  0.0985  0.5374
 7513SOL    HW134001   0.945   2.715   8.675  0.4400  0.0281  1.8859
 7513SOL    HW234002   1.022   2.610   8.738 -2.3626 -1.4171  0.2136
 7514SOL     OW34003   1.304   2.951   9.075  0.0154 -0.8283 -0.4884
 7514SOL    HW134004   1.318   2.858   9.091 -1.6740 -1.0845 -0.5319
 7514SOL    HW234005   1.217   2.964   9.112  0.5976 -1.9504  1.2872
 7515SOL     OW34006   3.328   2.726   6.193 -0.4032 -0.6779  0.2261
 7515SOL    HW134007   3.304   2.765   6.109 -1.0913  0.7024  1.0798
 7515SOL    HW234008   3.301   2.635   6.176 -0.8241 -0.4900 -0.0976
 7516SOL     OW34009   2.359   1.138   2.552 -0.0719 -0.0399 -0.5606
 7516SOL    HW134010   2.418   1.213   2.557 -1.3159  0.8664  0.3631
 7516SOL    HW234011   2.295   1.156   2.620 -1.2274 -0.5428 -1.5225
 7517SOL     OW34012   0.322   1.094  14.136 -0.4277  0.4496 -0.1865
 7517SOL    HW134013   0.370   1.147  14.072  3.2679  0.6026  2.7259
 7517SOL    HW234014   0.380   1.019  14.147  0.8770  1.2965 -1.3490
 7518SOL     OW34015   4.575   1.822   7.173  0.1619  1.1279 -0.2635
 7518SOL    HW134016   4.560   1.846   7.265 -0.0394  2.1310 -0.5554
 7518SOL    HW234017   4.492   1.778   7.158  0.4853  0.8148 -1.1383
 7519SOL     OW34018   3.481   0.614   8.089 -0.2314  0.0060  0.6557
 7519SOL    HW134019   3.506   0.566   8.168  1.5395  1.1746  0.7908
 7519SOL    HW234020   3.570   0.627   8.055 -0.4981 -0.1699 -0.1146
 7520SOL     OW34021   3.228   2.513   8.675  0.3643 -0.4153 -0.0413
 7520SOL    HW134022   3.245   2.444   8.739 -1.4450  0.7022  1.6836
 7520SOL    HW234023   3.166   2.563   8.728  0.6012  1.3142 -1.3943
 7521SOL     OW34024   0.659   0.735   4.298  0.1014 -0.1084 -0.2262
 7521SOL    HW134025   0.678   0.829   4.299  0.8709 -0.2583 -0.7234
 7521SOL    HW234026   0.575   0.732   4.252  0.7164  0.7048 -1.4142
 7522SOL     OW34027   1.117   4.695   7.515 -0.1815 -0.2320 -0.1394
 7522SOL    HW134028   1.031   4.674   7.552 -0.3996  1.5528  0.3814
 7522SOL    HW234029   1.131   4.628   7.448  1.6481 -0.1942  0.2067
 7523SOL     OW34030   2.648   3.974   3.686  0.2331  0.0928 -0.1719
 7523SOL    HW134031   2.635   3.897   3.631 -1.3898  1.7476 -2.1242
 7523SOL    HW234032   2.675   3.929   3.766 -0.0584 -1.0165 -0.6953
 7524SOL     OW34033   4.190   2.587  13.419  0.0887  0.7504  0.1352
 7524SOL    HW134034   4.106   2.588  13.373  0.0254  0.2879  0.2369
 7524SOL    HW234035   4.250   2.568  13.347 -0.2664  0.6382 -0.1341
 7525SOL     OW34036   4.224   0.103  14.162 -0.1982 -0.1491 -0.0662
 7525SOL    HW134037   4.176   0.153  14.227 -0.6567  2.1066 -2.1521
 7525SOL    HW234038   4.186   0.132  14.079 -0.3779  0.5432  0.2598
 7526SOL     OW34039   4.375   0.096   1.931  0.6428  0.1797  0.2590
 7526SOL    HW134040   4.334   0.180   1.955 -0.4718 -0.4614  0.6258
 7526SOL    HW234041   4.414   0.074   2.016  0.7046 -0.5271  0.0451
 7527SOL     OW34042   0.491   2.000   2.885 -0.2599  0.2786 -0.0686
 7527SOL    HW134043   0.437   2.053   2.825 -0.2746  0.9450  0.5431
 7527SOL    HW234044   0.501   1.920   2.833  0.3424  2.0380 -2.6351
 7528SOL     OW34045   2.279   1.351   2.190  0.6477 -0.0151  0.0469
 7528SOL    HW134046   2.261   1.257   2.197 -2.5746  0.6157  0.0494
 7528SOL    HW234047   2.259   1.385   2.277 -0.1053 -0.6326  0.1173
 7529SOL     OW34048   0.970   2.944   5.622 -0.3934 -0.0553  0.4569
 7529SOL    HW134049   1.046   2.922   5.568 -0.2079  0.6821  0.4143
 7529SOL    HW234050   0.944   3.020   5.570  0.7799 -0.3910 -0.6197
 7530SOL     OW34051   1.935   2.194  12.366 -0.2539  0.0462  0.5087
 7530SOL    HW134052   1.923   2.288  12.354 -0.3392 -0.5162 -3.7845
 7530SOL    HW234053   1.970   2.202  12.455 -3.0493 -0.1068  1.5975
 7531SOL     OW34054   2.838   3.653  16.094 -0.1156  0.3441  0.0413
 7531SOL    HW134055   2.929   3.641  16.066 -1.0133 -1.2727 -2.1704
 7531SOL    HW234056   2.801   3.581  16.043  1.7119  0.1497 -1.0188
 7532SOL     OW34057   4.566   2.935   6.675  0.2205 -0.2270  0.2356
 7532SOL    HW134058   4.647   2.886   6.692  0.5249 -0.2089 -1.1616
 7532SOL    HW234059   4.560   2.915   6.581 -0.3725  0.8516  0.0423
 7533SOL     OW34060   3.763   3.739   7.628 -0.1419 -0.1180 -0.2560
 7533SOL    HW134061   3.800   3.693   7.704 -2.1580 -1.0622  0.1515
 7533SOL    HW234062   3.756   3.827   7.665  2.7610  0.5077 -1.2099
 7534SOL     OW34063   2.460   1.617  15.977  0.0430  0.1907  0.7820
 7534SOL    HW134064   2.446   1.602  15.883  1.1550 -0.8209  0.7805
 7534SOL    HW234065   2.435   1.710  15.980 -0.7977  0.0150 -0.5884
 7535SOL     OW34066   4.528   4.585   7.804 -0.3765  0.2030  0.8985
 7535SOL    HW134067   4.585   4.570   7.879 -0.9490 -0.2098  1.2491
 7535SOL    HW234068   4.554   4.676   7.788 -0.0614 -0.1798 -0.7846
 7536SOL     OW34069   2.746   3.124   2.223 -0.6257  0.2315 -0.5892
 7536SOL    HW134070   2.786   3.073   2.294  0.0263  1.1561 -0.2955
 7536SOL    HW234071   2.657   3.089   2.227 -0.2399 -0.6764  0.0867
 7537SOL     OW34072   1.012   3.941   1.629 -0.2652 -0.0336 -0.2949
 7537SOL    HW134073   0.998   3.853   1.663  0.8608 -1.1956 -2.8078
 7537SOL    HW234074   0.921   3.970   1.633  0.2387  1.0698  2.9171
 7538SOL     OW34075   2.395   4.016   6.059 -0.3498 -0.4459 -0.5186
 7538SOL    HW134076   2.472   3.988   6.107 -2.5208 -3.1400  1.4332
 7538SOL    HW234077   2.349   4.062   6.130 -2.1004  2.6464 -3.6071
 7539SOL     OW34078   0.635   4.708  15.821 -0.2903 -0.6204 -0.5729
 7539SOL    HW134079   0.710   4.654  15.798  0.8469  0.1532  1.3323
 7539SOL    HW234080   0.636   0.044  15.747  2.5483  0.2518  0.1949
 7540SOL     OW34081   0.695   3.840   6.010 -0.8460 -0.6056  0.1208
 7540SOL    HW134082   0.774   3.839   6.065 -1.8887  2.5443  1.6420
 7540SOL    HW234083   0.721   3.787   5.935  1.4822 -1.2791  1.3888
 7541SOL     OW34084   4.020   2.448   4.031  0.3299  0.6513 -0.8709
 7541SOL    HW134085   3.980   2.445   3.944 -1.6227  0.3035  0.0421
 7541SOL    HW234086   4.098   2.394   4.015 -1.1728 -1.4916 -1.0190
 7542SOL     OW34087   0.764   4.011  17.477  0.2940  0.1650  0.3125
 7542SOL    HW134088   0.746   4.076  17.546  2.4199  0.3619  0.6945
 7542SOL    HW234089   0.733   3.934  17.524 -0.1864 -0.3387 -0.8431
 7543SOL     OW34090   3.290   4.609  14.284 -0.3123  0.6278 -0.0951
 7543SOL    HW134091   3.323   4.600  14.194 -1.7302 -0.0278 -0.5523
 7543SOL    HW234092   3.360   4.665  14.318 -0.0513 -1.8136  3.3010
 7544SOL     OW34093   4.310   0.478  17.689 -0.7470  0.3375  0.1903
 7544SOL    HW134094   4.398   0.516  17.692  0.2793 -2.0248 -0.1002
 7544SOL    HW234095   4.292   0.431   0.074  0.7211  3.2451  2.1976
 7545SOL     OW34096   1.856   0.368   7.421  0.0639 -0.0663 -0.0056
 7545SOL    HW134097   1.764   0.341   7.423 -0.3734  1.3547 -1.0688
 7545SOL    HW234098   1.898   0.316   7.351  0.4231  0.6551 -0.3249
 7546SOL     OW34099   3.838   1.341  16.999  0.5189 -0.1896 -0.0490
 7546SOL    HW134100   3.856   1.253  17.033 -0.9817 -0.6252 -0.3840
 7546SOL    HW234101   3.750   1.359  17.032  0.7671  1.2571 -0.1712
 7547SOL     OW34102   1.016   0.216   6.028 -0.5225 -0.0595 -0.7684
 7547SOL    HW134103   0.932   0.261   6.033  0.3137  1.4461 -0.2966
 7547SOL    HW234104   1.004   0.129   6.065 -4.6628  0.6501 -0.3957
 7548SOL     OW34105   2.651   3.431   7.901 -0.5133 -0.4613  0.3521
 7548SOL    HW134106   2.708   3.398   7.969  0.1497  0.5965  0.3038
 7548SOL    HW234107   2.710   3.479   7.842 -1.1503 -1.1436 -0.8543
 7549SOL     OW34108   1.854   1.306   7.821  0.4737  0.1310 -0.5654
 7549SOL    HW134109   1.877   1.213   7.821  1.3383  0.3229  1.0859
 7549SOL    HW234110   1.805   1.310   7.903 -1.2349 -2.1045 -1.4999
 7550SOL     OW34111   4.428   0.862  11.171 -0.5173  0.1297 -0.6117
 7550SOL    HW134112   4.397   0.797  11.108 -0.0860 -0.8091  0.1403
 7550SOL    HW234113   4.372   0.845  11.246  1.6843 -1.2344  0.7371
 7551SOL     OW34114   2.800   1.484   6.458 -0.1408 -0.2302 -0.2151
 7551SOL    HW134115   2.833   1.573   6.442  0.8378 -0.4625  0.5069
 7551SOL    HW234116   2.743   1.461   6.385 -0.9652 -0.7341  0.5903
 7552SOL     OW34117   0.312   1.732   3.107  0.2197  0.2606  0.5295
 7552SOL    HW134118   0.377   1.663   3.108  1.0447  1.0345 -1.0048
 7552SOL    HW234119   0.258   1.695   3.177  1.9433 -2.1951  0.5436
 7553SOL     OW34120   2.965   3.055  17.003 -1.0318  0.3096 -0.6091
 7553SOL    HW134121   2.986   3.084  17.092  2.7208 -0.4883 -1.2404
 7553SOL    HW234122   2.874   3.030  17.018 -0.1677 -0.6556  3.0828
 7554SOL     OW34123   1.731   4.212   2.510  0.1194  0.4626  0.3385
 7554SOL    HW134124   1.811   4.176   2.470  0.2701  2.1148 -0.8444
 7554SOL    HW234125   1.703   4.266   2.437 -1.4858 -0.4238  0.3169
 7555SOL     OW34126   2.093   3.920   3.821  0.3383 -0.1662 -0.1820
 7555SOL    HW134127   2.165   3.886   3.873  2.1459  2.0256 -1.2913
 7555SOL    HW234128   2.128   4.004   3.794  2.2951 -0.8204  0.3560
 7556SOL     OW34129   1.579   3.234   8.688 -0.0338  0.4397  0.1332
 7556SOL    HW134130   1.538   3.170   8.747  0.3984 -0.6727 -0.7866
 7556SOL    HW234131   1.609   3.303   8.747 -1.0414 -0.4977  1.7619
 7557SOL     OW34132   4.668   3.522   6.529  0.1055  0.0370  0.3674
 7557SOL    HW134133   4.592   3.570   6.495 -1.7641 -2.2271  1.3219
 7557SOL    HW234134   0.010   3.591   6.538 -0.3126  0.1919  2.1395
 7558SOL     OW34135   3.165   1.237   2.282  0.4253 -0.4525  0.4734
 7558SOL    HW134136   3.211   1.295   2.222  0.1024  1.0521  1.6841
 7558SOL    HW234137   3.243   1.210   2.330  0.2065 -1.9229  0.0039
 7559SOL     OW34138   3.405   0.296  10.792 -0.5092 -0.2420  0.1122
 7559SOL    HW134139   3.396   0.389  10.774 -0.3962 -0.1902  0.3265
 7559SOL    HW234140   3.450   0.268  10.712 -0.8752  1.0380 -0.5447
 7560SOL     OW34141   0.321   0.122   4.198 -0.5139  0.0813  0.8939
 7560SOL    HW134142   0.347   0.142   4.108 -3.1509  0.3033  0.1891
 7560SOL    HW234143   0.227   0.137   4.200 -0.6332 -0.7825  1.9167
 7561SOL     OW34144   3.914   2.274   8.227 -0.4428  0.1549 -0.4709
 7561SOL    HW134145   3.884   2.347   8.281 -0.7519  0.5105 -1.1226
 7561SOL    HW234146   3.945   2.324   8.152 -1.2279  0.4105 -0.6237
 7562SOL     OW34147   4.162   4.676   1.861  0.7720 -0.0507  0.6307
 7562SOL    HW134148   4.240   0.000   1.889  0.1902  0.1554  1.9428
 7562SOL    HW234149   4.206   4.595   1.836  2.5253  1.0933  0.0368
 7563SOL     OW34150   2.089   4.344  16.782  0.1533 -0.4963 -0.0376
 7563SOL    HW134151   2.162   4.282  16.774 -0.3809 -1.2904  1.3476
 7563SOL    HW234152   2.123   4.399  16.852 -1.7302  0.2366  0.3046
 7564SOL     OW34153   2.129   4.307   0.077  0.2970  0.3989  0.4047
 7564SOL    HW134154   2.064   4.255   0.030 -1.4950  0.3096  2.9406
 7564SOL    HW234155   2.155   4.244   0.144  1.0795  0.3605  0.0575
 7565SOL     OW34156   0.524   2.972   9.699 -0.4304 -0.5408 -0.8451
 7565SOL    HW134157   0.578   2.950   9.623  1.9134  1.6008  0.2094
 7565SOL    HW234158   0.563   3.054   9.729  1.1660 -1.9514  0.9087
 7566SOL     OW34159   2.888   2.454   3.495 -0.0376  0.3310 -0.0915
 7566SOL    HW134160   2.925   2.541   3.509 -0.8649  0.5750  0.5715
 7566SOL    HW234161   2.969   2.402   3.498 -0.4546 -0.3808 -1.2109
 7567SOL     OW34162   3.011   1.703   4.876  0.0313  0.2803  1.0495
 7567SOL    HW134163   3.006   1.633   4.942  1.7172 -0.4014  0.4591
 7567SOL    HW234164   2.917   1.718   4.869 -0.0691 -1.3824 -0.9282
 7568SOL     OW34165   0.369   2.567  14.831 -0.1291  0.1091 -0.4437
 7568SOL    HW134166   0.339   2.621  14.757 -0.2238  0.4841 -0.1335
 7568SOL    HW234167   0.464   2.578  14.824 -0.1310  0.5803  0.2876
 7569SOL     OW34168   3.137   4.155   5.859  0.3823  0.0073  0.2586
 7569SOL    HW134169   3.058   4.140   5.807 -1.0988  1.3151  2.1076
 7569SOL    HW234170   3.106   4.202   5.937  1.9782  1.7832 -0.1822
 7570SOL     OW34171   0.591   1.050   3.288  0.2753  0.4066 -0.0395
 7570SOL    HW134172   0.611   0.956   3.282 -3.5843 -0.5796  2.1735
 7570SOL    HW234173   0.666   1.087   3.243  0.2355 -0.7444 -1.0607
 7571SOL     OW34174   2.072   0.552   9.281 -0.2018  0.3959 -0.6209
 7571SOL    HW134175   2.071   0.643   9.254  0.0303  0.2339 -1.1678
 7571SOL    HW234176   2.052   0.569   9.373 -0.0842 -2.1552 -0.1197
 7572SOL     OW34177   0.853   4.556   8.349  0.1768 -0.3221  0.0725
 7572SOL    HW134178   0.819   4.506   8.274 -0.3879 -0.6075  0.5157
 7572SOL    HW234179   0.774   4.570   8.401  2.1082  0.3669  2.8092
 7573SOL     OW34180   3.885   2.012  12.415 -0.0325  0.2139  0.4205
 7573SOL    HW134181   3.916   1.932  12.372  2.0596  1.6591 -0.7571
 7573SOL    HW234182   3.791   2.000  12.421  0.0713 -0.4223  0.7625
 7574SOL     OW34183   3.689   0.316   4.204  0.1256 -0.8109  0.1637
 7574SOL    HW134184   3.643   0.236   4.180 -1.0378  0.0211 -0.3807
 7574SOL    HW234185   3.640   0.380   4.153  0.2549  0.3377  1.4603
 7575SOL     OW34186   4.044   1.217   1.593 -0.4550 -0.3020  0.2170
 7575SOL    HW134187   3.950   1.215   1.613 -0.5522  3.2593  0.2087
 7575SOL    HW234188   4.052   1.162   1.516 -1.0255 -1.4345  0.9632
 7576SOL     OW34189   4.301   0.826   0.474  0.3869 -0.8064  0.0454
 7576SOL    HW134190   4.288   0.918   0.453 -0.7967 -0.8202  0.6960
 7576SOL    HW234191   4.375   0.831   0.534  0.0446  0.1329  0.3955
 7577SOL     OW34192   2.229   3.300   2.189 -0.1926 -0.0663  0.2899
 7577SOL    HW134193   2.261   3.390   2.193 -0.7029  0.0820  1.1064
 7577SOL    HW234194   2.305   3.249   2.162 -1.2870 -1.1303 -0.7850
 7578SOL     OW34195   0.973   0.568  12.994 -0.4819 -0.2401 -0.0090
 7578SOL    HW134196   0.951   0.561  13.087 -0.3292 -2.7712 -0.1608
 7578SOL    HW234197   1.036   0.496  12.987 -0.3114 -0.0575 -0.3001
 7579SOL     OW34198   0.007   0.430   4.367 -0.4817 -0.5278 -0.7298
 7579SOL    HW134199   4.639   0.457   4.360 -0.4453 -0.1081  0.4055
 7579SOL    HW234200   4.722   0.340   4.397  0.3098 -0.2715  0.2859
 7580SOL     OW34201   2.958   1.661   6.727  0.1410  0.4072  0.1943
 7580SOL    HW134202   3.001   1.624   6.804 -1.2310 -1.4637  0.0633
 7580SOL    HW234203   2.870   1.623   6.727  0.9359 -1.4182  1.3132
 7581SOL     OW34204   4.016   0.312  15.539 -0.1349  0.0406  0.0642
 7581SOL    HW134205   4.036   0.244  15.474  2.7446  1.9062 -0.9893
 7581SOL    HW234206   4.106   0.329  15.565 -1.1335  0.7260  3.1090
 7582SOL     OW34207   4.372   0.988   7.189  0.1258 -0.5274  0.2882
 7582SOL    HW134208   4.421   1.048   7.245 -0.4828  0.8845 -0.6829
 7582SOL    HW234209   4.313   0.948   7.253  0.8263 -0.7650  0.7865
 7583SOL     OW34210   1.319   1.504  14.809  0.2005  0.3719  0.6215
 7583SOL    HW134211   1.302   1.465  14.724  2.0763 -0.8842  0.8407
 7583SOL    HW234212   1.369   1.433  14.848  1.3040 -0.7034 -2.7769
 7584SOL     OW34213   1.742   3.750   3.868 -0.1016  0.2698 -0.2202
 7584SOL    HW134214   1.696   3.833   3.885 -4.7966 -2.3660  0.0635
 7584SOL    HW234215   1.746   3.709   3.955 -2.2036  0.3579 -0.0716
 7585SOL     OW34216   4.254   1.979   6.734  0.1628  0.6705 -0.3640
 7585SOL    HW134217   4.160   1.963   6.722 -0.3345  1.6009  2.2350
 7585SOL    HW234218   4.249   2.065   6.776 -0.8454 -0.0969  1.1143
 7586SOL     OW34219   1.110   0.931   9.172  0.1387 -0.4981 -0.1175
 7586SOL    HW134220   1.114   0.974   9.086  0.1392 -0.4134 -0.0754
 7586SOL    HW234221   1.198   0.897   9.159 -0.8730 -2.7727 -1.1587
 7587SOL     OW34222   0.570   2.809   4.756 -0.3356 -0.2441  0.2692
 7587SOL    HW134223   0.535   2.795   4.668 -0.7524 -1.3868  0.6150
 7587SOL    HW234224   0.490   2.827   4.805 -0.4294  1.3835 -0.4612
 7588SOL     OW34225   0.527   3.914   4.095  0.2135 -0.1613 -0.1288
 7588SOL    HW134226   0.530   3.818   4.101  2.2818  0.0623  2.2754
 7588SOL    HW234227   0.621   3.917   4.080  0.6136  0.5699  2.5483
 7589SOL     OW34228   4.484   1.111   7.379 -0.2075  0.1488  0.0650
 7589SOL    HW134229   4.482   1.049   7.452 -0.0020  1.0755  0.8568
 7589SOL    HW234230   4.471   1.194   7.427 -2.5561  0.4663 -1.1023
 7590SOL     OW34231   2.837   4.072   7.201  0.4607  0.4275 -0.1061
 7590SOL    HW134232   2.850   4.146   7.260 -2.3560  0.4838  0.4720
 7590SOL    HW234233   2.758   4.032   7.238  1.2223 -1.8407 -0.9010
 7591SOL     OW34234   2.273   4.188   8.357  0.4745 -0.1085  0.0986
 7591SOL    HW134235   2.302   4.269   8.399  0.7729  0.1201 -0.5544
 7591SOL    HW234236   2.280   4.114   8.417 -1.0031  0.0810  0.5251
 7592SOL     OW34237   4.055   3.318   9.547 -0.1950 -0.1213 -0.0105
 7592SOL    HW134238   4.114   3.376   9.499  0.0271 -0.5225 -0.2255
 7592SOL    HW234239   4.068   3.241   9.492  0.4587 -1.0652  1.4448
 7593SOL     OW34240   3.011   1.452  12.817  0.3249  0.5541 -0.0907
 7593SOL    HW134241   2.916   1.453  12.805  0.2302  3.2116  0.9259
 7593SOL    HW234242   3.028   1.509  12.892 -1.4103  0.5777  0.2729
 7594SOL     OW34243   2.488   1.927   1.342 -0.1043  0.0275 -0.1131
 7594SOL    HW134244   2.543   1.948   1.417  0.3810  1.1386 -0.7743
 7594SOL    HW234245   2.408   1.893   1.381 -1.9952  2.3716 -1.8839
 7595SOL     OW34246   0.725   2.431   6.772 -0.3366  0.1073  0.1266
 7595SOL    HW134247   0.644   2.393   6.737 -1.1784  1.8337  0.1832
 7595SOL    HW234248   0.715   2.525   6.782 -0.6692 -0.0286  1.0405
 7596SOL     OW34249   4.678   4.454   3.468  0.1353 -0.0875 -0.9103
 7596SOL    HW134250   4.642   4.499   3.544  2.3733 -1.0002  0.6979
 7596SOL    HW234251   0.047   4.439   3.486 -0.5825 -0.2345  2.8394
 7597SOL     OW34252   1.533   1.306   6.441 -0.0045 -0.9168 -0.3034
 7597SOL    HW134253   1.456   1.319   6.497  1.0779 -1.3502  1.2950
 7597SOL    HW234254   1.485   1.307   6.359  1.1890 -0.7951 -1.0087
 7598SOL     OW34255   1.752   4.463   2.352  0.3698  0.5537  0.0207
 7598SOL    HW134256   1.720   4.544   2.314 -0.7905 -0.1413 -0.4809
 7598SOL    HW234257   1.847   4.468   2.362  0.4585  1.2081 -1.2227
 7599SOL     OW34258   1.648   3.212   1.852 -0.1835  0.3768  0.2363
 7599SOL    HW134259   1.553   3.211   1.845 -0.2384 -0.1679  1.0098
 7599SOL    HW234260   1.677   3.295   1.814  0.3590  0.7488  1.4572
 7600SOL     OW34261   2.369   1.386  10.340 -0.5251  0.0706 -0.1949
 7600SOL    HW134262   2.345   1.294  10.323  1.8462 -0.2432 -1.7227
 7600SOL    HW234263   2.464   1.378  10.330 -0.7929 -3.0854 -0.3157
 7601SOL     OW34264   1.078   1.476  17.523 -0.1452  0.0874  0.6332
 7601SOL    HW134265   1.008   1.458  17.585  0.3756 -0.0490  1.1844
 7601SOL    HW234266   1.030   1.545  17.479  0.2368  0.2002  0.3900
 7602SOL     OW34267   0.090   1.109   7.649 -0.2739  0.2382  0.5157
 7602SOL    HW134268   0.090   1.111   7.553  0.8593  2.8315  0.5588
 7602SOL    HW234269   0.145   1.032   7.660 -0.1463  0.1824 -0.4565
 7603SOL     OW34270   1.595   1.799  16.059 -0.0794 -0.0593  0.5882
 7603SOL    HW134271   1.674   1.845  16.032 -1.7741  3.6048  1.9181
 7603SOL    HW234272   1.591   1.794  16.155 -0.0601  1.2847  0.6564
 7604SOL     OW34273   0.766   1.649   2.610  0.1490 -0.0267 -0.5660
 7604SOL    HW134274   0.714   1.666   2.531  1.4022  0.1729 -1.3450
 7604SOL    HW234275   0.856   1.668   2.581 -0.6691  0.4745 -2.8217
 7605SOL     OW34276   1.491   0.189   8.491 -0.4526  0.4579  0.3078
 7605SOL    HW134277   1.584   0.178   8.506 -0.2249  1.1798 -0.5625
 7605SOL    HW234278   1.481   0.280   8.461 -0.8956  0.1268 -0.5749
 7606SOL     OW34279   3.801   0.245   8.005  0.1773  0.3562  0.1242
 7606SOL    HW134280   3.750   0.228   8.084  0.5470 -0.1544  0.2593
 7606SOL    HW234281   3.757   0.188   7.942 -0.6165  1.9523 -0.7409
 7607SOL     OW34282   3.504   0.024  14.116  0.2783  0.4096  0.1895
 7607SOL    HW134283   3.422   0.007  14.068  0.8730 -1.1526 -0.2749
 7607SOL    HW234284   3.494   0.107  14.164  1.9741 -0.0342  1.2953
 7608SOL     OW34285   3.014   1.733   5.907  0.1952  0.0731  0.8512
 7608SOL    HW134286   3.028   1.826   5.886  0.0977  0.1969  1.3369
 7608SOL    HW234287   3.045   1.688   5.829  0.7012 -0.1125  1.1629
 7609SOL     OW34288   0.441   0.634   3.975  0.0862 -0.6653  0.4225
 7609SOL    HW134289   0.531   0.624   3.946  0.3555  0.2190  0.9549
 7609SOL    HW234290   0.425   0.701   3.908  0.4409 -0.9934  0.0128
 7610SOL     OW34291   0.332   0.742   4.183 -0.3063 -0.1537  0.0594
 7610SOL    HW134292   0.243   0.708   4.196 -1.1412  2.3202  0.8704
 7610SOL    HW234293   0.361   0.692   4.107  1.1535 -0.7731  1.0272
 7611SOL     OW34294   4.591   4.466   5.493  0.7598  0.0082  0.0757
 7611SOL    HW134295   4.604   4.443   5.585 -1.4296 -1.5907 -0.0201
 7611SOL    HW234296   4.496   4.477   5.487  0.6169  0.9707  3.9590
 7612SOL     OW34297   0.966   1.152   6.008 -0.3221 -0.3201  0.0052
 7612SOL    HW134298   1.007   1.121   5.928  0.9912 -0.1689  0.6235
 7612SOL    HW234299   0.908   1.222   5.979 -1.1774 -0.9543  0.1777
 7613SOL     OW34300   0.228   4.459   6.194  0.4699 -0.8614 -0.2049
 7613SOL    HW134301   0.297   4.403   6.159  0.0620 -2.7281  1.9142
 7613SOL    HW234302   0.267   4.468   6.282  1.2869 -1.5261 -0.5005
 7614SOL     OW34303   4.496   1.465  12.671  0.0853  0.2057 -0.5920
 7614SOL    HW134304   4.491   1.557  12.697  0.7940 -0.0176  0.3493
 7614SOL    HW234305   4.434   1.467  12.598 -0.5162 -2.4514 -0.1513
 7615SOL     OW34306   4.589   3.535   2.270  0.1823 -0.5264 -0.1727
 7615SOL    HW134307   4.656   3.477   2.234 -0.4167 -0.5273 -1.3070
 7615SOL    HW234308   4.512   3.480   2.255 -0.5456  1.1754 -2.6342
 7616SOL     OW34309   2.335   4.290  11.670  0.5585 -0.3532 -0.4343
 7616SOL    HW134310   2.251   4.279  11.624  1.6739 -2.8892 -1.8623
 7616SOL    HW234311   2.355   4.380  11.643 -0.8819  0.7323  2.1112
 7617SOL     OW34312   3.602   1.407   0.328  0.5964 -0.3489 -0.3508
 7617SOL    HW134313   3.634   1.395   0.417  0.1286 -0.1980 -0.1621
 7617SOL    HW234314   3.545   1.482   0.338  0.3220 -0.7669  1.2462
 7618SOL     OW34315   0.317   0.491   2.817 -0.1411 -0.0469  0.3221
 7618SOL    HW134316   0.361   0.487   2.733  1.5523  1.7297  1.1114
 7618SOL    HW234317   0.355   0.415   2.861  3.9277  1.8673  0.1198
 7619SOL     OW34318   1.252   1.228   8.223  0.5957  0.7405  0.1790
 7619SOL    HW134319   1.165   1.255   8.255  0.0710  1.4355 -1.8516
 7619SOL    HW234320   1.303   1.225   8.304 -0.6276 -0.9762  0.8915
 7620SOL     OW34321   4.030   2.708  11.148 -0.4224 -0.1090 -0.3335
 7620SOL    HW134322   3.986   2.637  11.196  0.9528 -0.1396  0.8815
 7620SOL    HW234323   4.120   2.677  11.157  0.4709  2.5030 -0.2630
 7621SOL     OW34324   4.337   3.453   2.773 -0.1812 -0.1514 -0.6647
 7621SOL    HW134325   4.396   3.517   2.733  1.2307  0.4746  2.4647
 7621SOL    HW234326   4.252   3.495   2.762 -0.8499 -1.3459 -0.1017
 7622SOL     OW34327   3.360   1.729  12.418  0.4590  0.0019 -0.3623
 7622SOL    HW134328   3.335   1.819  12.440  0.6413 -0.0312 -0.0176
 7622SOL    HW234329   3.402   1.729  12.332  1.7058  3.0496  0.2363
 7623SOL     OW34330   4.119   2.388   6.653 -0.0563 -0.2240  0.1564
 7623SOL    HW134331   4.094   2.389   6.560 -2.0740  0.6923  0.7215
 7623SOL    HW234332   4.143   2.479   6.666  0.3582 -0.8246  3.5776
 7624SOL     OW34333   1.225   2.120   5.874  0.6181  0.6272  0.0585
 7624SOL    HW134334   1.290   2.090   5.810  0.7578 -1.2356  1.0601
 7624SOL    HW234335   1.168   2.043   5.871  1.7722 -0.0844 -3.6118
 7625SOL     OW34336   1.856   0.494   5.250 -0.0250  0.2794 -0.2284
 7625SOL    HW134337   1.852   0.536   5.164 -1.1315 -0.7297 -0.6830
 7625SOL    HW234338   1.767   0.457   5.253  0.6042 -1.0516  1.7800
 7626SOL     OW34339   3.032   1.114   3.682 -0.2232  0.4180 -0.2885
 7626SOL    HW134340   3.106   1.166   3.649  0.0777 -0.7741 -1.4969
 7626SOL    HW234341   3.065   1.032   3.644 -2.3795 -1.3574  1.7375
 7627SOL     OW34342   1.477   3.835   7.675 -0.3838  0.4136  0.2744
 7627SOL    HW134343   1.514   3.753   7.707 -1.9192 -0.8062 -1.0520
 7627SOL    HW234344   1.511   3.841   7.586  1.8411 -1.1898  1.0329
 7628SOL     OW34345   2.200   3.345  14.569  0.4069  0.4167  0.0613
 7628SOL    HW134346   2.161   3.303  14.645  0.6360  2.2401  1.1952
 7628SOL    HW234347   2.146   3.307  14.500  0.0285 -1.0988  1.1954
 7629SOL     OW34348   4.383   0.321   7.200  0.5419 -0.0507  0.1923
 7629SOL    HW134349   4.331   0.335   7.279  1.4923 -1.2116  1.0196
 7629SOL    HW234350   4.390   0.226   7.200  0.6933 -0.0430  1.9661
 7630SOL     OW34351   1.230   2.321   7.399 -0.1645  0.1517  0.5652
 7630SOL    HW134352   1.302   2.260   7.418 -1.3708 -1.8252 -1.2921
 7630SOL    HW234353   1.276   2.367   7.328  0.4232 -0.6544  0.4253
 7631SOL     OW34354   3.342   1.200  15.019 -0.3464 -0.0283  1.0530
 7631SOL    HW134355   3.249   1.193  15.000  0.1516 -1.2973 -0.9211
 7631SOL    HW234356   3.387   1.160  14.944 -1.0996  0.5821  0.2730
 7632SOL     OW34357   2.833   2.102  15.044 -0.2718  0.8111 -0.5018
 7632SOL    HW134358   2.777   2.179  15.053  1.7241  2.5375 -2.8475
 7632SOL    HW234359   2.786   2.056  14.975  0.5539  1.8705 -1.7693
 7633SOL     OW34360   4.070   2.829  16.428  0.1465 -0.1507  0.5785
 7633SOL    HW134361   4.011   2.886  16.478 -0.6010 -0.7821  0.4278
 7633SOL    HW234362   4.098   2.891  16.361 -1.4600 -0.6607 -0.5771
 7634SOL     OW34363   0.378   3.160   8.178 -0.1979  0.1476 -0.0890
 7634SOL    HW134364   0.357   3.232   8.237  1.6069 -0.2643  1.0639
 7634SOL    HW234365   0.426   3.202   8.106  0.3576 -1.5551 -0.7120
 7635SOL     OW34366   2.881   3.740   3.639  0.0510  0.1413 -0.1880
 7635SOL    HW134367   2.890   3.666   3.579 -3.3737  0.8870 -1.6167
 7635SOL    HW234368   2.921   3.807   3.584 -0.1221 -0.3585 -0.9159
 7636SOL     OW34369   1.400   4.647   1.055  0.4043 -0.1935  0.3673
 7636SOL    HW134370   1.490   4.673   1.038  0.1469  0.7175  0.3888
 7636SOL    HW234371   1.364   0.011   1.066  0.4886 -0.2337  0.9597
 7637SOL     OW34372   4.092   0.291  13.980 -0.8023 -0.1214  0.0194
 7637SOL    HW134373   4.109   0.382  14.003 -0.4691  0.3999 -2.2833
 7637SOL    HW234374   4.130   0.280  13.892  0.2557  2.0367  0.1973
 7638SOL     OW34375   0.948   0.598   1.032  0.8166  0.2474 -0.0116
 7638SOL    HW134376   1.016   0.541   1.068  1.2256  0.4941 -0.3939
 7638SOL    HW234377   0.880   0.576   1.096  0.6709 -0.5123 -0.4231
 7639SOL     OW34378   4.215   0.897  15.285 -0.4061  0.4285  0.0836
 7639SOL    HW134379   4.140   0.908  15.226 -0.0310  0.9615 -0.2884
 7639SOL    HW234380   4.232   0.989  15.302  1.4392 -0.0511  0.8645
 7640SOL     OW34381   4.273   2.747   3.079  1.1875  0.4080 -0.3213
 7640SOL    HW134382   4.198   2.757   3.020  0.7509  0.6516  0.2739
 7640SOL    HW234383   4.248   2.816   3.141  0.2750 -0.3589  0.1747
 7641SOL     OW34384   4.181   1.427   0.183  0.1945 -0.0819 -0.1625
 7641SOL    HW134385   4.241   1.360   0.217  0.2866  0.0010 -0.1630
 7641SOL    HW234386   4.226   1.510   0.193  1.1222 -0.7737  1.3717
 7642SOL     OW34387   4.576   4.336   6.039  0.1666 -0.0393  0.0909
 7642SOL    HW134388   4.609   4.416   6.080  0.1615  1.3466 -2.6173
 7642SOL    HW234389   4.523   4.301   6.110  0.6277 -2.4567 -0.7324
 7643SOL     OW34390   1.026   3.317   8.869  0.2831 -0.4699 -0.4513
 7643SOL    HW134391   1.106   3.329   8.920 -1.0086 -3.4794  2.2651
 7643SOL    HW234392   1.063   3.264   8.798  0.3942 -1.3178  0.2521
 7644SOL     OW34393   3.576   3.221   4.356 -0.3483 -0.3102 -0.2092
 7644SOL    HW134394   3.669   3.239   4.348  0.0343 -2.0858  0.2528
 7644SOL    HW234395   3.564   3.183   4.269 -1.4194  0.1147 -0.2520
 7645SOL     OW34396   0.875   4.579   6.143 -0.1675  0.2183 -0.0941
 7645SOL    HW134397   0.964   4.614   6.141  0.0637 -0.5522 -3.1436
 7645SOL    HW234398   0.892   4.510   6.206 -2.1915  1.1377  1.4720
 7646SOL     OW34399   2.936   3.853   9.371 -0.1976 -0.3051  0.3394
 7646SOL    HW134400   2.893   3.911   9.308  3.0376 -1.0507 -2.5513
 7646SOL    HW234401   2.909   3.880   9.459  0.0607  0.9511  0.0312
 7647SOL     OW34402   4.627   4.599   5.240 -0.9577 -0.2612 -0.2256
 7647SOL    HW134403   4.707   4.633   5.200  0.3021 -0.1355  2.4266
 7647SOL    HW234404   4.646   4.598   5.334  0.1528  2.0069 -0.4432
 7648SOL     OW34405   2.819   1.034  10.967  0.4134 -0.1886 -0.4821
 7648SOL    HW134406   2.772   0.968  10.915 -0.6069  0.8956 -0.9468
 7648SOL    HW234407   2.908   1.008  10.942  0.5071  0.7748 -1.1486
 7649SOL     OW34408   0.835   0.841   8.622 -0.4135 -0.0025 -0.2093
 7649SOL    HW134409   0.883   0.761   8.601  0.4994  0.0960  1.5156
 7649SOL    HW234410   0.886   0.862   8.700 -0.9896 -0.2239  0.2323
 7650SOL     OW34411   0.909   1.314   4.521 -1.0033 -0.1789 -0.1563
 7650SOL    HW134412   0.978   1.270   4.472 -1.0053  0.1917 -0.4916
 7650SOL    HW234413   0.942   1.404   4.521  0.0641 -0.5770 -2.0028
 7651SOL     OW34414   3.511   4.319   2.352 -0.1994 -0.3156  0.0750
 7651SOL    HW134415   3.446   4.302   2.420 -0.9375  0.6864 -0.3758
 7651SOL    HW234416   3.465   4.354   2.275 -0.9806  0.0033  0.6851
 7652SOL     OW34417   0.918   0.079   8.646 -0.4000  0.2428 -0.0174
 7652SOL    HW134418   0.886   0.069   8.556  0.7776 -1.1136 -0.2881
 7652SOL    HW234419   0.941   4.712   8.667 -0.6111 -0.1220 -1.3675
 7653SOL     OW34420   2.716   3.847  14.162  0.3772 -0.5556  0.3975
 7653SOL    HW134421   2.700   3.887  14.247 -0.1083  0.4233 -0.1640
 7653SOL    HW234422   2.679   3.759  14.170 -1.4028  0.1854  0.2386
 7654SOL     OW34423   1.585   2.296  16.014  0.0498  0.0597 -0.5292
 7654SOL    HW134424   1.490   2.306  16.010 -0.0525  0.5209  2.9597
 7654SOL    HW234425   1.605   2.309  16.107 -0.5534  1.3078 -0.5666
 7655SOL     OW34426   3.281   1.287   3.317  0.4243  0.1190  0.4336
 7655SOL    HW134427   3.354   1.244   3.272 -1.0349 -0.1007 -1.6999
 7655SOL    HW234428   3.216   1.217   3.315  0.9504 -0.3169 -1.4583
 7656SOL     OW34429   0.571   3.294   9.641 -0.1137  0.0166  0.3533
 7656SOL    HW134430   0.591   3.235   9.568 -3.0055  0.4353 -0.7722
 7656SOL    HW234431   0.478   3.316   9.636  0.1752  1.3530  0.9213
 7657SOL     OW34432   0.952   2.507   1.593  0.6785  0.0312  0.4587
 7657SOL    HW134433   0.997   2.584   1.631  1.0923  0.4607 -0.9188
 7657SOL    HW234434   1.008   2.438   1.629  0.2162 -0.2361  0.6597
 7658SOL     OW34435   1.451   1.480  17.438 -0.0219  0.0803  0.2855
 7658SOL    HW134436   1.462   1.396  17.393 -1.0429 -0.1916  0.5477
 7658SOL    HW234437   1.382   1.518  17.384  0.0353  2.8753  2.2074
 7659SOL     OW34438   4.656   1.895  11.891  0.0611 -0.1219  0.2280
 7659SOL    HW134439   4.670   1.812  11.936 -1.4326 -0.2792  0.4320
 7659SOL    HW234440   4.674   1.861  11.803  1.0193  0.8549  0.0513
 7660SOL     OW34441   1.115   4.627   5.418 -0.2649 -0.3240 -0.0017
 7660SOL    HW134442   1.117   4.722   5.412 -1.5018 -0.1366  2.5315
 7660SOL    HW234443   1.021   4.611   5.426  0.0066 -0.6292  2.5488
 7661SOL     OW34444   1.126   1.427  10.714 -0.1810  0.3018  0.8568
 7661SOL    HW134445   1.134   1.377  10.633 -0.7528  0.4646  0.7006
 7661SOL    HW234446   1.210   1.472  10.699 -0.6370  0.9188  0.0988
 7662SOL     OW34447   2.185   0.634  16.435 -0.1032  0.2672 -0.1576
 7662SOL    HW134448   2.103   0.645  16.386 -0.0949  0.8613 -0.0433
 7662SOL    HW234449   2.216   0.722  16.415 -1.7154  0.3850 -2.1579
 7663SOL     OW34450   3.704   2.062  15.570  0.3284  0.0506 -0.0499
 7663SOL    HW134451   3.652   2.011  15.632 -0.5476  1.6477  0.5217
 7663SOL    HW234452   3.676   2.028  15.485 -3.8410  0.1539  1.2739
 7664SOL     OW34453   2.988   1.530   5.112 -0.6449  0.1496 -0.1269
 7664SOL    HW134454   3.074   1.487   5.117  0.3650  2.0733 -0.7013
 7664SOL    HW234455   2.955   1.511   5.199  0.3410 -0.9884  0.0116
 7665SOL     OW34456   0.662   4.459   6.540 -0.0777  0.0809 -0.3264
 7665SOL    HW134457   0.752   4.465   6.509 -0.2487 -1.8853 -1.2119
 7665SOL    HW234458   0.683   4.451   6.633  2.6121  2.7132 -0.7016
 7666SOL     OW34459   0.657   0.063   7.820  0.3779 -0.2387 -0.0306
 7666SOL    HW134460   0.566   0.040   7.838  0.8226 -1.7426  0.3718
 7666SOL    HW234461   0.653   0.152   7.853 -0.0940 -0.1757 -0.2636
 7667SOL     OW34462   2.180   2.239   2.170 -0.0430  0.1262  0.3887
 7667SOL    HW134463   2.109   2.291   2.207  0.1239 -0.6609  1.8148
 7667SOL    HW234464   2.165   2.275   2.082 -1.7061 -0.2846  0.5113
 7668SOL     OW34465   3.646   2.326  11.021  0.1744 -0.4078 -0.6587
 7668SOL    HW134466   3.621   2.242  10.980 -0.2882 -1.0907  1.0324
 7668SOL    HW234467   3.640   2.294  11.111 -1.4891  2.4840  0.2422
 7669SOL     OW34468   4.615   2.972  11.558 -0.3572 -0.4447  0.2555
 7669SOL    HW134469   4.617   3.026  11.637  1.5234  1.4247 -1.0727
 7669SOL    HW234470   4.674   3.023  11.503 -1.7213  2.2997  1.3543
 7670SOL     OW34471   2.126   1.946  13.317  0.3061 -0.5244  0.3332
 7670SOL    HW134472   2.211   1.903  13.313  0.4234 -0.2720  0.0999
 7670SOL    HW234473   2.141   1.997  13.396 -0.6023  1.9806 -1.1120
 7671SOL     OW34474   1.434   2.350   9.247 -0.0221  0.4211  0.3642
 7671SOL    HW134475   1.340   2.368   9.248 -0.3379 -1.0925 -1.2858
 7671SOL    HW234476   1.455   2.321   9.336  3.0409  1.1315 -0.1176
 7672SOL     OW34477   1.651   2.539   6.322  0.2440  0.0894 -0.2057
 7672SOL    HW134478   1.650   2.444   6.332 -1.1444  0.1626  0.3887
 7672SOL    HW234479   1.572   2.547   6.268  0.1868 -0.2406 -0.1706
 7673SOL     OW34480   3.661   3.550   8.835  0.0650 -0.5077  0.4574
 7673SOL    HW134481   3.666   3.529   8.928  1.6974  2.2802  0.9978
 7673SOL    HW234482   3.736   3.500   8.802  0.9217 -0.1357  1.8426
 7674SOL     OW34483   2.339   4.453  15.795 -0.5446 -0.1130 -0.4296
 7674SOL    HW134484   2.309   4.366  15.820  1.3234 -0.4428  0.6729
 7674SOL    HW234485   2.432   4.444  15.816 -0.6956  2.3164  1.4180
 7675SOL     OW34486   2.166   1.531   1.739  0.1343 -0.4142 -0.7827
 7675SOL    HW134487   2.098   1.481   1.694 -0.4112 -1.9937  1.7693
 7675SOL    HW234488   2.228   1.459   1.752  1.1551  0.9713  2.1040
 7676SOL     OW34489   2.106   1.619   3.017 -0.0334 -0.1230 -0.1496
 7676SOL    HW134490   2.146   1.539   3.051 -1.7002 -0.5988  0.7056
 7676SOL    HW234491   2.162   1.632   2.941 -0.0578 -0.0971 -0.1630
 7677SOL     OW34492   1.158   1.788   3.251  0.1177 -0.8748 -0.5955
 7677SOL    HW134493   1.171   1.707   3.202  0.4284 -0.8453 -0.5629
 7677SOL    HW234494   1.126   1.844   3.181  0.2615 -0.4650 -0.3316
 7678SOL     OW34495   1.243   0.464  17.358  0.7405 -0.4574 -0.1511
 7678SOL    HW134496   1.232   0.431  17.268 -0.5150 -0.9938  0.1965
 7678SOL    HW234497   1.174   0.530  17.358  1.2142  0.0400  1.5720
 7679SOL     OW34498   1.649   0.825   7.480  0.0431 -0.3461  0.4387
 7679SOL    HW134499   1.573   0.768   7.467 -0.3194  0.4433 -1.0167
 7679SOL    HW234500   1.713   0.768   7.521 -0.8733 -0.1925  2.0612
 7680SOL     OW34501   2.792   1.264   7.822  0.3102  0.0573 -0.5373
 7680SOL    HW134502   2.742   1.313   7.887  0.2802  0.4349 -0.8403
 7680SOL    HW234503   2.878   1.256   7.864 -0.4726 -2.3340  0.5831
 7681SOL     OW34504   2.317   4.651   0.798  0.0814 -0.2465 -0.5901
 7681SOL    HW134505   2.386   4.594   0.831  0.5401 -0.4664 -1.9065
 7681SOL    HW234506   2.369   4.714   0.747 -1.2870  0.1585 -1.4936
 7682SOL     OW34507   2.615   0.823   6.278 -0.3852 -0.0449 -0.8207
 7682SOL    HW134508   2.654   0.886   6.218  0.9834  1.3889  1.5544
 7682SOL    HW234509   2.557   0.879   6.331  1.1911  0.5128  0.2966
 7683SOL     OW34510   0.153   0.537   1.258  0.1567  0.2092 -0.1673
 7683SOL    HW134511   0.229   0.549   1.314 -1.2082 -0.7270  1.8909
 7683SOL    HW234512   0.110   0.623   1.261 -0.3253 -0.0360 -0.0443
 7684SOL     OW34513   3.959   2.984   4.421  0.2631  0.4084 -0.0138
 7684SOL    HW134514   3.954   3.064   4.474  0.1020  0.1359  0.3819
 7684SOL    HW234515   4.015   3.016   4.351 -0.5593  2.2773  0.1796
 7685SOL     OW34516   4.601   1.229  12.598 -0.6142 -0.2724 -0.1965
 7685SOL    HW134517   4.570   1.316  12.623 -1.0537 -1.0260  1.8254
 7685SOL    HW234518   4.682   1.223  12.649 -0.9243  2.2554  0.5811
 7686SOL     OW34519   3.231   1.707  13.517 -0.2553  0.0191 -0.4435
 7686SOL    HW134520   3.179   1.663  13.584  2.4253  1.0868  2.3415
 7686SOL    HW234521   3.239   1.798  13.547 -0.2069 -0.9491  2.4843
 7687SOL     OW34522   1.274   3.174  12.692 -0.1098 -0.3792 -0.0108
 7687SOL    HW134523   1.224   3.238  12.641  0.3909  1.3857  1.6988
 7687SOL    HW234524   1.363   3.180  12.656  0.4940 -0.0970  1.4848
 7688SOL     OW34525   3.190   2.494   9.142  0.2162 -0.6486  0.0554
 7688SOL    HW134526   3.182   2.588   9.154  1.0518 -0.4150 -1.1789
 7688SOL    HW234527   3.102   2.474   9.174 -0.6524 -0.1572 -2.0438
 7689SOL     OW34528   3.809   1.347  10.345  0.4012 -0.2649 -0.2489
 7689SOL    HW134529   3.798   1.382  10.434 -0.3103 -1.8346  0.2852
 7689SOL    HW234530   3.862   1.270  10.365 -1.3291 -1.6403 -0.9255
 7690SOL     OW34531   3.543   1.044  17.130  0.5044  0.8098  0.0301
 7690SOL    HW134532   3.489   1.085  17.062 -1.5792 -1.3813  0.3831
 7690SOL    HW234533   3.595   1.117  17.162 -2.5119  1.9679  2.3158
 7691SOL     OW34534   2.312   0.433   9.353 -0.3288  0.1977 -0.4452
 7691SOL    HW134535   2.226   0.460   9.322 -1.2409 -2.4658 -0.2871
 7691SOL    HW234536   2.374   0.494   9.314 -1.1772  1.2426 -0.1373
 7692SOL     OW34537   4.094   2.819   6.170  0.2734 -0.1201  0.4419
 7692SOL    HW134538   4.137   2.802   6.086  0.6457 -0.2875  0.6643
 7692SOL    HW234539   4.086   2.914   6.170  0.1135 -0.1413 -0.5538
 7693SOL     OW34540   4.352   0.892   3.435 -0.6545  0.0228 -0.1618
 7693SOL    HW134541   4.393   0.813   3.472 -2.2027 -1.6045 -1.9567
 7693SOL    HW234542   4.279   0.910   3.494 -2.1316  1.5785 -2.4999
 7694SOL     OW34543   2.422   3.246   7.878  0.0886 -0.0863 -0.1498
 7694SOL    HW134544   2.495   3.308   7.885  1.7851 -2.0894 -0.0545
 7694SOL    HW234545   2.365   3.293   7.940  1.4481  1.9326 -0.4129
 7695SOL     OW34546   1.107   0.324   7.930 -0.2190 -0.2132  0.2082
 7695SOL    HW134547   1.133   0.384   7.860  0.0174  0.0969  0.5712
 7695SOL    HW234548   1.159   0.244   7.917  1.1375  0.5713  0.9711
 7696SOL     OW34549   0.107   3.987   0.462  1.0117 -0.1893  0.5172
 7696SOL    HW134550   0.187   3.952   0.422  0.0308 -0.5607 -1.0753
 7696SOL    HW234551   0.042   3.917   0.453  2.5700 -1.3339 -1.8683
 7697SOL     OW34552   3.205   0.008   6.778 -0.1566  0.5365  0.5235
 7697SOL    HW134553   3.254   0.064   6.719  1.1147 -1.3554 -0.2098
 7697SOL    HW234554   3.169   4.671   6.713  1.0111  1.0159 -0.5475
 7698SOL     OW34555   0.239   1.481   4.058  0.0149 -0.0512 -0.2260
 7698SOL    HW134556   0.183   1.508   3.985 -1.7947 -1.2113  0.7446
 7698SOL    HW234557   0.294   1.416   4.015  0.6399 -1.2887  2.4666
 7699SOL     OW34558   1.282   4.264  10.505 -0.5641 -0.2412  0.4918
 7699SOL    HW134559   1.309   4.243  10.416 -0.3935 -1.5894  0.8719
 7699SOL    HW234560   1.324   4.197  10.558  1.0022 -0.2540 -0.7838
 7700SOL     OW34561   1.425   0.269   8.163 -0.0622 -0.0227 -0.0409
 7700SOL    HW134562   1.515   0.281   8.131  0.1245  2.7036  1.4840
 7700SOL    HW234563   1.390   0.210   8.097 -0.1451 -1.4018  1.2162
 7701SOL     OW34564   1.471   1.149  14.185 -0.5844  0.2136 -0.3224
 7701SOL    HW134565   1.394   1.184  14.140 -1.0643 -3.1752 -2.1480
 7701SOL    HW234566   1.445   1.059  14.206 -0.0362  0.1368  0.0109
 7702SOL     OW34567   2.231   4.096  13.131 -0.0805  0.1268 -0.3323
 7702SOL    HW134568   2.250   4.145  13.211 -0.1196 -0.4927  0.0595
 7702SOL    HW234569   2.275   4.143  13.061 -0.6952 -0.1992 -0.9308
 7703SOL     OW34570   1.274   4.717   8.254 -0.0971 -0.0365 -0.6649
 7703SOL    HW134571   1.337   0.054   8.292 -2.3336  0.0784  2.7806
 7703SOL    HW234572   1.334   4.663   8.203  0.5797 -0.0984  0.2023
 7704SOL     OW34573   3.653   1.008  12.197 -0.5322 -0.0353  1.1608
 7704SOL    HW134574   3.725   0.992  12.258 -0.0987 -0.3354  0.5680
 7704SOL    HW234575   3.593   1.051  12.258 -0.0224  1.1497  0.8394
 7705SOL     OW34576   2.034   4.460   1.495  0.1724  0.4735  0.4353
 7705SOL    HW134577   2.090   4.384   1.477  1.5189  1.5226  0.1952
 7705SOL    HW234578   2.066   4.518   1.425  0.7170  0.0686  0.3400
 7706SOL     OW34579   0.555   4.328   0.844  0.1917  0.0554  0.2450
 7706SOL    HW134580   0.548   4.285   0.930 -2.5930 -2.5150 -1.2718
 7706SOL    HW234581   0.640   4.292   0.818 -0.1552 -0.2592 -0.4542
 7707SOL     OW34582   3.717   3.001  15.578 -0.5646 -0.1106 -0.6727
 7707SOL    HW134583   3.780   3.045  15.521  0.2763 -0.6140 -0.1205
 7707SOL    HW234584   3.673   3.077  15.616  1.7322  1.1279 -0.5125
 7708SOL     OW34585   4.408   3.589   0.969  0.3650 -0.1324 -0.0626
 7708SOL    HW134586   4.378   3.661   1.025 -1.0867 -0.4881 -0.3911
 7708SOL    HW234587   4.429   3.644   0.893  0.2812  0.3546  0.2675
 7709SOL     OW34588   3.642   4.539   9.016 -0.0026 -0.9331  0.1567
 7709SOL    HW134589   3.570   4.527   8.954  2.0626  0.4443 -2.4738
 7709SOL    HW234590   3.706   4.575   8.956  0.0384  0.8995  1.3021
 7710SOL     OW34591   3.844   0.171  13.975 -0.0367  0.4959  0.2013
 7710SOL    HW134592   3.928   0.210  14.000  1.0056 -1.9798  0.6220
 7710SOL    HW234593   3.853   0.094  14.032 -0.3742  0.5099  0.2722
 7711SOL     OW34594   1.596   0.962   4.173 -0.4904  0.2957 -0.1360
 7711SOL    HW134595   1.555   0.878   4.152 -1.5431  0.7540  0.1319
 7711SOL    HW234596   1.644   0.992   4.096  1.9537 -0.4480  1.0890
 7712SOL     OW34597   1.956   2.200  12.629 -0.0022  0.2008 -0.0453
 7712SOL    HW134598   1.917   2.279  12.666  0.0132 -0.4359  1.3124
 7712SOL    HW234599   1.998   2.172  12.710 -1.4013  2.3193  1.4020
 7713SOL     OW34600   2.814   1.310   6.654  0.2219  0.0386 -0.8961
 7713SOL    HW134601   2.907   1.284   6.650 -0.2283 -1.8711  0.8197
 7713SOL    HW234602   2.801   1.371   6.582  1.3896 -1.0005 -1.9866
 7714SOL     OW34603   4.383   4.017   3.387 -0.0634 -0.2971  0.4204
 7714SOL    HW134604   4.438   4.093   3.401 -0.5686  0.0865  0.3113
 7714SOL    HW234605   4.448   3.946   3.392  0.6155  0.2952 -0.0048
 7715SOL     OW34606   3.679   2.681   8.373 -0.0580 -0.8184 -0.1200
 7715SOL    HW134607   3.753   2.653   8.319 -0.5878 -2.6071  0.0921
 7715SOL    HW234608   3.606   2.628   8.343 -0.1279  0.6321 -2.5315
 7716SOL     OW34609   1.691   2.790   2.541 -0.2399 -0.1431  0.1880
 7716SOL    HW134610   1.676   2.834   2.625  0.0358  1.3582 -0.5505
 7716SOL    HW234611   1.754   2.849   2.501  0.0100 -0.6604 -0.1800
 7717SOL     OW34612   0.439   3.404  14.846  0.6399  0.2411  0.3271
 7717SOL    HW134613   0.379   3.390  14.772  1.4906  0.3522 -0.3755
 7717SOL    HW234614   0.497   3.329  14.840  0.6963  0.2043  1.3621
 7718SOL     OW34615   1.180   4.384   8.862 -0.3322 -0.0865 -0.3008
 7718SOL    HW134616   1.182   4.303   8.914  2.2854  0.9669  1.2612
 7718SOL    HW234617   1.209   4.435   8.938  1.5652  0.5321 -1.4401
 7719SOL     OW34618   1.994   4.102   6.328  0.3877  0.5629 -0.5167
 7719SOL    HW134619   1.932   4.166   6.364  1.5736 -0.0135  2.5587
 7719SOL    HW234620   1.968   4.030   6.385  1.1235  0.6754 -0.0281
 7720SOL     OW34621   2.033   3.501   5.208  0.3427  0.4185 -0.1418
 7720SOL    HW134622   2.064   3.545   5.129  1.1445  2.4570  1.2985
 7720SOL    HW234623   2.107   3.507   5.269  1.7613 -0.3179 -1.7700
 7721SOL     OW34624   3.685   0.991  11.931  0.1586 -0.5121 -0.4070
 7721SOL    HW134625   3.609   0.955  11.885 -0.3270  0.8132 -0.6580
 7721SOL    HW234626   3.654   0.992  12.022  0.9230 -2.9508 -0.1286
 7722SOL     OW34627   2.471   4.075  16.447 -0.3104  0.1658  0.0657
 7722SOL    HW134628   2.386   4.115  16.429 -1.1886 -2.2765 -1.2886
 7722SOL    HW234629   2.444   4.041  16.532  1.8202 -1.0211  0.2835
 7723SOL     OW34630   3.444   1.706  10.219 -0.2727 -0.0196  0.2953
 7723SOL    HW134631   3.495   1.626  10.207 -1.6941 -1.4801  4.0818
 7723SOL    HW234632   3.484   1.764  10.155 -1.0508 -0.4151 -0.5472
 7724SOL     OW34633   4.144   1.125  11.689 -0.3990  0.0131 -0.2260
 7724SOL    HW134634   4.173   1.178  11.764  0.1934 -0.2708 -0.2560
 7724SOL    HW234635   4.072   1.077  11.731 -1.5288 -0.2301 -2.4725
 7725SOL     OW34636   4.700   3.144   4.798  0.1091  0.3712  0.7146
 7725SOL    HW134637   0.003   3.155   4.707  0.8728  0.3256  0.9346
 7725SOL    HW234638   0.043   3.187   4.852  0.4764  0.5540  0.1133
 7726SOL     OW34639   1.474   3.594   9.995  0.0195 -0.0673 -0.3653
 7726SOL    HW134640   1.433   3.517  10.033 -1.3293  0.6681 -0.3236
 7726SOL    HW234641   1.507   3.561   9.912  0.9330  1.4101 -0.5985
 7727SOL     OW34642   3.702   1.852   6.444  0.1548  0.2693  0.2186
 7727SOL    HW134643   3.768   1.910   6.406 -0.3854  0.5092 -0.3713
 7727SOL    HW234644   3.629   1.893   6.397  2.0443  0.6214 -2.4252
 7728SOL     OW34645   0.108   0.365   6.525  0.4847 -0.3390 -0.1283
 7728SOL    HW134646   0.180   0.416   6.563 -0.0994  0.2992  0.1243
 7728SOL    HW234647   0.039   0.430   6.508  1.1284  0.0592 -1.2050
 7729SOL     OW34648   3.164   1.609   5.647 -0.4093 -0.2676 -0.7412
 7729SOL    HW134649   3.180   1.567   5.563 -0.0157 -3.4809  0.9450
 7729SOL    HW234650   3.096   1.553   5.682 -0.8384 -0.0134 -1.1700
 7730SOL     OW34651   1.334   2.395   3.873 -0.7196 -0.0452 -0.1278
 7730SOL    HW134652   1.385   2.364   3.949 -1.2562  0.6475  0.5199
 7730SOL    HW234653   1.399   2.394   3.804  0.9202 -0.3619  1.4123
 7731SOL     OW34654   0.074   0.332   3.833 -0.3729 -0.5152 -0.3871
 7731SOL    HW134655   0.099   0.338   3.925 -3.1441 -0.3023  0.3436
 7731SOL    HW234656   4.704   0.328   3.847 -0.0513  2.1728  2.5005
 7732SOL     OW34657   3.338   1.730   7.799 -0.4011  0.0900  0.0568
 7732SOL    HW134658   3.320   1.703   7.889 -0.7253  0.1202  0.0027
 7732SOL    HW234659   3.426   1.694   7.791  0.0928  1.3424 -0.1526
 7733SOL     OW34660   0.867   1.799  11.734  0.0039 -0.2314  0.3779
 7733SOL    HW134661   0.914   1.879  11.757 -0.1191 -0.0518  0.0140
 7733SOL    HW234662   0.836   1.762  11.816  0.4907  0.7423  0.9997
 7734SOL     OW34663   1.811   0.815   5.242  0.3951 -0.4025 -0.1998
 7734SOL    HW134664   1.817   0.909   5.225 -1.0054 -0.0057  1.5412
 7734SOL    HW234665   1.903   0.794   5.225  0.5942  0.6690 -0.4550
 7735SOL     OW34666   0.966   4.290   4.803 -0.0234  0.2273 -0.4203
 7735SOL    HW134667   1.016   4.313   4.724 -1.6524  2.3544 -0.8500
 7735SOL    HW234668   0.890   4.247   4.764 -2.0275  2.4887  0.9422
 7736SOL     OW34669   4.133   2.158   3.982 -0.1952  0.4660 -0.1232
 7736SOL    HW134670   4.149   2.064   3.986 -0.8156  0.2896 -1.7801
 7736SOL    HW234671   4.202   2.195   3.927  0.5018 -1.5595 -0.6261
 7737SOL     OW34672   2.534   1.417   2.185  0.6594  0.1066  0.0556
 7737SOL    HW134673   2.443   1.392   2.173  0.5726  0.8056 -0.7575
 7737SOL    HW234674   2.526   1.506   2.151 -0.6804 -0.9979 -2.5062
 7738SOL     OW34675   4.470   2.568   6.209 -0.5681 -0.4189  0.0004
 7738SOL    HW134676   4.496   2.531   6.293  1.1038 -0.4770 -0.5482
 7738SOL    HW234677   4.545   2.624   6.188 -2.2792  1.1441 -1.9429
 7739SOL     OW34678   0.764   2.036   9.323 -0.0966 -0.2013  0.3913
 7739SOL    HW134679   0.697   2.104   9.317  0.7343  0.6149  0.3818
 7739SOL    HW234680   0.829   2.077   9.379  0.1989 -0.8466  0.5284
 7740SOL     OW34681   0.298   1.502   2.352 -0.3775  0.2594  0.4194
 7740SOL    HW134682   0.261   1.527   2.267 -1.7594  0.7800  1.1652
 7740SOL    HW234683   0.289   1.407   2.345 -0.4600  0.2379  0.8406
 7741SOL     OW34684   1.440   1.060   5.203  0.1517 -0.2116  0.4484
 7741SOL    HW134685   1.453   1.046   5.109 -0.8715 -0.5057  0.3435
 7741SOL    HW234686   1.428   1.155   5.209  0.4507 -0.2081  1.0337
 7742SOL     OW34687   0.813   0.179   7.260  0.2976  0.1458  0.1161
 7742SOL    HW134688   0.744   0.128   7.303  0.2932 -0.9609 -1.1962
 7742SOL    HW234689   0.822   0.243   7.330  0.9233  0.7997 -0.5657
 7743SOL     OW34690   0.534   1.654   1.654  0.2326 -0.3693 -0.0684
 7743SOL    HW134691   0.586   1.585   1.694  1.5059  0.1934 -0.7655
 7743SOL    HW234692   0.566   1.734   1.696 -0.3705  0.5045 -1.2329
 7744SOL     OW34693   2.499   3.019  11.477 -0.1586 -0.1462 -0.5283
 7744SOL    HW134694   2.505   2.924  11.486  1.2116 -0.2185 -2.2655
 7744SOL    HW234695   2.518   3.022  11.383  1.2877 -1.4617 -0.2736
 7745SOL     OW34696   2.449   2.199   3.527 -0.1174  0.4814 -0.3610
 7745SOL    HW134697   2.441   2.161   3.440 -0.2028  0.7943 -0.4868
 7745SOL    HW234698   2.380   2.265   3.528 -0.8134 -0.2628  0.6036
 7746SOL     OW34699   2.489   0.604   7.799 -0.2742  0.4096  0.2822
 7746SOL    HW134700   2.422   0.605   7.867 -0.5511 -1.5322  0.0307
 7746SOL    HW234701   2.434   0.625   7.724  2.7381  2.6428 -1.3232
 7747SOL     OW34702   1.933   2.568   3.092 -0.7108 -0.6568 -0.5114
 7747SOL    HW134703   1.852   2.548   3.138 -0.7882 -0.2816 -0.4815
 7747SOL    HW234704   1.961   2.483   3.059  0.7896 -0.9853  1.6427
 7748SOL     OW34705   1.150   3.524   6.366 -0.6553  0.0596 -0.5243
 7748SOL    HW134706   1.141   3.474   6.448 -2.6304  2.2564  0.5829
 7748SOL    HW234707   1.211   3.468   6.318 -0.4044  0.0712 -0.2202
 7749SOL     OW34708   1.725   3.747   0.734 -0.3743  0.0330  0.3368
 7749SOL    HW134709   1.662   3.681   0.704 -1.6496  1.3298  0.1746
 7749SOL    HW234710   1.742   3.732   0.827 -1.3697  0.9991  0.6760
 7750SOL     OW34711   3.757   2.260   6.738  0.5209  0.1395  0.0247
 7750SOL    HW134712   3.791   2.279   6.825 -1.3469 -0.9119  0.9994
 7750SOL    HW234713   3.751   2.345   6.694  1.8778 -0.8656 -2.1239
 7751SOL     OW34714   1.560   4.154   7.513  0.5080  0.4474  0.5275
 7751SOL    HW134715   1.601   4.221   7.458  0.3711  0.2635  0.1955
 7751SOL    HW234716   1.467   4.169   7.497  0.1764 -0.4034  1.6212
 7752SOL     OW34717   1.267   0.612   1.304 -0.1202 -0.3440  0.1165
 7752SOL    HW134718   1.306   0.683   1.354 -0.5288 -1.0549  1.4715
 7752SOL    HW234719   1.344   0.558   1.288  1.1163  1.4462  0.0615
 7753SOL     OW34720   3.527   0.010   1.666  0.2104  0.2285 -0.2209
 7753SOL    HW134721   3.441   4.693   1.660 -0.1251  0.8915  0.1087
 7753SOL    HW234722   3.527   0.061   1.747 -0.1697 -0.6522  0.3402
 7754SOL     OW34723   1.683   1.715   2.267  0.2705 -0.1204 -0.6629
 7754SOL    HW134724   1.633   1.796   2.278  2.0967  0.9641 -0.1883
 7754SOL    HW234725   1.711   1.723   2.176  0.7873  1.1528 -0.4034
 7755SOL     OW34726   2.820   2.568  15.323  0.2237  0.1675  0.3536
 7755SOL    HW134727   2.808   2.589  15.231 -0.2432  2.4055  0.9340
 7755SOL    HW234728   2.900   2.616  15.342  0.2025  0.1359  0.5232
 7756SOL     OW34729   4.597   4.384  14.123 -0.2589  0.3604 -0.0242
 7756SOL    HW134730   4.560   4.337  14.048 -2.8097  0.7873  0.9883
 7756SOL    HW234731   4.657   4.318  14.158  1.2487  1.9152  0.3176
 7757SOL     OW34732   0.108   1.541  16.409  0.3744  0.4782 -0.2516
 7757SOL    HW134733   0.162   1.607  16.365 -0.6762  0.1284 -2.0737
 7757SOL    HW234734   0.152   1.511  16.489  0.0944 -1.5070 -0.8341
 7758SOL     OW34735   2.575   1.825   5.371  0.5331  0.5398 -0.6981
 7758SOL    HW134736   2.512   1.755   5.388  1.4964  0.1821  1.4176
 7758SOL    HW234737   2.637   1.807   5.441  0.0762 -0.6941 -0.6185
 7759SOL     OW34738   3.792   0.574   5.057 -0.3515 -0.3177 -1.1822
 7759SOL    HW134739   3.809   0.482   5.075 -2.3628 -0.1423  1.5483
 7759SOL    HW234740   3.856   0.607   5.120  1.0317 -2.2439 -1.5648
 7760SOL     OW34741   1.180   3.488   4.468  0.0769 -0.4726 -0.0456
 7760SOL    HW134742   1.270   3.512   4.447  0.1821 -0.8105  0.0241
 7760SOL    HW234743   1.141   3.572   4.442 -0.8373 -1.0117 -0.4042
 7761SOL     OW34744   1.866   4.389   3.587  0.4514  0.1839  0.0752
 7761SOL    HW134745   1.808   4.457   3.554 -0.2108 -0.2803  0.2826
 7761SOL    HW234746   1.820   4.307   3.571  0.1648  0.4945 -0.6792
 7762SOL     OW34747   0.211   0.694   1.722 -0.6505 -0.3863 -0.0912
 7762SOL    HW134748   0.177   0.774   1.682  0.5102  0.1597 -0.0070
 7762SOL    HW234749   0.301   0.713   1.696 -0.6605 -1.0376 -0.5766
 7763SOL     OW34750   4.287   0.703  11.009  0.3593  0.2401  0.0762
 7763SOL    HW134751   4.259   0.686  10.919 -0.4280  0.6492  0.2394
 7763SOL    HW234752   4.317   0.614  11.028  0.0731  0.4899  1.6720
 7764SOL     OW34753   0.785   0.313  10.169 -0.0953  0.3365 -0.3457
 7764SOL    HW134754   0.770   0.391  10.116  0.3306  0.1719 -0.6992
 7764SOL    HW234755   0.712   0.311  10.231 -1.6393  1.2329 -2.1304
 7765SOL     OW34756   1.060   3.914   6.974 -0.7416  0.6954  0.0054
 7765SOL    HW134757   1.149   3.911   6.939 -0.9079 -0.9642 -0.2926
 7765SOL    HW234758   1.035   4.000   6.942  3.1121  1.8692  0.1762
 7766SOL     OW34759   4.030   2.375  15.351 -0.1030 -0.2755  0.3232
 7766SOL    HW134760   4.106   2.426  15.325  0.0682 -0.8076 -0.2016
 7766SOL    HW234761   4.034   2.303  15.288 -0.5545  0.1753 -0.2224
 7767SOL     OW34762   0.243   4.078  12.934  0.3328  0.0285  0.4110
 7767SOL    HW134763   0.334   4.081  12.962  0.9719  0.1460 -1.6902
 7767SOL    HW234764   0.241   3.984  12.916 -1.0493  0.3757 -1.2889
 7768SOL     OW34765   4.136   3.773   7.989  0.1155 -0.7012  0.5657
 7768SOL    HW134766   4.228   3.791   8.006  0.2294  0.3236 -1.1343
 7768SOL    HW234767   4.125   3.677   7.988  3.0505 -1.0221 -1.7463
 7769SOL     OW34768   2.095   2.686  12.337 -0.3705  0.4247 -0.3771
 7769SOL    HW134769   2.067   2.606  12.291  1.4112  1.3065 -2.9945
 7769SOL    HW234770   2.040   2.688  12.415 -0.8285  0.2308 -0.6893
 7770SOL     OW34771   4.542   1.578   6.722 -0.1364  0.0348  0.6786
 7770SOL    HW134772   4.535   1.503   6.663  3.6845  0.5804 -0.4367
 7770SOL    HW234773   4.506   1.652   6.673 -1.1302  1.3808  3.4709
 7771SOL     OW34774   4.580   3.030   3.635 -0.1356  0.4670 -0.4718
 7771SOL    HW134775   4.584   2.973   3.712 -1.6361  0.3056 -0.4980
 7771SOL    HW234776   4.502   3.082   3.652 -1.0466 -1.4033  1.0665
 7772SOL     OW34777   0.107   1.617   2.724 -0.6476  0.0677  0.1266
 7772SOL    HW134778   0.167   1.660   2.663  0.5446 -1.8445 -0.0657
 7772SOL    HW234779   0.167   1.543   2.741 -0.9297  0.0084  0.8503
 7773SOL     OW34780   2.246   1.329   6.959  0.0627  0.5914 -0.6472
 7773SOL    HW134781   2.290   1.249   6.930  0.4009  0.6894 -0.3927
 7773SOL    HW234782   2.226   1.302   7.049  0.8478  1.1168 -0.3214
 7774SOL     OW34783   4.694   2.059   7.504  0.1468 -0.3389  0.0792
 7774SOL    HW134784   0.018   2.131   7.465 -2.6056  1.1063 -0.6266
 7774SOL    HW234785   4.703   2.091   7.594  1.5093 -1.4629  0.3411
 7775SOL     OW34786   3.378   4.609   8.891  0.6630 -0.0852  0.0906
 7775SOL    HW134787   3.343   4.647   8.972  0.8726 -0.0484  0.1620
 7775SOL    HW234788   3.322   4.531   8.886  1.1141 -0.4252  0.4375
 7776SOL     OW34789   1.891   4.561   4.456  0.5188 -0.1273  0.1519
 7776SOL    HW134790   1.883   4.505   4.379 -0.6930  0.0420  0.1576
 7776SOL    HW234791   1.928   4.640   4.416  0.8255 -0.5999 -0.5074
 7777SOL     OW34792   4.360   3.681   6.965 -0.0332  0.0239  0.3180
 7777SOL    HW134793   4.413   3.685   6.885 -0.6654  1.0323 -0.0452
 7777SOL    HW234794   4.344   3.774   6.982 -2.6267 -0.4239  0.2066
 7778SOL     OW34795   3.589   2.111  13.197 -0.1285  0.0322 -0.3555
 7778SOL    HW134796   3.517   2.049  13.190 -0.0683 -0.1428  0.6115
 7778SOL    HW234797   3.648   2.066  13.137 -0.8433 -1.5534  0.1330
 7779SOL     OW34798   4.616   4.651   3.677 -0.9093  0.1780 -0.3447
 7779SOL    HW134799   4.571   4.648   3.761 -1.3452 -1.6967 -0.6569
 7779SOL    HW234800   4.669   0.007   3.676 -1.2987  0.4291 -0.9524
 7780SOL     OW34801   1.973   1.844   5.903 -0.2317  0.2901 -0.0921
 7780SOL    HW134802   2.031   1.860   5.978 -0.9462 -1.0396  0.7595
 7780SOL    HW234803   2.022   1.898   5.842  3.2461 -0.7615  1.7351
 7781SOL     OW34804   3.964   2.085   5.236 -0.5612  0.3782  0.1564
 7781SOL    HW134805   3.913   2.161   5.209  0.0687  1.0936  0.9657
 7781SOL    HW234806   3.894   2.021   5.248 -2.6748  2.2935 -1.9530
 7782SOL     OW34807   4.451   3.943  15.356  0.2680  0.0621 -0.1867
 7782SOL    HW134808   4.526   3.896  15.392 -0.2314  1.4677  2.7069
 7782SOL    HW234809   4.426   3.876  15.293 -0.6302  1.5787 -1.4307
 7783SOL     OW34810   3.149   3.673   0.287  0.9946 -0.5565  0.2064
 7783SOL    HW134811   3.142   3.622   0.206  0.4563  0.5149 -0.4369
 7783SOL    HW234812   3.177   3.604   0.347 -0.6852 -0.3270  1.2702
 7784SOL     OW34813   2.864   0.047   4.823  0.1642 -0.1849 -0.0359
 7784SOL    HW134814   2.784   0.098   4.835  0.3654 -0.2724  1.5845
 7784SOL    HW234815   2.921   0.084   4.890  1.6622 -2.0463 -0.2919
 7785SOL     OW34816   3.554   4.054   1.220  0.0010  0.2646  0.7242
 7785SOL    HW134817   3.544   3.991   1.291 -1.3755  1.1521  1.3460
 7785SOL    HW234818   3.461   4.069   1.202 -0.1198  2.0314  2.7200
 7786SOL     OW34819   1.619   1.373  14.998 -0.8426 -0.0198 -0.2028
 7786SOL    HW134820   1.700   1.387  14.948 -2.1564 -1.3808 -2.6800
 7786SOL    HW234821   1.567   1.334  14.928  1.5478 -0.9084 -1.5047
 7787SOL     OW34822   3.082   1.264   6.565 -0.3231  0.2441  0.7112
 7787SOL    HW134823   3.149   1.329   6.590  1.0031 -0.5698 -0.7573
 7787SOL    HW234824   3.139   1.193   6.538 -0.8910  0.0894 -0.0531
 7788SOL     OW34825   0.573   4.006   5.798 -0.0637  0.4310 -0.1413
 7788SOL    HW134826   0.627   4.024   5.720  0.0265 -3.3780 -0.9806
 7788SOL    HW234827   0.643   3.982   5.859 -0.0450  2.0652  0.4685
 7789SOL     OW34828   1.205   0.080  12.266 -0.7444  0.2578  0.7259
 7789SOL    HW134829   1.138   0.024  12.226  0.6840  0.0264 -1.2967
 7789SOL    HW234830   1.271   0.023  12.306  1.1650  2.2905  0.4968
 7790SOL     OW34831   3.029   2.064  12.310  0.0050  0.3273  0.6438
 7790SOL    HW134832   3.070   2.065  12.396  2.3670 -0.9238 -0.4628
 7790SOL    HW234833   2.939   2.067  12.342 -0.3504  0.0810 -0.3275
 7791SOL     OW34834   0.351   2.532   7.923 -0.1533  0.0672  0.2669
 7791SOL    HW134835   0.425   2.588   7.949  0.4086 -0.5309 -0.0318
 7791SOL    HW234836   0.393   2.447   7.906 -2.2132 -0.8851 -0.0839
 7792SOL     OW34837   1.596   4.207   8.661 -0.0839  0.0043 -0.5698
 7792SOL    HW134838   1.677   4.184   8.615  1.2741  2.6887  0.4360
 7792SOL    HW234839   1.596   4.143   8.732 -0.2654 -0.3028 -0.8486
 7793SOL     OW34840   3.179   1.774   3.597  0.2902  0.1573  0.1652
 7793SOL    HW134841   3.213   1.690   3.629  1.6480  1.4996  2.2837
 7793SOL    HW234842   3.086   1.759   3.612  0.5283 -0.7393  0.7007
 7794SOL     OW34843   3.434   3.710   5.838  0.3533 -0.9500 -0.4369
 7794SOL    HW134844   3.514   3.755   5.866 -2.5461  2.1636  2.8008
 7794SOL    HW234845   3.423   3.751   5.752 -0.7500  1.4221  0.8390
 7795SOL     OW34846   2.098   1.408   1.371  0.1493 -0.0705 -0.5433
 7795SOL    HW134847   2.171   1.456   1.410 -0.6024  0.5481  0.0945
 7795SOL    HW234848   2.046   1.380   1.446  0.2254 -0.5260 -0.6555
 7796SOL     OW34849   2.493   1.713   8.878  0.0181  0.5952 -0.2228
 7796SOL    HW134850   2.541   1.737   8.957 -1.2226  0.7401  0.4969
 7796SOL    HW234851   2.429   1.784   8.869  1.5541  1.9803 -0.0925
 7797SOL     OW34852   4.115   0.255  11.031 -0.0658  0.6805  0.0421
 7797SOL    HW134853   4.147   0.240  10.942 -0.2655  0.5895 -0.0149
 7797SOL    HW234854   4.021   0.245  11.020  0.3193  1.4599 -3.9082
 7798SOL     OW34855   4.342   4.433   3.237  0.2089 -0.1861 -0.3932
 7798SOL    HW134856   4.410   4.365   3.236  0.3601 -0.0563  0.4268
 7798SOL    HW234857   4.284   4.399   3.169  0.6511 -3.0758  0.6765
 7799SOL     OW34858   4.550   3.351  12.345  0.0088  0.1797  0.3465
 7799SOL    HW134859   4.550   3.371  12.439 -1.5427 -0.2307  0.4411
 7799SOL    HW234860   4.483   3.284  12.334 -1.5493  1.4497  2.1343
 7800SOL     OW34861   3.690   0.422   0.042  0.3096  0.4072 -0.2009
 7800SOL    HW134862   3.713   0.443   0.133  0.7361  1.6583 -0.5994
 7800SOL    HW234863   3.781   0.398   0.023  1.0240  1.4183  1.9178
 7801SOL     OW34864   2.860   3.538   3.458  0.3571  0.4192 -0.1819
 7801SOL    HW134865   2.896   3.451   3.444  0.2899  0.5547 -1.1992
 7801SOL    HW234866   2.775   3.530   3.416 -0.3478 -0.5072  1.4627
 7802SOL     OW34867   1.335   0.391  17.667  0.1149 -0.4241 -0.0316
 7802SOL    HW134868   1.333   0.442   0.051  0.7649  1.9899 -1.5240
 7802SOL    HW234869   1.332   0.301   0.002  4.3090 -0.2589  0.8829
 7803SOL     OW34870   1.542   0.195   2.590 -0.1032  0.1445  0.2771
 7803SOL    HW134871   1.473   0.249   2.551 -0.6405 -0.0438  0.9763
 7803SOL    HW234872   1.522   0.199   2.684  0.9565  0.5542  0.4789
 7804SOL     OW34873   0.687   1.888   4.128  0.0466  0.3098 -0.5200
 7804SOL    HW134874   0.712   1.979   4.111 -0.9530  0.5604 -0.6262
 7804SOL    HW234875   0.593   1.881   4.110  0.1833 -0.0811 -1.0882
 7805SOL     OW34876   2.634   4.050   5.743 -0.3675  0.6628  0.5847
 7805SOL    HW134877   2.713   4.065   5.794 -0.3853 -0.3019  0.8937
 7805SOL    HW234878   2.648   4.134   5.699 -2.1504  1.3351  1.3072
 7806SOL     OW34879   2.760   3.804   8.815 -0.3725 -0.2034 -0.5617
 7806SOL    HW134880   2.716   3.861   8.878 -1.3208  1.7887 -3.0186
 7806SOL    HW234881   2.700   3.814   8.741 -1.0166 -0.3334 -0.0611
 7807SOL     OW34882   3.153   3.312   2.517 -0.6890 -0.3426 -0.1891
 7807SOL    HW134883   3.205   3.335   2.440 -1.7080  0.2925 -0.6879
 7807SOL    HW234884   3.209   3.334   2.591  0.1472 -1.1731 -0.5795
 7808SOL     OW34885   2.379   0.631   2.814  0.0469 -0.8740 -0.8340
 7808SOL    HW134886   2.284   0.633   2.802 -0.5044  0.3579  3.4968
 7808SOL    HW234887   2.385   0.702   2.879  1.9585 -0.0824 -1.8679
 7809SOL     OW34888   0.010   3.986  14.603  0.3673 -0.0189  0.3940
 7809SOL    HW134889   0.070   4.037  14.659  0.0719  0.4088  0.3227
 7809SOL    HW234890   0.070   3.921  14.567 -2.1790 -1.5220 -1.1567
 7810SOL     OW34891   4.332   4.207   7.383 -0.1626  0.2293  0.5499
 7810SOL    HW134892   4.286   4.140   7.333 -3.1464  1.9161  1.0282
 7810SOL    HW234893   4.417   4.165   7.371  0.4313  1.5122  0.3052
 7811SOL     OW34894   2.524   3.474   5.115 -0.2260  0.2848 -0.0203
 7811SOL    HW134895   2.536   3.501   5.024 -1.2732 -1.1660 -0.5935
 7811SOL    HW234896   2.484   3.552   5.154 -1.5730  0.4172 -1.6655
 7812SOL     OW34897   4.694   4.473   6.333 -0.1850 -0.3244 -0.0099
 7812SOL    HW134898   4.713   4.465   6.426  1.2101  1.5374 -0.1337
 7812SOL    HW234899   0.052   4.443   6.295 -0.6460 -1.0532 -0.4337
 7813SOL     OW34900   3.263   1.860   3.906  0.0033  0.6425  0.0158
 7813SOL    HW134901   3.271   1.955   3.915  0.9325  0.3935  1.8045
 7813SOL    HW234902   3.180   1.862   3.858 -0.3835 -1.0900  0.6315
 7814SOL     OW34903   2.948   2.490   9.243 -0.5211  0.2725  0.3250
 7814SOL    HW134904   2.897   2.464   9.166  2.0440  1.9133 -1.9359
 7814SOL    HW234905   2.905   2.574   9.262  2.2201  1.1867  2.4675
 7815SOL     OW34906   2.099   3.881   3.247  0.1040 -0.1828  0.1956
 7815SOL    HW134907   2.187   3.847   3.262 -0.4169 -1.7997 -0.4184
 7815SOL    HW234908   2.068   3.877   3.337 -1.8767  0.7359 -0.4428
 7816SOL     OW34909   4.123   4.173  13.907  0.0778 -0.6416 -0.4326
 7816SOL    HW134910   4.116   4.236  13.979  0.3778  0.6067 -1.5012
 7816SOL    HW234911   4.042   4.122  13.919 -0.3807 -0.0105 -0.8798
 7817SOL     OW34912   1.549   3.638  14.087  0.0517 -0.6981 -0.1410
 7817SOL    HW134913   1.634   3.623  14.045  0.6550 -0.9406  1.1811
 7817SOL    HW234914   1.580   3.670  14.171  0.0300 -1.1428  0.0369
 7818SOL     OW34915   2.174   4.365   4.554 -0.1959 -0.2396 -0.2634
 7818SOL    HW134916   2.191   4.419   4.477 -0.1434  1.2662  0.8156
 7818SOL    HW234917   2.173   4.439   4.615  1.3604 -1.1603  0.8751
 7819SOL     OW34918   3.788   1.729  10.457  0.0374 -0.1521  0.0105
 7819SOL    HW134919   3.776   1.637  10.480 -2.2505  0.3770  0.9799
 7819SOL    HW234920   3.724   1.767  10.518  0.9735  2.2347 -0.5018
 7820SOL     OW34921   0.617   1.975  12.892  0.3036 -0.3462  0.1208
 7820SOL    HW134922   0.590   1.926  12.970 -1.3223  3.1860  1.7478
 7820SOL    HW234923   0.707   1.946  12.876  0.8262  1.7197 -0.6763
 7821SOL     OW34924   3.097   1.803  12.604  0.1670 -0.0147  0.3973
 7821SOL    HW134925   3.155   1.867  12.562  1.4297  0.0358  2.1834
 7821SOL    HW234926   3.140   1.782  12.687 -0.3671  1.5290  1.0802
 7822SOL     OW34927   4.323   3.036   1.321 -0.3403 -0.5542  0.3148
 7822SOL    HW134928   4.343   2.948   1.290  1.5649  0.3675 -1.0616
 7822SOL    HW234929   4.359   3.102   1.262 -2.2412 -1.1403 -1.5114
 7823SOL     OW34930   1.806   2.398  16.540 -0.5780 -0.6707  0.2338
 7823SOL    HW134931   1.746   2.432  16.473  0.3777  0.8436  0.1518
 7823SOL    HW234932   1.848   2.329  16.489  0.3119  1.7127 -2.2855
 7824SOL     OW34933   1.386   1.251  14.838 -0.0564  0.2642  0.1703
 7824SOL    HW134934   1.402   1.159  14.818 -1.5281 -0.1564  0.8893
 7824SOL    HW234935   1.307   1.230  14.889 -0.9529  2.6356 -0.2307
 7825SOL     OW34936   4.507   2.670   3.797  0.0778 -0.1167  0.0628
 7825SOL    HW134937   4.515   2.580   3.828 -0.0992 -0.3349 -0.5331
 7825SOL    HW234938   4.504   2.713   3.883  1.8981 -2.4869  1.3193
 7826SOL     OW34939   1.838   0.040   5.695 -0.2399  0.0001 -0.2172
 7826SOL    HW134940   1.853   0.104   5.626  1.8533  1.0625  1.2255
 7826SOL    HW234941   1.755   0.069   5.732  0.0725 -0.3964  0.7931
 7827SOL     OW34942   2.276   1.580   6.376 -0.2538  0.2430 -0.3982
 7827SOL    HW134943   2.279   1.608   6.468  0.3102 -3.4604  0.7435
 7827SOL    HW234944   2.241   1.491   6.387 -1.4059  0.7589  0.0167
 7828SOL     OW34945   0.396   2.231   7.605 -0.3055  0.0127  0.0677
 7828SOL    HW134946   0.456   2.279   7.662 -1.1805 -0.4100  1.3401
 7828SOL    HW234947   0.384   2.143   7.641  1.3610  0.1365  0.9359
 7829SOL     OW34948   0.399   0.685  13.242 -0.4104  0.4157  0.1167
 7829SOL    HW134949   0.437   0.767  13.212 -0.7373  0.0953 -1.1749
 7829SOL    HW234950   0.431   0.678  13.332 -1.3249  1.6643  0.5344
 7830SOL     OW34951   2.435   4.638   3.401  0.5313  0.0758  0.6198
 7830SOL    HW134952   2.438   4.570   3.333  2.2591  1.5372 -0.7855
 7830SOL    HW234953   2.439   4.712   3.341  2.9811 -0.2764  0.3376
 7831SOL     OW34954   0.403   0.172  12.209 -0.0357  0.1684 -0.4782
 7831SOL    HW134955   0.403   0.078  12.230  0.4232  0.5293  1.1364
 7831SOL    HW234956   0.480   0.185  12.154  1.1571  1.3359  1.4738
 7832SOL     OW34957   0.430   2.551   0.906 -0.1673 -0.6035  0.0544
 7832SOL    HW134958   0.382   2.596   0.975 -1.3780 -0.8368 -0.6319
 7832SOL    HW234959   0.382   2.474   0.876 -1.2582  0.0312  0.1877
 7833SOL     OW34960   0.848   4.148   3.226 -0.4799  1.1818  0.2436
 7833SOL    HW134961   0.892   4.156   3.142 -1.0051 -2.5900 -0.3632
 7833SOL    HW234962   0.869   4.057   3.246 -1.0964  1.1533  0.7982
 7834SOL     OW34963   1.285   1.420  13.572  0.5427  0.2070 -0.0158
 7834SOL    HW134964   1.267   1.374  13.490 -2.0078 -0.3241  0.8356
 7834SOL    HW234965   1.371   1.461  13.566  0.8460 -0.5048 -0.4898
 7835SOL     OW34966   1.890   0.144   2.594 -0.2609  0.4783 -0.1376
 7835SOL    HW134967   1.826   0.094   2.543  0.8140 -0.8698 -0.1740
 7835SOL    HW234968   1.912   0.080   2.661 -1.0024 -0.4212 -0.7481
 7836SOL     OW34969   3.885   0.265   1.423 -0.1212  0.0149 -0.4821
 7836SOL    HW134970   3.823   0.199   1.393  0.9178 -0.7647 -0.9006
 7836SOL    HW234971   3.958   0.205   1.439 -0.2896  0.2139  1.0640
 7837SOL     OW34972   3.567   0.698  16.195  0.0980 -0.2391  0.2075
 7837SOL    HW134973   3.655   0.735  16.206  0.0548 -0.1725  0.3242
 7837SOL    HW234974   3.521   0.779  16.173  1.2470 -0.2722 -2.3503
 7838SOL     OW34975   2.886   2.107   3.216  0.7058 -0.1495  0.2127
 7838SOL    HW134976   2.929   2.070   3.139  2.2152 -0.5179  1.2206
 7838SOL    HW234977   2.969   2.131   3.257  0.3244  2.3085 -0.4446
 7839SOL     OW34978   0.845   2.872  14.441 -0.8675 -0.0318  0.2580
 7839SOL    HW134979   0.864   2.850  14.350  2.0696  1.7464  0.4481
 7839SOL    HW234980   0.923   2.920  14.468  0.3470 -2.1115  0.4437
 7840SOL     OW34981   0.762   1.531  14.611  0.1357 -0.2373  0.7880
 7840SOL    HW134982   0.707   1.535  14.689 -1.4203  1.8214 -0.4224
 7840SOL    HW234983   0.712   1.470  14.556 -1.4705 -0.1059  2.0952
 7841SOL     OW34984   1.363   0.898  12.406 -1.2733 -0.6922 -0.1227
 7841SOL    HW134985   1.319   0.983  12.402  0.8709  0.4046 -0.4481
 7841SOL    HW234986   1.429   0.891  12.336 -0.1550  1.5256  0.6928
 7842SOL     OW34987   4.605   0.987   1.082  0.3936  0.4097  0.1511
 7842SOL    HW134988   4.696   0.959   1.071  0.0401 -0.5292 -0.4231
 7842SOL    HW234989   4.585   0.954   1.169 -2.2170  0.1481 -0.5449
 7843SOL     OW34990   2.037   0.884  13.942  0.5201  0.0652 -1.1110
 7843SOL    HW134991   2.128   0.907  13.961  0.0557  1.4526 -0.6103
 7843SOL    HW234992   2.008   0.955  13.884  1.5935  0.6020 -0.9820
 7844SOL     OW34993   2.059   1.256  13.926 -0.3888  0.5544 -0.3415
 7844SOL    HW134994   2.149   1.264  13.896 -0.3616  0.6969 -0.2211
 7844SOL    HW234995   2.019   1.184  13.877  0.5704  0.8703 -1.5797
 7845SOL     OW34996   1.647   0.090   3.896 -0.4456  0.6304  0.1164
 7845SOL    HW134997   1.574   0.050   3.944 -2.3137  0.1930 -3.0700
 7845SOL    HW234998   1.694   0.136   3.966 -2.0422  1.4918  0.6169
 7846SOL     OW34999   3.502   2.365  11.495  0.4284  0.0208  0.0147
 7846SOL    HW135000   3.483   2.449  11.453  2.5152  0.2105 -0.5816
 7846SOL    HW235001   3.504   2.384  11.588 -0.0536 -0.8462  0.2035
 7847SOL     OW35002   3.145   2.465  15.834  0.0482  0.0589 -0.0480
 7847SOL    HW135003   3.227   2.447  15.787  0.6761  2.6032  0.0617
 7847SOL    HW235004   3.188   2.506  15.909  1.9345 -0.8688 -0.6184
 7848SOL     OW35005   2.933   2.033   4.989 -0.0436  0.1233 -0.1157
 7848SOL    HW135006   2.879   1.968   5.033  0.2434  1.1223  1.7210
 7848SOL    HW235007   2.973   2.079   5.063 -1.0175  1.5093 -0.4579
 7849SOL     OW35008   2.873   3.404   6.400  0.2033 -0.5307  0.0189
 7849SOL    HW135009   2.811   3.336   6.372  1.7797 -0.7500 -2.8603
 7849SOL    HW235010   2.830   3.487   6.380  2.1139  0.8114  1.5324
 7850SOL     OW35011   0.659   2.808   2.861  0.3047 -0.2073  0.1735
 7850SOL    HW135012   0.733   2.753   2.835 -0.8412 -1.4322 -0.4813
 7850SOL    HW235013   0.662   2.803   2.957 -2.6755  0.4141  0.2916
 7851SOL     OW35014   1.279   1.979   0.515 -0.1477 -0.1290 -0.1647
 7851SOL    HW135015   1.332   1.931   0.452 -0.3041  0.5866 -0.8521
 7851SOL    HW235016   1.196   1.991   0.469  1.1898 -1.3282 -2.8711
 7852SOL     OW35017   2.054   2.532  16.091  0.1264 -0.4305  0.0523
 7852SOL    HW135018   2.057   2.438  16.076  3.3341 -0.5652  1.5595
 7852SOL    HW235019   1.992   2.527  16.164 -1.0116  0.0783 -0.8922
 7853SOL     OW35020   3.440   2.352   4.494 -0.3325  0.4656  0.3021
 7853SOL    HW135021   3.483   2.406   4.559 -1.6620 -0.2009  1.7366
 7853SOL    HW235022   3.484   2.381   4.415 -1.8913  1.4702 -0.2046
 7854SOL     OW35023   0.189   0.195  10.785  0.0831 -0.4885  0.6333
 7854SOL    HW135024   0.181   0.271  10.843 -0.3709  1.0288 -1.4468
 7854SOL    HW235025   0.148   0.230  10.706 -1.2168  0.1193  1.5808
 7855SOL     OW35026   2.887   0.759   7.394  0.0266  0.2386  0.6991
 7855SOL    HW135027   2.932   0.675   7.390 -0.3223 -0.0435  3.1691
 7855SOL    HW235028   2.934   0.796   7.469  0.0375 -0.6364  1.1226
 7856SOL     OW35029   1.100   2.014  14.057 -0.8538 -0.0856  0.1152
 7856SOL    HW135030   1.147   1.985  13.979  0.1902  0.6790  0.4665
 7856SOL    HW235031   1.019   2.046  14.016 -0.6671  0.1701 -0.0468
 7857SOL     OW35032   1.379   4.012   0.078  0.1558 -0.2238 -0.2174
 7857SOL    HW135033   1.388   3.918   0.094  1.4472  0.2204  1.6811
 7857SOL    HW235034   1.312   4.008   0.011 -0.8464  1.5968  0.6751
 7858SOL     OW35035   2.896   3.295   6.896 -0.0785 -0.1101  0.0827
 7858SOL    HW135036   2.846   3.376   6.896  0.3605  0.1620 -1.7548
 7858SOL    HW235037   2.961   3.305   6.825  0.5128 -0.6165  0.5488
 7859SOL     OW35038   4.641   2.297   1.702  0.1676  0.3330  0.6469
 7859SOL    HW135039   4.698   2.316   1.627  0.1006 -1.1430  0.2240
 7859SOL    HW235040   4.686   2.356   1.763 -0.5203  0.9174  0.5985
 7860SOL     OW35041   3.681   2.792   2.458 -0.4322  0.2369  0.3719
 7860SOL    HW135042   3.598   2.746   2.447  0.5543 -1.3613 -0.2819
 7860SOL    HW235043   3.653   2.854   2.526 -2.8043  0.1179 -0.5084
 7861SOL     OW35044   2.757   3.364   2.334  0.4872 -0.6137 -0.4611
 7861SOL    HW135045   2.675   3.365   2.384  1.0397  0.2921  0.4597
 7861SOL    HW235046   2.732   3.296   2.272 -0.7955 -0.3457 -0.2450
 7862SOL     OW35047   3.677   3.284   9.023  0.1066 -0.5820 -0.2686
 7862SOL    HW135048   3.590   3.313   8.995  0.3463  0.1847 -0.2030
 7862SOL    HW235049   3.682   3.196   8.985  3.1767 -0.5369  0.0488
 7863SOL     OW35050   1.672   2.858   7.751  0.4012 -0.6611  0.4416
 7863SOL    HW135051   1.729   2.781   7.744  0.2153 -0.7949  0.4095
 7863SOL    HW235052   1.746   2.915   7.774 -0.9784  0.8909  0.9657
 7864SOL     OW35053   2.168   0.102   4.749  0.2945 -0.0235  0.3652
 7864SOL    HW135054   2.193   0.189   4.716  0.9094 -0.6173 -0.7255
 7864SOL    HW235055   2.139   0.132   4.835  3.6697  0.3594  1.4096
 7865SOL     OW35056   3.029   0.455   5.437 -0.0733  0.3443 -0.7699
 7865SOL    HW135057   3.113   0.498   5.452 -0.8833  0.9234  2.0271
 7865SOL    HW235058   2.973   0.478   5.512  0.9309 -0.6268  0.2670
 7866SOL     OW35059   1.045   0.529  15.713  0.5970 -0.1965  0.4594
 7866SOL    HW135060   1.091   0.543  15.796 -0.8455  0.8031  1.0833
 7866SOL    HW235061   1.023   0.437  15.720  1.6156 -0.7445 -3.2566
 7867SOL     OW35062   1.759   3.519   3.488 -0.0234 -0.2873 -0.0702
 7867SOL    HW135063   1.750   3.458   3.415 -2.1640  0.0192 -0.0837
 7867SOL    HW235064   1.764   3.469   3.569 -1.5167 -0.3587 -0.0238
 7868SOL     OW35065   3.478   3.572   3.307 -0.4964  0.0441  0.2653
 7868SOL    HW135066   3.415   3.587   3.237 -1.1349 -1.7940  0.4430
 7868SOL    HW235067   3.529   3.499   3.271  1.6028  2.3181 -1.3986
 7869SOL     OW35068   3.756   0.137   3.995  0.7462  0.0715 -0.0461
 7869SOL    HW135069   3.833   0.140   3.938  0.0835  1.7152 -0.8471
 7869SOL    HW235070   3.765   0.225   4.031  0.2148 -0.1430  0.5953
 7870SOL     OW35071   4.362   3.060   5.663  0.7858  0.0616 -0.0195
 7870SOL    HW135072   4.384   3.106   5.583 -0.5162 -1.4883 -1.2713
 7870SOL    HW235073   4.268   3.079   5.669  0.9360  1.2094 -1.5145
 7871SOL     OW35074   0.992   4.177   7.824 -0.1662  0.1644  0.0255
 7871SOL    HW135075   1.006   4.170   7.729 -0.2652  2.6774 -0.1625
 7871SOL    HW235076   0.970   4.087   7.847 -1.5719  0.0218 -1.8528
 7872SOL     OW35077   4.214   3.004   7.029  0.2313  0.0216  0.1886
 7872SOL    HW135078   4.129   2.974   7.062  0.3641 -0.8733 -0.2811
 7872SOL    HW235079   4.201   3.003   6.934  1.2978 -0.8621  0.0533
 7873SOL     OW35080   2.267   0.556   9.068 -0.2131  0.5941 -0.8719
 7873SOL    HW135081   2.322   0.584   9.141  0.2908 -0.5056 -0.8286
 7873SOL    HW235082   2.182   0.589   9.098 -0.3836  0.5225 -1.2790
 7874SOL     OW35083   0.667   0.491   5.755  0.2282  0.2259 -0.5994
 7874SOL    HW135084   0.723   0.419   5.726 -0.5463 -0.7044  0.1768
 7874SOL    HW235085   0.711   0.572   5.731  0.8719 -0.0993 -0.5100
 7875SOL     OW35086   0.378   0.251   8.636  0.0204  0.5728  0.1552
 7875SOL    HW135087   0.421   0.186   8.581  1.5622 -0.2202  2.2840
 7875SOL    HW235088   0.378   0.328   8.578 -0.5804  0.1060 -0.4572
 7876SOL     OW35089   0.148   2.938   6.265 -0.2309  0.3770  0.2345
 7876SOL    HW135090   0.077   3.000   6.252 -1.4517 -0.8834  0.9013
 7876SOL    HW235091   0.110   2.854   6.240 -2.7684  0.6307  3.2613
 7877SOL     OW35092   1.914   4.500  12.700  0.2380  0.4681  0.4692
 7877SOL    HW135093   1.960   4.584  12.701  2.8922 -0.9680  1.2037
 7877SOL    HW235094   1.998   4.455  12.712 -0.2538 -0.6406 -0.2786
 7878SOL     OW35095   4.285   1.812  17.379  0.6814 -0.2925  0.0804
 7878SOL    HW135096   4.265   1.719  17.367  1.2522 -0.7099  2.5164
 7878SOL    HW235097   4.236   1.846  17.304  1.0373  0.7396  0.3184
 7879SOL     OW35098   3.001   4.199   4.153 -0.1743  0.0876 -0.2321
 7879SOL    HW135099   2.976   4.122   4.101  1.2355 -0.7211  0.2642
 7879SOL    HW235100   2.945   4.190   4.230  0.9799 -0.5928  0.5511
 7880SOL     OW35101   1.491   2.400  10.567 -0.4139  0.2271  0.0420
 7880SOL    HW135102   1.541   2.322  10.592  0.9269  1.1934  0.4130
 7880SOL    HW235103   1.469   2.433  10.654 -0.5137 -1.1567  0.5409
 7881SOL     OW35104   4.055   0.978   5.452 -0.0203 -0.2628  0.6349
 7881SOL    HW135105   4.110   0.932   5.515 -0.2410 -0.2543  0.8294
 7881SOL    HW235106   3.977   0.923   5.450  1.0644 -1.7257 -2.0292
 7882SOL     OW35107   0.766   4.458  17.083 -0.5103 -0.1450  0.3014
 7882SOL    HW135108   0.743   4.481  16.993  0.8494 -0.3302 -0.0972
 7882SOL    HW235109   0.799   4.370  17.065 -0.4546  0.1675 -1.1577
 7883SOL     OW35110   1.006   0.070   8.261 -0.3579 -0.1641 -0.2260
 7883SOL    HW135111   0.971   4.715   8.302 -0.5635 -1.2638 -2.4983
 7883SOL    HW235112   1.087   0.033   8.225 -1.8344 -3.9867  0.3991
 7884SOL     OW35113   4.696   3.437   1.676 -0.4751 -0.2355 -0.0829
 7884SOL    HW135114   4.643   3.492   1.733 -0.7205  0.0053 -0.5470
 7884SOL    HW235115   4.666   3.467   1.590  1.6613  0.7941 -0.4743
 7885SOL     OW35116   1.955   1.360   4.213  0.5981  0.1969 -0.1538
 7885SOL    HW135117   1.888   1.364   4.145 -0.9649 -1.7791  1.2403
 7885SOL    HW235118   2.039   1.361   4.168  0.3953  0.6773 -0.5203
 7886SOL     OW35119   4.095   0.251   7.839  0.3187 -0.2170 -0.0204
 7886SOL    HW135120   4.038   0.323   7.868  0.3357  0.8599 -2.7005
 7886SOL    HW235121   4.082   0.190   7.912 -1.1071 -2.2616 -1.9848
 7887SOL     OW35122   1.752   0.688   2.729 -0.0932 -0.2718  0.1190
 7887SOL    HW135123   1.763   0.628   2.803  1.8184  1.7494  1.4439
 7887SOL    HW235124   1.841   0.696   2.694 -1.0216  1.2740 -1.8259
 7888SOL     OW35125   2.454   3.227   2.076 -0.0308  0.2133  0.5260
 7888SOL    HW135126   2.456   3.131   2.077  0.2131  0.2077 -0.7131
 7888SOL    HW235127   2.425   3.235   1.985 -1.6458 -0.6797  0.9569
 7889SOL     OW35128   0.734   4.230   7.504 -0.7055 -0.2861  0.5291
 7889SOL    HW135129   0.654   4.178   7.511 -1.0943  0.4898  1.8937
 7889SOL    HW235130   0.797   4.162   7.526  0.7756  0.5146 -1.1846
 7890SOL     OW35131   3.099   0.081   3.689 -0.6441  0.3571 -0.7324
 7890SOL    HW135132   3.099   0.119   3.601  1.5930  0.1143 -0.8268
 7890SOL    HW235133   3.193   0.092   3.701 -1.0406 -1.0750  3.7945
 7891SOL     OW35134   2.220   2.885   7.213  0.0555  0.1711 -0.1991
 7891SOL    HW135135   2.218   2.838   7.129  0.3868  1.0615 -0.7034
 7891SOL    HW235136   2.315   2.878   7.228  0.0924  1.5296  0.2395
 7892SOL     OW35137   3.136   4.255   8.636 -0.2408  0.0086 -0.2714
 7892SOL    HW135138   3.044   4.236   8.617 -0.3946  1.3760 -0.8794
 7892SOL    HW235139   3.147   4.280   8.728 -1.6649  1.4290 -0.4882
 7893SOL     OW35140   4.405   0.013  11.097 -0.2941  0.2071  0.0760
 7893SOL    HW135141   4.486   4.697  11.130  1.5130  1.0319 -3.2940
 7893SOL    HW235142   4.436   0.027  11.007 -0.7638  0.8402  0.0170
 7894SOL     OW35143   2.880   2.381  12.899 -0.2138  0.3937 -0.1279
 7894SOL    HW135144   2.976   2.380  12.902 -0.1461  0.0356 -2.2703
 7894SOL    HW235145   2.859   2.346  12.985 -1.2904 -0.5573 -0.7858
 7895SOL     OW35146   4.639   1.475   1.404  0.1292 -0.0356  0.1562
 7895SOL    HW135147   4.712   1.518   1.361  0.2241 -0.2004  0.1534
 7895SOL    HW235148   4.592   1.546   1.448 -0.9748  0.3127 -1.6003
 7896SOL     OW35149   0.733   3.586   2.840  0.1689  0.2348  0.7242
 7896SOL    HW135150   0.811   3.551   2.796  0.3889  2.0249 -0.3203
 7896SOL    HW235151   0.771   3.659   2.889 -0.4990  1.5504 -0.7100
 7897SOL     OW35152   0.740   0.056   3.252  0.0043 -0.0714  0.5187
 7897SOL    HW135153   0.811   0.010   3.297 -0.0644 -0.8442 -0.1500
 7897SOL    HW235154   0.676   4.708   3.259 -0.1271  0.2830  3.1824
 7898SOL     OW35155   0.908   3.650   6.898  0.1001  0.0955  0.6849
 7898SOL    HW135156   0.911   3.732   6.947  0.8135 -0.8611  2.2425
 7898SOL    HW235157   0.987   3.665   6.847  0.0940 -1.6272  0.1880
 7899SOL     OW35158   1.604   0.162   6.443  0.3114  0.4091 -0.4215
 7899SOL    HW135159   1.684   0.158   6.495 -0.5111  1.5574  0.9219
 7899SOL    HW235160   1.544   0.107   6.493 -1.1706  1.1483 -1.3793
 7900SOL     OW35161   0.849   2.142  13.997 -0.1965  0.7275 -0.4166
 7900SOL    HW135162   0.765   2.099  13.980  0.5821 -1.0472  0.2868
 7900SOL    HW235163   0.883   2.158  13.909 -1.1197 -2.1820 -1.3057
 7901SOL     OW35164   2.250   3.196   4.746  0.0031  0.6612 -0.7848
 7901SOL    HW135165   2.235   3.146   4.665  0.9300  0.6662 -0.9624
 7901SOL    HW235166   2.343   3.215   4.736 -0.0560  0.5572 -1.5438
 7902SOL     OW35167   3.940   1.139   0.357  0.0611  1.1673 -0.0811
 7902SOL    HW135168   3.913   1.157   0.267 -1.7031 -0.3731  0.1479
 7902SOL    HW235169   3.996   1.062   0.350 -0.5929  0.8116 -1.3128
 7903SOL     OW35170   1.317   3.802  12.919  0.1367 -0.2693 -0.1751
 7903SOL    HW135171   1.353   3.786  12.832 -0.7846  2.3124 -1.0416
 7903SOL    HW235172   1.223   3.816  12.906 -0.1235 -0.7031  1.2465
 7904SOL     OW35173   1.710   2.431  10.887 -0.3545  0.3398 -0.1435
 7904SOL    HW135174   1.623   2.406  10.917 -0.0366 -0.6542 -0.0525
 7904SOL    HW235175   1.764   2.362  10.925 -0.0940  0.4973 -0.2272
 7905SOL     OW35176   2.795   4.425   7.060  0.4346  0.3296  0.0835
 7905SOL    HW135177   2.854   4.480   7.009  0.2387  0.2621 -0.2116
 7905SOL    HW235178   2.802   4.342   7.013  0.6863  0.4528 -0.0930
 7906SOL     OW35179   1.899   4.259   4.666  0.4256 -0.2171  0.5317
 7906SOL    HW135180   1.989   4.287   4.653  0.0147 -0.3373 -2.5256
 7906SOL    HW235181   1.842   4.330   4.639  0.5491 -0.3032  0.0467
 7907SOL     OW35182   0.835   0.933   3.922  0.5826  0.1544 -0.3183
 7907SOL    HW135183   0.903   0.921   3.856 -0.5202 -0.2969 -1.3653
 7907SOL    HW235184   0.762   0.960   3.868 -0.9250 -0.0776  1.6177
 7908SOL     OW35185   0.789   0.565   4.147  0.4513  0.2440  0.4209
 7908SOL    HW135186   0.770   0.599   4.059  0.9918 -0.1681  0.1458
 7908SOL    HW235187   0.762   0.640   4.199 -0.0815  0.3221  0.0394
 7909SOL     OW35188   1.025   2.940   8.919  0.0928  0.0237  0.5002
 7909SOL    HW135189   1.039   2.978   9.006  2.2875  1.2519 -0.3984
 7909SOL    HW235190   0.964   3.005   8.883 -0.4140 -1.4257 -1.2173
 7910SOL     OW35191   0.587   2.062  15.960 -0.0125 -0.1195 -0.5315
 7910SOL    HW135192   0.673   2.102  15.960  1.0806 -2.4489 -2.3156
 7910SOL    HW235193   0.524   2.130  15.985 -1.2585 -1.3507 -0.3076
 7911SOL     OW35194   0.107   3.758   1.624 -0.2000  0.0851  0.0707
 7911SOL    HW135195   0.107   3.673   1.669 -2.4689  0.1227  0.1350
 7911SOL    HW235196   0.113   3.812   1.703 -0.5010 -1.1910  0.9675
 7912SOL     OW35197   4.331   4.199   4.457 -1.0538 -0.1383 -0.1012
 7912SOL    HW135198   4.409   4.254   4.461 -0.3638 -1.0775 -0.6545
 7912SOL    HW235199   4.364   4.119   4.497 -2.0664 -1.0477 -1.0834
 7913SOL     OW35200   3.241   3.684   6.954  0.3622 -0.5379 -0.0991
 7913SOL    HW135201   3.274   3.701   6.865  0.0468  0.2109 -0.0695
 7913SOL    HW235202   3.279   3.598   6.972  1.1560 -0.2646 -0.4438
 7914SOL     OW35203   4.453   1.965   1.663  0.2205 -0.0383 -0.1860
 7914SOL    HW135204   4.462   1.976   1.757 -0.7068  1.7410 -0.3142
 7914SOL    HW235205   4.434   1.871   1.658 -2.1429  0.3968  0.8863
 7915SOL     OW35206   4.703   1.822   6.166 -0.0225  0.6390  0.2408
 7915SOL    HW135207   4.712   1.917   6.157  0.6505  0.4943 -0.6143
 7915SOL    HW235208   0.070   1.807   6.191 -0.1257 -0.6179 -0.1502
 7916SOL     OW35209   0.809   0.820   5.103 -0.0654  0.9191  0.1886
 7916SOL    HW135210   0.780   0.854   5.018 -2.1747  2.4421  1.5092
 7916SOL    HW235211   0.857   0.740   5.082 -2.5132 -0.1069 -1.5050
 7917SOL     OW35212   0.645   0.544   8.071 -0.7031 -0.1411 -0.5538
 7917SOL    HW135213   0.652   0.610   8.003  0.4456 -2.7048 -2.8907
 7917SOL    HW235214   0.711   0.577   8.132 -1.3072  1.2949 -0.6743
 7918SOL     OW35215   0.144   0.768   6.331  0.1711  0.6041 -0.1759
 7918SOL    HW135216   0.165   0.837   6.268  1.3747  0.5033  0.1063
 7918SOL    HW235217   0.234   0.737   6.346 -0.6669 -1.3047  0.8311
 7919SOL     OW35218   1.227   1.731   0.991  0.2738  0.5177  0.6353
 7919SOL    HW135219   1.271   1.654   0.954  1.5547  1.1877  0.7499
 7919SOL    HW235220   1.216   1.781   0.910  0.7896  1.7465  1.3217
 7920SOL     OW35221   4.269   4.006   7.230  0.0323  0.5966 -0.3479
 7920SOL    HW135222   4.309   4.051   7.156  1.7304 -0.0695  0.1786
 7920SOL    HW235223   4.181   3.991   7.195  0.5562  0.0997 -1.4390
 7921SOL     OW35224   1.702   2.643  14.959 -0.1230 -0.1384 -0.2871
 7921SOL    HW135225   1.640   2.663  14.888 -0.5704 -0.7395 -0.0674
 7921SOL    HW235226   1.783   2.667  14.914 -0.8772  0.8636 -1.1178
 7922SOL     OW35227   3.254   2.129   8.593  0.5011 -0.5009  0.0887
 7922SOL    HW135228   3.312   2.110   8.519 -2.0828  1.0044 -2.3123
 7922SOL    HW235229   3.316   2.174   8.651 -0.0844  1.1145 -0.5323
 7923SOL     OW35230   1.622   4.174   5.145  0.6080 -0.0863 -0.0399
 7923SOL    HW135231   1.703   4.219   5.119  0.9454 -0.8664 -0.3306
 7923SOL    HW235232   1.592   4.224   5.221  2.4536 -0.0311  0.6393
 7924SOL     OW35233   4.333   0.099  10.044  0.3546  0.3471  0.6603
 7924SOL    HW135234   4.328   0.011  10.007  0.1336  0.7418 -0.2590
 7924SOL    HW235235   4.240   0.124  10.039 -0.1105 -1.5452 -0.0589
 7925SOL     OW35236   4.457   0.865  14.799 -0.2383  0.0151  0.2632
 7925SOL    HW135237   4.413   0.931  14.853 -1.9931 -1.6666  0.8675
 7925SOL    HW235238   4.372   0.843  14.762  0.1467 -0.4764 -0.3228
 7926SOL     OW35239   0.103   1.895   6.493  0.1448 -0.2258 -1.0403
 7926SOL    HW135240   0.147   1.979   6.508 -3.4888  1.6174 -0.8280
 7926SOL    HW235241   0.131   1.865   6.406  0.4412  2.2028 -1.7878
 7927SOL     OW35242   1.429   2.498  15.626 -0.2260  0.4562  0.2390
 7927SOL    HW135243   1.440   2.478  15.533 -0.5943 -0.6967  0.4418
 7927SOL    HW235244   1.503   2.455  15.670  1.3071  1.0989 -1.6909
 7928SOL     OW35245   2.623   0.387   7.729  0.2218  0.0774  0.2938
 7928SOL    HW135246   2.653   0.408   7.641 -2.7221  2.1840 -0.1845
 7928SOL    HW235247   2.603   0.475   7.759  0.9267  0.6354 -0.8727
 7929SOL     OW35248   0.222   3.724   4.683 -0.1991  0.1354 -0.5654
 7929SOL    HW135249   0.133   3.732   4.719  0.9173  1.9403  1.8520
 7929SOL    HW235250   0.263   3.810   4.671 -1.4772  1.1057  1.8889
 7930SOL     OW35251   3.722   4.417   8.700  0.2221  0.3119  0.2356
 7930SOL    HW135252   3.743   4.455   8.785  1.0692 -2.1312  1.1034
 7930SOL    HW235253   3.807   4.396   8.662 -0.2209 -1.6690  0.3375
 7931SOL     OW35254   3.251   1.353   9.003 -0.0129  0.0534 -0.0594
 7931SOL    HW135255   3.244   1.360   9.098 -0.8556 -2.3558  0.0505
 7931SOL    HW235256   3.336   1.396   8.989  0.3145 -1.2741 -2.1190
 7932SOL     OW35257   2.987   1.542  11.229 -0.0592  0.0022  0.1522
 7932SOL    HW135258   3.041   1.473  11.268  0.2824 -0.6531 -1.4579
 7932SOL    HW235259   2.898   1.507  11.240  0.2489 -0.2157  1.9712
 7933SOL     OW35260   2.566   2.379   9.591 -0.6128  0.0275  0.3344
 7933SOL    HW135261   2.498   2.434   9.630  3.0518  4.2425  0.8443
 7933SOL    HW235262   2.637   2.388   9.655  2.0476  0.7613 -2.6945
 7934SOL     OW35263   2.050   1.006   5.113  0.6562 -0.6680 -0.1206
 7934SOL    HW135264   2.066   0.922   5.157  0.1806 -0.5672  0.2412
 7934SOL    HW235265   2.031   1.073   5.178 -1.7179  0.0888 -1.5939
 7935SOL     OW35266   1.871   3.055   3.244 -0.2230  0.4204 -0.7098
 7935SOL    HW135267   1.779   3.053   3.271 -0.3567 -2.8370 -1.4514
 7935SOL    HW235268   1.895   2.963   3.240 -0.1105  0.4230 -0.0512
 7936SOL     OW35269   3.542   3.853   4.396 -0.5498 -0.4626  0.3207
 7936SOL    HW135270   3.566   3.827   4.485 -0.7627 -2.5989 -0.2485
 7936SOL    HW235271   3.465   3.902   4.423 -0.7327 -1.3005  1.3257
 7937SOL     OW35272   4.262   1.748  14.687  0.5254  0.2243 -0.3217
 7937SOL    HW135273   4.211   1.720  14.611 -0.4218  1.4417 -0.1260
 7937SOL    HW235274   4.349   1.762  14.650  1.5759 -0.4746  1.8569
 7938SOL     OW35275   0.193   4.461   2.035 -0.4390 -0.5776 -0.4740
 7938SOL    HW135276   0.279   4.501   2.043  0.3391 -2.5934  1.3268
 7938SOL    HW235277   0.134   4.528   2.001  1.5744  0.7753 -1.3069
 7939SOL     OW35278   1.278   4.070   8.791 -0.2434 -0.0654  0.0980
 7939SOL    HW135279   1.352   4.022   8.828 -0.2977 -0.0588  0.2179
 7939SOL    HW235280   1.228   4.100   8.867  1.4422  2.6723  0.1102
 7940SOL     OW35281   4.573   4.021   7.385 -0.6396 -0.0555 -0.4093
 7940SOL    HW135282   4.589   3.927   7.378  0.0871 -0.1100  1.8057
 7940SOL    HW235283   4.655   4.058   7.352 -1.0154 -0.6527 -2.0193
 7941SOL     OW35284   3.055   4.053   4.608  0.1092 -0.0810 -0.0790
 7941SOL    HW135285   2.988   3.988   4.631  0.3862 -0.9748 -1.7758
 7941SOL    HW235286   3.007   4.104   4.543 -0.4957 -2.3999 -1.4618
 7942SOL     OW35287   1.702   2.480  13.653  0.3728  0.3464  0.0342
 7942SOL    HW135288   1.769   2.474  13.585 -1.3235  0.2867 -1.6188
 7942SOL    HW235289   1.645   2.536  13.601 -1.2372 -1.0539  0.2805
 7943SOL     OW35290   2.284   4.440   2.255 -0.5987  0.6494 -0.2429
 7943SOL    HW135291   2.323   4.527   2.248  0.5657  0.0286 -1.7378
 7943SOL    HW235292   2.234   4.438   2.173 -1.0309  1.8225  0.0016
 7944SOL     OW35293   4.716   2.287   0.974  0.1870  0.3223 -0.1570
 7944SOL    HW135294   4.626   2.261   0.953  0.3489 -0.9654  0.7488
 7944SOL    HW235295   0.046   2.216   0.938 -0.7982  0.3775 -1.7712
 7945SOL     OW35296   4.651   0.951   2.539  0.1991 -0.7398 -0.8449
 7945SOL    HW135297   4.567   0.914   2.514 -0.0283  1.8180 -3.9107
 7945SOL    HW235298   4.666   1.022   2.476 -3.6304  0.9926  0.1725
 7946SOL     OW35299   1.642   4.095  14.139 -0.7016  0.3069  0.0372
 7946SOL    HW135300   1.646   4.163  14.207  2.7204  1.3916 -1.2823
 7946SOL    HW235301   1.638   4.144  14.056  0.0014  0.6894  0.2267
 7947SOL     OW35302   2.445   2.156  14.592  0.2918  0.9971 -0.8285
 7947SOL    HW135303   2.373   2.102  14.558 -0.8743  2.3893 -0.5526
 7947SOL    HW235304   2.406   2.192  14.671 -1.5098 -0.0047 -1.2681
 7948SOL     OW35305   3.051   1.160   3.251 -0.7110  0.2234  0.2239
 7948SOL    HW135306   3.004   1.194   3.174 -1.0874  1.2822  0.9331
 7948SOL    HW235307   2.977   1.180   3.308 -0.3477 -3.4091  1.9640
 7949SOL     OW35308   2.631   2.525   7.317  0.2545  0.0935  0.0457
 7949SOL    HW135309   2.553   2.523   7.373 -0.8353  0.4204 -1.4757
 7949SOL    HW235310   2.701   2.560   7.372  0.1837  0.0761  0.1457
 7950SOL     OW35311   1.442   4.089   9.211  0.0539  0.3749 -0.6108
 7950SOL    HW135312   1.402   4.171   9.182 -1.5019  0.0601  0.7076
 7950SOL    HW235313   1.530   4.109   9.244 -0.8531 -1.8756  3.1545
 7951SOL     OW35314   3.221   1.001  17.446  0.5420  0.2840  0.3371
 7951SOL    HW135315   3.249   0.919  17.484  0.2154 -0.2477 -0.5570
 7951SOL    HW235316   3.264   1.063  17.504  0.3499  0.4273  0.3272
 7952SOL     OW35317   3.329   3.858   3.105  0.8977 -0.6700  0.4237
 7952SOL    HW135318   3.407   3.915   3.105 -0.6023  1.3983  3.4275
 7952SOL    HW235319   3.285   3.897   3.181 -1.7128 -2.2524 -0.2888
 7953SOL     OW35320   1.138   1.279   3.538 -0.3584 -0.2196 -0.0532
 7953SOL    HW135321   1.207   1.337   3.571 -0.4433  0.5846 -1.3153
 7953SOL    HW235322   1.100   1.339   3.474  1.3169  0.8342 -0.0545
 7954SOL     OW35323   3.050   2.712   8.828  0.5061  0.1562 -0.3210
 7954SOL    HW135324   2.973   2.739   8.879  1.2459 -0.2378  0.9885
 7954SOL    HW235325   3.049   2.773   8.754 -4.8049  0.6835  0.1616
 7955SOL     OW35326   1.988   3.128  12.490 -0.2529 -0.9328  0.5751
 7955SOL    HW135327   1.923   3.171  12.545 -0.1851 -0.9532  0.6699
 7955SOL    HW235328   2.072   3.153  12.528  0.2486  1.8666 -2.3144
 7956SOL     OW35329   0.146   0.826   4.867  0.9789  0.0426 -0.3694
 7956SOL    HW135330   0.150   0.795   4.957  1.1506 -0.6504 -0.6152
 7956SOL    HW235331   0.120   0.741   4.832 -1.0467 -0.1111  1.5050
 7957SOL     OW35332   3.013   3.872   5.819  0.0349  0.7288  0.2720
 7957SOL    HW135333   2.949   3.943   5.813 -0.6953 -0.0704 -1.4973
 7957SOL    HW235334   3.030   3.869   5.913  0.6788  1.4032  0.1726
 7958SOL     OW35335   2.098   0.906  10.857  0.0405  0.1569 -0.4745
 7958SOL    HW135336   2.089   0.963  10.933  0.9204 -0.0489 -0.2121
 7958SOL    HW235337   2.119   0.973  10.792  0.1765  1.0653  0.5130
 7959SOL     OW35338   3.334   1.367   7.258 -0.0647  0.6239 -0.0749
 7959SOL    HW135339   3.297   1.325   7.336  2.1542 -1.1728 -0.0046
 7959SOL    HW235340   3.397   1.302   7.227  3.0045  3.4188  0.2695
 7960SOL     OW35341   3.192   0.420  11.942 -0.4682 -0.2521  0.1781
 7960SOL    HW135342   3.215   0.385  12.028 -0.8782  1.2927  0.9099
 7960SOL    HW235343   3.178   0.336  11.897  0.5744 -0.1026 -0.4237
 7961SOL     OW35344   3.861   3.321   8.282 -0.1502  0.4355 -0.0619
 7961SOL    HW135345   3.827   3.284   8.363  1.4951  1.0862  0.9307
 7961SOL    HW235346   3.899   3.400   8.320  0.1203  0.0408  0.4771
 7962SOL     OW35347   1.355   1.873   5.081  0.0438 -0.1042 -0.3750
 7962SOL    HW135348   1.268   1.857   5.044 -0.3144  0.8899  0.0282
 7962SOL    HW235349   1.389   1.947   5.031 -0.5078 -1.3981 -2.6523
 7963SOL     OW35350   3.651   0.906   1.156 -0.1586 -0.2692  0.0652
 7963SOL    HW135351   3.614   0.995   1.151 -1.4934 -0.9366 -1.8347
 7963SOL    HW235352   3.593   0.863   1.220  0.3965 -1.6757 -0.3925
 7964SOL     OW35353   2.957   2.439   8.439 -0.4065 -0.4052  0.4730
 7964SOL    HW135354   2.910   2.432   8.522  0.1587  1.3593  0.9502
 7964SOL    HW235355   2.901   2.496   8.387 -0.9825 -1.4428 -0.0585
 7965SOL     OW35356   2.364   2.793  12.279 -0.5054  0.4896 -0.0682
 7965SOL    HW135357   2.293   2.736  12.309  0.0295  0.1350  0.5250
 7965SOL    HW235358   2.353   2.873  12.330  0.3040  0.2739  0.4473
 7966SOL     OW35359   0.570   3.982  15.576  0.4324  0.1258 -0.5971
 7966SOL    HW135360   0.555   4.074  15.554  1.5971  0.2414 -0.8801
 7966SOL    HW235361   0.515   3.977  15.655 -2.4899  0.5782 -2.6302
 7967SOL     OW35362   1.021   2.806   4.402 -0.2512 -0.1435 -0.0215
 7967SOL    HW135363   0.992   2.768   4.319 -0.5724  1.3337 -0.5711
 7967SOL    HW235364   1.117   2.800   4.394 -0.3060 -0.3135 -0.5734
 7968SOL     OW35365   3.345   0.223   3.174 -0.1323  0.0814  0.3375
 7968SOL    HW135366   3.281   0.158   3.203 -1.5116  0.0538 -2.7503
 7968SOL    HW235367   3.308   0.303   3.212 -1.2508  0.5920 -1.8120
 7969SOL     OW35368   1.236   3.727   8.604  0.1503 -0.1470  0.1759
 7969SOL    HW135369   1.174   3.673   8.554  0.9357 -0.5865 -0.3084
 7969SOL    HW235370   1.238   3.676   8.685 -0.6465 -1.5371 -0.6663
 7970SOL     OW35371   2.622   2.808   8.448  0.1697  0.3108  0.4636
 7970SOL    HW135372   2.612   2.715   8.469  1.3967 -0.0139 -0.4060
 7970SOL    HW235373   2.586   2.850   8.526 -2.4915 -1.6821  0.3183
 7971SOL     OW35374   1.887   1.094   3.042 -0.4843 -0.1706 -0.2167
 7971SOL    HW135375   1.824   1.061   3.106  1.2633 -0.3306  1.4191
 7971SOL    HW235376   1.827   1.133   2.979 -0.3684 -0.9080 -0.7793
 7972SOL     OW35377   1.718   1.410   5.475 -0.1396  0.2634  0.1669
 7972SOL    HW135378   1.706   1.414   5.380  0.0263  0.3020  0.1469
 7972SOL    HW235379   1.636   1.442   5.513 -0.5153 -0.3784 -0.1052
 7973SOL     OW35380   4.033   3.195   4.684 -0.9819 -0.2814 -0.1810
 7973SOL    HW135381   4.097   3.252   4.640 -1.9528  0.0850 -1.1110
 7973SOL    HW235382   4.073   3.109   4.683  1.5075  0.8733 -0.2758
 7974SOL     OW35383   2.646   3.333   7.469  0.0281  0.3081  0.2896
 7974SOL    HW135384   2.720   3.386   7.440 -0.5497  1.5861  1.1538
 7974SOL    HW235385   2.608   3.365   7.551  1.8917 -0.3762  1.4068
 7975SOL     OW35386   0.671   0.164   9.308  0.2208  0.3712 -0.4063
 7975SOL    HW135387   0.740   0.196   9.250  2.1456 -0.9612  1.1462
 7975SOL    HW235388   0.709   0.179   9.395  2.6078 -0.7316 -1.2515
 7976SOL     OW35389   1.524   1.032  11.808 -0.3407 -0.4716 -0.3248
 7976SOL    HW135390   1.525   1.104  11.870 -1.4359 -1.8123  1.2667
 7976SOL    HW235391   1.495   1.077  11.729 -0.0854  1.2892  0.5976
 7977SOL     OW35392   0.441   3.994   0.520 -0.0210  0.2489  0.1515
 7977SOL    HW135393   0.526   3.958   0.497 -0.4764  1.0947 -2.8757
 7977SOL    HW235394   0.392   3.967   0.442 -0.5515  3.8213 -0.7428
 7978SOL     OW35395   1.269   2.452  15.854 -0.5123  0.1351 -0.0551
 7978SOL    HW135396   1.342   2.477  15.910  1.3943 -2.7703 -1.2186
 7978SOL    HW235397   1.291   2.490  15.769  1.7649  0.1741  0.5637
 7979SOL     OW35398   0.258   3.294   4.848  0.3431 -0.2700  0.2476
 7979SOL    HW135399   0.188   3.358   4.838  1.0729  0.5585  0.4533
 7979SOL    HW235400   0.247   3.271   4.940 -0.2791  0.7093  0.4166
 7980SOL     OW35401   1.841   2.611   4.402 -0.2491 -0.3122  0.2619
 7980SOL    HW135402   1.746   2.606   4.392 -0.1689  0.7422 -1.1666
 7980SOL    HW235403   1.845   2.608   4.497  0.8687 -0.6981  0.2035
 7981SOL     OW35404   2.029   1.908   8.867 -0.2317  0.3673  0.2037
 7981SOL    HW135405   1.979   1.907   8.785  1.7380  0.4816 -0.9931
 7981SOL    HW235406   2.004   1.996   8.894  1.5375  1.2952 -1.1932
 7982SOL     OW35407   0.879   0.599   6.911 -0.1119  0.3183 -0.4301
 7982SOL    HW135408   0.891   0.523   6.968 -0.3627  1.6501  1.3675
 7982SOL    HW235409   0.789   0.601   6.878  0.2397  0.2502 -1.3958
 7983SOL     OW35410   3.813   3.159   4.226  0.1551 -0.3950 -0.2513
 7983SOL    HW135411   3.881   3.219   4.256 -1.4493  1.7602 -0.9514
 7983SOL    HW235412   3.862   3.080   4.249  0.4813 -0.7402 -2.1464
 7984SOL     OW35413   1.748   3.271   4.002  0.0602  0.1128 -0.0029
 7984SOL    HW135414   1.709   3.239   4.084 -1.1017  2.4867  0.3770
 7984SOL    HW235415   1.713   3.360   4.000 -0.9114 -0.3244 -2.6047
 7985SOL     OW35416   1.073   2.600   4.203 -0.0325  0.2963 -0.2498
 7985SOL    HW135417   1.025   2.539   4.258  0.2473  0.0326 -0.3000
 7985SOL    HW235418   1.147   2.548   4.174 -0.0894 -1.0872  2.0809
 7986SOL     OW35419   2.052   2.666   2.475 -0.6688 -0.3676  0.0930
 7986SOL    HW135420   1.959   2.686   2.479 -0.9469 -1.1549 -2.7354
 7986SOL    HW235421   2.062   2.660   2.380  1.7702 -0.2999  0.3393
 7987SOL     OW35422   2.616   2.024  12.241  0.0828 -0.5655  0.5502
 7987SOL    HW135423   2.633   2.118  12.245 -1.4348 -0.3336  1.9096
 7987SOL    HW235424   2.573   2.013  12.326 -1.0749  1.0226  0.1631
 7988SOL     OW35425   0.242   1.352   7.516  0.3220 -0.0342  0.9205
 7988SOL    HW135426   0.211   1.272   7.473  0.1266  0.7250 -0.3519
 7988SOL    HW235427   0.333   1.326   7.528  1.3200  2.6418 -0.7989
 7989SOL     OW35428   4.494   3.194   8.450 -1.1182 -0.1120  0.3244
 7989SOL    HW135429   4.442   3.248   8.390  0.0576 -0.6979 -1.2373
 7989SOL    HW235430   4.560   3.260   8.471 -1.2552  0.2668 -0.4167
 7990SOL     OW35431   3.296   0.799   4.921  0.1622  0.2330 -0.0740
 7990SOL    HW135432   3.359   0.822   4.990  0.4697  0.5344 -0.4595
 7990SOL    HW235433   3.359   0.749   4.869  1.8529  1.4159  0.8382
 7991SOL     OW35434   4.437   2.449  16.790 -0.2145  0.0678 -0.3069
 7991SOL    HW135435   4.413   2.457  16.698  1.2271 -0.7471 -0.7649
 7991SOL    HW235436   4.454   2.541  16.809  1.5200 -0.1331 -0.8828
 7992SOL     OW35437   3.895   2.634   7.087  0.1321 -0.3372  0.0929
 7992SOL    HW135438   3.826   2.666   7.145 -0.6694  0.6775 -1.4235
 7992SOL    HW235439   3.852   2.615   7.004 -2.1365 -1.2020  1.4640
 7993SOL     OW35440   1.347   0.984  14.817 -0.5918  0.3618  0.0322
 7993SOL    HW135441   1.271   0.978  14.758 -0.5966  2.2939 -0.1581
 7993SOL    HW235442   1.419   0.938  14.773  0.3519  0.8658  1.0633
 7994SOL     OW35443   2.783   1.403  15.502 -0.1338  0.0111  0.2909
 7994SOL    HW135444   2.713   1.434  15.559 -0.5451 -1.9722  0.8882
 7994SOL    HW235445   2.860   1.413  15.558 -0.8540  2.2098  0.8687
 7995SOL     OW35446   2.166   3.996   2.674 -0.5090 -0.1288 -0.0047
 7995SOL    HW135447   2.132   4.054   2.742 -3.2113 -0.2996 -1.1836
 7995SOL    HW235448   2.092   3.935   2.674 -0.3759 -0.2921 -0.8363
 7996SOL     OW35449   2.316   0.194   0.216  0.0730 -0.1330  0.1630
 7996SOL    HW135450   2.265   0.274   0.208 -0.4396 -0.4807 -0.0567
 7996SOL    HW235451   2.255   0.124   0.192 -0.5464 -0.6144  3.0270
 7997SOL     OW35452   2.832   3.915   4.938 -0.3781 -0.1295 -0.7358
 7997SOL    HW135453   2.751   3.910   4.989  0.2240 -0.7257  0.1658
 7997SOL    HW235454   2.807   3.882   4.852 -1.8000  0.6152 -0.6053
 7998SOL     OW35455   0.468   4.445  17.111  0.0641 -0.3968  0.3075
 7998SOL    HW135456   0.555   4.479  17.092 -1.3139  0.5004 -4.5661
 7998SOL    HW235457   0.472   4.364  17.059 -1.3404 -0.8078  0.8218
 7999SOL     OW35458   0.072   0.960   6.791 -0.1161 -0.1589  0.5763
 7999SOL    HW135459   0.004   1.022   6.818 -1.2982 -0.8941 -0.7460
 7999SOL    HW235460   0.077   0.981   6.698  0.2349 -0.1087  0.6031
 8000SOL     OW35461   0.115   0.029   3.995  0.7801 -1.1488 -0.0511
 8000SOL    HW135462   0.141   4.663   4.011  1.0820 -1.2132 -0.8732
 8000SOL    HW235463   0.117   0.023   3.899 -1.0176  1.9893 -0.2872
 8001SOL     OW35464   2.677   3.577  12.571  0.2386  0.1211  0.5417
 8001SOL    HW135465   2.666   3.622  12.487  0.0868 -1.3825 -0.2286
 8001SOL    HW235466   2.594   3.611  12.605 -0.9704 -2.5007  0.1678
 8002SOL     OW35467   1.139   2.221   3.779 -0.0655 -0.8149 -0.2658
 8002SOL    HW135468   1.195   2.195   3.705  0.5775 -3.0958  1.0218
 8002SOL    HW235469   1.192   2.291   3.815  0.4572 -1.4157  0.1273
 8003SOL     OW35470   3.847   3.395   8.715 -0.1496  0.0849  0.1960
 8003SOL    HW135471   3.887   3.327   8.769  1.2551  2.0572  1.5901
 8003SOL    HW235472   3.805   3.348   8.642  0.2188  0.4774 -0.2740
 8004SOL     OW35473   0.778   0.740   5.715  0.1142 -0.3180  0.0562
 8004SOL    HW135474   0.832   0.756   5.638 -1.5136 -2.5802 -1.5538
 8004SOL    HW235475   0.831   0.767   5.790 -0.6757 -0.3127  0.6236
 8005SOL     OW35476   3.678   0.239   4.888 -0.1410  0.5612  0.7413
 8005SOL    HW135477   3.662   0.244   4.794 -0.2781 -2.7012  0.6216
 8005SOL    HW235478   3.625   0.168   4.924  0.8875 -0.1425  0.8366
 8006SOL     OW35479   3.058   1.609   9.057  0.1383 -0.0800 -0.8552
 8006SOL    HW135480   3.124   1.547   9.087  0.5618  0.8915  0.2405
 8006SOL    HW235481   3.070   1.683   9.117 -2.4389 -0.1991 -0.1589
 8007SOL     OW35482   1.153   1.266   2.681  0.3951  0.7019  0.3214
 8007SOL    HW135483   1.246   1.269   2.702  0.8220  0.4719 -1.5986
 8007SOL    HW235484   1.153   1.216   2.600  2.2365 -0.0373  0.7805
 8008SOL     OW35485   2.782   3.445   8.173 -0.5734 -0.3744  0.0498
 8008SOL    HW135486   2.822   3.532   8.184  1.8784 -1.3904 -0.8963
 8008SOL    HW235487   2.702   3.456   8.225  0.0238 -1.5468  1.2162
 8009SOL     OW35488   3.575   3.921  17.156  0.8067  0.1023  0.1074
 8009SOL    HW135489   3.602   3.885  17.072  2.4829  0.6810  0.3899
 8009SOL    HW235490   3.523   3.850  17.193  2.8576 -0.3498  2.0971
 8010SOL     OW35491   2.839   3.014   4.519 -0.0733  0.0288 -0.0171
 8010SOL    HW135492   2.825   2.972   4.433  5.0436 -2.0615  0.1988
 8010SOL    HW235493   2.934   3.005   4.519 -0.2632 -2.0901  1.4860
 8011SOL     OW35494   3.629   0.994   2.847 -0.0236  0.0965 -0.2710
 8011SOL    HW135495   3.663   0.908   2.822  3.1961  1.7530 -1.6632
 8011SOL    HW235496   3.550   0.967   2.892  0.2490 -0.0153  0.1449
 8012SOL     OW35497   2.945   1.738   3.728 -0.2572 -0.7445 -0.1906
 8012SOL    HW135498   2.869   1.703   3.683 -1.7611  2.5552 -0.2287
 8012SOL    HW235499   2.970   1.670   3.790 -1.4876 -0.5251  0.5399
 8013SOL     OW35500   0.042   4.204   1.951  0.1282  0.1080 -0.2941
 8013SOL    HW135501   4.722   4.259   1.887  0.6249  0.3081 -0.4665
 8013SOL    HW235502   0.098   4.269   1.994 -0.5363  0.7256 -0.3802
 8014SOL     OW35503   1.707   0.277   2.372 -0.2320 -0.5089  0.2379
 8014SOL    HW135504   1.655   0.302   2.448 -0.2715  0.4945 -0.1225
 8014SOL    HW235505   1.679   0.185   2.369 -0.6420 -0.2477 -3.2674
 8015SOL     OW35506   4.498   0.657  16.837  0.4647 -0.1406 -0.5651
 8015SOL    HW135507   4.556   0.650  16.912 -0.5221 -0.1339  0.2048
 8015SOL    HW235508   4.532   0.737  16.797 -0.2340  1.4330  1.9279
 8016SOL     OW35509   3.888   2.989   8.794 -1.1822  0.2159  0.7745
 8016SOL    HW135510   3.845   2.985   8.880 -1.3011 -3.7553  0.5334
 8016SOL    HW235511   3.915   3.080   8.790 -0.5717 -0.1432 -2.9578
 8017SOL     OW35512   2.233   2.954   5.845 -0.4454 -0.1716  0.2783
 8017SOL    HW135513   2.312   2.901   5.844 -0.2966  0.0216  1.7317
 8017SOL    HW235514   2.182   2.889   5.797  1.4133 -1.0264 -0.5327
 8018SOL     OW35515   1.312   2.047   2.441 -0.3149  0.5346  0.1523
 8018SOL    HW135516   1.271   1.966   2.411 -1.3029  0.8335  0.6973
 8018SOL    HW235517   1.242   2.112   2.438 -0.9941 -0.2216 -0.2733
 8019SOL     OW35518   0.995   0.449   6.629  0.8776  0.2365  0.1769
 8019SOL    HW135519   0.989   0.509   6.703 -2.2302 -1.7794  1.5644
 8019SOL    HW235520   0.910   0.405   6.631  1.3091 -0.7299 -1.9596
 8020SOL     OW35521   1.757   1.220   6.552 -0.4251 -0.3693  0.3533
 8020SOL    HW135522   1.823   1.289   6.546 -2.1173  1.2094  0.1156
 8020SOL    HW235523   1.672   1.259   6.532 -0.4798 -1.7654 -2.1889
 8021SOL     OW35524   1.773   0.213   8.482 -0.2897  0.2976 -0.2581
 8021SOL    HW135525   1.838   0.274   8.447  0.3311 -0.1350  0.1450
 8021SOL    HW235526   1.811   0.189   8.566  0.6453  1.1604 -0.4308
 8022SOL     OW35527   4.391   4.617   6.373  0.4755  0.6587  0.6015
 8022SOL    HW135528   4.426   4.703   6.351 -1.8218  0.4529 -3.6956
 8022SOL    HW235529   4.398   4.620   6.469  0.2767  1.9289  0.5792
 8023SOL     OW35530   3.745   2.638   8.099  0.0114 -0.9876 -0.0999
 8023SOL    HW135531   3.785   2.694   8.033 -0.0014 -0.9827 -0.1036
 8023SOL    HW235532   3.660   2.683   8.104  0.0242 -0.8128 -1.3401
 8024SOL     OW35533   1.700   0.272   8.116  0.4788 -0.5602  0.3726
 8024SOL    HW135534   1.712   0.187   8.157 -0.4692 -1.4380 -1.1905
 8024SOL    HW235535   1.743   0.332   8.178  1.2924 -0.3512 -0.3943
 8025SOL     OW35536   2.636   1.141   6.034  0.6045  0.2274 -0.2050
 8025SOL    HW135537   2.616   1.234   6.050  0.3161  0.3423 -1.2579
 8025SOL    HW235538   2.547   1.108   6.025 -0.2928  2.6772 -0.4971
 8026SOL     OW35539   1.223   3.067  14.628  0.0223 -0.1897 -0.5062
 8026SOL    HW135540   1.210   3.123  14.551 -0.7844 -0.7324 -0.7646
 8026SOL    HW235541   1.275   2.994  14.594 -0.1424  0.6315 -2.5529
 8027SOL     OW35542   1.167   4.163   6.007  0.0593  0.3588 -0.3724
 8027SOL    HW135543   1.105   4.124   5.945  1.1237 -2.7750  0.5691
 8027SOL    HW235544   1.191   4.079   6.046  0.1717 -0.4475 -2.1711
 8028SOL     OW35545   4.489   0.661   7.299 -0.1219  0.4687  0.2038
 8028SOL    HW135546   4.415   0.678   7.240  0.3472 -0.3310 -0.6117
 8028SOL    HW235547   4.531   0.579   7.274 -0.6539  0.9037 -2.1696
 8029SOL     OW35548   0.921   0.513   4.725  0.0182  0.3774 -0.2043
 8029SOL    HW135549   0.834   0.476   4.711 -0.9496  1.9337  1.7465
 8029SOL    HW235550   0.955   0.500   4.636  1.2699 -0.4130  0.3822
 8030SOL     OW35551   2.809   1.230  10.529 -0.2290  0.6499 -0.1982
 8030SOL    HW135552   2.807   1.264  10.619 -2.6481  1.1606 -0.4250
 8030SOL    HW235553   2.811   1.138  10.556 -1.0755  0.4423 -0.8507
 8031SOL     OW35554   1.737   2.858   4.711 -0.9868  0.6613  0.8061
 8031SOL    HW135555   1.822   2.830   4.744 -2.0141 -2.1557  1.0916
 8031SOL    HW235556   1.702   2.911   4.783  0.4089  0.1543  1.8455
 8032SOL     OW35557   3.826   2.678  10.476  0.4393  0.7882 -0.6399
 8032SOL    HW135558   3.808   2.713  10.564  2.5882 -0.0196  0.1415
 8032SOL    HW235559   3.876   2.597  10.489  0.9113  1.2194  0.2938
 8033SOL     OW35560   0.729   3.851   4.976  0.5800  0.4651 -0.0838
 8033SOL    HW135561   0.645   3.889   4.951 -0.4622 -1.4679  0.4642
 8033SOL    HW235562   0.746   3.878   5.066 -0.3982 -3.1011  1.1709
 8034SOL     OW35563   4.278   2.534   5.945 -0.3484 -0.0330  0.0741
 8034SOL    HW135564   4.251   2.444   5.924 -2.2186  0.9207 -1.6016
 8034SOL    HW235565   4.337   2.515   6.018 -0.3140  2.2192  0.6358
 8035SOL     OW35566   2.235   3.521  13.048  0.5414  0.3966 -0.5079
 8035SOL    HW135567   2.267   3.590  12.990  1.2076 -0.8626 -1.6352
 8035SOL    HW235568   2.205   3.570  13.125 -2.5934  0.4443 -1.7473
 8036SOL     OW35569   0.827   0.699  15.942 -0.9273 -0.6231  0.1193
 8036SOL    HW135570   0.837   0.604  15.947 -0.6339 -0.6156 -0.2897
 8036SOL    HW235571   0.740   0.706  15.980 -0.8462  0.1914  0.1653
 8037SOL     OW35572   2.193   2.648   4.715 -0.0693  0.1079  0.6443
 8037SOL    HW135573   2.192   2.726   4.659 -2.6216 -0.1256  0.3455
 8037SOL    HW235574   2.256   2.676   4.782  1.3911 -0.7938 -0.3817
 8038SOL     OW35575   3.232   0.549   4.485  0.0317  0.2738 -0.1644
 8038SOL    HW135576   3.280   0.624   4.521  0.6660 -0.0862 -0.2521
 8038SOL    HW235577   3.291   0.506   4.422 -0.0407 -0.1483  0.0600
 8039SOL     OW35578   2.195   0.950  13.427  0.3111 -0.4527  0.1984
 8039SOL    HW135579   2.261   0.895  13.385 -0.7984 -0.7571 -1.1589
 8039SOL    HW235580   2.175   1.012  13.356 -0.0307  1.7709  2.2396
 8040SOL     OW35581   0.803   1.450  15.393  0.4235 -0.5967  0.0996
 8040SOL    HW135582   0.808   1.515  15.324  0.4541 -0.2011  0.4740
 8040SOL    HW235583   0.848   1.381  15.345 -0.0411  0.9111 -2.4607
 8041SOL     OW35584   0.614   0.762   3.305 -0.1914 -0.3217 -0.0876
 8041SOL    HW135585   0.566   0.739   3.226 -1.6545  2.2315  0.0488
 8041SOL    HW235586   0.703   0.728   3.294 -0.8287 -1.0637 -2.8193
 8042SOL     OW35587   1.999   2.375   6.331  0.2446  0.1427  0.4008
 8042SOL    HW135588   2.006   2.429   6.409  2.3020  1.0111 -0.3893
 8042SOL    HW235589   2.025   2.291   6.368 -1.6428 -0.9595 -0.7619
 8043SOL     OW35590   0.638   1.608   7.388 -0.1138  0.0500 -0.2098
 8043SOL    HW135591   0.706   1.652   7.337 -1.3554 -1.3594 -3.0904
 8043SOL    HW235592   0.556   1.638   7.348 -0.2442 -2.6709 -1.9908
 8044SOL     OW35593   0.822   4.453   9.817  0.0569 -0.0995  0.0850
 8044SOL    HW135594   0.901   4.503   9.835  0.1992  0.0915 -1.0581
 8044SOL    HW235595   0.769   4.533   9.808  1.7524  1.0113  0.0206
 8045SOL     OW35596   2.537   3.579   8.198  0.1815  0.7230  0.2426
 8045SOL    HW135597   2.528   3.641   8.270 -1.0043  2.2163 -1.2031
 8045SOL    HW235598   2.491   3.506   8.242  0.0751  1.0289  0.6394
 8046SOL     OW35599   1.379   2.354  10.317  0.3052  0.3656 -0.1783
 8046SOL    HW135600   1.449   2.327  10.258 -0.5727  0.9893 -1.5155
 8046SOL    HW235601   1.429   2.363  10.397 -0.9078  0.3258  0.5918
 8047SOL     OW35602   4.270   0.619   0.252 -0.6168  0.7446  0.1727
 8047SOL    HW135603   4.302   0.691   0.306 -2.6378  2.7556 -1.3383
 8047SOL    HW235604   4.347   0.563   0.245 -1.9908 -0.9927 -1.0744
 8048SOL     OW35605   3.207   3.947   3.632  0.3010 -0.5884 -0.1459
 8048SOL    HW135606   3.117   3.956   3.599  1.1615  2.4305 -1.7271
 8048SOL    HW235607   3.186   3.920   3.721  0.8588 -0.8265 -0.0905
 8049SOL     OW35608   1.660   1.719   6.664 -0.3295  0.1311  0.0305
 8049SOL    HW135609   1.755   1.712   6.655 -0.5910 -1.4772 -1.4112
 8049SOL    HW235610   1.644   1.752   6.576 -1.4008 -1.1079 -0.2395
 8050SOL     OW35611   1.020   4.697   7.234  0.3371  0.8501  0.1280
 8050SOL    HW135612   0.989   4.608   7.216 -0.6227  1.4418 -1.2233
 8050SOL    HW235613   0.946   0.028   7.262  0.6577  2.1463 -1.5843
 8051SOL     OW35614   0.451   2.673   3.684  0.1263  0.6297  0.1986
 8051SOL    HW135615   0.380   2.650   3.624  0.0820 -2.3958  1.4085
 8051SOL    HW235616   0.462   2.766   3.665 -0.1564  0.9862  1.7931
 8052SOL     OW35617   4.623   0.785  15.021  0.0490  0.3801  0.1751
 8052SOL    HW135618   4.543   0.733  15.014 -0.8807  2.0970 -1.8193
 8052SOL    HW235619   4.622   0.819  14.932 -0.9755 -0.9546 -0.3182
 8053SOL     OW35620   4.589   1.218   5.302 -0.3377 -0.1070 -0.3518
 8053SOL    HW135621   4.541   1.296   5.330  0.1506  0.4242 -0.9638
 8053SOL    HW235622   4.521   1.152   5.310 -0.9488  0.4904 -0.6525
 8054SOL     OW35623   2.036   2.976   8.567 -0.4539 -0.2476  0.1174
 8054SOL    HW135624   2.110   2.925   8.535 -1.3111 -2.2436  1.3077
 8054SOL    HW235625   2.027   3.044   8.500 -2.6145 -1.6524 -1.0123
 8055SOL     OW35626   1.418   3.332   9.683 -0.1771  0.0665  0.2159
 8055SOL    HW135627   1.366   3.285   9.748  0.1198 -0.2535  0.2194
 8055SOL    HW235628   1.367   3.412   9.669  0.7334  0.5151 -0.5867
 8056SOL     OW35629   1.211   1.788   9.688  0.1722  0.2250 -0.5719
 8056SOL    HW135630   1.121   1.790   9.655 -0.2670  1.8710  0.7548
 8056SOL    HW235631   1.266   1.784   9.610 -1.2389  0.6839 -1.5850
 8057SOL     OW35632   1.864   0.493  11.969  0.0465  0.3493  0.4093
 8057SOL    HW135633   1.940   0.442  11.942  1.6987  1.8928  2.0776
 8057SOL    HW235634   1.795   0.428  11.970 -1.9610  2.4874  1.0097
 8058SOL     OW35635   3.512   2.397   7.331 -0.4518  0.0312  0.6449
 8058SOL    HW135636   3.431   2.358   7.298  0.0475 -0.6360  0.2087
 8058SOL    HW235637   3.496   2.488   7.306 -1.0408  0.2861  1.9502
 8059SOL     OW35638   1.803   2.281   8.295  0.6340  0.2024 -0.1240
 8059SOL    HW135639   1.788   2.372   8.319  2.6305  0.0943  1.6310
 8059SOL    HW235640   1.898   2.270   8.298  0.5612 -0.3865  0.0163
 8060SOL     OW35641   0.918   2.581  16.918 -0.1917 -0.3363 -0.0890
 8060SOL    HW135642   0.985   2.643  16.948  1.1920 -1.1703 -1.4520
 8060SOL    HW235643   0.890   2.626  16.838  0.3283 -0.7110 -0.4810
 8061SOL     OW35644   0.154   4.577   9.145 -0.7795  0.1815 -0.0102
 8061SOL    HW135645   0.063   4.569   9.173 -1.4305  1.0511 -1.8890
 8061SOL    HW235646   0.199   4.521   9.208  1.4149 -0.5211 -2.1738
 8062SOL     OW35647   2.111   3.454   3.015  0.1424 -0.1244  0.1660
 8062SOL    HW135648   2.061   3.530   3.048  2.3981  0.2625  2.6847
 8062SOL    HW235649   2.048   3.383   3.026 -1.1175  0.7657 -1.2295
 8063SOL     OW35650   2.321   3.201   3.677 -0.0476 -0.1394 -0.3243
 8063SOL    HW135651   2.256   3.270   3.663 -1.1831 -1.3529 -0.9658
 8063SOL    HW235652   2.290   3.172   3.763 -1.2185 -3.3696 -1.8324
 8064SOL     OW35653   0.748   1.815  15.265 -0.4854  0.0060 -0.0371
 8064SOL    HW135654   0.684   1.812  15.337  2.4196 -0.6920  2.5102
 8064SOL    HW235655   0.815   1.867  15.309  0.6695  0.4258 -2.3279
 8065SOL     OW35656   0.422   3.593   9.925  0.3548 -0.0382 -0.2724
 8065SOL    HW135657   0.414   3.592   9.830  0.1115  0.1232 -0.2511
 8065SOL    HW235658   0.413   3.498   9.930  2.2773 -0.1579  1.0801
 8066SOL     OW35659   2.570   0.104   7.754  0.0821  0.5145 -0.5704
 8066SOL    HW135660   2.573   0.199   7.744 -1.9567  0.4261 -1.9879
 8066SOL    HW235661   2.643   0.103   7.816  0.1167  1.4620 -0.6093
 8067SOL     OW35662   2.532   4.456   0.845 -0.2451  0.6678  0.0479
 8067SOL    HW135663   2.547   4.371   0.887 -0.2389  1.6375  1.9660
 8067SOL    HW235664   2.611   4.504   0.871  0.2017 -0.0536  0.0361
 8068SOL     OW35665   0.683   2.773  13.565  0.3334  0.3137 -0.1270
 8068SOL    HW135666   0.709   2.762  13.474  0.2203 -2.4878  0.1742
 8068SOL    HW235667   0.765   2.808  13.598  1.1720 -0.5657 -1.2799
 8069SOL     OW35668   4.089   0.261   5.699 -0.3609  0.0520  0.5124
 8069SOL    HW135669   4.148   0.225   5.633 -0.1864  1.8684 -0.3305
 8069SOL    HW235670   4.019   0.197   5.706  0.5829 -1.0682 -0.3606
 8070SOL     OW35671   2.860   2.240   2.831  0.0250  0.6658  0.2290
 8070SOL    HW135672   2.834   2.294   2.756  0.8671  0.2629 -0.3562
 8070SOL    HW235673   2.783   2.247   2.887  2.2640  1.0777  3.2570
 8071SOL     OW35674   3.064   2.712   2.986 -0.2966  0.1449  0.1283
 8071SOL    HW135675   3.079   2.621   2.960 -2.8894 -0.1318 -0.4927
 8071SOL    HW235676   3.057   2.750   2.899 -1.6344 -0.2569  0.0526
 8072SOL     OW35677   4.704   3.433   6.992 -0.2451  0.3754 -0.0282
 8072SOL    HW135678   4.611   3.409   6.994 -0.1748  0.2306  1.4712
 8072SOL    HW235679   0.016   3.389   6.915  1.5984 -1.1591  1.6999
 8073SOL     OW35680   3.711   4.458   1.145  0.1677  0.7088  0.0818
 8073SOL    HW135681   3.722   4.366   1.169 -0.1213  0.0815 -2.1091
 8073SOL    HW235682   3.778   4.461   1.076  1.9507  0.9682  1.8385
 8074SOL     OW35683   1.451   4.605  12.002  0.0307  0.1011  0.1001
 8074SOL    HW135684   1.504   4.532  11.968  2.2790  0.8693  1.9787
 8074SOL    HW235685   1.440   4.649  11.917 -0.4651  2.2735  1.3012
 8075SOL     OW35686   1.773   2.372   4.720  0.1702  0.0699  0.1781
 8075SOL    HW135687   1.836   2.443   4.707 -1.9272  1.7881 -0.6328
 8075SOL    HW235688   1.830   2.295   4.720  0.4635  0.2862  1.4178
 8076SOL     OW35689   1.177   4.008  17.347 -0.1937  0.0816 -0.0035
 8076SOL    HW135690   1.227   4.081  17.311  0.0747 -0.0540  0.0985
 8076SOL    HW235691   1.134   4.057  17.417 -1.1566 -2.3632  1.1144
 8077SOL     OW35692   0.844   4.407   4.516 -0.5232  0.1612 -1.0347
 8077SOL    HW135693   0.806   4.491   4.543  2.1874  0.9615  0.2883
 8077SOL    HW235694   0.926   4.440   4.479 -0.0089 -1.3279 -1.2114
 8078SOL     OW35695   1.121   4.639   5.065  0.3324  0.2055  0.2007
 8078SOL    HW135696   1.117   4.546   5.088  0.5683  0.9367  3.1839
 8078SOL    HW235697   1.055   4.632   4.996  1.2654 -3.2711 -0.3462
 8079SOL     OW35698   3.249   4.047   0.834  0.1756 -0.1539  0.3324
 8079SOL    HW135699   3.222   4.138   0.847  1.6472 -0.1814  3.5277
 8079SOL    HW235700   3.268   4.022   0.924  2.4725 -0.4363 -0.2307
 8080SOL     OW35701   1.002   2.560   9.149  0.1261 -0.3591  0.3515
 8080SOL    HW135702   0.999   2.643   9.199 -0.2482  1.0290 -1.9869
 8080SOL    HW235703   0.916   2.557   9.106  0.7748  2.3210 -1.1288
 8081SOL     OW35704   4.650   3.626  16.074  0.7659 -0.4223  0.0726
 8081SOL    HW135705   4.589   3.697  16.089 -0.2446 -1.3076  0.1448
 8081SOL    HW235706   4.605   3.554  16.029  1.9860 -0.0923 -1.6881
 8082SOL     OW35707   3.427   3.142   5.268  0.0320  0.0591 -0.5185
 8082SOL    HW135708   3.401   3.056   5.303  0.9383  0.6255  1.5162
 8082SOL    HW235709   3.469   3.103   5.192  2.0255  0.5785  0.3225
 8083SOL     OW35710   1.275   0.713   7.983 -0.1689 -0.2255 -0.0889
 8083SOL    HW135711   1.263   0.782   7.918  0.5320 -0.5767 -0.6014
 8083SOL    HW235712   1.318   0.757   8.056  0.2472 -1.9334  0.6962
 8084SOL     OW35713   0.308   3.845   0.336 -1.0578 -0.0222  0.0022
 8084SOL    HW135714   0.347   3.825   0.251 -0.6362 -0.1601  0.2288
 8084SOL    HW235715   0.313   3.769   0.394 -0.1890 -0.9299 -1.2748
 8085SOL     OW35716   0.510   4.411   8.208  0.2490  0.0732  0.6991
 8085SOL    HW135717   0.548   4.354   8.274  1.7282 -0.0896 -0.2848
 8085SOL    HW235718   0.442   4.447   8.264 -0.2288 -1.8747  1.3491
 8086SOL     OW35719   3.552   3.721  16.956 -0.3131 -0.0651 -0.1369
 8086SOL    HW135720   3.460   3.702  16.941 -0.1433  0.2203 -1.5581
 8086SOL    HW235721   3.591   3.642  16.918 -1.1633  1.1198 -3.5314
 8087SOL     OW35722   0.730   3.601   8.370  0.1588  0.1258 -0.1384
 8087SOL    HW135723   0.748   3.572   8.459  1.6143 -1.1383 -0.8442
 8087SOL    HW235724   0.671   3.676   8.382 -0.9754 -0.5945 -1.2149
 8088SOL     OW35725   2.413   2.133   1.535 -0.5494  0.3706  0.0682
 8088SOL    HW135726   2.406   2.067   1.466  2.8115 -0.3364  0.4033
 8088SOL    HW235727   2.500   2.117   1.572  0.4768  1.5815 -1.8552
 8089SOL     OW35728   1.729   3.872   8.545  0.0157 -0.2809 -0.1588
 8089SOL    HW135729   1.634   3.868   8.531 -0.1054  3.2674 -0.2195
 8089SOL    HW235730   1.734   3.962   8.575  1.6575 -0.2941 -0.3811
 8090SOL     OW35731   1.639   2.436   5.929  0.6329  0.0802 -0.1081
 8090SOL    HW135732   1.712   2.496   5.941  0.7840 -0.2109  0.4356
 8090SOL    HW235733   1.574   2.459   5.995 -0.5762 -0.2921 -1.1795
 8091SOL     OW35734   1.485   3.345   5.011 -0.4411 -0.8281  0.1996
 8091SOL    HW135735   1.408   3.377   5.058  1.2006  0.1666  2.2504
 8091SOL    HW235736   1.448   3.326   4.925  1.3937 -0.8365 -0.5926
 8092SOL     OW35737   3.110   4.610  12.102 -0.2263 -0.2308 -0.1675
 8092SOL    HW135738   3.204   4.601  12.087  0.3132 -0.9784  3.6748
 8092SOL    HW235739   3.114   4.621  12.197  0.2327  0.1242 -0.2274
 8093SOL     OW35740   2.779   4.618   0.911 -0.9974 -0.2882  0.6622
 8093SOL    HW135741   2.811   4.699   0.872 -1.0760 -0.2368  0.7067
 8093SOL    HW235742   2.706   4.651   0.961  0.0993  0.8472  1.5077
 8094SOL     OW35743   0.114   4.640   8.202  0.0904  0.7068  0.1007
 8094SOL    HW135744   0.041   4.626   8.262 -0.7688 -1.7646 -1.5406
 8094SOL    HW235745   0.124   0.010   8.216  1.2462  0.7881 -1.2844
 8095SOL     OW35746   4.119   0.075  14.577  0.0739  0.5203 -0.9526
 8095SOL    HW135747   4.040   0.127  14.594 -0.4178 -1.1411  1.8141
 8095SOL    HW235748   4.129   0.040  14.665  1.3595  2.1796 -0.4475
 8096SOL     OW35749   4.353   3.321   8.250 -0.2761 -0.1896  0.6122
 8096SOL    HW135750   4.341   3.270   8.170 -3.2185 -1.7045  2.0285
 8096SOL    HW235751   4.335   3.405   8.207  0.0442 -1.5876 -2.2559
 8097SOL     OW35752   0.962   1.802   2.801  0.0780  0.5111 -0.2322
 8097SOL    HW135753   0.880   1.853   2.803 -1.8383 -2.6680  2.6358
 8097SOL    HW235754   0.962   1.787   2.707 -1.4723 -2.4987  0.2392
 8098SOL     OW35755   2.660   2.757   7.938  0.2770 -0.2106  0.5394
 8098SOL    HW135756   2.665   2.831   7.877 -1.3052  0.4394  1.2229
 8098SOL    HW235757   2.605   2.794   8.007  1.1194 -0.0292  1.1191
 8099SOL     OW35758   0.796   1.470  13.738  0.2432 -0.2081 -0.0125
 8099SOL    HW135759   0.725   1.529  13.765  0.2013 -1.6749  3.0583
 8099SOL    HW235760   0.792   1.464  13.643 -1.1021 -2.6862  0.2067
 8100SOL     OW35761   0.850   1.606   3.766 -0.3282  0.1046  0.2311
 8100SOL    HW135762   0.815   1.617   3.854  0.0287 -1.8340  0.6220
 8100SOL    HW235763   0.945   1.612   3.777 -0.3254 -2.0706  1.4143
 8101SOL     OW35764   0.478   0.394   6.837  0.3615 -0.2699  0.1304
 8101SOL    HW135765   0.505   0.344   6.761  0.2556 -0.1135 -0.0112
 8101SOL    HW235766   0.394   0.432   6.811  0.9527 -0.0641 -1.4608
 8102SOL     OW35767   0.854   1.440  15.785 -0.4004  0.1305  0.5163
 8102SOL    HW135768   0.777   1.493  15.806 -0.2521  0.0224  1.3198
 8102SOL    HW235769   0.821   1.352  15.800 -0.1933 -0.3401 -1.6631
 8103SOL     OW35770   1.135   3.360  11.110 -0.1125  0.2372  0.1829
 8103SOL    HW135771   1.083   3.297  11.059  1.8186  0.7757 -2.4417
 8103SOL    HW235772   1.088   3.443  11.101 -0.8316 -0.6171 -4.1853
 8104SOL     OW35773   2.591   3.881   6.989 -0.0733  0.1263 -0.6427
 8104SOL    HW135774   2.546   3.819   6.931  0.0591  1.7888 -2.5099
 8104SOL    HW235775   2.532   3.898   7.062 -0.1550 -0.6584 -0.5189
 8105SOL     OW35776   3.777   3.169   7.433  0.2848 -0.3700  0.1162
 8105SOL    HW135777   3.841   3.129   7.375  1.3688  2.1219 -0.3802
 8105SOL    HW235778   3.792   3.109   7.506 -0.3353  0.8874  1.2857
 8106SOL     OW35779   2.907   2.722   7.662  0.8477  1.1155  0.1710
 8106SOL    HW135780   2.871   2.808   7.684 -0.1630  0.6081  0.5059
 8106SOL    HW235781   2.940   2.695   7.748  0.7076 -0.5705 -0.3066
 8107SOL     OW35782   0.767   0.022   4.275  0.1843 -0.0166  0.8787
 8107SOL    HW135783   0.790   0.113   4.256 -0.4055 -0.1645 -0.5188
 8107SOL    HW235784   0.830   0.005   4.346  1.6896 -2.2830 -0.9888
 8108SOL     OW35785   1.237   0.415   8.765  1.0006 -0.0759  0.0783
 8108SOL    HW135786   1.162   0.391   8.818  1.5839 -0.1452  0.8775
 8108SOL    HW235787   1.220   0.360   8.689  1.4318 -0.4345  0.2405
 8109SOL     OW35788   4.129   3.545  13.154 -0.5793 -0.4206 -0.2869
 8109SOL    HW135789   4.130   3.632  13.114  0.5828 -0.9347 -1.4008
 8109SOL    HW235790   4.203   3.509  13.104 -0.8632  1.2624 -1.9099
 8110SOL     OW35791   0.806   3.252  11.174 -0.4926  0.6943  0.2703
 8110SOL    HW135792   0.748   3.177  11.191  1.7262 -1.3070 -1.0609
 8110SOL    HW235793   0.768   3.270  11.088 -0.3210  1.1699  0.2962
 8111SOL     OW35794   1.755   1.854   4.994  0.2911  0.3105  0.2280
 8111SOL    HW135795   1.752   1.858   4.898  0.9476  0.0361  0.1990
 8111SOL    HW235796   1.733   1.761   4.999 -0.8558  0.6118  0.9596
 8112SOL     OW35797   1.480   3.211   7.527  0.2760  0.1716  0.2190
 8112SOL    HW135798   1.507   3.124   7.498 -1.0440  0.5586 -2.1913
 8112SOL    HW235799   1.407   3.214   7.465  0.5240 -1.6206 -0.1484
 8113SOL     OW35800   3.385   1.475   7.003  0.1777 -1.1781  0.1755
 8113SOL    HW135801   3.338   1.487   7.086 -1.0640 -1.1707 -0.5363
 8113SOL    HW235802   3.338   1.400   6.966  2.1914 -1.1377 -2.4009
 8114SOL     OW35803   4.344   2.091   4.194 -0.1212 -0.0585 -0.2292
 8114SOL    HW135804   4.384   2.131   4.117  1.6495 -2.1848 -0.4255
 8114SOL    HW235805   4.316   2.009   4.156  0.5576 -1.1210  1.5532
 8115SOL     OW35806   1.582   4.610   8.945 -0.5122 -0.2233  0.7470
 8115SOL    HW135807   1.533   4.692   8.939  0.0220  0.1937  2.2959
 8115SOL    HW235808   1.654   4.634   9.002  0.0071 -1.7370  0.7288
 8116SOL     OW35809   3.160   3.484   7.406 -0.1980  0.2556  0.4423
 8116SOL    HW135810   3.158   3.414   7.471  1.8104 -0.8153 -0.6333
 8116SOL    HW235811   3.246   3.480   7.365 -0.3065 -1.8461  0.4167
 8117SOL     OW35812   3.511   0.718   4.251  0.0062  0.4884  0.3092
 8117SOL    HW135813   3.585   0.728   4.191 -0.1246 -0.4452  0.0039
 8117SOL    HW235814   3.512   0.623   4.243 -0.4896  0.5866 -0.9586
 8118SOL     OW35815   2.171   4.455   0.697 -0.1070  0.6491 -0.4799
 8118SOL    HW135816   2.213   4.525   0.747 -0.4017 -0.1475  0.9023
 8118SOL    HW235817   2.081   4.463   0.727  0.3524 -1.1934  1.4008
 8119SOL     OW35818   0.758   0.768   7.915  0.1042 -0.0731 -0.5964
 8119SOL    HW135819   0.815   0.761   7.991 -0.4146  1.4122 -0.0537
 8119SOL    HW235820   0.823   0.757   7.846  0.6468  1.0591 -0.2702
 8120SOL     OW35821   1.981   0.796   7.448  0.2702  0.0571  0.9856
 8120SOL    HW135822   1.913   0.824   7.387  1.5082 -2.0963 -1.3394
 8120SOL    HW235823   1.956   0.710   7.482 -0.5398  0.3735  1.1868
 8121SOL     OW35824   2.211   3.170   6.055 -0.3556  0.4828  0.5147
 8121SOL    HW135825   2.255   3.115   6.120 -0.2001  0.9451  0.8007
 8121SOL    HW235826   2.205   3.109   5.981 -0.7560  1.4299 -0.2376
 8122SOL     OW35827   1.122   2.860   6.248 -0.1121  0.2720  0.8024
 8122SOL    HW135828   1.038   2.895   6.221 -1.2362 -1.4733  2.0426
 8122SOL    HW235829   1.095   2.797   6.314 -1.1264  0.8308  0.9162
 8123SOL     OW35830   0.960   4.266  17.395 -0.2921  0.4786  0.2167
 8123SOL    HW135831   0.999   4.231  17.315 -1.8608 -2.2522  0.6537
 8123SOL    HW235832   1.039   4.308  17.430  0.2079 -1.2722  1.2236
 8124SOL     OW35833   4.188   3.512   8.659 -0.1681 -0.3016 -0.5021
 8124SOL    HW135834   4.253   3.558   8.605  1.6724 -2.8870 -0.4705
 8124SOL    HW235835   4.161   3.437   8.607 -1.0724 -0.6720  0.5067
 8125SOL     OW35836   0.095   4.252   0.559  0.0334  0.4648  0.4637
 8125SOL    HW135837   0.180   4.281   0.592  1.6219 -1.2293 -2.0882
 8125SOL    HW235838   0.115   4.163   0.528  0.5785  1.2139 -1.3715
 8126SOL     OW35839   0.189   3.003   3.781  0.2682 -0.0377 -0.0298
 8126SOL    HW135840   0.156   2.950   3.708 -3.1675  2.0484  0.0068
 8126SOL    HW235841   0.151   3.086   3.754 -1.3524 -1.5187 -2.3179
 8127SOL     OW35842   1.105   0.755   6.977  0.3402  0.4430 -0.3454
 8127SOL    HW135843   1.015   0.730   6.958 -0.3608  3.3480 -0.9185
 8127SOL    HW235844   1.140   0.770   6.889 -1.3455 -1.4305 -1.3345
 8128SOL     OW35845   0.282   3.513  12.932 -0.0432 -0.2076  0.0175
 8128SOL    HW135846   0.324   3.507  13.018 -0.7473  0.5902  0.4206
 8128SOL    HW235847   0.220   3.441  12.925 -1.9939  1.5143 -0.5528
 8129SOL     OW35848   4.441   3.950   7.612  0.3471 -0.0494 -0.3157
 8129SOL    HW135849   4.451   4.022   7.674 -0.3384 -1.6470  1.6438
 8129SOL    HW235850   4.489   3.985   7.536  1.5489 -1.2946 -0.1303
 8130SOL     OW35851   0.401   1.706   4.178 -0.3736 -0.9052 -0.5777
 8130SOL    HW135852   0.347   1.642   4.132 -0.2770 -2.7223  1.8405
 8130SOL    HW235853   0.414   1.760   4.100  0.9624  0.5748  0.6648
 8131SOL     OW35854   3.396   2.335   3.376  0.2419  0.5961  0.5023
 8131SOL    HW135855   3.405   2.255   3.427 -1.0941  1.7979  2.5895
 8131SOL    HW235856   3.485   2.370   3.382  0.1241  0.8813  0.5857
 8132SOL     OW35857   4.389   2.831   4.054  0.1353 -0.0536  0.5494
 8132SOL    HW135858   4.319   2.770   4.080  1.3756 -1.7466 -0.0974
 8132SOL    HW235859   4.415   2.861   4.141  3.2012  2.5452 -1.2647
 8133SOL     OW35860   4.161   2.620  12.889  0.4389  0.4471  0.4999
 8133SOL    HW135861   4.094   2.682  12.918 -1.8783 -1.5595 -0.5023
 8133SOL    HW235862   4.110   2.549  12.848  3.1305 -0.1041 -1.8731
 8134SOL     OW35863   3.688   0.267   0.631  0.3494  0.0464  0.4617
 8134SOL    HW135864   3.617   0.327   0.607 -0.0497 -0.9206 -0.8207
 8134SOL    HW235865   3.639   0.185   0.631 -0.9516  0.8221  0.0456
 8135SOL     OW35866   4.202   0.577   2.697  0.1887 -0.2716 -0.1527
 8135SOL    HW135867   4.290   0.602   2.725  0.0944  1.9493 -1.8189
 8135SOL    HW235868   4.213   0.564   2.603 -4.1461 -3.1055 -0.2670
 8136SOL     OW35869   4.395   1.397   1.649 -0.4541 -0.2926  0.0218
 8136SOL    HW135870   4.383   1.363   1.561 -4.9199 -1.1337  0.9664
 8136SOL    HW235871   4.310   1.435   1.671  0.2801  1.4250 -0.0806
 8137SOL     OW35872   1.552   0.936   4.952  0.6078 -0.3578 -0.1637
 8137SOL    HW135873   1.584   0.860   4.904  0.8003 -0.1726 -0.3282
 8137SOL    HW235874   1.551   0.996   4.877  1.6447 -2.6372 -2.0069
 8138SOL     OW35875   0.518   2.047   7.917 -0.7068 -0.3049 -0.2898
 8138SOL    HW135876   0.597   2.091   7.886  0.0015  0.0159  1.9122
 8138SOL    HW235877   0.479   2.023   7.833  0.1837  1.8960 -1.3214
 8139SOL     OW35878   0.245   0.711   4.555 -0.2321  0.2910  0.1577
 8139SOL    HW135879   0.270   0.635   4.502  0.3272  1.2676 -0.9699
 8139SOL    HW235880   0.235   0.660   4.636  1.0195 -2.3382 -1.3378
 8140SOL     OW35881   2.857   2.924  14.161  0.0741  0.5702 -0.9119
 8140SOL    HW135882   2.896   2.853  14.212  1.0300  0.0814 -2.3217
 8140SOL    HW235883   2.920   2.941  14.091  0.2626 -2.1190 -1.4065
 8141SOL     OW35884   3.333   2.476   3.922 -0.3729  0.1002 -0.2496
 8141SOL    HW135885   3.302   2.385   3.929  1.9027 -0.5648  1.2189
 8141SOL    HW235886   3.367   2.472   3.833 -0.2481 -0.1167 -0.1926
 8142SOL     OW35887   1.179   4.578   8.481  0.3996  0.3878  0.4314
 8142SOL    HW135888   1.203   4.512   8.416 -0.1637  0.3603  0.2540
 8142SOL    HW235889   1.159   4.650   8.420 -0.6853  0.1462  0.5188
 8143SOL     OW35890   2.183   4.209   2.888 -0.3102  0.0351 -0.1091
 8143SOL    HW135891   2.229   4.284   2.850 -0.1035 -0.3075 -0.5360
 8143SOL    HW235892   2.097   4.249   2.903 -0.2911 -0.9124  2.5791
 8144SOL     OW35893   3.511   3.015  10.335  0.0963 -0.2147  0.0808
 8144SOL    HW135894   3.461   3.040  10.412  1.2099  1.1054  0.3714
 8144SOL    HW235895   3.560   3.092  10.307 -2.0655  0.8751 -0.6963
 8145SOL     OW35896   4.275   1.799   9.083  0.8337  0.7383 -0.0435
 8145SOL    HW135897   4.214   1.872   9.071  0.7818  0.3247 -2.1949
 8145SOL    HW235898   4.310   1.777   8.997  0.5893  2.5523 -0.6028
 8146SOL     OW35899   3.025   4.441   9.124  0.1636 -0.2133 -0.7447
 8146SOL    HW135900   3.038   4.408   9.213 -0.6865  0.2234 -0.4534
 8146SOL    HW235901   2.976   4.522   9.141 -1.3599 -1.7627  2.3335
 8147SOL     OW35902   0.922   3.097   2.506 -0.1201 -0.1187  0.1602
 8147SOL    HW135903   0.909   3.003   2.522 -0.4435 -0.1887 -0.5090
 8147SOL    HW235904   0.829   3.122   2.510 -0.0637 -0.0502  1.0209
 8148SOL     OW35905   2.869   2.687   6.701 -0.3237 -0.1728  0.4940
 8148SOL    HW135906   2.809   2.748   6.658 -1.5097  0.1376  2.5748
 8148SOL    HW235907   2.899   2.654   6.616 -2.5385  0.2332 -0.4493
 8149SOL     OW35908   3.023   3.360   6.639 -0.3665  0.3919 -0.7493
 8149SOL    HW135909   2.986   3.367   6.551 -2.6555 -1.1970  0.0829
 8149SOL    HW235910   3.024   3.453   6.661 -1.1066  0.5680 -1.4861
 8150SOL     OW35911   0.268   1.150  11.809 -0.0544  0.4568  0.1817
 8150SOL    HW135912   0.263   1.228  11.753 -2.1952 -0.4973 -0.9654
 8150SOL    HW235913   0.230   1.082  11.753  0.9178  0.3545 -0.3498
 8151SOL     OW35914   2.079   1.100   3.377 -0.4619  0.0038 -0.2435
 8151SOL    HW135915   1.998   1.126   3.421 -0.2851  0.0330  0.0683
 8151SOL    HW235916   2.060   1.013   3.343 -2.0051 -0.3968  1.7028
 8152SOL     OW35917   2.593   0.127   3.844 -0.4391  0.3467 -0.0902
 8152SOL    HW135918   2.512   0.092   3.807  1.3095 -1.1692 -2.5318
 8152SOL    HW235919   2.654   0.053   3.844  0.7198  1.2861 -1.2576
 8153SOL     OW35920   3.999   2.487   2.147 -0.3352 -0.3306  0.1080
 8153SOL    HW135921   3.906   2.490   2.172 -0.7623 -0.3434 -1.4437
 8153SOL    HW235922   3.993   2.450   2.059 -0.0546  1.2190 -0.5725
 8154SOL     OW35923   3.931   1.617   2.812 -0.1535 -0.4298 -0.0259
 8154SOL    HW135924   3.955   1.546   2.753  1.2009  0.0776 -0.0868
 8154SOL    HW235925   4.008   1.673   2.804 -1.2759  0.6936 -2.8801
 8155SOL     OW35926   1.099   0.821   3.456  0.0155  0.0107  0.2206
 8155SOL    HW135927   1.037   0.895   3.454  0.4791  0.3976  0.3143
 8155SOL    HW235928   1.183   0.862   3.437  0.5311 -1.2563 -0.2380
 8156SOL     OW35929   2.269   1.784   8.225 -0.0125  0.1306  0.4186
 8156SOL    HW135930   2.358   1.797   8.191 -0.8344 -1.6246 -2.4364
 8156SOL    HW235931   2.242   1.731   8.150 -1.0433  1.3892 -0.0937
 8157SOL     OW35932   3.364   1.200   9.869 -0.1648  0.0858  0.1584
 8157SOL    HW135933   3.391   1.273   9.925 -0.4490 -0.6841  1.3000
 8157SOL    HW235934   3.343   1.240   9.785  0.7080  0.4490  0.1076
 8158SOL     OW35935   3.129   2.750   9.243 -0.3676 -0.4572  0.0699
 8158SOL    HW135936   3.049   2.765   9.293 -0.9085  1.8294 -1.4513
 8158SOL    HW235937   3.179   2.826   9.273 -1.0786  0.1959 -0.3724
 8159SOL     OW35938   0.139   1.410   3.351  0.2719 -0.0223 -0.1571
 8159SOL    HW135939   0.206   1.395   3.417 -0.3284 -1.3846  0.1360
 8159SOL    HW235940   0.077   1.339   3.368 -0.4854  0.3212 -1.4650
 8160SOL     OW35941   2.997   2.252   7.773 -0.5052 -0.8596  0.1520
 8160SOL    HW135942   2.964   2.283   7.689 -0.0670 -1.7415 -0.3473
 8160SOL    HW235943   3.091   2.255   7.754 -0.5994  0.8390 -0.1027
 8161SOL     OW35944   3.216   1.404   6.357  0.5185 -0.0992  0.2964
 8161SOL    HW135945   3.147   1.470   6.361 -0.9480 -1.5264 -1.6385
 8161SOL    HW235946   3.280   1.436   6.420  0.2767 -0.5167  0.7541
 8162SOL     OW35947   2.468   0.542  16.357 -0.2827  0.0019  0.1916
 8162SOL    HW135948   2.435   0.578  16.440  0.7813  2.7926 -0.5863
 8162SOL    HW235949   2.391   0.540  16.300 -0.6993  2.8644  0.6193
 8163SOL     OW35950   4.385   2.840   5.495  0.3405 -0.6008 -0.2976
 8163SOL    HW135951   4.367   2.922   5.541  0.4294 -0.2168 -0.9529
 8163SOL    HW235952   4.341   2.779   5.555  0.2372  0.5343  0.7754
 8164SOL     OW35953   2.863   1.137  11.204  0.1911  0.0076 -0.2127
 8164SOL    HW135954   2.830   1.103  11.120 -0.2892 -1.1576  0.4553
 8164SOL    HW235955   2.915   1.060  11.227  1.6721  1.1034  0.0906
 8165SOL     OW35956   2.658   1.859   7.672 -0.0952 -0.0271 -0.2644
 8165SOL    HW135957   2.754   1.866   7.665  0.1830 -2.0978  1.6293
 8165SOL    HW235958   2.652   1.814   7.756  0.4248 -2.1105 -1.3490
 8166SOL     OW35959   3.286   2.368   8.903  0.2569 -1.0116  0.0486
 8166SOL    HW135960   3.286   2.405   8.991  0.7851 -0.8719 -0.0115
 8166SOL    HW235961   3.376   2.337   8.896  0.4415 -0.5720  0.4267
 8167SOL     OW35962   4.239   3.910   1.534 -0.2321 -0.3565  0.3487
 8167SOL    HW135963   4.235   3.851   1.610 -0.2935 -0.4449  0.2763
 8167SOL    HW235964   4.332   3.903   1.512 -0.3972 -1.3690 -0.0127
 8168SOL     OW35965   1.813   3.692  13.485 -0.0457  0.5858  0.2512
 8168SOL    HW135966   1.778   3.702  13.397  0.1134 -0.7990  0.0252
 8168SOL    HW235967   1.865   3.612  13.472  0.2959  1.0832 -1.4714
 8169SOL     OW35968   4.367   2.316   3.906  0.4425  0.1579 -0.3060
 8169SOL    HW135969   4.379   2.351   3.818  2.5293  0.4293  0.0938
 8169SOL    HW235970   4.442   2.262   3.928 -0.7845 -1.4827 -0.1276
 8170SOL     OW35971   2.568   2.787   4.479  0.5667 -0.2012 -0.6990
 8170SOL    HW135972   2.645   2.828   4.439 -0.5171  0.8730 -1.7103
 8170SOL    HW235973   2.592   2.709   4.528  1.1424 -0.4987 -1.4595
 8171SOL     OW35974   0.788   1.956  15.648  0.3633  0.2905 -0.2390
 8171SOL    HW135975   0.815   2.009  15.573  4.0295  0.5514  1.2285
 8171SOL    HW235976   0.843   1.995  15.716  0.4669  1.4500 -0.9957
 8172SOL     OW35977   0.260   0.257  12.440  0.2727  0.2094 -1.0522
 8172SOL    HW135978   0.296   0.220  12.359  0.6657 -1.4957 -0.1080
 8172SOL    HW235979   0.330   0.312  12.474  1.6378 -1.7154 -0.7337
 8173SOL     OW35980   3.342   0.459   7.419  0.0274 -0.3267 -0.3501
 8173SOL    HW135981   3.380   0.389   7.473  0.0377  0.9635  1.3146
 8173SOL    HW235982   3.402   0.458   7.345 -1.6586  1.5829 -1.7471
 8174SOL     OW35983   1.699   1.944  13.033  0.1254 -0.1113 -0.3118
 8174SOL    HW135984   1.674   1.900  13.114 -0.9596  0.1554 -0.5041
 8174SOL    HW235985   1.793   1.947  13.049 -0.2256  1.2872  1.5171
 8175SOL     OW35986   2.422   4.553   8.280 -0.4468  0.1541 -0.2109
 8175SOL    HW135987   2.497   4.612   8.286  1.2406 -1.8686 -1.4600
 8175SOL    HW235988   2.423   4.534   8.374 -1.2609  0.8757 -0.0544
 8176SOL     OW35989   2.960   3.020  15.739 -0.1481 -0.0994  0.6625
 8176SOL    HW135990   2.956   3.057  15.651 -0.3964 -2.8117 -0.4647
 8176SOL    HW235991   2.892   3.068  15.786  1.2663  1.5183  1.0141
 8177SOL     OW35992   1.723   1.040   3.759  0.2181  0.1542  0.3528
 8177SOL    HW135993   1.678   1.117   3.793  2.2570  0.6317  1.9869
 8177SOL    HW235994   1.655   0.972   3.760  0.7696 -0.4218 -2.2765
 8178SOL     OW35995   1.556   2.720  13.357 -0.3164  0.7073  0.1465
 8178SOL    HW135996   1.624   2.743  13.294 -0.2830  0.0239 -0.0594
 8178SOL    HW235997   1.610   2.721  13.436  1.0891  1.4411 -0.8130
 8179SOL     OW35998   4.455   1.611   1.033 -1.1056 -0.0176 -0.5092
 8179SOL    HW135999   4.477   1.519   1.016  1.0742  0.5049 -0.4580
 8179SOL    HW236000   4.481   1.648   0.949 -0.7049  0.8920  0.0188
 8180SOL     OW36001   4.567   0.369   7.488  0.4396  0.0709  0.1701
 8180SOL    HW136002   4.483   0.330   7.466  0.1416  2.1436 -2.3044
 8180SOL    HW236003   4.603   0.404   7.407 -2.6754 -0.0572 -1.2573
 8181SOL     OW36004   3.490   1.230   4.225 -0.1301 -0.2684 -0.1153
 8181SOL    HW136005   3.483   1.138   4.251  0.0747 -0.2277  0.0900
 8181SOL    HW236006   3.434   1.232   4.147  1.1817 -1.5930 -1.0850
 8182SOL     OW36007   2.136   0.563  16.705 -0.0244  0.6131 -0.0017
 8182SOL    HW136008   2.151   0.598  16.617  0.1464 -0.4858 -0.4164
 8182SOL    HW236009   2.041   0.551  16.702  0.2723 -1.6983 -0.0762
 8183SOL     OW36010   2.959   2.277   9.443  0.2919  0.6494 -0.1062
 8183SOL    HW136011   2.984   2.338   9.513  1.3491 -1.2373  1.1636
 8183SOL    HW236012   2.992   2.334   9.373 -0.4433  0.4165 -0.6419
 8184SOL     OW36013   0.785   2.008   4.869  0.1379 -0.0880  0.6121
 8184SOL    HW136014   0.820   1.991   4.782  0.0200  1.4264  0.2727
 8184SOL    HW236015   0.692   2.024   4.854  0.2014  0.6255  0.9685
 8185SOL     OW36016   2.234   2.088   4.613  0.8410  0.7429  0.0385
 8185SOL    HW136017   2.302   2.023   4.596 -0.8192 -1.3198  1.3396
 8185SOL    HW236018   2.270   2.142   4.683  2.4485 -1.4040  0.8291
 8186SOL     OW36019   1.881   2.862   5.131 -0.2439 -0.1033 -0.1299
 8186SOL    HW136020   1.786   2.856   5.136 -0.0485 -2.0053  1.0179
 8186SOL    HW236021   1.901   2.955   5.146  1.4679 -0.6845  1.2080
 8187SOL     OW36022   1.446   0.155   5.414  0.0311  0.2122 -0.2813
 8187SOL    HW136023   1.392   0.188   5.486 -0.3151  0.4791 -0.6661
 8187SOL    HW236024   1.377   0.124   5.357  0.5447 -0.7907 -0.3701
 8188SOL     OW36025   1.362   4.242   3.942 -0.1351 -0.2127 -0.9435
 8188SOL    HW136026   1.377   4.162   3.992  0.5093  0.3697 -0.1889
 8188SOL    HW236027   1.452   4.248   3.910  0.3441 -0.7013  0.3040
 8189SOL     OW36028   3.836   3.521   3.052 -0.1104  0.6322  0.3435
 8189SOL    HW136029   3.794   3.478   3.126 -2.1305 -0.0698 -1.1761
 8189SOL    HW236030   3.896   3.460   3.009 -0.3437  0.0080  0.9054
 8190SOL     OW36031   3.598   3.302   5.410  0.6551  0.5990  0.4091
 8190SOL    HW136032   3.574   3.386   5.371  1.5475  0.4491 -0.4354
 8190SOL    HW236033   3.534   3.242   5.373  0.1117  0.3362  1.7803
 8191SOL     OW36034   0.450   1.368   6.839 -0.2108  0.1110  0.2939
 8191SOL    HW136035   0.480   1.310   6.769 -1.4571 -0.2820  0.0949
 8191SOL    HW236036   0.460   1.457   6.806  1.2091 -0.4320 -0.7391
 8192SOL     OW36037   1.952   1.730   2.449 -0.2261 -0.5481  0.2966
 8192SOL    HW136038   1.866   1.707   2.413 -0.4354 -0.7180  0.9097
 8192SOL    HW236039   1.991   1.756   2.365 -1.1398  0.5404  0.2154
 8193SOL     OW36040   2.188   3.796   9.438  0.2956  0.2940 -0.1628
 8193SOL    HW136041   2.232   3.713   9.457  0.2162  0.6785  1.7378
 8193SOL    HW236042   2.212   3.851   9.513  3.5861  0.0885 -1.0190
 8194SOL     OW36043   4.488   4.533   7.069 -0.2783  0.2181 -0.2772
 8194SOL    HW136044   4.425   4.502   7.134  1.1805  0.2739  1.1372
 8194SOL    HW236045   4.531   4.592   7.131  0.0353  0.2583 -0.5362
 8195SOL     OW36046   2.252   1.009  16.604  0.0639  0.3479 -0.2708
 8195SOL    HW136047   2.289   1.064  16.673  0.7304 -1.0528  0.4851
 8195SOL    HW236048   2.326   0.962  16.566  0.9941  1.8677 -0.3443
 8196SOL     OW36049   2.318   0.126   2.657 -0.1570  0.3372  0.5435
 8196SOL    HW136050   2.271   0.046   2.632  0.6141 -0.5170  1.8679
 8196SOL    HW236051   2.279   0.181   2.588 -0.1861  0.5531  0.7337
 8197SOL     OW36052   3.985   3.235   8.860 -0.2364  0.0790 -0.1979
 8197SOL    HW136053   3.917   3.245   8.927 -1.5072 -2.5887 -1.0731
 8197SOL    HW236054   4.061   3.276   8.901 -1.0530  1.0778  0.3205
 8198SOL     OW36055   0.986   2.028  15.817  0.0478 -0.2695 -0.0526
 8198SOL    HW136056   0.934   2.097  15.859 -2.0643 -1.1151 -1.3323
 8198SOL    HW236057   1.074   2.066  15.811  0.0928 -0.7829 -2.4689
 8199SOL     OW36058   2.457   1.640   1.747 -0.1867 -0.1360  1.0785
 8199SOL    HW136059   2.391   1.706   1.727  1.1894  0.4057 -1.6852
 8199SOL    HW236060   2.406   1.592   1.812  2.4124 -2.9084  1.0971
 8200SOL     OW36061   2.198   2.196   3.709 -0.6564 -0.3111  0.3097
 8200SOL    HW136062   2.145   2.274   3.726 -0.5572 -0.0196 -0.7366
 8200SOL    HW236063   2.138   2.164   3.642  1.6438  0.6613 -2.2504
 8201SOL     OW36064   0.134   1.350   7.132  0.4554  0.1029 -0.1087
 8201SOL    HW136065   0.098   1.262   7.140  1.2290 -0.1555  0.5088
 8201SOL    HW236066   0.219   1.332   7.172 -0.9383  1.3397  3.4386
 8202SOL     OW36067   1.128   1.706   8.779 -0.3065  0.0837  0.3905
 8202SOL    HW136068   1.214   1.700   8.737 -1.2447  2.0944 -1.8210
 8202SOL    HW236069   1.141   1.647   8.853  0.5040 -1.1854 -0.7634
 8203SOL     OW36070   4.106   3.350   1.255 -0.1013  0.4227 -0.7591
 8203SOL    HW136071   4.063   3.303   1.327 -0.0437  1.4487 -0.0539
 8203SOL    HW236072   4.039   3.417   1.240  0.2676  1.0148  0.2446
 8204SOL     OW36073   0.781   0.710  12.294  0.1412  0.2613  0.0050
 8204SOL    HW136074   0.762   0.769  12.367  0.0030  0.9057 -0.5475
 8204SOL    HW236075   0.873   0.691  12.311  0.4085  1.2461 -0.3591
 8205SOL     OW36076   2.372   3.255   5.036 -0.3310 -0.3862  0.1376
 8205SOL    HW136077   2.348   3.311   4.962  1.8463  2.3594  1.5085
 8205SOL    HW236078   2.442   3.309   5.072 -0.9012  0.0185  0.6332
 8206SOL     OW36079   1.894   0.936   9.038 -0.2652  0.0941  0.0491
 8206SOL    HW136080   1.863   0.898   8.956 -0.1149  3.1834 -1.4320
 8206SOL    HW236081   1.829   1.007   9.047 -0.1184  0.6766 -3.7987
 8207SOL     OW36082   2.750   2.222   5.563 -0.9087 -0.6073 -1.0390
 8207SOL    HW136083   2.759   2.227   5.468 -1.7358 -1.5971 -1.1678
 8207SOL    HW236084   2.835   2.179   5.574 -0.1231  1.8159  2.5755
 8208SOL     OW36085   1.764   0.111   5.022 -0.0873 -0.5531 -0.0723
 8208SOL    HW136086   1.765   0.039   5.086 -0.8295 -1.1821 -0.7563
 8208SOL    HW236087   1.668   0.121   5.026 -0.2535 -1.3765 -2.2885
 8209SOL     OW36088   3.986   1.085  10.319 -0.2415  0.2463  0.3193
 8209SOL    HW136089   4.026   1.161  10.276 -1.3673  0.3393 -0.5608
 8209SOL    HW236090   3.970   1.028  10.244  2.0238 -0.4511  0.3614
 8210SOL     OW36091   0.810   1.011   2.557  0.2521 -0.5063  0.2530
 8210SOL    HW136092   0.770   1.072   2.495  2.2930 -0.3477 -0.9261
 8210SOL    HW236093   0.826   0.934   2.502  0.2519 -0.8525  0.7361
 8211SOL     OW36094   3.848   4.548   7.864 -0.2449 -0.1044 -0.3370
 8211SOL    HW136095   3.867   4.474   7.807 -0.2534  0.5011 -1.1353
 8211SOL    HW236096   3.902   4.528   7.940 -1.6675  1.9940  1.2225
 8212SOL     OW36097   4.311   0.131  17.680 -0.4545  0.5078  0.4358
 8212SOL    HW136098   4.381   0.191  17.653  0.5994 -2.3213 -3.0083
 8212SOL    HW236099   4.367   0.056   0.002 -0.8417 -0.2205 -1.3545
 8213SOL     OW36100   3.147   2.377   3.583 -0.4701 -0.2931 -0.5076
 8213SOL    HW136101   3.135   2.472   3.580  0.2963 -0.2192 -1.2549
 8213SOL    HW236102   3.223   2.372   3.526  1.9650  1.4602  2.5898
 8214SOL     OW36103   2.552   1.673   2.059 -0.0798  0.0116 -0.7048
 8214SOL    HW136104   2.458   1.656   2.063 -0.2600  1.1546 -0.0550
 8214SOL    HW236105   2.561   1.640   1.969  2.0913 -0.5358 -0.2999
 8215SOL     OW36106   4.359   2.527   4.117  0.2830  0.3412  0.2080
 8215SOL    HW136107   4.453   2.514   4.123  0.3763  0.5901 -0.6436
 8215SOL    HW236108   4.347   2.476   4.037 -2.2505  0.4781  0.5063
 8216SOL     OW36109   4.415   1.326   1.394 -0.0232 -0.3606  0.4734
 8216SOL    HW136110   4.335   1.369   1.364 -1.1748 -2.2479  0.8679
 8216SOL    HW236111   4.479   1.398   1.393  0.3100 -0.6852 -0.8917
 8217SOL     OW36112   2.558   1.382   9.755 -0.1037  0.0867  0.1266
 8217SOL    HW136113   2.640   1.383   9.706  0.8095 -0.3357  1.6520
 8217SOL    HW236114   2.535   1.293   9.725 -1.9620  1.2936 -2.0331
 8218SOL     OW36115   2.510   3.530   7.217  0.3838 -0.2677 -0.2494
 8218SOL    HW136116   2.590   3.574   7.247  0.6612 -0.6293 -0.4670
 8218SOL    HW236117   2.442   3.566   7.274  2.0653 -0.2537  1.7497
 8219SOL     OW36118   2.857   3.287   8.576  0.0132  0.0135 -0.6841
 8219SOL    HW136119   2.782   3.334   8.612  1.2450  0.6764  0.9842
 8219SOL    HW236120   2.923   3.338   8.622  0.3950  0.0173 -1.2275
 8220SOL     OW36121   3.205   1.280   8.512 -0.3576  0.3661  0.0879
 8220SOL    HW136122   3.196   1.283   8.608 -2.4711 -1.3922 -0.0388
 8220SOL    HW236123   3.272   1.346   8.499 -0.6307  1.0478  2.0700
 8221SOL     OW36124   1.477   1.492   7.737 -0.0830  0.4901 -0.3269
 8221SOL    HW136125   1.443   1.581   7.742 -0.1246  0.5483 -1.6946
 8221SOL    HW236126   1.400   1.449   7.700  0.5403 -1.3194  0.4416
 8222SOL     OW36127   1.108   2.555  13.483 -0.0987  0.1647 -0.1673
 8222SOL    HW136128   1.057   2.574  13.405  1.2808  0.6737 -0.9332
 8222SOL    HW236129   1.109   2.459  13.475  1.0492  0.0011  1.7880
 8223SOL     OW36130   0.326   3.820  12.902  0.4043 -0.3402  0.5051
 8223SOL    HW136131   0.297   3.734  12.932  0.1709  0.2730  2.0747
 8223SOL    HW236132   0.390   3.855  12.965  1.5215 -1.9785  0.2801
 8224SOL     OW36133   3.259   3.477   9.112  0.1546  0.1615  0.3123
 8224SOL    HW136134   3.260   3.561   9.157  1.8337  0.8550 -1.0036
 8224SOL    HW236135   3.168   3.450   9.122  0.5847 -1.0606  0.9703
 8225SOL     OW36136   0.080   0.387  14.671 -0.1276  0.1753 -0.5611
 8225SOL    HW136137   0.148   0.454  14.663 -1.1026  1.2592  0.2446
 8225SOL    HW236138   0.039   0.422  14.750 -1.4864 -3.5572  0.3772
 8226SOL     OW36139   4.620   1.627   7.522 -0.4565  0.2924  0.3478
 8226SOL    HW136140   4.697   1.601   7.472 -0.7090 -0.6507  0.4603
 8226SOL    HW236141   4.626   1.575   7.602 -0.3026 -1.7071 -0.9674
 8227SOL     OW36142   3.375   3.719   8.608  0.4593 -0.5311  0.1851
 8227SOL    HW136143   3.406   3.808   8.592 -2.2724 -0.2834 -3.6004
 8227SOL    HW236144   3.286   3.732   8.576  0.4148 -0.0166  0.5267
 8228SOL     OW36145   2.801   3.958  12.269 -0.8738 -0.6487  0.4226
 8228SOL    HW136146   2.863   3.941  12.197  1.0406 -0.2796  1.9823
 8228SOL    HW236147   2.752   4.035  12.240  0.4345  0.7172  1.8338
 8229SOL     OW36148   1.671   4.177   8.159 -0.0359  0.5857 -0.5261
 8229SOL    HW136149   1.658   4.087   8.128  2.1418  0.4143 -0.9439
 8229SOL    HW236150   1.715   4.219   8.085 -0.1842  0.8590 -0.4583
 8230SOL     OW36151   3.961   3.264  13.561  0.8624  0.3602 -0.5240
 8230SOL    HW136152   4.016   3.320  13.507  0.1017  1.6965  0.0866
 8230SOL    HW236153   4.014   3.216  13.625 -0.7416 -1.3366 -0.4693
 8231SOL     OW36154   1.474   3.649  12.723  0.4291 -0.3814 -0.0450
 8231SOL    HW136155   1.533   3.725  12.720 -0.4672  0.3774  1.4772
 8231SOL    HW236156   1.527   3.574  12.696  1.5734  0.9912 -1.6145
 8232SOL     OW36157   2.497   4.157   3.545  0.8498  0.0478  0.0758
 8232SOL    HW136158   2.534   4.241   3.573  0.3669 -0.7482  3.0433
 8232SOL    HW236159   2.533   4.095   3.609  0.6345  2.6378  2.6938
 8233SOL     OW36160   1.553   1.646  11.289 -0.4239  0.2363 -0.2249
 8233SOL    HW136161   1.539   1.712  11.357  1.3667 -2.2540  2.5754
 8233SOL    HW236162   1.570   1.567  11.341 -4.4012  0.4908  1.4679
 8234SOL     OW36163   0.781   2.473   7.561  0.2390 -0.2253 -0.1124
 8234SOL    HW136164   0.754   2.520   7.640 -0.7089  1.3429 -1.3508
 8234SOL    HW236165   0.857   2.427   7.594  0.1145 -0.9310 -0.8221
 8235SOL     OW36166   2.882   2.195  10.927 -0.7642  0.1889 -0.1378
 8235SOL    HW136167   2.843   2.129  10.984  1.9367 -0.7314  0.6526
 8235SOL    HW236168   2.803   2.207  10.875 -1.0680 -3.3727 -0.4930
 8236SOL     OW36169   0.385   4.695  17.203 -0.5634 -0.2142 -0.1274
 8236SOL    HW136170   0.451   4.710  17.135  0.1216  0.8472  0.7626
 8236SOL    HW236171   0.387   4.600  17.214 -1.6210 -0.2781 -0.5078
 8237SOL     OW36172   4.687   3.071  10.708  0.7042  0.3511  0.4719
 8237SOL    HW136173   0.041   3.080  10.654 -1.4880  2.2518 -2.4080
 8237SOL    HW236174   4.632   3.141  10.673  0.5384  0.0064  0.0553
 8238SOL     OW36175   0.974   3.782   2.950  0.3579 -0.8853  0.5639
 8238SOL    HW136176   0.923   3.863   2.948 -0.1617 -1.2441 -0.8090
 8238SOL    HW236177   1.001   3.786   2.858 -1.3106  0.0866  0.1254
 8239SOL     OW36178   2.391   2.730   3.178  0.1331 -0.0552 -0.1025
 8239SOL    HW136179   2.396   2.819   3.142  0.5248 -0.0306  0.0034
 8239SOL    HW236180   2.451   2.739   3.252 -3.2540 -1.6566  2.7682
 8240SOL     OW36181   4.431   0.118   2.684  0.3756 -0.3015  0.2302
 8240SOL    HW136182   4.479   0.036   2.682  2.3986  0.8923 -0.3467
 8240SOL    HW236183   4.501   0.171   2.723  1.9175 -1.7425 -0.6000
 8241SOL     OW36184   3.260   0.100   4.783  0.6183 -0.4819  0.4570
 8241SOL    HW136185   3.342   0.051   4.777 -0.1392 -1.6894 -0.0424
 8241SOL    HW236186   3.287   0.177   4.732  0.9040 -1.2047 -0.4893
 8242SOL     OW36187   0.242   0.424  11.996  0.0118 -0.3186 -0.1740
 8242SOL    HW136188   0.285   0.425  12.082 -0.8614  0.2335  0.2587
 8242SOL    HW236189   0.314   0.402  11.937  0.4891 -0.9752  0.6420
 8243SOL     OW36190   3.104   2.246   0.432 -0.5795 -0.0214  0.4040
 8243SOL    HW136191   3.020   2.234   0.388  0.2125  1.1137 -1.4498
 8243SOL    HW236192   3.087   2.330   0.474 -1.4336 -1.0591  2.1293
 8244SOL     OW36193   1.610   0.470   6.736  0.3114 -0.0572  0.7552
 8244SOL    HW136194   1.559   0.493   6.658  1.6316  3.5587  0.9291
 8244SOL    HW236195   1.689   0.457   6.683  0.1014  0.4796  0.3052
 8245SOL     OW36196   4.334   3.205  14.702 -0.3855 -0.7361  0.0391
 8245SOL    HW136197   4.372   3.293  14.697 -0.9635 -0.5659 -1.3551
 8245SOL    HW236198   4.409   3.156  14.736 -0.3712 -0.3341  0.5945
 8246SOL     OW36199   1.167   3.696   7.397  0.1552 -0.6653 -0.0583
 8246SOL    HW136200   1.163   3.783   7.360 -0.2100 -1.1962 -1.2480
 8246SOL    HW236201   1.108   3.648   7.339 -2.6099  1.9214  0.6367
 8247SOL     OW36202   1.374   0.799   5.510 -0.4854  0.1341  0.1270
 8247SOL    HW136203   1.430   0.734   5.467 -0.2861 -0.9130  1.9554
 8247SOL    HW236204   1.378   0.765   5.600 -1.0836 -0.4794 -0.0795
 8248SOL     OW36205   2.793   2.857  11.495 -0.3467  0.2607  0.1571
 8248SOL    HW136206   2.701   2.884  11.493  0.3262  2.4003 -2.2511
 8248SOL    HW236207   2.804   2.841  11.589  1.4806 -2.8083 -0.5928
 8249SOL     OW36208   2.876   3.458   7.319  0.3163  0.0917 -0.2332
 8249SOL    HW136209   2.888   3.367   7.292 -0.3845  0.2229 -0.9709
 8249SOL    HW236210   2.966   3.474   7.349  1.3986 -2.5916 -2.0222
 8250SOL     OW36211   0.932   3.055  10.179  0.1432 -0.7043 -0.6579
 8250SOL    HW136212   1.017   3.012  10.189  1.9894  3.2562  0.7973
 8250SOL    HW236213   0.909   3.034  10.088  2.2556 -3.3059 -0.6001
 8251SOL     OW36214   0.069   3.871   2.899 -0.5874  0.0876  0.5053
 8251SOL    HW136215   4.705   3.903   2.921 -1.0601 -1.0630  0.2650
 8251SOL    HW236216   0.122   3.936   2.945 -0.2752  0.1436  0.0630
 8252SOL     OW36217   1.354   1.623   5.824 -0.4200 -0.2437 -0.0351
 8252SOL    HW136218   1.339   1.632   5.730  0.8124  1.0021 -0.1007
 8252SOL    HW236219   1.323   1.533   5.839 -2.7721  0.4571 -0.7419
 8253SOL     OW36220   0.819   0.803   9.057 -0.4273 -0.5150  0.0060
 8253SOL    HW136221   0.774   0.732   9.010  1.0239 -0.4673 -1.4804
 8253SOL    HW236222   0.877   0.750   9.112  0.8252  1.4320  0.5788
 8254SOL     OW36223   0.435   1.304   8.349  0.2773  0.6571  0.1046
 8254SOL    HW136224   0.455   1.256   8.429  0.8756 -0.7645 -0.8972
 8254SOL    HW236225   0.498   1.376   8.353  0.3361  0.7521 -2.3401
 8255SOL     OW36226   2.331   1.679   6.666  0.2253 -0.5617 -0.6012
 8255SOL    HW136227   2.289   1.681   6.752  0.4619 -3.5559 -0.4157
 8255SOL    HW236228   2.377   1.595   6.672  1.2799  0.1438  1.0243
 8256SOL     OW36229   4.278   4.507  11.411 -0.4081 -0.1514  0.4370
 8256SOL    HW136230   4.286   4.441  11.480  1.9434 -0.6336 -0.3193
 8256SOL    HW236231   4.276   4.584  11.467 -1.3170 -1.0758  1.6828
 8257SOL     OW36232   2.927   1.034   8.342 -0.1287 -0.0625  0.2466
 8257SOL    HW136233   2.895   0.961   8.396 -1.3155 -0.1170 -0.5382
 8257SOL    HW236234   3.017   1.040   8.376  0.0906 -3.1931  0.2051
 8258SOL     OW36235   1.233   1.818   8.181 -0.1602  0.2626  0.9117
 8258SOL    HW136236   1.225   1.793   8.273 -0.0541 -1.7265  0.3774
 8258SOL    HW236237   1.290   1.749   8.147 -1.0214  0.4729 -0.9683
 8259SOL     OW36238   3.329   2.312   2.734 -0.2820  0.7599  0.6960
 8259SOL    HW136239   3.286   2.366   2.800 -0.4224  2.8231 -1.0948
 8259SOL    HW236240   3.363   2.241   2.789 -0.7786 -0.8674 -1.0990
 8260SOL     OW36241   1.952   3.868   0.033 -0.0745  0.3309  0.0741
 8260SOL    HW136242   1.860   3.891   0.043 -0.9168 -2.2622 -1.4687
 8260SOL    HW236243   1.984   3.925   0.102 -0.8884 -0.9405  1.5126
 8261SOL     OW36244   2.634   3.093   6.141  0.0525 -0.0402 -0.2306
 8261SOL    HW136245   2.651   3.186   6.127  0.2468 -0.1476 -0.6887
 8261SOL    HW236246   2.630   3.057   6.052 -0.1703  1.1877 -0.7163
 8262SOL     OW36247   4.204   2.034   4.654  0.2797 -0.0299  0.2712
 8262SOL    HW136248   4.238   1.955   4.611  0.7082 -0.3962  1.2976
 8262SOL    HW236249   4.136   2.063   4.592 -0.9183 -0.1837  1.5214
 8263SOL     OW36250   1.882   3.151   7.766 -0.1860  0.4753  0.1996
 8263SOL    HW136251   1.788   3.167   7.769 -0.0516  0.7589  2.7762
 8263SOL    HW236252   1.907   3.202   7.688  3.2719  0.2532  1.1426
 8264SOL     OW36253   1.385   1.006   8.654  0.1444  0.2903 -0.3763
 8264SOL    HW136254   1.313   1.060   8.686 -1.1930 -0.0525 -2.8716
 8264SOL    HW236255   1.340   0.922   8.645  2.1126 -0.8259  0.1122
 8265SOL     OW36256   3.719   3.961   9.658 -0.2612  0.0980 -0.2153
 8265SOL    HW136257   3.730   4.042   9.608 -1.8226 -0.2335 -1.0675
 8265SOL    HW236258   3.739   3.894   9.593 -0.3387 -2.2596  2.1934
 8266SOL     OW36259   1.618   3.654   6.284  0.5332  0.7830 -0.5250
 8266SOL    HW136260   1.675   3.714   6.236  0.1752 -0.1241 -2.0675
 8266SOL    HW236261   1.669   3.573   6.274 -2.0121 -0.9738  0.7383
 8267SOL     OW36262   2.701   3.761   4.722 -0.1223 -0.1294 -0.0210
 8267SOL    HW136263   2.695   3.670   4.691 -1.1984  0.8289 -2.5704
 8267SOL    HW236264   2.704   3.802   4.636  1.1089 -0.4132 -0.1217
 8268SOL     OW36265   3.347   3.264   7.550  0.3548  0.3452  0.0370
 8268SOL    HW136266   3.270   3.285   7.602 -1.2841 -0.0807 -2.2078
 8268SOL    HW236267   3.386   3.349   7.525 -1.8479  0.4472 -3.0762
 8269SOL     OW36268   1.276   1.863  14.754  0.5097  0.3573 -0.5441
 8269SOL    HW136269   1.237   1.950  14.746 -0.2683  0.0560 -0.0753
 8269SOL    HW236270   1.328   1.863  14.674  0.3356 -2.5032 -0.6705
 8270SOL     OW36271   2.735   2.475   4.915 -0.6193 -0.5809  0.2881
 8270SOL    HW136272   2.730   2.525   4.997  2.8277 -0.8111  0.6441
 8270SOL    HW236273   2.675   2.402   4.925 -0.7086 -0.7298 -1.3194
 8271SOL     OW36274   2.891   1.017   5.099  0.3599  0.0331  0.1373
 8271SOL    HW136275   2.902   1.079   5.027 -1.8871  0.2705  0.0029
 8271SOL    HW236276   2.974   1.010   5.145 -0.4620  0.3724  1.6570
 8272SOL     OW36277   2.454   4.390  13.563 -0.4836 -0.0012 -0.1758
 8272SOL    HW136278   2.459   4.391  13.659  1.9209 -0.0906 -0.3073
 8272SOL    HW236279   2.407   4.473  13.548 -0.5877  0.3709  2.0938
 8273SOL     OW36280   0.533   1.310   9.535  0.0493  0.6404 -0.2631
 8273SOL    HW136281   0.540   1.261   9.453 -1.0771  1.3541 -0.7788
 8273SOL    HW236282   0.607   1.287   9.592  1.3432  3.4246 -0.8224
 8274SOL     OW36283   3.140   2.490   1.883  0.1324  0.3450  0.0539
 8274SOL    HW136284   3.208   2.528   1.826 -0.4847  0.9688 -0.2702
 8274SOL    HW236285   3.097   2.431   1.821  0.4484  0.6954 -0.5092
 8275SOL     OW36286   2.240   3.544  17.028 -0.4733  0.1955 -0.0662
 8275SOL    HW136287   2.159   3.590  17.005 -0.0852 -0.3415 -2.5154
 8275SOL    HW236288   2.216   3.540  17.121 -0.3871 -2.4214 -0.1649
 8276SOL     OW36289   3.718   2.192  13.401  0.0997  0.2034 -0.3982
 8276SOL    HW136290   3.775   2.120  13.376 -3.0313 -2.4465  0.0677
 8276SOL    HW236291   3.646   2.163  13.345 -1.0370  2.4778 -0.1370
 8277SOL     OW36292   3.075   0.269  11.200  0.2643 -0.1687  0.2236
 8277SOL    HW136293   3.145   0.216  11.237 -1.0021 -1.4001  0.8528
 8277SOL    HW236294   3.045   0.212  11.129  0.1127  1.7465 -1.2424
 8278SOL     OW36295   0.510   0.223   6.609 -0.2218  0.2610  0.2978
 8278SOL    HW136296   0.423   0.185   6.622  0.0225 -0.1605  0.7159
 8278SOL    HW236297   0.525   0.175   6.527 -1.5327 -2.5619  1.6955
 8279SOL     OW36298   3.841   0.445   5.980  0.4707  0.5247  0.0673
 8279SOL    HW136299   3.809   0.466   6.067 -2.5660  0.4295 -1.0302
 8279SOL    HW236300   3.931   0.477   5.978  0.4286  0.5612 -1.7061
 8280SOL     OW36301   1.408   1.099   5.484  0.5455  0.2808  0.4853
 8280SOL    HW136302   1.416   1.082   5.390  1.0421  0.6811  0.4583
 8280SOL    HW236303   1.361   1.020   5.509 -0.1991  0.2439 -0.9858
 8281SOL     OW36304   2.281   2.935  10.202  0.1248 -0.4429  0.4611
 8281SOL    HW136305   2.344   3.006  10.211  0.4162 -0.7848  1.0831
 8281SOL    HW236306   2.263   2.912  10.293  0.4602  1.0840  0.9165
 8282SOL     OW36307   3.775   0.858   7.941 -0.4048 -0.1378  0.2563
 8282SOL    HW136308   3.782   0.766   7.914  0.6677 -0.1979  0.7707
 8282SOL    HW236309   3.713   0.877   7.870  1.6231  1.7890 -0.9844
 8283SOL     OW36310   0.235   2.501  10.865 -0.4012 -0.2580 -1.0298
 8283SOL    HW136311   0.310   2.552  10.893 -0.5816  0.0451 -1.1023
 8283SOL    HW236312   0.208   2.564  10.799 -1.9052  2.1682  1.9112
 8284SOL     OW36313   4.720   3.739  15.102 -0.2529 -0.1501  0.3258
 8284SOL    HW136314   0.022   3.687  15.178 -0.2396  0.6787  0.8887
 8284SOL    HW236315   4.724   3.829  15.136 -0.2027  0.1341 -0.4190
 8285SOL     OW36316   1.898   0.790   4.197 -0.1801  0.2466 -0.0371
 8285SOL    HW136317   1.887   0.855   4.266  1.0368  2.1345 -1.6047
 8285SOL    HW236318   1.864   0.840   4.122  0.1569 -0.1164 -0.4290
 8286SOL     OW36319   3.169   1.007   9.902  0.0856  0.4715  0.0844
 8286SOL    HW136320   3.150   0.971   9.815  0.7149  4.3571 -1.6559
 8286SOL    HW236321   3.250   1.056   9.890  0.4419 -0.0078  0.4922
 8287SOL     OW36322   2.896   4.169   8.590  0.3468  0.3688 -0.0739
 8287SOL    HW136323   2.901   4.141   8.681 -0.7859  0.0402 -0.1069
 8287SOL    HW236324   2.896   4.083   8.549  0.0747  0.1548  0.3780
 8288SOL     OW36325   2.157   1.889   3.764  0.2123  0.1494 -0.7494
 8288SOL    HW136326   2.090   1.957   3.776 -0.0473 -0.5324  1.7077
 8288SOL    HW236327   2.155   1.867   3.671  1.7929 -1.3393 -0.4368
 8289SOL     OW36328   2.344   2.533  15.903  0.4443  0.0114  0.1027
 8289SOL    HW136329   2.369   2.443  15.882  2.4521  0.2239  1.5675
 8289SOL    HW236330   2.281   2.509  15.971 -1.0559 -2.3159 -2.1344
 8290SOL     OW36331   3.263   3.424   8.696  0.1335 -0.3244  0.3903
 8290SOL    HW136332   3.334   3.379   8.651 -0.2899 -0.8377  0.2328
 8290SOL    HW236333   3.287   3.516   8.685 -0.5763 -0.2731 -0.8049
 8291SOL     OW36334   0.090   0.692   2.233 -0.0218 -0.6598  0.0145
 8291SOL    HW136335   0.034   0.701   2.155  1.7411  1.4487 -0.9928
 8291SOL    HW236336   0.164   0.650   2.188  0.1025 -0.6691  0.2306
 8292SOL     OW36337   3.624   3.474   2.339 -0.0470  0.1288  0.1519
 8292SOL    HW136338   3.657   3.549   2.388  1.3021  0.6415 -1.5623
 8292SOL    HW236339   3.615   3.401   2.401  1.7017 -0.7414 -0.6210
 8293SOL     OW36340   1.868   3.526   6.286 -0.0183  0.6354 -0.3759
 8293SOL    HW136341   1.931   3.458   6.262 -0.1875  0.8639 -1.4597
 8293SOL    HW236342   1.893   3.592   6.222  1.0303 -0.2784 -0.9031
 8294SOL     OW36343   4.288   3.984   2.563 -0.4993  0.2953 -0.4862
 8294SOL    HW136344   4.298   4.077   2.580  2.0596 -0.1596  0.4483
 8294SOL    HW236345   4.378   3.975   2.533 -0.5536 -1.9099  0.0103
 8295SOL     OW36346   4.098   3.789  13.025 -0.0705 -0.1812  0.0983
 8295SOL    HW136347   4.132   3.842  13.096 -1.2320  1.9275 -0.9309
 8295SOL    HW236348   4.148   3.827  12.953 -0.3610 -0.9292 -0.4997
 8296SOL     OW36349   2.526   0.613   8.216 -0.0525 -0.0030 -0.7392
 8296SOL    HW136350   2.618   0.624   8.241 -0.5982  0.7344  0.8832
 8296SOL    HW236351   2.487   0.668   8.283  2.9453  0.3967  0.7059
 8297SOL     OW36352   3.402   0.812   1.874  0.3329  0.2041 -0.4291
 8297SOL    HW136353   3.409   0.729   1.826 -1.5459  0.0109 -0.3600
 8297SOL    HW236354   3.308   0.822   1.885  0.5603  2.4734 -0.5825
 8298SOL     OW36355   2.491   0.276   9.033  0.4569  0.8280 -0.1735
 8298SOL    HW136356   2.528   0.360   9.062 -0.9266  0.7955  1.7513
 8298SOL    HW236357   2.406   0.291   8.991  0.2973 -2.2176 -0.9181
 8299SOL     OW36358   0.311   0.533   6.620 -0.8797 -0.4921 -0.4629
 8299SOL    HW136359   0.382   0.527   6.556 -2.6079 -1.9886 -2.2281
 8299SOL    HW236360   0.337   0.611   6.670 -3.7090 -0.6191  1.2432
 8300SOL     OW36361   4.239   2.271   8.564  0.3282  0.0030 -0.0913
 8300SOL    HW136362   4.325   2.233   8.549  0.5444  1.7733 -3.2778
 8300SOL    HW236363   4.182   2.204   8.527  1.7756 -0.6561 -1.0765
 8301SOL     OW36364   0.768   4.414  15.567  0.3370  0.3688 -0.2383
 8301SOL    HW136365   0.796   4.478  15.632 -2.3183  1.0347  0.2538
 8301SOL    HW236366   0.740   4.473  15.497 -0.2914  1.5905  1.0259
 8302SOL     OW36367   3.242   2.404   5.371  0.7688 -0.7654  0.2262
 8302SOL    HW136368   3.285   2.361   5.297  1.2930  0.7768 -0.3846
 8302SOL    HW236369   3.305   2.375   5.437  0.8542 -0.6381  0.2011
 8303SOL     OW36370   0.013   2.691  13.731 -0.3009  0.0598  0.1587
 8303SOL    HW136371   4.666   2.692  13.796 -0.1936 -0.6703  0.2878
 8303SOL    HW236372   4.707   2.621  13.672 -0.4912 -0.1675  0.5165
 8304SOL     OW36373   1.172   3.148   8.691 -0.2075  0.2192  0.2540
 8304SOL    HW136374   1.192   3.104   8.609 -0.6650  1.4989 -0.5423
 8304SOL    HW236375   1.217   3.080   8.742 -0.0706 -1.9707 -2.7469
 8305SOL     OW36376   4.361   1.558   0.369  0.2143  0.5587 -0.1278
 8305SOL    HW136377   4.439   1.522   0.327  0.4618 -0.7104  1.4147
 8305SOL    HW236378   4.353   1.647   0.333  1.7014  0.5589 -0.4539
 8306SOL     OW36379   4.345   3.826   1.095  0.1559 -0.6811 -0.2266
 8306SOL    HW136380   4.319   3.910   1.059 -2.0254 -1.6067 -0.8418
 8306SOL    HW236381   4.279   3.819   1.164 -0.2873 -0.2210 -0.6085
 8307SOL     OW36382   2.329   3.635   2.655 -0.0027 -0.3226 -0.5676
 8307SOL    HW136383   2.244   3.648   2.696  1.5686  0.6870  2.3656
 8307SOL    HW236384   2.382   3.700   2.702 -1.7053 -1.2650  2.6649
 8308SOL     OW36385   3.020   3.822   3.879  0.1829  0.6995 -0.1566
 8308SOL    HW136386   2.966   3.781   3.812 -0.0656  0.7783 -0.0081
 8308SOL    HW236387   3.028   3.760   3.952  0.9625  1.5857  0.5216
 8309SOL     OW36388   0.460   4.105   3.136 -0.6434  0.1806 -0.0890
 8309SOL    HW136389   0.458   4.021   3.181  2.0302 -0.3763 -0.9887
 8309SOL    HW236390   0.453   4.079   3.044 -1.0736  1.4130 -0.4035
 8310SOL     OW36391   0.412   3.641   5.643  0.0561  0.4449 -0.5134
 8310SOL    HW136392   0.470   3.592   5.585 -0.5149  0.3983 -1.0386
 8310SOL    HW236393   0.438   3.605   5.728  0.1004 -0.8663 -1.0928
 8311SOL     OW36394   0.126   3.082  11.720 -0.3819 -0.2705 -0.4294
 8311SOL    HW136395   0.184   3.017  11.680  0.2001 -1.3315  2.1179
 8311SOL    HW236396   0.118   3.035  11.804 -2.4379  0.0614 -0.4599
 8312SOL     OW36397   0.992   0.616   3.853  0.2298 -0.0375 -0.0088
 8312SOL    HW136398   1.029   0.704   3.861 -2.5145  1.1814 -0.6008
 8312SOL    HW236399   1.014   0.614   3.759  1.2341 -0.7081  0.2414
 8313SOL     OW36400   1.718   0.346  13.575  0.2391 -1.0687  0.0533
 8313SOL    HW136401   1.668   0.399  13.513  1.4140  0.0088  0.0423
 8313SOL    HW236402   1.711   0.393  13.658 -0.7390  0.2803 -0.8010
 8314SOL     OW36403   4.530   4.013   2.882  0.0393 -0.4781 -0.2884
 8314SOL    HW136404   4.504   4.093   2.927 -0.0024  0.4603 -1.9981
 8314SOL    HW236405   4.461   3.956   2.918  0.5981 -0.7727  0.3309
 8315SOL     OW36406   2.347   2.373   8.489  0.7252 -0.2050 -0.3192
 8315SOL    HW136407   2.375   2.301   8.432 -1.8372 -0.0300 -1.7853
 8315SOL    HW236408   2.281   2.427   8.445 -1.1502 -0.6739  1.9144
 8316SOL     OW36409   3.020   4.384   0.677 -0.3743  0.0445  0.0728
 8316SOL    HW136410   3.042   4.350   0.590 -1.5452  0.5890 -0.4250
 8316SOL    HW236411   2.934   4.424   0.668 -0.2674  0.2532 -0.0347
 8317SOL     OW36412   2.181   3.964   1.866  0.4497  0.0575  0.1332
 8317SOL    HW136413   2.093   3.928   1.877  1.2335 -1.4287  1.5594
 8317SOL    HW236414   2.234   3.924   1.935  0.1731  3.0136  2.0816
 8318SOL     OW36415   3.032   3.346   8.813  0.4890 -0.5897  0.3138
 8318SOL    HW136416   2.980   3.422   8.791  1.8212  1.1083  3.0329
 8318SOL    HW236417   3.115   3.376   8.776  1.0337 -1.4086  0.8465
 8319SOL     OW36418   2.017   3.686   6.665 -0.3185 -0.2300  0.0050
 8319SOL    HW136419   2.093   3.707   6.719  0.3273  2.1237 -1.8095
 8319SOL    HW236420   2.043   3.732   6.585  1.3851 -1.5036 -0.1759
 8320SOL     OW36421   4.104   3.283   7.925  0.6721 -0.5982  0.4658
 8320SOL    HW136422   4.175   3.220   7.914  1.1833  0.2864 -1.2968
 8320SOL    HW236423   4.029   3.232   7.896  1.8705 -2.7776  1.2083
 8321SOL     OW36424   3.158   1.005   3.052 -0.2071 -0.6989 -0.5177
 8321SOL    HW136425   3.080   1.040   3.008 -0.4019 -0.4919 -0.0064
 8321SOL    HW236426   3.139   1.044   3.137 -2.4638  1.5306 -2.0288
 8322SOL     OW36427   0.999   1.354   2.440  0.0846  0.2728 -0.1716
 8322SOL    HW136428   1.027   1.263   2.428 -1.6921 -0.2399 -0.3633
 8322SOL    HW236429   1.051   1.378   2.517  0.1904 -2.6526  0.6546
 8323SOL     OW36430   1.207   1.626   0.611  0.2118 -0.0074 -0.0079
 8323SOL    HW136431   1.160   1.698   0.652 -1.3276 -2.1704  1.9966
 8323SOL    HW236432   1.199   1.637   0.516 -0.5545  0.4755  0.1196
 8324SOL     OW36433   3.796   0.843   8.391  0.3969  0.2297 -0.0760
 8324SOL    HW136434   3.840   0.928   8.395  0.9190 -0.0647  0.5216
 8324SOL    HW236435   3.823   0.801   8.474 -0.3965  1.4289  0.7860
 8325SOL     OW36436   2.254   4.674  13.065  0.6518  0.3553 -0.5937
 8325SOL    HW136437   2.256   0.021  13.130  0.5494 -2.0484  2.0349
 8325SOL    HW236438   2.202   4.720  12.999  0.8818  1.8084  0.2166
 8326SOL     OW36439   3.267   3.193   7.830 -0.6371  0.3519 -0.4198
 8326SOL    HW136440   3.236   3.107   7.801 -1.6130 -0.1516  2.1904
 8326SOL    HW236441   3.353   3.187   7.788  1.5309  0.1104  4.0941
 8327SOL     OW36442   3.154   1.643   4.090  0.1902 -0.3983  0.4175
 8327SOL    HW136443   3.175   1.720   4.037 -2.8154 -0.0462 -0.2711
 8327SOL    HW236444   3.234   1.607   4.129  0.2439 -1.9474 -1.1209
 8328SOL     OW36445   3.488   4.394   7.781 -0.1254  0.3146  0.0992
 8328SOL    HW136446   3.511   4.420   7.692  0.8188 -1.5316 -0.2033
 8328SOL    HW236447   3.422   4.329   7.758 -0.0842  0.2119  0.2707
 8329SOL     OW36448   0.423   0.941   8.292 -0.0616 -0.1616 -0.1673
 8329SOL    HW136449   0.389   0.865   8.338  1.2596 -1.8616 -2.0056
 8329SOL    HW236450   0.513   0.915   8.270  0.4931  0.9645  0.7490
 8330SOL     OW36451   3.650   0.668   2.483 -0.3910 -0.7430 -0.0271
 8330SOL    HW136452   3.630   0.618   2.404 -0.6280  1.5627 -1.4095
 8330SOL    HW236453   3.651   0.612   2.561  1.8187 -1.2378 -0.4089
 8331SOL     OW36454   0.816   2.015   7.597  0.1363  0.0524 -0.8275
 8331SOL    HW136455   0.737   1.974   7.560 -1.9741 -0.2061  3.9590
 8331SOL    HW236456   0.881   1.957   7.558 -1.1698 -1.7196 -0.3840
 8332SOL     OW36457   2.627   0.720   4.718  0.5944 -0.0788 -0.2177
 8332SOL    HW136458   2.623   0.815   4.729 -1.9690 -0.0788 -1.1044
 8332SOL    HW236459   2.558   0.689   4.778 -0.5462  1.6071 -0.6542
 8333SOL     OW36460   0.677   2.248   4.279  0.6417 -0.2474  0.4482
 8333SOL    HW136461   0.679   2.226   4.186 -3.4903  0.2811  0.2577
 8333SOL    HW236462   0.642   2.337   4.277 -1.3439 -1.0599 -0.2598
 8334SOL     OW36463   3.065   2.950   8.171 -0.7084 -0.0612 -0.1207
 8334SOL    HW136464   3.026   3.030   8.205  1.7349  1.1634 -0.1984
 8334SOL    HW236465   3.003   2.896   8.222  0.0635 -0.4891  0.3681
 8335SOL     OW36466   1.207   2.774   7.737 -0.4159  0.4730 -0.0479
 8335SOL    HW136467   1.287   2.755   7.786  0.5263  1.6006 -1.1626
 8335SOL    HW236468   1.201   2.691   7.689  0.6763  1.6114 -2.0831
 8336SOL     OW36469   1.816   0.188   4.137  0.2387 -0.3503 -0.2366
 8336SOL    HW136470   1.772   0.116   4.181  1.5582 -0.3231  1.1048
 8336SOL    HW236471   1.854   0.236   4.210 -0.0195  0.6145 -0.7414
 8337SOL     OW36472   1.331   1.003  12.078 -0.1740 -0.0124  0.5123
 8337SOL    HW136473   1.394   0.948  12.125  0.9433  0.7944 -0.0285
 8337SOL    HW236474   1.382   1.049  12.011 -1.6795 -1.6395 -1.7592
 8338SOL     OW36475   0.922   0.074   4.513  0.1866 -0.0374 -0.5723
 8338SOL    HW136476   0.983   0.093   4.584  1.2497  0.8903 -1.7426
 8338SOL    HW236477   0.836   0.087   4.553  0.4100  0.4606 -0.2629
 8339SOL     OW36478   1.819   4.171   8.519 -0.6724 -0.0997 -0.4842
 8339SOL    HW136479   1.872   4.114   8.463 -0.5222  0.7714 -1.2269
 8339SOL    HW236480   1.879   4.245   8.526  0.0974 -0.6354 -1.4472
 8340SOL     OW36481   2.728   4.199  12.066 -0.4568 -0.4998  0.4664
 8340SOL    HW136482   2.775   4.283  12.069 -0.9207 -0.2265  0.1115
 8340SOL    HW236483   2.636   4.226  12.065  0.5439  2.8008 -2.8700
 8341SOL     OW36484   4.583   3.789  11.849  0.0826  0.1058 -0.2836
 8341SOL    HW136485   4.556   3.705  11.812 -1.1375  0.5522 -0.4260
 8341SOL    HW236486   4.507   3.797  11.907 -0.6018 -1.1053 -1.0015
 8342SOL     OW36487   0.354   2.416   5.982 -0.2046 -0.2110  0.8281
 8342SOL    HW136488   0.426   2.479   5.984 -2.3335  2.2702 -0.3331
 8342SOL    HW236489   0.400   2.336   5.957  1.6014  0.2553  2.7618
 8343SOL     OW36490   3.439   2.438   7.742  0.3933  0.0918 -0.2655
 8343SOL    HW136491   3.487   2.427   7.824 -1.2498 -1.8575  0.4579
 8343SOL    HW236492   3.521   2.422   7.695 -1.2069  0.9207 -3.3583
 8344SOL     OW36493   3.841   1.368   1.434 -0.1622 -0.0450 -0.2499
 8344SOL    HW136494   3.858   1.456   1.467  0.9125 -0.0673 -0.7213
 8344SOL    HW236495   3.779   1.339   1.501 -1.5682 -1.2881 -2.0813
 8345SOL     OW36496   0.128   3.356   8.257 -0.4760 -0.5466  0.3313
 8345SOL    HW136497   0.134   3.351   8.353  0.8724 -0.3137  0.2571
 8345SOL    HW236498   0.170   3.442   8.249  0.7431 -1.2814 -1.1089
 8346SOL     OW36499   1.380   4.435   0.303  0.0584 -0.1501  0.4891
 8346SOL    HW136500   1.372   4.340   0.308  0.2832 -0.2540 -1.0808
 8346SOL    HW236501   1.452   4.445   0.241  0.8574  2.3844  1.8386
 8347SOL     OW36502   3.526   3.483   8.573 -0.1346 -0.0927  0.1534
 8347SOL    HW136503   3.509   3.570   8.610  0.4557 -0.6374  1.7289
 8347SOL    HW236504   3.594   3.461   8.636 -0.6508 -1.3358  0.2773
 8348SOL     OW36505   0.128   4.640   0.662 -0.2680  0.4442  0.4898
 8348SOL    HW136506   0.202   4.664   0.718 -0.0370 -1.0278  0.8117
 8348SOL    HW236507   0.064   4.660   0.730 -0.6093  0.9101  0.0273
 8349SOL     OW36508   3.181   0.093   1.176  0.4054 -0.0053 -0.0271
 8349SOL    HW136509   3.198   0.117   1.267  0.7182 -0.6106  0.0748
 8349SOL    HW236510   3.105   0.150   1.167 -0.3493 -0.2585  4.3065
 8350SOL     OW36511   3.357   1.682   6.253 -1.0355 -0.8216  0.4851
 8350SOL    HW136512   3.403   1.685   6.336  0.7952  0.6059 -0.5880
 8350SOL    HW236513   3.265   1.674   6.279 -1.5501 -1.2807 -1.4586
 8351SOL     OW36514   3.209   1.403  11.310 -0.5855  0.0001 -0.5336
 8351SOL    HW136515   3.256   1.424  11.229 -0.6698  3.3500  0.2838
 8351SOL    HW236516   3.280   1.428  11.369  0.1383  2.7386 -2.5691
 8352SOL     OW36517   3.781   1.312   4.771 -0.6968  0.2185 -0.2435
 8352SOL    HW136518   3.874   1.316   4.795 -0.5545  0.5550 -0.8586
 8352SOL    HW236519   3.740   1.291   4.855 -2.6005 -0.6553 -1.3966
 8353SOL     OW36520   1.152   2.166   9.652 -0.4419  0.1374  0.0889
 8353SOL    HW136521   1.165   2.090   9.708 -1.4526 -0.9177 -1.1048
 8353SOL    HW236522   1.119   2.119   9.575  0.1158 -2.9099  1.7101
 8354SOL     OW36523   1.637   2.638   6.684  0.0150  0.0014 -0.2392
 8354SOL    HW136524   1.543   2.644   6.703  0.5431  2.8254  1.2716
 8354SOL    HW236525   1.676   2.609   6.766 -1.1478 -1.1512 -0.0834
 8355SOL     OW36526   0.747   1.499   9.302 -0.4323  0.0699  0.0502
 8355SOL    HW136527   0.759   1.457   9.387 -0.7385 -0.5326 -0.2055
 8355SOL    HW236528   0.684   1.444   9.256 -0.5077 -1.2181  1.6986
 8356SOL     OW36529   2.266   1.998   2.452 -0.7086 -0.2461  0.0438
 8356SOL    HW136530   2.332   1.959   2.510 -0.4284  1.2569  0.7268
 8356SOL    HW236531   2.307   1.996   2.365  1.8892 -0.9523  1.2568
 8357SOL     OW36532   3.099   2.387   2.910  0.0548 -0.1923  0.0243
 8357SOL    HW136533   3.094   2.341   2.994 -1.3219  1.2180  0.7005
 8357SOL    HW236534   3.023   2.351   2.866  0.5608 -1.4340  0.1711
 8358SOL     OW36535   4.233   2.297   5.690  0.2571 -0.2286  0.4516
 8358SOL    HW136536   4.279   2.215   5.673  0.5735  0.9238 -4.0440
 8358SOL    HW236537   4.270   2.360   5.629  1.0251 -1.0119  0.1137
 8359SOL     OW36538   0.149   4.363  12.795 -0.3783  0.1688 -0.4744
 8359SOL    HW136539   0.099   4.383  12.873 -0.8806 -1.2687 -0.4190
 8359SOL    HW236540   0.198   4.284  12.818  0.5359  1.2287  1.1401
 8360SOL     OW36541   2.019   3.149   2.302 -0.3785 -0.0762  0.3242
 8360SOL    HW136542   1.941   3.137   2.247 -0.0865 -1.7733  0.2823
 8360SOL    HW236543   2.082   3.210   2.265 -0.4575 -0.9994 -1.3639
 8361SOL     OW36544   2.610   1.688   7.428 -0.5673  0.1701  0.0661
 8361SOL    HW136545   2.687   1.742   7.415  0.6991 -1.5143  0.4955
 8361SOL    HW236546   2.621   1.685   7.523  3.0189 -1.0420 -0.3709
 8362SOL     OW36547   3.536   4.099   2.746  0.4673 -0.0943  0.4331
 8362SOL    HW136548   3.519   4.181   2.794 -1.3391 -0.0932 -0.2060
 8362SOL    HW236549   3.450   4.059   2.756 -0.4415  2.2515  2.1326
 8363SOL     OW36550   0.662   0.209   3.664  0.4149  0.0193 -0.0142
 8363SOL    HW136551   0.747   0.182   3.628  1.7945  1.4310  2.2372
 8363SOL    HW236552   0.612   0.140   3.620  0.3144  1.6249 -2.4540
 8364SOL     OW36553   2.685   4.108   8.008 -0.8398  0.1750  0.7506
 8364SOL    HW136554   2.633   4.122   8.087 -1.9084  1.7025 -0.2132
 8364SOL    HW236555   2.730   4.025   8.026 -1.7218 -0.3851  0.3893
 8365SOL     OW36556   3.634   4.106  10.298  0.7811 -0.4569 -0.8571
 8365SOL    HW136557   3.641   4.067  10.385 -2.9106 -1.2255 -0.9002
 8365SOL    HW236558   3.726   4.127  10.278  0.8566  2.2252  2.2235
 8366SOL     OW36559   3.576   0.354   3.145  0.1852  0.2420  0.9566
 8366SOL    HW136560   3.502   0.293   3.153  0.5512 -0.4691 -0.9273
 8366SOL    HW236561   3.522   0.432   3.144  0.0146  0.0987 -2.1857
 8367SOL     OW36562   4.183   2.967   3.216  0.0659 -0.0351 -0.1319
 8367SOL    HW136563   4.122   2.948   3.287  1.9832  0.8892  1.7804
 8367SOL    HW236564   4.127   2.967   3.139 -0.1709 -1.2007  0.0433
 8368SOL     OW36565   0.839   4.474   9.026  0.1884 -0.6899  0.4960
 8368SOL    HW136566   0.907   4.507   9.086  0.3861 -0.9004  0.3865
 8368SOL    HW236567   0.878   4.493   8.941  1.2989  0.1965  1.1853
 8369SOL     OW36568   0.448   4.413   3.066 -0.4996 -0.0378  0.3963
 8369SOL    HW136569   0.525   4.452   3.024 -0.2350  0.1734  1.0701
 8369SOL    HW236570   0.486   4.340   3.115  0.7555  2.3398  2.9669
 8370SOL     OW36571   1.772   1.185   9.132  0.0530 -0.1447 -0.7676
 8370SOL    HW136572   1.714   1.261   9.132  0.2610  0.0132  0.2969
 8370SOL    HW236573   1.851   1.232   9.107 -1.4223  2.4023 -0.5659
 8371SOL     OW36574   3.157   4.399   5.252  0.6008  0.3836  0.1528
 8371SOL    HW136575   3.252   4.384   5.258  0.4754 -0.6234 -0.3694
 8371SOL    HW236576   3.151   4.470   5.188 -0.7522 -0.0792 -0.2306
 8372SOL     OW36577   2.131   3.912   4.724  0.0045 -0.1678 -1.0715
 8372SOL    HW136578   2.135   3.988   4.665 -2.3976 -0.2532 -1.3183
 8372SOL    HW236579   2.137   3.953   4.810 -1.6904 -0.5262 -0.7969
 8373SOL     OW36580   0.961   4.177   5.502  0.0883 -0.3413 -0.2043
 8373SOL    HW136581   1.041   4.176   5.554 -0.6880  0.5033  1.0008
 8373SOL    HW236582   0.940   4.269   5.512 -0.2415 -0.4409  0.0157
 8374SOL     OW36583   1.509   0.244   4.639 -0.0641 -0.0970  0.1691
 8374SOL    HW136584   1.425   0.266   4.599  0.8757  1.4045 -0.9978
 8374SOL    HW236585   1.581   0.260   4.578 -0.8535  0.2127 -0.6879
 8375SOL     OW36586   3.864   4.554   6.884  0.2652  0.5890  0.1410
 8375SOL    HW136587   3.842   4.479   6.940 -0.5852  1.9799  1.6634
 8375SOL    HW236588   3.888   4.617   6.953  1.4670 -1.3755  1.5167
 8376SOL     OW36589   4.632   0.080   7.479  0.2027 -0.8646 -0.0443
 8376SOL    HW136590   4.638   0.171   7.507 -1.2374 -0.1166 -2.1686
 8376SOL    HW236591   4.714   0.037   7.505  0.1915 -0.5342  0.5442
 8377SOL     OW36592   0.685   2.834   6.922 -0.4170  0.0674 -0.7764
 8377SOL    HW136593   0.738   2.902   6.962 -2.7005  1.4097 -0.1042
 8377SOL    HW236594   0.637   2.795   6.994 -1.3411 -1.3392 -2.1503
 8378SOL     OW36595   3.225   2.048   3.571 -0.0202 -0.3208 -0.0326
 8378SOL    HW136596   3.228   1.957   3.599  1.2024  0.1247  1.2483
 8378SOL    HW236597   3.131   2.068   3.573  0.3114  1.3147 -0.8401
 8379SOL     OW36598   4.586   0.829  12.051  0.3019  0.4110 -0.1686
 8379SOL    HW136599   4.617   0.911  12.013 -1.3122 -0.8005 -4.0636
 8379SOL    HW236600   4.654   0.767  12.024  1.4977  1.9811 -0.7409
 8380SOL     OW36601   1.960   2.208  16.387 -0.2759 -0.7721 -0.2572
 8380SOL    HW136602   2.036   2.151  16.396 -0.5428 -1.6578 -3.4001
 8380SOL    HW236603   1.984   2.240  16.300  0.4208 -0.1602  0.1711
 8381SOL     OW36604   3.112   0.034   5.430 -0.1290  0.7299  0.3934
 8381SOL    HW136605   3.128   4.680   5.484 -3.1988 -1.1142 -1.3338
 8381SOL    HW236606   3.119   4.714   5.345  0.0892  0.3249  0.6190
 8382SOL     OW36607   1.534   1.135   1.701 -0.0450  0.0882 -0.2079
 8382SOL    HW136608   1.529   1.101   1.612  0.4502 -0.5860  0.0208
 8382SOL    HW236609   1.565   1.059   1.750  0.5028  0.4226 -0.0401
 8383SOL     OW36610   1.782   2.800   7.074 -0.4995 -0.0037  0.1073
 8383SOL    HW136611   1.800   2.894   7.067  1.1114 -0.2877  0.5225
 8383SOL    HW236612   1.687   2.796   7.060 -0.6305  0.1001  0.9487
 8384SOL     OW36613   0.586   1.919   7.515  0.1317 -0.2115 -0.0708
 8384SOL    HW136614   0.537   1.851   7.561 -0.7274  0.2627 -0.2935
 8384SOL    HW236615   0.519   1.929   7.447  0.5245 -0.3298 -0.4742
 8385SOL     OW36616   4.310   0.910   4.732 -0.1349  0.2186  0.5366
 8385SOL    HW136617   4.318   0.951   4.646 -2.7758  1.0267  0.6846
 8385SOL    HW236618   4.402   0.919   4.759 -0.3586  1.2150  0.9743
 8386SOL     OW36619   0.325   4.419   7.367 -0.2718  0.4339  0.1003
 8386SOL    HW136620   0.374   4.455   7.440  0.2421 -0.5190  0.2172
 8386SOL    HW236621   0.238   4.428   7.405  0.8858  1.3103  2.5175
 8387SOL     OW36622   0.684   2.171   6.385  0.2464 -0.0032 -0.3823
 8387SOL    HW136623   0.730   2.250   6.356 -1.2435  1.5379  1.5018
 8387SOL    HW236624   0.688   2.168   6.481 -0.1100  1.4412 -0.3157
 8388SOL     OW36625   3.605   0.900   7.729  0.1448 -0.0414  0.1152
 8388SOL    HW136626   3.662   0.965   7.687  0.6603  0.4037  1.4888
 8388SOL    HW236627   3.578   0.846   7.655 -0.3755  0.1253  0.1851
 8389SOL     OW36628   0.876   2.989  16.527 -0.4300  0.3519 -0.0281
 8389SOL    HW136629   0.794   3.034  16.551  1.0149  3.0181 -0.0943
 8389SOL    HW236630   0.946   3.051  16.548  0.1859 -0.6272  0.7970
 8390SOL     OW36631   0.844   0.026   5.278 -0.1339 -0.5936  0.0352
 8390SOL    HW136632   0.781   0.080   5.231 -1.9875 -2.6796  0.0964
 8390SOL    HW236633   0.921   0.079   5.259 -1.3557  1.4534  0.8015
 8391SOL     OW36634   1.022   2.636   7.327 -0.2393  0.0181  0.7993
 8391SOL    HW136635   1.102   2.651   7.277 -0.6284 -2.2745 -0.5097
 8391SOL    HW236636   1.051   2.610   7.414  0.6497 -1.4298  0.0657
 8392SOL     OW36637   4.307   3.186  11.517 -0.0449  0.5408 -0.1575
 8392SOL    HW136638   4.364   3.185  11.594  0.5405 -0.0182 -0.6049
 8392SOL    HW236639   4.360   3.239  11.458  0.1010 -1.0281 -1.4381
 8393SOL     OW36640   2.018   2.163   5.021  0.4310 -0.1099  0.0779
 8393SOL    HW136641   2.041   2.070   5.013 -0.6854 -0.4193  0.5315
 8393SOL    HW236642   1.924   2.154   5.009  0.0702  1.8703  1.3439
 8394SOL     OW36643   0.360   4.205   0.634  0.1838  0.2050  1.1618
 8394SOL    HW136644   0.430   4.242   0.687  3.2880 -1.3635 -1.8328
 8394SOL    HW236645   0.401   4.125   0.599  0.9134  0.5432  1.2378
 8395SOL     OW36646   1.033   1.513   7.613 -0.0874 -0.9643 -0.2725
 8395SOL    HW136647   0.955   1.495   7.665  0.2119  0.3799  0.6555
 8395SOL    HW236648   1.106   1.484   7.667 -1.4996  0.0058  2.1370
 8396SOL     OW36649   2.026   3.158  11.597  0.3167  0.2854 -0.4741
 8396SOL    HW136650   1.947   3.211  11.603 -2.0858 -3.6298  1.9035
 8396SOL    HW236651   2.065   3.202  11.521  1.6576 -0.5778 -0.2914
 8397SOL     OW36652   3.228   1.128   0.562  0.5484 -0.3098 -0.0101
 8397SOL    HW136653   3.183   1.211   0.547  0.8029  0.4213  3.3569
 8397SOL    HW236654   3.262   1.135   0.651 -1.6999 -2.3769  1.0251
 8398SOL     OW36655   4.084   0.249  12.337 -0.0127 -0.5356  0.3095
 8398SOL    HW136656   4.078   0.267  12.243  1.6640  0.8511  0.4823
 8398SOL    HW236657   4.173   0.282  12.350  0.2433 -1.5914  1.2613
 8399SOL     OW36658   4.041   1.516   3.219  0.2105  0.6800 -0.1508
 8399SOL    HW136659   4.120   1.544   3.173  0.0771  1.3025 -0.0030
 8399SOL    HW236660   3.984   1.578   3.174 -1.3549 -0.7081 -0.0723
 8400SOL     OW36661   2.300   4.672   4.544 -0.1592 -0.2324 -0.1566
 8400SOL    HW136662   2.383   4.701   4.582 -0.4629 -0.3843  0.6296
 8400SOL    HW236663   2.236   0.007   4.585  0.5586 -0.2700  1.0264
 8401SOL     OW36664   3.692   3.821   5.814 -0.3286 -0.4721  0.1703
 8401SOL    HW136665   3.689   3.908   5.774  1.2724 -0.9791 -1.0520
 8401SOL    HW236666   3.777   3.828   5.858  0.9979 -1.5298 -2.2197
 8402SOL     OW36667   3.163   0.019   3.226  0.5285 -0.0126 -0.0623
 8402SOL    HW136668   3.120   4.674   3.175 -1.2066  2.3494 -1.7107
 8402SOL    HW236669   3.207   4.698   3.299  0.1656 -0.3438 -0.0462
 8403SOL     OW36670   2.476   1.154   8.168 -0.1124 -0.4281  0.1444
 8403SOL    HW136671   2.523   1.102   8.104  1.5093  0.2149  0.8287
 8403SOL    HW236672   2.507   1.113   8.249  2.2398 -2.5129 -1.8384
 8404SOL     OW36673   1.693   0.375   5.602 -0.6181 -0.5521 -0.0794
 8404SOL    HW136674   1.767   0.407   5.653 -1.2786  0.1270  0.4611
 8404SOL    HW236675   1.652   0.325   5.672  0.5456  0.1596  1.0928
 8405SOL     OW36676   3.326   3.680   1.601 -0.4069  0.0468  0.6641
 8405SOL    HW136677   3.342   3.623   1.525  1.6482  2.6340 -0.8454
 8405SOL    HW236678   3.361   3.768   1.589 -1.5804  0.7808  2.7639
 8406SOL     OW36679   4.167   2.216  15.545  0.4617  0.0219  0.4969
 8406SOL    HW136680   4.207   2.272  15.478  1.4794 -1.8938 -0.4690
 8406SOL    HW236681   4.086   2.268  15.545  1.0051  0.8713 -0.5777
 8407SOL     OW36682   3.539   2.629  10.399 -0.1032 -0.3158  0.4389
 8407SOL    HW136683   3.473   2.664  10.458 -1.0771  0.2946 -1.0401
 8407SOL    HW236684   3.619   2.663  10.440 -0.1001  2.1121 -1.5652
 8408SOL     OW36685   2.130   0.119  14.970  0.1046 -0.1849 -0.4476
 8408SOL    HW136686   2.169   0.135  15.055  0.0273  0.1088 -0.4669
 8408SOL    HW236687   2.077   0.041  14.987 -0.6849  0.1111 -1.4979
 8409SOL     OW36688   4.588   2.235   5.072 -0.2942  0.1940 -0.4981
 8409SOL    HW136689   4.539   2.244   5.153  0.5587  0.3838  0.0027
 8409SOL    HW236690   4.647   2.163   5.096 -1.0992 -0.3043 -0.0316
 8410SOL     OW36691   3.091   1.236   4.117  0.2978 -0.5304  0.0013
 8410SOL    HW136692   3.054   1.157   4.077  2.5407 -0.4025 -2.3222
 8410SOL    HW236693   3.008   1.276   4.141  0.8692  1.3310 -1.1581
 8411SOL     OW36694   4.252   0.327   2.064 -0.2189  0.0577  0.4198
 8411SOL    HW136695   4.321   0.341   2.128  1.4348  0.5499 -1.4598
 8411SOL    HW236696   4.281   0.393   2.001 -0.3115  0.5282  0.8717
 8412SOL     OW36697   4.548   3.987   4.244  0.2121  0.0318 -0.2108
 8412SOL    HW136698   4.462   3.992   4.202 -0.2066  0.9498  0.7635
 8412SOL    HW236699   4.585   3.928   4.178 -1.2548  0.0383 -1.0358
 8413SOL     OW36700   0.575   1.562   8.043  0.5562 -0.0700 -0.1003
 8413SOL    HW136701   0.579   1.522   8.130 -0.5127 -0.2831 -0.1428
 8413SOL    HW236702   0.584   1.487   7.984 -0.4864 -0.1798 -0.1171
 8414SOL     OW36703   3.689   0.405   1.223 -0.0352 -0.0533  0.2930
 8414SOL    HW136704   3.775   0.369   1.245  0.2822  0.8677  0.6001
 8414SOL    HW236705   3.692   0.495   1.255 -0.3525 -0.0550  0.3240
 8415SOL     OW36706   2.217   0.274   2.851 -0.2142  0.1486 -0.3540
 8415SOL    HW136707   2.300   0.275   2.899  0.6061  1.4673 -1.7925
 8415SOL    HW236708   2.242   0.211   2.784  0.9367 -1.8862  1.9975
 8416SOL     OW36709   1.672   3.997   4.247  0.2377 -0.5152  0.4669
 8416SOL    HW136710   1.665   4.062   4.316 -3.0410 -0.9131  0.4978
 8416SOL    HW236711   1.767   3.994   4.235  0.2683  0.4230  0.5322
 8417SOL     OW36712   3.036   1.234   7.949  0.4628  0.4542 -0.4212
 8417SOL    HW136713   3.040   1.219   8.044  0.5735  0.3240 -0.4468
 8417SOL    HW236714   3.113   1.183   7.926  0.3449 -0.3089  0.8536
 8418SOL     OW36715   4.342   3.054   7.684  0.6468 -0.2049  0.6475
 8418SOL    HW136716   4.387   3.010   7.611  1.6308  2.1804 -0.1784
 8418SOL    HW236717   4.315   3.133   7.638 -1.7236 -0.2393  2.0067
 8419SOL     OW36718   4.645   4.289   7.935  0.3413  0.2269  0.3487
 8419SOL    HW136719   4.666   4.378   7.963 -0.1250  0.1099  1.0769
 8419SOL    HW236720   4.553   4.274   7.955  0.2796 -1.0537 -0.9341
 8420SOL     OW36721   3.871   4.096  10.160  0.2357  0.2995 -0.5067
 8420SOL    HW136722   3.806   4.026  10.161  0.7335 -0.1580 -0.2098
 8420SOL    HW236723   3.882   4.098  10.065 -0.3518  4.1800 -0.4766
 8421SOL     OW36724   1.310   3.961   3.665 -0.1062  0.3915 -0.0098
 8421SOL    HW136725   1.377   3.941   3.730 -0.4176 -2.2066 -0.4901
 8421SOL    HW236726   1.333   4.052   3.646  0.8275  0.4965  1.6186
 8422SOL     OW36727   0.158   3.711  16.146  0.5145  0.5429 -0.6430
 8422SOL    HW136728   0.077   3.665  16.124 -0.4842  2.4148 -0.8666
 8422SOL    HW236729   0.224   3.656  16.105 -1.0338 -2.0784  0.3007
 8423SOL     OW36730   3.029   0.723  11.493  0.4895  0.2801  0.0098
 8423SOL    HW136731   3.065   0.772  11.568 -0.9650  0.3681  0.6527
 8423SOL    HW236732   3.091   0.652  11.478 -0.8940 -0.3522 -2.6070
 8424SOL     OW36733   2.522   4.542  16.926  0.1809 -0.2195 -0.0122
 8424SOL    HW136734   2.599   4.558  16.981 -0.0147  0.2643  0.1212
 8424SOL    HW236735   2.568   4.498  16.855  0.9533 -1.6886  1.3919
 8425SOL     OW36736   3.607   3.198   3.433  0.0825 -0.1533 -0.1937
 8425SOL    HW136737   3.614   3.220   3.526 -1.1314 -0.7262  0.0254
 8425SOL    HW236738   3.512   3.199   3.429  0.0840 -2.4703 -0.6960
 8426SOL     OW36739   3.714   3.374   0.984  0.1757  0.2839 -0.2479
 8426SOL    HW136740   3.752   3.313   1.048 -1.5424 -1.5773 -1.0187
 8426SOL    HW236741   3.788   3.432   0.964  1.6594 -0.7622  2.2252
 8427SOL     OW36742   1.644   1.478   2.411 -0.5859 -0.3792  0.3781
 8427SOL    HW136743   1.661   1.545   2.345  0.7418 -0.6036  0.5086
 8427SOL    HW236744   1.678   1.398   2.372  0.7060  0.9134 -1.1404
 8428SOL     OW36745   0.671   2.668   4.955 -0.6817 -0.1009 -0.1032
 8428SOL    HW136746   0.663   2.716   4.873 -0.0037 -1.1093 -0.7613
 8428SOL    HW236747   0.701   2.582   4.926 -2.0037 -0.5667 -0.0887
 8429SOL     OW36748   0.190   2.216   9.106 -0.1628 -0.1817 -0.4642
 8429SOL    HW136749   0.272   2.227   9.058 -0.6770 -3.7998 -2.1757
 8429SOL    HW236750   0.167   2.135   9.062 -1.2774 -0.7972  1.2477
 8430SOL     OW36751   3.333   2.082  16.731 -0.1928  0.0936 -0.0670
 8430SOL    HW136752   3.334   2.008  16.670  0.2021 -1.3477  1.6686
 8430SOL    HW236753   3.412   2.125  16.698  1.1526 -0.2024  2.6725
 8431SOL     OW36754   0.191   0.765   8.743 -0.0453 -0.0585  0.0977
 8431SOL    HW136755   0.240   0.767   8.661 -1.0432 -1.3603 -0.5212
 8431SOL    HW236756   0.152   0.680   8.724 -1.7510  0.1041  2.7730
 8432SOL     OW36757   0.338   3.384   3.216 -0.3377 -0.1270 -0.4942
 8432SOL    HW136758   0.427   3.351   3.206 -0.4308 -0.2520 -0.9224
 8432SOL    HW236759   0.312   3.342   3.297 -2.9114  3.8734  0.7546
 8433SOL     OW36760   3.677   1.382   8.039 -0.4814  1.1416  0.2542
 8433SOL    HW136761   3.713   1.315   8.097 -0.6405  0.8143 -0.0236
 8433SOL    HW236762   3.612   1.329   7.994  0.2547  0.4256  0.0402
 8434SOL     OW36763   1.381   3.292  10.015  0.0675 -0.3530  0.1504
 8434SOL    HW136764   1.296   3.284  10.059 -0.3808  2.8169 -0.1456
 8434SOL    HW236765   1.413   3.203  10.035  1.5014  0.2715  0.6183
 8435SOL     OW36766   3.660   2.375   3.957  0.0740 -0.4436 -0.7317
 8435SOL    HW136767   3.593   2.442   3.941  0.5323  0.3848  0.8194
 8435SOL    HW236768   3.617   2.306   4.009  0.4010 -1.3769 -1.7003
 8436SOL     OW36769   1.576   4.300  17.115 -0.0093 -0.0117 -0.1344
 8436SOL    HW136770   1.584   4.264  17.027  1.1649 -1.2461  0.4824
 8436SOL    HW236771   1.648   4.362  17.105 -1.6369  1.8388 -0.3187
 8437SOL     OW36772   3.365   3.336   2.692 -0.0948  0.3208 -0.3665
 8437SOL    HW136773   3.448   3.383   2.697  0.8985 -1.5222  0.3207
 8437SOL    HW236774   3.306   3.410   2.710 -1.3145 -1.5858  3.5058
 8438SOL     OW36775   4.574   2.975  13.027 -0.1857 -0.4779  0.3577
 8438SOL    HW136776   4.515   2.900  13.023  1.4909 -1.6660 -1.9458
 8438SOL    HW236777   4.652   2.921  13.021  1.5627  2.0484  0.4978
 8439SOL     OW36778   2.659   0.443   4.514 -0.1627 -0.2050  0.2287
 8439SOL    HW136779   2.626   0.502   4.581  0.2782  0.5517 -0.2146
 8439SOL    HW236780   2.751   0.449   4.542  0.5935  1.7227 -2.6062
 8440SOL     OW36781   1.662   3.408   7.526  0.0830  0.3043 -0.0802
 8440SOL    HW136782   1.731   3.375   7.583  0.2342  0.3898 -0.2152
 8440SOL    HW236783   1.631   3.331   7.479 -1.9081  0.5190  0.8779
 8441SOL     OW36784   3.630   0.277   6.062  0.1112 -0.1713  0.0421
 8441SOL    HW136785   3.709   0.239   6.024  0.6605  0.1567  0.8530
 8441SOL    HW236786   3.670   0.363   6.079 -0.0077 -0.2968  0.9653
 8442SOL     OW36787   0.773   3.689  11.285 -0.9280  0.2052 -0.1586
 8442SOL    HW136788   0.817   3.637  11.218 -1.0817  0.3967 -0.4060
 8442SOL    HW236789   0.830   3.765  11.287  1.5190 -1.5764 -2.9977
 8443SOL     OW36790   1.426   1.234   8.472  0.2676  0.0110 -0.2483
 8443SOL    HW136791   1.404   1.163   8.533  1.1414  0.5403  0.6931
 8443SOL    HW236792   1.509   1.206   8.434 -0.5204 -0.9913 -1.2131
 8444SOL     OW36793   2.749   0.706   5.419 -0.4449  0.2821 -0.4139
 8444SOL    HW136794   2.764   0.694   5.326 -0.6045  1.2720 -0.5672
 8444SOL    HW236795   2.777   0.797   5.428  0.9648 -0.2039  0.0070
 8445SOL     OW36796   1.879   0.780   8.083  0.0962  0.5461 -0.4951
 8445SOL    HW136797   1.874   0.737   7.998 -1.4435  0.8737 -0.5710
 8445SOL    HW236798   1.791   0.817   8.085  0.2660  0.8729  0.8845
 8446SOL     OW36799   4.644   0.479   5.630 -0.6384  0.1631 -0.4469
 8446SOL    HW136800   4.656   0.556   5.575  1.4117 -0.1373 -0.4168
 8446SOL    HW236801   4.550   0.466   5.625 -0.6320 -0.5526  1.2314
 8447SOL     OW36802   1.063   3.875   9.034 -0.0935  0.2815  0.2643
 8447SOL    HW136803   1.081   3.792   9.077 -0.0791 -0.6344 -1.5089
 8447SOL    HW236804   1.145   3.924   9.038  0.6680 -1.0111  0.3481
 8448SOL     OW36805   3.752   4.631  12.163 -0.2975 -0.2615  0.1172
 8448SOL    HW136806   3.678   4.676  12.204  0.9533  0.5602  1.4909
 8448SOL    HW236807   3.730   4.638  12.070 -0.8099  0.3935  0.2861
 8449SOL     OW36808   1.679   3.849   5.656  0.0285  0.3694  0.0422
 8449SOL    HW136809   1.632   3.801   5.588  1.0011 -1.6849  0.8311
 8449SOL    HW236810   1.684   3.776   5.717  1.0050 -0.4218 -0.9736
 8450SOL     OW36811   2.615   0.320   3.146 -1.0209  0.2533 -0.2531
 8450SOL    HW136812   2.602   0.384   3.217 -0.7714  2.4614 -2.2001
 8450SOL    HW236813   2.707   0.343   3.133 -0.5334 -0.2743  2.2785
 8451SOL     OW36814   3.343   3.508   5.031  0.1282 -0.8772  0.4858
 8451SOL    HW136815   3.286   3.439   4.996 -0.4916 -0.0377 -0.1540
 8451SOL    HW236816   3.423   3.497   4.979  1.2076  0.4442  1.8791
 8452SOL     OW36817   3.372   2.052   3.153 -0.5680 -0.2780  0.1377
 8452SOL    HW136818   3.447   2.111   3.159  0.2048 -1.1260 -1.1647
 8452SOL    HW236819   3.402   1.970   3.192 -0.2539 -0.1404  0.1842
 8453SOL     OW36820   4.681   2.158  13.726  0.3687  0.3223 -0.4145
 8453SOL    HW136821   4.701   2.102  13.651  1.2976 -1.5140  1.2282
 8453SOL    HW236822   4.595   2.123  13.750  0.8467 -1.8693 -1.9047
 8454SOL     OW36823   3.363   1.167   1.475 -0.0247  0.2747 -0.2156
 8454SOL    HW136824   3.435   1.154   1.413 -0.0146 -0.7735  0.0173
 8454SOL    HW236825   3.410   1.146   1.556  0.7948 -0.7520 -0.9558
 8455SOL     OW36826   2.503   3.432  11.803 -0.0887  0.1491  0.6287
 8455SOL    HW136827   2.494   3.338  11.788 -0.7179  0.2291  0.5184
 8455SOL    HW236828   2.515   3.453  11.710  3.3934 -1.7771  0.6436
 8456SOL     OW36829   0.566   2.471   5.464  0.0254 -0.6398 -0.1707
 8456SOL    HW136830   0.507   2.538   5.429  1.9580  0.4070 -1.4338
 8456SOL    HW236831   0.594   2.416   5.391 -1.8763 -1.3747 -0.3374
 8457SOL     OW36832   0.567   3.466  14.528 -0.0527 -0.3670  0.1666
 8457SOL    HW136833   0.559   3.524  14.452 -0.0696 -1.5834 -0.7571
 8457SOL    HW236834   0.476   3.437  14.529 -0.0990 -0.2742 -1.0368
 8458SOL     OW36835   3.688   2.791   2.802  0.1439 -0.0667 -0.5711
 8458SOL    HW136836   3.601   2.831   2.793 -0.1067 -0.8756 -1.8331
 8458SOL    HW236837   3.715   2.832   2.884  0.6835 -2.6846  0.5514
 8459SOL     OW36838   2.519   3.268   4.725  0.2626  0.4536  0.0023
 8459SOL    HW136839   2.517   3.332   4.654 -0.1670  1.6822  1.1186
 8459SOL    HW236840   2.614   3.262   4.731  0.4235  1.4535 -1.5820
 8460SOL     OW36841   3.316   4.451   1.327 -0.3529 -0.5463  0.1039
 8460SOL    HW136842   3.274   4.432   1.411 -1.5501  0.8859 -0.1559
 8460SOL    HW236843   3.305   4.362   1.294 -0.5870 -0.7772  0.8185
 8461SOL     OW36844   2.999   4.470   2.765  0.1978  0.3537 -0.2543
 8461SOL    HW136845   2.998   4.499   2.673  0.1549 -1.1536 -0.7220
 8461SOL    HW236846   2.930   4.527   2.801  1.6352  1.1160  1.2367
 8462SOL     OW36847   2.017   2.377   3.828 -0.2730 -0.5004  0.1727
 8462SOL    HW136848   2.067   2.449   3.867  3.6129 -2.1580 -1.7985
 8462SOL    HW236849   2.015   2.316   3.901  0.8589  0.5309  1.0554
 8463SOL     OW36850   3.069   1.112  13.552  0.0096 -0.1977 -0.0401
 8463SOL    HW136851   3.082   1.062  13.632  0.6353  1.3892  0.8421
 8463SOL    HW236852   3.148   1.165  13.541 -1.1119  1.5632  0.4499
 8464SOL     OW36853   2.933   4.065   8.841  0.2071  0.4790  0.2669
 8464SOL    HW136854   2.987   4.091   8.916 -1.5469  0.0199  1.6979
 8464SOL    HW236855   2.852   4.069   8.892  0.9775  0.0524  1.5248
 8465SOL     OW36856   0.265   1.012   7.954  0.1819  0.5906 -0.5196
 8465SOL    HW136857   0.275   1.086   8.015 -2.5085  2.0814 -1.8867
 8465SOL    HW236858   0.323   0.944   7.989 -0.9772  0.8595  1.9140
 8466SOL     OW36859   2.962   4.339   5.424 -0.0860  0.4964  0.1744
 8466SOL    HW136860   2.908   4.405   5.381 -0.7978  0.0949  0.4458
 8466SOL    HW236861   3.042   4.342   5.372  0.6302 -1.5226  1.1470
 8467SOL     OW36862   2.609   1.840   9.091 -0.1764  0.0986  0.2046
 8467SOL    HW136863   2.699   1.833   9.125 -0.2265  0.1509  0.3462
 8467SOL    HW236864   2.581   1.928   9.113  0.1728  0.1566  0.4208
 8468SOL     OW36865   3.368   3.332   3.085  0.0859 -0.7993  0.4033
 8468SOL    HW136866   3.334   3.419   3.065  0.1608 -1.0597 -0.8243
 8468SOL    HW236867   3.298   3.278   3.048 -1.2503  0.3486  1.2571
 8469SOL     OW36868   4.071   4.706   5.796  0.6851 -0.1774  0.0342
 8469SOL    HW136869   4.046   4.675   5.883  2.2868  2.6297  1.4789
 8469SOL    HW236870   3.987   4.718   5.752  1.1054 -0.0248 -0.7260
 8470SOL     OW36871   1.393   1.518   3.893  0.3240  0.4988  0.0032
 8470SOL    HW136872   1.430   1.598   3.929  2.3099 -0.4742  0.1288
 8470SOL    HW236873   1.373   1.461   3.967 -0.0647  2.6598  1.5756
 8471SOL     OW36874   0.768   2.371   2.746 -0.1875 -0.7457  0.3256
 8471SOL    HW136875   0.718   2.449   2.770  2.9703  2.1507 -2.5662
 8471SOL    HW236876   0.731   2.364   2.658 -0.7478 -0.5476  0.5519
 8472SOL     OW36877   1.362   3.079   5.198  0.4528  0.5232 -0.1890
 8472SOL    HW136878   1.386   3.150   5.258  1.8730 -1.5001  1.6265
 8472SOL    HW236879   1.362   3.126   5.115  0.1407 -0.4985 -0.7705
 8473SOL     OW36880   0.124   4.187   8.775  0.0229  0.5688  0.4066
 8473SOL    HW136881   0.168   4.215   8.855  0.3183 -1.0884  0.8241
 8473SOL    HW236882   0.036   4.185   8.812 -0.2270 -3.4779 -0.3064
 8474SOL     OW36883   1.019   4.367  15.049 -0.6537  0.2153  0.0706
 8474SOL    HW136884   1.011   4.432  14.979 -1.3619 -0.4998 -0.5111
 8474SOL    HW236885   0.926   4.366  15.072 -0.3151 -1.1859  1.3506
 8475SOL     OW36886   2.454   1.458   7.650  0.5125 -0.1297 -0.0567
 8475SOL    HW136887   2.410   1.441   7.566  0.0225 -0.3583  0.2433
 8475SOL    HW236888   2.540   1.423   7.627  0.2485 -0.8742  0.1016
 8476SOL     OW36889   2.746   1.831   5.127 -0.0097  0.4564 -0.0646
 8476SOL    HW136890   2.816   1.816   5.191  0.0452 -0.9661 -0.4482
 8476SOL    HW236891   2.666   1.849   5.176 -0.2374 -4.8038  1.5264
 8477SOL     OW36892   0.517   0.480  13.109 -0.5075 -0.0502 -0.4476
 8477SOL    HW136893   0.464   0.553  13.141  1.0763  0.2527  1.5178
 8477SOL    HW236894   0.587   0.535  13.073 -3.0613  4.5722  1.6373
 8478SOL     OW36895   4.288   4.510   4.629  0.2396 -0.2606 -0.2101
 8478SOL    HW136896   4.255   4.582   4.683 -0.3318 -0.8009  0.1690
 8478SOL    HW236897   4.383   4.517   4.639  0.4637 -0.5252 -2.2505
 8479SOL     OW36898   0.856   4.292   4.099 -0.2247  0.4359 -0.3047
 8479SOL    HW136899   0.924   4.246   4.050  2.2438  2.4298  1.1672
 8479SOL    HW236900   0.884   4.384   4.096  0.8233  0.1352  0.0017
 8480SOL     OW36901   1.954   2.548   6.050  0.0152 -0.1408  0.2905
 8480SOL    HW136902   1.944   2.640   6.028 -1.1931 -0.4659 -0.5347
 8480SOL    HW236903   1.976   2.561   6.142 -0.7479 -1.0611  0.6103
 8481SOL     OW36904   2.459   1.397  17.581 -0.2605 -0.8299  0.0436
 8481SOL    HW136905   2.534   1.342  17.604  0.6227  1.2425  2.1774
 8481SOL    HW236906   2.490   1.433  17.498 -0.9647  0.1847  0.2270
 8482SOL     OW36907   2.625   3.466   8.988  0.4544 -0.1428 -0.1292
 8482SOL    HW136908   2.705   3.426   9.021 -0.2250 -1.3676  0.0046
 8482SOL    HW236909   2.588   3.517   9.060 -1.0141  0.4037 -1.2542
 8483SOL     OW36910   1.413   3.106   7.963 -0.1881  0.2681  0.2561
 8483SOL    HW136911   1.439   3.027   8.010  0.6061 -0.6170 -1.6457
 8483SOL    HW236912   1.490   3.114   7.906 -0.5388  1.2808 -0.0744
 8484SOL     OW36913   4.359   1.147   0.751  0.1381 -0.5129 -0.7247
 8484SOL    HW136914   4.429   1.087   0.777 -1.5167 -1.5580  1.2931
 8484SOL    HW236915   4.398   1.218   0.700  0.5870  1.0223  1.7329
 8485SOL     OW36916   0.231   0.220   4.452 -0.6414 -0.1470 -0.6183
 8485SOL    HW136917   0.308   0.190   4.404 -0.2170  0.5508 -0.3653
 8485SOL    HW236918   0.261   0.307   4.478  0.1067 -0.3474 -0.8028
 8486SOL     OW36919   2.715   0.983  17.332  0.1585  0.2639  0.1127
 8486SOL    HW136920   2.652   1.056  17.329 -0.5075 -0.3345 -0.6054
 8486SOL    HW236921   2.791   1.031  17.364 -0.0041 -1.2884  2.8311
 8487SOL     OW36922   2.707   1.177   9.117  0.1607 -0.1506  0.1324
 8487SOL    HW136923   2.748   1.143   9.196  0.8356 -0.4591 -0.3562
 8487SOL    HW236924   2.717   1.102   9.058  1.0448 -1.6096  2.1547
 8488SOL     OW36925   1.702   2.889   8.198 -0.8456  0.1648  0.4309
 8488SOL    HW136926   1.670   2.889   8.288 -3.2920 -0.8491 -0.4346
 8488SOL    HW236927   1.616   2.865   8.164 -0.6514  0.3743 -0.2063
 8489SOL     OW36928   0.571   3.799   8.450 -0.1691  0.2071  0.1044
 8489SOL    HW136929   0.649   3.801   8.505 -0.7379  0.2030  0.9157
 8489SOL    HW236930   0.508   3.797   8.523 -0.4153  1.5336 -0.0676
 8490SOL     OW36931   1.084   3.203   2.838 -1.0743  0.3415  0.1905
 8490SOL    HW136932   1.161   3.149   2.820 -1.3962  0.3977 -1.3436
 8490SOL    HW236933   1.024   3.157   2.779 -2.3772  1.9563  0.2522
 8491SOL     OW36934   2.187   4.651   5.477 -0.1988  0.0468  0.1971
 8491SOL    HW136935   2.194   0.004   5.420 -1.3377 -0.4936 -0.6572
 8491SOL    HW236936   2.225   4.683   5.559  0.0923  0.2791 -0.0296
 8492SOL     OW36937   4.029   4.562  10.947 -0.3871  0.3261 -0.5391
 8492SOL    HW136938   4.082   4.594  11.019 -2.3232  1.1206  0.5492
 8492SOL    HW236939   4.015   4.471  10.972  1.6533  0.0782 -0.3314
 8493SOL     OW36940   0.414   4.217   8.636 -0.0961  0.2915  0.4864
 8493SOL    HW136941   0.490   4.232   8.692  0.4406  1.5445 -0.5715
 8493SOL    HW236942   0.343   4.178   8.687  1.4130  1.0549  3.2003
 8494SOL     OW36943   3.534   0.941   3.303 -0.2538  0.2976 -0.4831
 8494SOL    HW136944   3.519   1.001   3.230  0.5666  1.3130  0.1744
 8494SOL    HW236945   3.541   1.006   3.373 -1.2415  0.8528 -0.8980
 8495SOL     OW36946   4.225   1.401   6.220  0.4369 -0.2793  0.1729
 8495SOL    HW136947   4.151   1.461   6.216  0.4601 -0.3531 -1.5700
 8495SOL    HW236948   4.214   1.353   6.302 -0.0102 -0.9077 -0.2544
 8496SOL     OW36949   4.671   4.642  17.135 -0.1215 -0.6169 -0.6159
 8496SOL    HW136950   4.596   4.596  17.172 -0.7763  1.9567  1.2431
 8496SOL    HW236951   0.014   4.610  17.195 -1.9749 -0.3753  1.5525
 8497SOL     OW36952   4.334   2.597   9.575 -0.4169 -0.4933  0.8100
 8497SOL    HW136953   4.353   2.549   9.494  1.1673  2.8697 -0.7825
 8497SOL    HW236954   4.406   2.574   9.634  0.0684 -1.1610 -0.0505
 8498SOL     OW36955   2.708   1.471  11.489  0.2101  0.2951  0.2010
 8498SOL    HW136956   2.684   1.395  11.436 -0.4207  0.4292  0.3040
 8498SOL    HW236957   2.716   1.536  11.419 -0.5810 -0.5187 -0.6328
 8499SOL     OW36958   3.959   3.272   7.620 -0.0377  0.1156 -0.1530
 8499SOL    HW136959   3.915   3.219   7.687 -0.1909 -1.8416 -1.7989
 8499SOL    HW236960   3.904   3.279   7.542  2.5195 -0.4288 -1.9869
 8500SOL     OW36961   4.722   2.634   8.209  0.3173  0.0837 -0.0583
 8500SOL    HW136962   0.011   2.667   8.298  0.3100 -2.4299  0.8991
 8500SOL    HW236963   0.086   2.599   8.194  0.7057 -0.1658  2.8758
 8501SOL     OW36964   3.970   0.121   3.115 -0.0531 -0.0186  0.4525
 8501SOL    HW136965   3.989   0.187   3.182 -0.7551  1.3931 -0.7480
 8501SOL    HW236966   4.057   0.117   3.076 -0.5658  2.5820 -0.9814
 8502SOL     OW36967   1.046   0.779  14.976 -0.3539  0.2673 -0.0402
 8502SOL    HW136968   1.039   0.754  15.068  0.3118 -0.7608 -0.2721
 8502SOL    HW236969   1.141   0.769  14.968 -0.2644  1.6544 -0.7726
 8503SOL     OW36970   3.317   2.834   7.386 -0.6003 -0.1326 -0.6200
 8503SOL    HW136971   3.358   2.915   7.357 -0.3221 -1.1373 -3.0437
 8503SOL    HW236972   3.266   2.870   7.459 -0.3757 -0.2361 -0.4132
 8504SOL     OW36973   3.564   3.235   0.810 -0.3301  0.0527  0.1439
 8504SOL    HW136974   3.632   3.285   0.856  1.6415  0.1464 -2.8644
 8504SOL    HW236975   3.546   3.178   0.885  1.0016 -2.1831 -1.2495
 8505SOL     OW36976   0.039   2.036   5.114 -0.3722 -0.5977  0.6079
 8505SOL    HW136977   0.017   1.951   5.151 -0.3274 -1.4650 -1.3146
 8505SOL    HW236978   0.117   2.021   5.061 -0.8454  0.3688 -0.3676
 8506SOL     OW36979   2.795   0.064   8.968 -0.1828 -0.1159 -0.2725
 8506SOL    HW136980   2.768   4.697   8.985  1.8001 -0.5800  0.3416
 8506SOL    HW236981   2.735   0.119   9.018  0.6086  1.0800 -0.6625
 8507SOL     OW36982   2.492   3.414   2.720  0.2637  0.0566 -0.2666
 8507SOL    HW136983   2.427   3.484   2.732  1.1507  0.7343  0.5979
 8507SOL    HW236984   2.570   3.457   2.755  0.4537  0.3209 -1.0126
 8508SOL     OW36985   0.016   3.323   1.334 -0.6255  0.3647 -0.4613
 8508SOL    HW136986   4.667   3.340   1.394  0.2785  0.3383  0.6445
 8508SOL    HW236987   4.705   3.360   1.253 -1.0232 -3.0544 -1.8539
 8509SOL     OW36988   2.545   1.576  11.703  0.0465 -0.2363  0.4494
 8509SOL    HW136989   2.514   1.515  11.769  2.3495 -0.9573  0.8536
 8509SOL    HW236990   2.570   1.513  11.636  1.6292  0.3013  0.5197
 8510SOL     OW36991   2.555   3.661   3.080  0.4045  0.3448 -0.1214
 8510SOL    HW136992   2.544   3.566   3.073  0.9302  0.0926  2.6850
 8510SOL    HW236993   2.513   3.692   3.000 -0.8495  0.1553  0.4666
 8511SOL     OW36994   0.516   0.197   3.364  0.1304  0.4646 -0.2435
 8511SOL    HW136995   0.528   0.245   3.446  0.9747 -0.3213  0.1021
 8511SOL    HW236996   0.597   0.153   3.336  0.4923  0.0254  1.4840
 8512SOL     OW36997   3.376   2.250  15.317  0.3908  0.4837 -0.5848
 8512SOL    HW136998   3.336   2.334  15.340  0.2049  0.2451 -0.0304
 8512SOL    HW236999   3.456   2.273  15.270  0.6599  2.3099  0.7684
 8513SOL     OW37000   3.017   3.914   2.603 -0.2076 -0.4266 -0.0989
 8513SOL    HW137001   2.994   3.934   2.512 -0.6562  0.9048  0.3010
 8513SOL    HW237002   3.059   3.998   2.620  2.8346 -3.1790  5.8224
 8514SOL     OW37003   4.542   1.798  15.585 -0.3878 -0.0239 -0.3298
 8514SOL    HW137004   4.562   1.886  15.617 -2.0103 -0.5249  2.0511
 8514SOL    HW237005   4.474   1.825  15.523 -1.2254  0.2054  0.6932
 8515SOL     OW37006   0.721   1.860   3.399 -0.0750  0.1508 -0.8010
 8515SOL    HW137007   0.707   1.826   3.310 -1.7800 -1.4251  0.0727
 8515SOL    HW237008   0.817   1.853   3.404 -0.4196 -2.6159  1.9255
 8516SOL     OW37009   0.266   3.725   7.845  0.0525  0.2423 -0.3135
 8516SOL    HW137010   0.226   3.797   7.797  1.5626  2.9606  2.4658
 8516SOL    HW237011   0.353   3.718   7.807 -0.1945  1.9541 -1.1983
 8517SOL     OW37012   3.836   3.623   7.868  0.3718 -0.0685 -0.2732
 8517SOL    HW137013   3.791   3.544   7.898 -0.3965 -0.0775 -1.4368
 8517SOL    HW237014   3.926   3.594   7.882  0.4516 -0.8497 -2.4085
 8518SOL     OW37015   0.045   3.409   6.222 -0.4059  0.5185  0.5592
 8518SOL    HW137016   0.097   3.442   6.148 -1.9668 -0.1430 -0.8281
 8518SOL    HW237017   0.081   3.468   6.288  2.5149  0.2397 -0.7884
 8519SOL     OW37018   2.911   1.176   3.028 -0.0929  0.7630  0.0717
 8519SOL    HW137019   2.825   1.138   3.016  0.2701 -0.3831  1.2282
 8519SOL    HW237020   2.894   1.267   3.003  1.3623  1.3943  1.3537
 8520SOL     OW37021   2.815   0.740  12.250 -0.1421  0.2830  0.2103
 8520SOL    HW137022   2.893   0.779  12.210  1.8571 -1.7926  2.0932
 8520SOL    HW237023   2.740   0.789  12.217  0.9946  0.2756 -2.4210
 8521SOL     OW37024   3.494   0.436   4.038 -0.2335  0.2711  0.0476
 8521SOL    HW137025   3.407   0.448   3.999 -0.3627  0.8801  0.5194
 8521SOL    HW237026   3.548   0.461   3.963 -0.1837 -1.0647 -0.3526
 8522SOL     OW37027   0.707   4.415   2.182 -0.8292 -0.3342  0.4860
 8522SOL    HW137028   0.640   4.361   2.142 -1.0831 -0.8296  1.5713
 8522SOL    HW237029   0.659   4.429   2.264  1.8305 -0.4637  2.0594
 8523SOL     OW37030   0.595   3.462   5.118 -0.6900  0.1681 -0.1264
 8523SOL    HW137031   0.683   3.443   5.152  0.0335  0.7889 -1.6748
 8523SOL    HW237032   0.615   3.460   5.025  1.7767 -1.6116  0.4311
 8524SOL     OW37033   2.143   0.030   0.091 -0.3354  0.0313  0.0800
 8524SOL    HW137034   2.175   4.690   0.028  0.3130  1.9067 -1.4764
 8524SOL    HW237035   2.086   4.699   0.145  1.7038 -2.2155 -0.0677
 8525SOL     OW37036   3.678   2.960  14.336  0.0218 -0.2306 -0.1588
 8525SOL    HW137037   3.617   2.887  14.331 -0.1770  0.0718 -2.1550
 8525SOL    HW237038   3.667   3.014  14.257  2.4368  0.9617  0.3183
 8526SOL     OW37039   0.863   3.013   7.034 -0.8805  0.4043 -0.2167
 8526SOL    HW137040   0.950   3.002   7.072  0.4060 -0.4710 -3.3935
 8526SOL    HW237041   0.827   3.054   7.112  1.1787 -0.5730  1.2364
 8527SOL     OW37042   2.485   1.612  10.484  0.2230  0.4263 -0.3349
 8527SOL    HW137043   2.437   1.531  10.466  1.3204  0.0257 -1.4661
 8527SOL    HW237044   2.561   1.584  10.534  0.6153 -1.2919 -1.8852
 8528SOL     OW37045   2.803   3.815   1.346  0.2030 -0.1251 -0.7631
 8528SOL    HW137046   2.784   3.815   1.440  2.6521 -0.7681 -0.2559
 8528SOL    HW237047   2.835   3.725   1.334  2.3205  0.4913  0.1324
 8529SOL     OW37048   0.243   0.541   3.475  0.5304  0.2346 -0.3145
 8529SOL    HW137049   0.199   0.625   3.463  1.1014  0.8944  2.1831
 8529SOL    HW237050   0.297   0.556   3.397  0.5902 -0.3982 -0.3973
 8530SOL     OW37051   2.295   0.846   7.899  0.0421 -0.5551  0.1249
 8530SOL    HW137052   2.211   0.830   7.855  0.1777 -2.7476  0.6851
 8530SOL    HW237053   2.313   0.753   7.914  0.5118 -0.5476 -0.3928
 8531SOL     OW37054   4.432   2.524   3.101 -0.5300 -0.1912 -0.4683
 8531SOL    HW137055   4.499   2.556   3.041 -1.1005  2.7111  0.4218
 8531SOL    HW237056   4.370   2.595   3.084  1.5474  1.3545 -1.5473
 8532SOL     OW37057   1.991   4.416   8.802 -0.6034 -0.6230 -0.1971
 8532SOL    HW137058   1.989   4.497   8.752 -1.4855 -1.3265 -1.3231
 8532SOL    HW237059   1.975   4.436   8.894  2.3793  1.4637 -0.1189
 8533SOL     OW37060   4.012   3.664   6.411  0.1533  0.2956 -0.2669
 8533SOL    HW137061   4.015   3.580   6.456  2.5078  0.9013  0.7092
 8533SOL    HW237062   3.957   3.709   6.474  1.7801  3.3338 -1.0280
 8534SOL     OW37063   0.934   1.026   3.405  0.1597  0.3865  0.4438
 8534SOL    HW137064   0.870   1.054   3.471  1.2212  1.6581  0.9225
 8534SOL    HW237065   0.906   1.076   3.328 -3.8190 -1.1604  0.8586
 8535SOL     OW37066   2.229   1.948   5.176 -0.0925  0.5050  0.4777
 8535SOL    HW137067   2.158   1.945   5.112  0.6882 -1.9732 -0.2351
 8535SOL    HW237068   2.176   1.966   5.254  1.5322  0.7927  1.5151
 8536SOL     OW37069   2.095   3.168   4.447 -0.2517  0.0624 -0.2137
 8536SOL    HW137070   2.144   3.100   4.401  1.6174  0.9255  0.4905
 8536SOL    HW237071   2.063   3.119   4.523 -1.6058  0.2263 -0.6777
 8537SOL     OW37072   3.064   0.366  10.953 -0.2888  0.4443 -0.0096
 8537SOL    HW137073   3.129   0.295  10.950 -0.5989  0.2056 -0.9103
 8537SOL    HW237074   3.059   0.377  11.048 -0.5220  0.5125 -0.0297
 8538SOL     OW37075   4.409   2.969   8.574 -0.3493 -0.1786 -0.0126
 8538SOL    HW137076   4.420   3.064   8.576  0.3867 -0.1095 -5.6388
 8538SOL    HW237077   4.391   2.950   8.482 -0.1815 -0.9371  0.1089
 8539SOL     OW37078   1.891   0.372   7.729 -0.0689  0.2293 -0.2777
 8539SOL    HW137079   1.812   0.339   7.771  0.4574  0.3389  0.7775
 8539SOL    HW237080   1.909   0.295   7.675  3.0939 -0.1444  1.3156
 8540SOL     OW37081   4.531   4.474  13.758  0.0708 -0.2905 -0.5521
 8540SOL    HW137082   4.453   4.433  13.795  0.3609 -2.4235 -2.2391
 8540SOL    HW237083   4.495   4.532  13.690  2.9671  2.7837  0.5624
 8541SOL     OW37084   0.216   1.608   7.109 -0.1454  0.0146  0.5652
 8541SOL    HW137085   0.156   1.534   7.116 -0.0138 -0.1092  0.3871
 8541SOL    HW237086   0.152   1.662   7.062  0.6162 -0.6179 -1.2257
 8542SOL     OW37087   2.442   4.128   1.748 -0.4441  0.1068 -0.1589
 8542SOL    HW137088   2.373   4.063   1.746  0.0232 -0.4194  0.9495
 8542SOL    HW237089   2.454   4.154   1.839  0.1070 -0.9335  0.0621
 8543SOL     OW37090   4.318   1.011   6.173 -0.2369 -0.2195  0.3408
 8543SOL    HW137091   4.374   1.066   6.119  0.0988 -1.0933 -0.2084
 8543SOL    HW237092   4.261   0.994   6.098  0.8789 -2.9230  0.1111
 8544SOL     OW37093   1.496   1.682  13.090  0.0765  0.2813 -0.7368
 8544SOL    HW137094   1.457   1.760  13.129  1.0297  0.2052  0.3439
 8544SOL    HW237095   1.546   1.653  13.166  0.7584 -1.0317 -1.6846
 8545SOL     OW37096   1.290   4.134   7.356  0.9886 -0.3795 -0.1698
 8545SOL    HW137097   1.244   4.070   7.302  1.4550  0.6311 -1.7684
 8545SOL    HW237098   1.322   4.188   7.283  0.8062  3.0884  2.3130
 8546SOL     OW37099   1.071   1.721  11.987 -0.0388 -0.3282  0.2726
 8546SOL    HW137100   1.029   1.767  12.060 -2.7256  0.8270 -2.0148
 8546SOL    HW237101   1.163   1.732  12.012  0.7245  0.2006 -2.8080
 8547SOL     OW37102   0.371   1.302  14.880  0.2155 -0.1495 -0.2343
 8547SOL    HW137103   0.408   1.329  14.965  0.7285 -0.3682 -0.3892
 8547SOL    HW237104   0.350   1.210  14.896  0.8191 -0.4597 -1.3032
 8548SOL     OW37105   3.665   2.262  13.905 -0.2158 -0.3149  0.3797
 8548SOL    HW137106   3.610   2.323  13.955 -0.3890 -0.2069  0.0579
 8548SOL    HW237107   3.713   2.223  13.977  1.0055 -0.8677 -0.7511
 8549SOL     OW37108   0.155   4.530   2.380 -0.4678 -0.6244 -0.0176
 8549SOL    HW137109   0.162   4.441   2.346 -1.6282 -0.8877  0.4075
 8549SOL    HW237110   0.095   4.520   2.454  0.3848 -1.3278  0.5765
 8550SOL     OW37111   0.076   3.573   0.625 -0.8348  0.4739  0.7254
 8550SOL    HW137112   0.053   3.658   0.663  0.6289  1.4915 -0.6614
 8550SOL    HW237113   0.082   3.510   0.697  1.7759 -0.6447 -0.4741
 8551SOL     OW37114   2.481   0.829  13.927 -0.0661 -0.1175  0.2859
 8551SOL    HW137115   2.451   0.836  13.836 -0.1546 -1.2658  0.2195
 8551SOL    HW237116   2.396   0.862  13.958 -0.3152 -1.9499  1.6161
 8552SOL     OW37117   1.177   4.043   4.790  0.0417  0.2743  0.1457
 8552SOL    HW137118   1.251   4.006   4.838  0.4569 -0.1429 -0.8160
 8552SOL    HW237119   1.144   4.100   4.859  0.7877  1.5997 -0.5956
 8553SOL     OW37120   3.014   4.579   6.143  0.0767 -0.3785 -0.5537
 8553SOL    HW137121   3.080   4.647   6.154  0.9132 -1.4850  1.3036
 8553SOL    HW237122   2.953   4.596   6.214 -0.0059 -1.2859 -0.4080
 8554SOL     OW37123   3.470   3.555   9.791  0.2357 -0.0641 -0.2802
 8554SOL    HW137124   3.434   3.638   9.822 -0.3470  0.2618 -1.8805
 8554SOL    HW237125   3.400   3.531   9.730 -1.5537 -1.3064  2.2217
 8555SOL     OW37126   0.508   3.342   7.104 -0.5240 -0.0112  0.2516
 8555SOL    HW137127   0.420   3.356   7.139 -0.9935 -0.6789 -0.6830
 8555SOL    HW237128   0.522   3.250   7.125  0.0548  0.0389  0.0808
 8556SOL     OW37129   2.406   3.675  12.526  0.6275  0.2737  0.4814
 8556SOL    HW137130   2.399   3.770  12.522  1.6828  0.3841  1.1054
 8556SOL    HW237131   2.376   3.662  12.437 -0.2430  0.8479  0.6930
 8557SOL     OW37132   3.717   0.383   8.594 -0.3743 -0.1743 -0.2641
 8557SOL    HW137133   3.800   0.419   8.562 -0.6206  1.6670  1.2131
 8557SOL    HW237134   3.670   0.462   8.619 -1.3782 -1.3853  1.6643
 8558SOL     OW37135   3.451   0.714   5.555 -0.2553 -0.3464 -0.2689
 8558SOL    HW137136   3.408   0.698   5.639 -0.0129  1.6698  0.2386
 8558SOL    HW237137   3.483   0.803   5.570 -0.7264 -0.0205 -1.1553
 8559SOL     OW37138   2.845   3.953   1.038 -0.5755 -0.7243 -0.2113
 8559SOL    HW137139   2.847   3.978   0.946  0.6662  1.0536  0.3126
 8559SOL    HW237140   2.754   3.965   1.062 -0.7097 -2.2217  0.0801
 8560SOL     OW37141   4.648   0.102   7.841 -0.3606  0.1285  0.2538
 8560SOL    HW137142   4.600   0.139   7.914 -1.4380 -2.1695  0.6910
 8560SOL    HW237143   0.003   0.153   7.858  0.2202 -0.8163  0.4233
 8561SOL     OW37144   3.848   1.973   0.632  0.4638  0.0917  0.2150
 8561SOL    HW137145   3.873   2.046   0.689 -0.0444  0.5874 -0.1930
 8561SOL    HW237146   3.927   1.969   0.577 -0.0190 -0.1490 -0.4531
 8562SOL     OW37147   3.653   1.865   7.341  0.3103 -0.0792  0.3173
 8562SOL    HW137148   3.671   1.956   7.363  1.3515 -0.0608 -0.5935
 8562SOL    HW237149   3.578   1.881   7.283  1.4510  2.1286 -0.5375
 8563SOL     OW37150   2.008   1.594   8.854 -0.4406 -0.4226  0.0788
 8563SOL    HW137151   2.008   1.502   8.827 -3.8676  0.3141 -2.4961
 8563SOL    HW237152   1.924   1.624   8.817 -0.9246 -2.7147 -0.6889
 8564SOL     OW37153   2.331   0.504  17.609 -0.1608 -0.0175  0.3499
 8564SOL    HW137154   2.408   0.560  17.603 -0.2349  0.0688  0.1684
 8564SOL    HW237155   2.373   0.421  17.630  3.1718  1.0887 -1.9008
 8565SOL     OW37156   1.055   3.705   4.398 -0.7458 -0.2552 -0.3232
 8565SOL    HW137157   0.967   3.726   4.365 -0.0856  0.8698 -1.3599
 8565SOL    HW237158   1.072   3.769   4.467 -0.8178  0.6767 -1.1702
 8566SOL     OW37159   1.734   3.333  12.664 -0.6128  0.2926  0.1956
 8566SOL    HW137160   1.735   3.416  12.616  3.2268 -1.1058 -2.1292
 8566SOL    HW237161   1.657   3.288  12.629  1.0036 -0.5979 -2.1898
 8567SOL     OW37162   0.649   2.580  14.806  0.4989 -0.2039  0.3238
 8567SOL    HW137163   0.681   2.591  14.717 -0.0474  0.3314  0.1872
 8567SOL    HW237164   0.716   2.629  14.854  0.1976 -1.0542  1.6053
 8568SOL     OW37165   4.082   4.415   2.140  0.3172 -0.8309 -0.2334
 8568SOL    HW137166   4.113   4.412   2.231 -0.0029 -0.6041 -0.1191
 8568SOL    HW237167   4.151   4.364   2.097  2.5084  1.0773  0.9665
 8569SOL     OW37168   3.531   4.231   0.144 -0.1097 -1.0411 -0.1083
 8569SOL    HW137169   3.599   4.250   0.079  1.5365 -0.5745  1.7296
 8569SOL    HW237170   3.462   4.199   0.086 -2.8168  1.3702  1.7586
 8570SOL     OW37171   2.352   2.197  13.638  0.7140  0.1754 -0.2312
 8570SOL    HW137172   2.371   2.290  13.651  1.3190  0.3686 -2.4465
 8570SOL    HW237173   2.392   2.158  13.716 -0.5650 -1.3030 -0.3264
 8571SOL     OW37174   3.019   4.185   2.495  0.1255 -0.5020  0.4892
 8571SOL    HW137175   2.971   4.150   2.420 -0.2247  1.4046 -0.1724
 8571SOL    HW237176   2.952   4.239   2.536 -0.5575 -1.3543  0.4830
 8572SOL     OW37177   1.924   4.535   5.812  0.1029 -0.7324 -0.3650
 8572SOL    HW137178   1.888   4.617   5.780  0.0168 -0.0733  1.3947
 8572SOL    HW237179   2.018   4.535   5.794  0.2105  0.0973  0.2088
 8573SOL     OW37180   0.403   0.239   9.372  0.3560 -0.2258 -0.0634
 8573SOL    HW137181   0.396   0.162   9.316  0.2478 -0.2994  0.0506
 8573SOL    HW237182   0.497   0.228   9.379  0.4023  1.2890  1.8681
 8574SOL     OW37183   2.194   3.569   8.318 -0.0681 -0.3764 -0.2288
 8574SOL    HW137184   2.264   3.626   8.351 -1.7217  1.5632 -0.0814
 8574SOL    HW237185   2.166   3.615   8.240 -0.2084 -0.1496 -0.0448
 8575SOL     OW37186   1.164   1.182   8.703  0.8096  0.7952  0.0340
 8575SOL    HW137187   1.103   1.234   8.651  1.2725  1.3085  0.0040
 8575SOL    HW237188   1.115   1.180   8.785 -1.0238 -1.8635 -1.1324
 8576SOL     OW37189   4.281   0.550   0.585 -0.3011  0.6829 -0.4100
 8576SOL    HW137190   4.371   0.570   0.557 -0.5795  3.0530  0.4085
 8576SOL    HW237191   4.233   0.613   0.531  0.4477  0.5840 -1.2057
 8577SOL     OW37192   1.300   2.721   4.533  0.1235  0.4455 -0.6739
 8577SOL    HW137193   1.263   2.633   4.536  3.2421 -0.8205  1.1961
 8577SOL    HW237194   1.361   2.710   4.607  1.3230  1.3080 -1.5286
 8578SOL     OW37195   1.789   1.751   5.324  0.4590  0.3340 -0.2335
 8578SOL    HW137196   1.726   1.746   5.396 -0.2321  1.2167 -0.7849
 8578SOL    HW237197   1.795   1.846   5.328  0.9738  0.3210 -0.6908
 8579SOL     OW37198   2.316   2.802  15.363 -0.0851  0.7204 -0.2077
 8579SOL    HW137199   2.389   2.749  15.395  0.1886  0.5342 -1.1568
 8579SOL    HW237200   2.251   2.733  15.350 -0.4988  1.2308 -0.8526
 8580SOL     OW37201   0.947   1.255   6.263 -0.2457  0.0629 -0.0310
 8580SOL    HW137202   0.964   1.240   6.170 -0.2252 -0.4843  0.0606
 8580SOL    HW237203   0.852   1.263   6.263 -0.1185  1.7075 -0.8681
 8581SOL     OW37204   3.160   0.874   4.154  0.1991  0.4277  0.2876
 8581SOL    HW137205   3.067   0.858   4.138  0.3067 -0.7341  0.7781
 8581SOL    HW237206   3.174   0.826   4.236  2.9544  2.8201  1.2266
 8582SOL     OW37207   3.796   4.013   4.009  0.3040  0.2877 -0.6203
 8582SOL    HW137208   3.813   3.976   4.095  4.3000  1.8227 -0.7638
 8582SOL    HW237209   3.719   4.069   4.019 -0.1325 -0.5439  0.5897
 8583SOL     OW37210   4.449   2.267   0.878  0.0226  0.1018 -0.3881
 8583SOL    HW137211   4.411   2.355   0.886  2.5867  1.2350 -0.6326
 8583SOL    HW237212   4.397   2.219   0.943  0.0701 -2.1251 -1.9932
 8584SOL     OW37213   1.628   1.530  12.595  0.1808 -0.1550 -0.0274
 8584SOL    HW137214   1.678   1.529  12.677 -0.6132  0.5858  0.4618
 8584SOL    HW237215   1.597   1.620  12.587 -4.1456 -1.7777 -1.3521
 8585SOL     OW37216   4.520   1.460   3.545 -0.3634  0.3626 -0.1566
 8585SOL    HW137217   4.589   1.400   3.519 -0.0320  0.4846  0.4277
 8585SOL    HW237218   4.554   1.509   3.620  1.0219 -0.0802 -0.5027
 8586SOL     OW37219   4.428   3.585   4.554  0.1084  0.1566  0.1548
 8586SOL    HW137220   4.377   3.568   4.633  0.3455  2.9397  0.9359
 8586SOL    HW237221   4.400   3.675   4.536 -1.0796 -0.7069 -2.2079
 8587SOL     OW37222   4.648   0.629   5.211 -0.1016 -0.0573  0.2864
 8587SOL    HW137223   0.008   0.628   5.165  0.4752  1.6549  1.3211
 8587SOL    HW237224   4.675   0.644   5.302  0.1130  0.7122  0.0850
 8588SOL     OW37225   2.089   0.684   0.689 -0.1907 -0.2356  0.1967
 8588SOL    HW137226   2.091   0.763   0.743  1.4811  1.0969 -1.8522
 8588SOL    HW237227   2.012   0.707   0.638  0.9812 -0.8061 -1.8007
 8589SOL     OW37228   1.665   3.755  13.240 -0.2793 -0.2057  0.2649
 8589SOL    HW137229   1.603   3.707  13.185  1.9218 -3.9471  1.0675
 8589SOL    HW237230   1.730   3.788  13.178  0.3796 -2.5564 -0.3164
 8590SOL     OW37231   3.408   1.067  14.183 -0.0836 -0.6040 -0.5834
 8590SOL    HW137232   3.455   1.130  14.127 -0.8564  0.7527  0.2815
 8590SOL    HW237233   3.319   1.074  14.149  0.1194  0.3288 -0.9466
 8591SOL     OW37234   4.284   2.411   8.322 -0.0415 -0.1936  0.1218
 8591SOL    HW137235   4.359   2.464   8.347 -0.2222 -0.1248  0.5275
 8591SOL    HW237236   4.265   2.369   8.406 -0.1134 -2.0229 -0.7987
 8592SOL     OW37237   4.636   4.459   8.634  0.2115  0.5538  0.1990
 8592SOL    HW137238   4.669   4.464   8.724 -0.1173 -0.1500  0.3606
 8592SOL    HW237239   4.547   4.430   8.656 -1.2839  4.6601 -0.5055
 8593SOL     OW37240   2.768   3.371   0.730  0.3932 -0.0417 -0.1942
 8593SOL    HW137241   2.816   3.343   0.808  0.5349 -1.8620 -0.9310
 8593SOL    HW237242   2.694   3.415   0.770 -0.8170 -2.7408  0.5367
 8594SOL     OW37243   0.460   0.228  13.202 -0.5573  0.7043  0.5829
 8594SOL    HW137244   0.551   0.213  13.224 -1.1248  0.1944  2.5232
 8594SOL    HW237245   0.469   0.321  13.179  0.3734  0.2175 -1.0133
 8595SOL     OW37246   2.036   3.977  17.507 -0.2648  0.0802 -0.0039
 8595SOL    HW137247   1.980   3.920  17.454 -0.7525  0.7123 -0.1628
 8595SOL    HW237248   2.029   3.943  17.596  1.3279  0.7439  0.3887
 8596SOL     OW37249   0.335   1.836  17.030 -0.0427 -0.5762 -0.0993
 8596SOL    HW137250   0.321   1.741  17.030 -2.3168 -0.2517  0.5706
 8596SOL    HW237251   0.310   1.854  17.121  0.2309  0.0420 -0.1453
 8597SOL     OW37252   3.920   3.382  10.479 -0.8644 -0.4676 -0.5100
 8597SOL    HW137253   3.917   3.287  10.469 -0.0699 -0.1732 -3.4683
 8597SOL    HW237254   3.839   3.389  10.529  0.0892 -1.4417  1.2132
 8598SOL     OW37255   3.695   0.903   4.705 -0.1796 -0.8978  0.4353
 8598SOL    HW137256   3.668   0.870   4.620 -0.9397 -1.5771  0.9421
 8598SOL    HW237257   3.754   0.832   4.730  1.4287  0.3370  0.1423
 8599SOL     OW37258   1.155   0.668   6.176  0.6102 -0.7880 -0.1436
 8599SOL    HW137259   1.234   0.688   6.125 -0.8902 -1.3413 -2.7249
 8599SOL    HW237260   1.092   0.634   6.112  0.9686 -2.5556  0.4469
 8600SOL     OW37261   4.473   0.586   2.812 -0.2310  0.2246  0.7805
 8600SOL    HW137262   4.493   0.635   2.732 -1.6122 -1.2554 -0.4890
 8600SOL    HW237263   4.519   0.645   2.872  1.9424  0.6664 -1.3359
 8601SOL     OW37264   4.194   0.399  16.855 -0.2172 -0.4565  0.4152
 8601SOL    HW137265   4.114   0.446  16.830 -0.4948  0.0396  2.2044
 8601SOL    HW237266   4.146   0.320  16.880 -1.0636  0.0919  0.5303
 8602SOL     OW37267   2.569   1.504   1.047 -0.1185 -0.5250 -0.4480
 8602SOL    HW137268   2.534   1.422   1.080 -0.1341 -0.4324 -0.2337
 8602SOL    HW237269   2.663   1.491   1.031 -0.3351  0.1359 -2.3522
 8603SOL     OW37270   1.252   3.025   0.014  0.2200 -0.1459  0.0223
 8603SOL    HW137271   1.171   3.030   0.066 -0.7082  1.4122 -1.5466
 8603SOL    HW237272   1.306   3.077   0.074  0.1362  0.0969 -0.1109
 8604SOL     OW37273   1.064   2.871   3.956  0.0883 -0.1174 -0.3803
 8604SOL    HW137274   1.121   2.904   4.025 -1.6205 -0.2715  1.1108
 8604SOL    HW237275   1.128   2.803   3.933 -0.6198 -0.1339 -2.2828
 8605SOL     OW37276   1.351   2.556   5.042 -0.8286 -0.1335  0.3376
 8605SOL    HW137277   1.279   2.510   5.000  1.3284 -0.4519 -2.9976
 8605SOL    HW237278   1.429   2.522   4.999 -1.1556 -1.4870  0.8086
 8606SOL     OW37279   0.059   0.745  15.602 -0.2609 -0.1584  0.2225
 8606SOL    HW137280   0.079   0.753  15.695 -2.8461  1.1877  0.6661
 8606SOL    HW237281   0.100   0.659  15.594  0.6879  0.1694  1.7218
 8607SOL     OW37282   2.875   4.505   3.776 -0.3769 -0.2065  0.3379
 8607SOL    HW137283   2.901   4.597   3.777 -0.3809 -0.2079  0.7745
 8607SOL    HW237284   2.863   4.485   3.869 -0.8581 -0.8921  0.1266
 8608SOL     OW37285   0.984   1.914   5.294  0.1238  0.1071  0.0858
 8608SOL    HW137286   0.952   1.963   5.218  0.4429  2.8579  1.7166
 8608SOL    HW237287   1.076   1.938   5.283  0.1833  0.4517  1.3937
 8609SOL     OW37288   0.698   3.531   7.246  0.0557 -0.1683 -0.0442
 8609SOL    HW137289   0.637   3.466   7.212 -2.0179  1.2299  0.9855
 8609SOL    HW237290   0.748   3.477   7.307 -0.8005 -0.4574  0.4001
 8610SOL     OW37291   3.778   3.836   8.518  0.4069 -0.1818  0.7553
 8610SOL    HW137292   3.842   3.786   8.568 -0.1041 -0.8288  0.7658
 8610SOL    HW237293   3.714   3.855   8.587 -1.5959  1.5204 -1.5493
 8611SOL     OW37294   1.498   2.577  15.927 -0.4963 -0.1023 -0.0479
 8611SOL    HW137295   1.577   2.558  15.877  0.2459 -0.7325  1.4054
 8611SOL    HW237296   1.534   2.620  16.004 -0.6175 -1.4141  0.7240
 8612SOL     OW37297   3.173   4.059   0.555 -0.3676  0.3404 -0.8339
 8612SOL    HW137298   3.205   4.054   0.645  0.2410  1.5140 -0.9897
 8612SOL    HW237299   3.116   4.135   0.561 -0.9040 -0.0172 -1.3395
 8613SOL     OW37300   3.765   2.504   2.294 -0.6578 -0.0314  0.4578
 8613SOL    HW137301   3.691   2.494   2.353 -0.2576 -1.8385  0.6516
 8613SOL    HW237302   3.831   2.518   2.362 -0.0979  1.9566 -0.4862
 8614SOL     OW37303   3.815   0.446  11.564 -0.2239  0.0267  0.1927
 8614SOL    HW137304   3.789   0.439  11.472  1.7231 -1.1048 -0.2587
 8614SOL    HW237305   3.745   0.393  11.601 -0.4310 -1.4907 -2.3648
 8615SOL     OW37306   3.774   3.269   5.626  0.0436 -0.0038 -0.0922
 8615SOL    HW137307   3.763   3.363   5.633  1.3006  0.1912 -0.8225
 8615SOL    HW237308   3.692   3.246   5.581 -0.0867  0.7951 -0.2603
 8616SOL     OW37309   2.141   4.507   0.436 -0.3415  0.1094  0.0108
 8616SOL    HW137310   2.144   4.507   0.532  0.7598  2.1085 -0.0228
 8616SOL    HW237311   2.231   4.487   0.413  0.5441  1.1584  2.5001
 8617SOL     OW37312   0.688   0.588   4.897  0.5279 -0.2742 -0.5577
 8617SOL    HW137313   0.614   0.646   4.917 -0.7677 -2.0031 -0.3480
 8617SOL    HW237314   0.651   0.530   4.830  1.7796  0.1803 -1.6354
 8618SOL     OW37315   4.585   4.192  14.449 -0.0012  0.6014 -0.2615
 8618SOL    HW137316   4.634   4.191  14.367  3.1980  2.5761  1.6053
 8618SOL    HW237317   4.636   4.129  14.501  0.1098  2.0197  1.3314
 8619SOL     OW37318   0.722   1.130   7.415 -0.3309  0.2605 -0.3124
 8619SOL    HW137319   0.785   1.061   7.395  0.6236  0.7336  1.0768
 8619SOL    HW237320   0.779   1.185   7.469 -1.5677  0.9742  0.2702
 8620SOL     OW37321   2.235   3.678   2.379 -0.1684  0.1855 -0.5416
 8620SOL    HW137322   2.274   3.635   2.454 -1.3719 -0.8228 -0.5017
 8620SOL    HW237323   2.255   3.769   2.403  1.0196 -0.3782  0.6065
 8621SOL     OW37324   1.028   4.135   9.746  0.2272  0.5094 -0.1503
 8621SOL    HW137325   0.964   4.167   9.809  0.7001  0.1140  0.5369
 8621SOL    HW237326   1.106   4.191   9.751  0.6786  0.1664 -3.3337
 8622SOL     OW37327   2.408   0.887   4.381 -0.1445  0.3576 -0.3942
 8622SOL    HW137328   2.382   0.939   4.305  0.4471  0.8526 -0.2665
 8622SOL    HW237329   2.490   0.848   4.352 -0.6115 -0.8541 -0.0498
 8623SOL     OW37330   1.372   3.046  14.307 -0.0408  0.7243  0.7003
 8623SOL    HW137331   1.390   2.964  14.353 -0.8723  0.7695  1.1060
 8623SOL    HW237332   1.279   3.028  14.296  0.2170 -1.4281  2.1316
 8624SOL     OW37333   3.489   0.726  15.836 -0.4010  0.5921  0.7764
 8624SOL    HW137334   3.584   0.734  15.843 -0.2987  0.9237 -1.0465
 8624SOL    HW237335   3.466   0.749  15.746  0.7029  0.0914  0.3645
 8625SOL     OW37336   0.294   3.021   3.320  0.3495 -0.1983  0.4623
 8625SOL    HW137337   0.332   2.997   3.236 -1.5717 -1.6207  0.0110
 8625SOL    HW237338   0.320   3.113   3.323  1.3018 -0.5340  2.5497
 8626SOL     OW37339   3.932   0.570   6.946  0.1807 -0.0614 -0.9002
 8626SOL    HW137340   3.934   0.570   6.851  0.3787 -0.3952 -0.8956
 8626SOL    HW237341   3.969   0.483   6.958 -2.0305 -1.2364 -2.5332
 8627SOL     OW37342   3.828   3.526   0.427 -0.2140 -0.2775 -0.2843
 8627SOL    HW137343   3.907   3.474   0.442 -0.6182 -0.7953  0.0415
 8627SOL    HW237344   3.775   3.502   0.502  0.1336 -4.9621 -1.5596
 8628SOL     OW37345   2.456   0.248   5.354  0.1202  0.5905  0.1825
 8628SOL    HW137346   2.489   0.337   5.370 -2.3620  1.6081 -0.2137
 8628SOL    HW237347   2.529   0.197   5.389 -0.5220 -0.7739 -0.4945
 8629SOL     OW37348   0.252   3.741   8.132  0.3115 -0.5456 -0.2187
 8629SOL    HW137349   0.225   3.730   8.041  2.3426 -2.2494 -0.6163
 8629SOL    HW237350   0.284   3.831   8.128 -0.3173 -0.3362 -0.4780
 8630SOL     OW37351   1.098   4.679   8.003  0.3945  0.1322  0.8057
 8630SOL    HW137352   1.185   4.693   8.039  0.4983 -0.4241  0.7637
 8630SOL    HW237353   1.117   4.707   7.913 -0.4491  0.8912  0.8595
 8631SOL     OW37354   0.198   2.727  14.152  0.8185 -0.5727  0.7345
 8631SOL    HW137355   0.217   2.634  14.139 -0.1627 -0.1897 -3.4178
 8631SOL    HW237356   0.291   2.745  14.138  1.2212 -0.1000  3.9223
 8632SOL     OW37357   0.248   0.043   7.444  0.5484  0.0325  0.4409
 8632SOL    HW137358   0.305   4.693   7.422  0.9271  0.7307 -0.9106
 8632SOL    HW237359   0.207   0.009   7.524  0.8890  0.8338  0.9545
 8633SOL     OW37360   0.944   0.814   7.686 -0.4325 -0.1292 -0.0919
 8633SOL    HW137361   1.030   0.833   7.723  0.3625 -1.3539 -1.3140
 8633SOL    HW237362   0.956   0.754   7.612 -0.6329  1.1624 -1.1838
 8634SOL     OW37363   0.710   2.740   5.477 -0.1872 -0.1263  0.3813
 8634SOL    HW137364   0.739   2.751   5.387 -0.3091 -0.2392  0.3282
 8634SOL    HW237365   0.709   2.644   5.476 -1.5936 -0.0850 -2.4538
 8635SOL     OW37366   2.654   1.064   5.259  0.5270  0.1342 -0.1845
 8635SOL    HW137367   2.591   1.128   5.226  0.0814  0.1779  0.7378
 8635SOL    HW237368   2.717   1.062   5.187 -0.3365 -1.5833 -0.8917
 8636SOL     OW37369   2.625   4.491  11.238 -0.4741  0.2141  0.2928
 8636SOL    HW137370   2.610   4.488  11.144 -0.7610  2.8320  0.2757
 8636SOL    HW237371   2.548   4.443  11.269 -0.5798 -0.7140 -1.4084
 8637SOL     OW37372   0.655   0.715   9.692 -0.0429  0.0465  0.4840
 8637SOL    HW137373   0.688   0.625   9.692 -1.9752 -0.6644 -0.4112
 8637SOL    HW237374   0.565   0.705   9.661  0.2277 -1.4527  0.1777
 8638SOL     OW37375   1.558   1.610  10.711 -0.4536 -0.2625  0.6239
 8638SOL    HW137376   1.467   1.634  10.690 -0.1528  0.0897 -0.2919
 8638SOL    HW237377   1.604   1.657  10.641 -2.0251 -2.5100 -1.8941
 8639SOL     OW37378   0.430   2.319   6.365 -0.2110 -0.6066 -0.1112
 8639SOL    HW137379   0.433   2.410   6.335  0.2034 -1.6706 -3.3321
 8639SOL    HW237380   0.518   2.296   6.334  0.8369  2.9137  0.2341
 8640SOL     OW37381   4.314   2.801   2.137  0.2630 -0.5755 -0.0933
 8640SOL    HW137382   4.220   2.798   2.159 -0.4257  0.1969 -2.8858
 8640SOL    HW237383   4.320   2.714   2.099  1.2247 -0.5279 -0.0514
 8641SOL     OW37384   0.444   3.428   2.077  0.7942  0.4254 -0.0808
 8641SOL    HW137385   0.375   3.430   2.011  0.5288 -1.2305  0.1478
 8641SOL    HW237386   0.414   3.362   2.140 -1.3976  0.2296 -1.3448
 8642SOL     OW37387   3.711   2.328   7.889  0.1755  0.1627 -0.0401
 8642SOL    HW137388   3.740   2.308   7.800 -1.1469 -1.6039 -0.0694
 8642SOL    HW237389   3.794   2.359   7.926 -0.3277  2.0622 -0.5077
 8643SOL     OW37390   3.156   3.237   0.937  0.2045 -0.4169  0.0662
 8643SOL    HW137391   3.187   3.174   1.003  0.4955 -1.0514 -0.6705
 8643SOL    HW237392   3.175   3.323   0.974  2.2757  0.3837 -2.8543
 8644SOL     OW37393   3.830   3.790  13.577  0.0340  0.4323  0.1368
 8644SOL    HW137394   3.896   3.721  13.568 -0.8391 -0.4092  0.2744
 8644SOL    HW237395   3.759   3.746  13.531 -1.2113  1.9209  0.6245
 8645SOL     OW37396   3.373   2.568   1.781  0.2726  0.5601  0.3100
 8645SOL    HW137397   3.417   2.608   1.706  1.1525 -0.2803  0.3723
 8645SOL    HW237398   3.428   2.493   1.803 -2.7891 -1.6306  0.4331
 8646SOL     OW37399   4.567   2.058  12.084  0.2471 -0.6022 -0.2056
 8646SOL    HW137400   4.641   2.119  12.080 -1.0540  1.0190  0.4110
 8646SOL    HW237401   4.599   1.979  12.041  1.0972 -1.7852  2.6251
 8647SOL     OW37402   0.491   2.333  12.171  0.1492  0.7783 -0.2126
 8647SOL    HW137403   0.519   2.286  12.250  2.2104  3.4967  0.6879
 8647SOL    HW237404   0.424   2.392  12.207 -0.3632  0.2737 -0.3486
 8648SOL     OW37405   1.822   2.003   6.226 -0.6769 -0.1468 -0.7929
 8648SOL    HW137406   1.873   1.927   6.254  0.0987  0.5118 -0.4126
 8648SOL    HW237407   1.887   2.071   6.207  0.0315 -0.7088 -0.3917
 8649SOL     OW37408   4.112   2.124   8.807  0.3268  0.1362  0.7451
 8649SOL    HW137409   4.171   2.157   8.739  0.0851 -0.7208  0.1232
 8649SOL    HW237410   4.030   2.160   8.773  0.2126  0.5589  1.4530
 8650SOL     OW37411   4.718   4.542   1.153 -0.2831  0.3281  0.1773
 8650SOL    HW137412   0.003   4.464   1.207  0.2432 -1.3932 -2.4005
 8650SOL    HW237413   0.046   4.524   1.074 -2.0989 -2.0694 -0.4695
 8651SOL     OW37414   1.132   3.744  16.656  0.1519 -0.5133  0.2017
 8651SOL    HW137415   1.125   3.659  16.612  0.5043 -0.3451 -0.1789
 8651SOL    HW237416   1.043   3.734  16.690  0.1823 -0.8387  0.1903
 8652SOL     OW37417   1.277   0.153   2.459  0.0657 -0.0295  0.2494
 8652SOL    HW137418   1.238   0.227   2.506  1.9548 -1.0473  3.3711
 8652SOL    HW237419   1.304   0.194   2.377 -0.5952  0.2402  0.1702
 8653SOL     OW37420   0.713   2.161   7.775  0.0195  0.2960 -0.2938
 8653SOL    HW137421   0.727   2.095   7.707 -0.2497 -0.4044  0.3211
 8653SOL    HW237422   0.790   2.154   7.831  0.6997 -1.2842 -1.4403
 8654SOL     OW37423   2.991   1.460   3.515  0.4269 -0.6092  0.0939
 8654SOL    HW137424   3.066   1.402   3.527  1.4426  0.9068  1.0131
 8654SOL    HW237425   3.002   1.471   3.421  1.1504 -1.3431  0.0884
 8655SOL     OW37426   2.417   1.085   9.413 -0.1225 -0.8504  0.1888
 8655SOL    HW137427   2.451   1.166   9.376  0.6076 -1.0105  0.5037
 8655SOL    HW237428   2.333   1.118   9.444  0.5035  0.7575  0.1668
 8656SOL     OW37429   1.314   0.678  12.549 -0.1234  0.1844 -0.0074
 8656SOL    HW137430   1.330   0.617  12.476  1.4248 -0.4188  0.8241
 8656SOL    HW237431   1.323   0.758  12.496  2.3704  0.3530  0.6925
 8657SOL     OW37432   2.731   0.959  13.912  0.0572  0.4298 -0.2484
 8657SOL    HW137433   2.643   0.930  13.932  0.2752 -0.2631 -0.3002
 8657SOL    HW237434   2.764   0.872  13.892 -2.4370 -0.2462 -1.3807
 8658SOL     OW37435   0.725   1.665   3.987  0.1475 -0.1323  0.2074
 8658SOL    HW137436   0.711   1.611   4.065  0.3591 -0.9319 -0.3199
 8658SOL    HW237437   0.727   1.751   4.031  0.2614  0.0171 -0.0926
 8659SOL     OW37438   2.628   1.653   6.734  0.3658  0.2745 -0.4428
 8659SOL    HW137439   2.652   1.741   6.765 -1.1882  0.2349  0.8622
 8659SOL    HW237440   2.620   1.666   6.640 -1.4488  0.4511 -0.2685
 8660SOL     OW37441   2.424   1.101  10.211  0.2262  0.2165  0.1060
 8660SOL    HW137442   2.347   1.102  10.268 -0.6202  2.0256 -1.0613
 8660SOL    HW237443   2.481   1.040  10.258 -2.2944 -2.0517  0.1732
 8661SOL     OW37444   4.174   2.889   7.314  0.4019  0.2407  0.3955
 8661SOL    HW137445   4.204   2.819   7.257 -2.4065 -0.7754  0.1399
 8661SOL    HW237446   4.223   2.876   7.395  0.7641 -0.0821  0.1233
 8662SOL     OW37447   1.038   3.615   5.158  0.3414  0.0170  0.7755
 8662SOL    HW137448   1.080   3.695   5.191 -1.6701  1.1634  0.5562
 8662SOL    HW237449   1.012   3.644   5.070 -3.2038 -1.2340  1.4223
 8663SOL     OW37450   4.292   1.121   8.471  0.2961 -0.1844  0.1907
 8663SOL    HW137451   4.219   1.181   8.488 -1.7965 -2.4237 -0.7565
 8663SOL    HW237452   4.366   1.180   8.458 -1.1976  1.4320 -0.9832
 8664SOL     OW37453   4.227   1.386   0.521  0.2897 -0.2724 -0.1485
 8664SOL    HW137454   4.308   1.394   0.570 -0.8803  2.9950  1.2487
 8664SOL    HW237455   4.256   1.435   0.444 -0.3504 -2.5361 -1.8374
 8665SOL     OW37456   2.428   1.928   7.934 -0.3543 -0.1811  0.2608
 8665SOL    HW137457   2.421   1.836   7.908  0.0533  0.2134 -1.2729
 8665SOL    HW237458   2.522   1.934   7.952 -0.3627 -1.0871  0.6213
 8666SOL     OW37459   3.012   0.799   5.280 -0.3704  0.5494 -0.4507
 8666SOL    HW137460   3.011   0.770   5.189  0.5046 -0.9330  0.0242
 8666SOL    HW237461   3.030   0.718   5.326  1.3209  0.4564 -1.2925
 8667SOL     OW37462   4.068   0.695   1.097 -0.2393  0.2098 -0.4932
 8667SOL    HW137463   4.144   0.716   1.151 -1.0598  0.0154  0.7377
 8667SOL    HW237464   4.096   0.637   1.026 -0.4878 -0.5038 -0.0181
 8668SOL     OW37465   0.805   4.689   7.540 -0.3348 -0.2080  0.2689
 8668SOL    HW137466   0.791   4.631   7.465  2.0603  0.2782 -0.5416
 8668SOL    HW237467   0.740   0.030   7.514 -0.4741 -0.6927 -0.6082
 8669SOL     OW37468   3.701   3.799   5.482  0.4742  0.0158 -0.4419
 8669SOL    HW137469   3.633   3.799   5.415 -0.6055 -1.0941  0.6487
 8669SOL    HW237470   3.675   3.876   5.532 -0.1989 -0.6941  0.3007
 8670SOL     OW37471   0.787   3.439   6.805  0.6743 -0.1240 -0.8878
 8670SOL    HW137472   0.716   3.484   6.761  0.0316  1.9192  2.2284
 8670SOL    HW237473   0.821   3.502   6.868 -0.1258 -0.8919  0.3108
 8671SOL     OW37474   1.990   1.898  15.403  0.3687  0.0272  0.7267
 8671SOL    HW137475   1.997   1.992  15.417  2.2926 -0.1928  1.2882
 8671SOL    HW237476   1.914   1.898  15.345  1.2687 -1.7037 -0.4552
 8672SOL     OW37477   3.796   0.312  16.627  0.1998  0.3910 -0.2050
 8672SOL    HW137478   3.738   0.368  16.575  0.4104  0.2448 -0.5977
 8672SOL    HW237479   3.776   0.230  16.582  1.6242  1.0511 -2.0810
 8673SOL     OW37480   2.584   2.267   4.948 -0.4692 -0.9791 -0.0124
 8673SOL    HW137481   2.573   2.188   4.895 -0.2070 -1.4711  0.6749
 8673SOL    HW237482   2.589   2.241   5.040  2.1317  0.4155  0.2238
 8674SOL     OW37483   0.595   4.416   0.043 -0.1538  0.5941 -0.6412
 8674SOL    HW137484   0.578   4.460  17.657 -0.9126  1.0898 -0.2270
 8674SOL    HW237485   0.672   4.468   0.070  0.0814  0.0130 -0.1960
 8675SOL     OW37486   3.771   0.485   1.809  0.3921 -0.7047 -0.3755
 8675SOL    HW137487   3.756   0.470   1.715 -0.5456 -1.7189 -0.0658
 8675SOL    HW237488   3.774   0.395   1.841  0.5469 -1.3443 -2.1647
 8676SOL     OW37489   2.367   1.864   7.427  0.2490  0.1714 -0.2290
 8676SOL    HW137490   2.436   1.819   7.380  0.4556  0.5237 -0.2660
 8676SOL    HW237491   2.332   1.789   7.475  0.8009  0.0350 -0.0326
 8677SOL     OW37492   2.449   3.682   8.443  0.0767 -0.4579 -0.1412
 8677SOL    HW137493   2.531   3.647   8.479 -0.3485 -0.3005  0.9841
 8677SOL    HW237494   2.406   3.724   8.518 -0.3051 -0.6886 -0.2335
 8678SOL     OW37495   2.717   1.507  11.986 -0.7340  0.4890  0.1181
 8678SOL    HW137496   2.770   1.444  11.938  0.2343  0.6444  0.9851
 8678SOL    HW237497   2.630   1.480  11.957 -0.7950  0.7888  0.0146
 8679SOL     OW37498   4.162   0.200   8.809  0.5392  0.2872 -0.2018
 8679SOL    HW137499   4.209   0.130   8.855 -0.4936  0.9570  1.8765
 8679SOL    HW237500   4.087   0.150   8.775 -0.3985  1.0253  0.7789
 8680SOL     OW37501   3.042   2.013   3.028 -0.8443 -0.4279  0.1859
 8680SOL    HW137502   3.124   2.031   2.981 -1.7921  2.0037 -0.5165
 8680SOL    HW237503   2.995   1.973   2.954 -1.4085 -0.7391  0.7212
 8681SOL     OW37504   2.217   4.597   8.615 -0.5911  0.3601  0.2591
 8681SOL    HW137505   2.194   4.657   8.544 -2.1736 -0.9626 -0.3503
 8681SOL    HW237506   2.232   4.653   8.691  1.7984 -1.0135  0.8089
 8682SOL     OW37507   0.831   1.022   8.875 -1.0105  0.1597 -0.5182
 8682SOL    HW137508   0.763   1.068   8.925  0.9668  1.1060  1.3171
 8682SOL    HW237509   0.816   0.937   8.916  2.5296 -0.2453 -0.0528
 8683SOL     OW37510   1.549   4.273   5.387  1.0785  0.2192 -0.1508
 8683SOL    HW137511   1.608   4.293   5.459 -0.5810 -0.4530  1.4015
 8683SOL    HW237512   1.483   4.335   5.420 -0.0775 -0.8600 -0.4220
 8684SOL     OW37513   0.758   0.301   6.123  0.4781 -0.1828  0.1863
 8684SOL    HW137514   0.665   0.279   6.124  0.0337  1.7381 -0.2059
 8684SOL    HW237515   0.768   0.396   6.123 -0.9721 -0.0313  0.1733
 8685SOL     OW37516   4.705   3.833   2.002  0.2981  0.3260  0.1031
 8685SOL    HW137517   4.642   3.896   2.036  0.0963  1.2753 -1.9848
 8685SOL    HW237518   0.039   3.819   2.077  0.3600  0.3947  0.0686
 8686SOL     OW37519   0.672   4.594   9.327 -0.1424  0.5150 -0.0884
 8686SOL    HW137520   0.624   4.674   9.307  0.9912  0.8507 -1.4812
 8686SOL    HW237521   0.743   4.638   9.374  3.0991 -0.5104 -4.0330
 8687SOL     OW37522   1.415   1.188   6.199  0.5558 -0.0813 -0.2829
 8687SOL    HW137523   1.345   1.171   6.261  0.9518 -2.7193 -0.5497
 8687SOL    HW237524   1.372   1.168   6.116  3.4947 -1.9153 -1.3747
 8688SOL     OW37525   1.595   2.122   9.794 -0.0287 -0.1077 -0.2735
 8688SOL    HW137526   1.633   2.050   9.744  0.2838  0.5628 -0.9958
 8688SOL    HW237527   1.531   2.076   9.848  1.7598 -1.4492  0.7392
 8689SOL     OW37528   1.636   0.919  15.805 -0.7563 -0.4630  0.3714
 8689SOL    HW137529   1.710   0.866  15.833 -1.0833 -0.3375  1.4461
 8689SOL    HW237530   1.582   0.855  15.759  0.8959 -0.6454 -1.3137
 8690SOL     OW37531   2.353   3.685  12.848 -0.0093  0.4486 -0.0601
 8690SOL    HW137532   2.301   3.721  12.776  0.1809 -1.2328 -1.0404
 8690SOL    HW237533   2.344   3.758  12.909 -0.5920 -0.3754  0.8370
 8691SOL     OW37534   0.731   0.714   7.368 -0.1689  0.0105  0.7266
 8691SOL    HW137535   0.723   0.700   7.273  2.2605 -3.8633  1.1151
 8691SOL    HW237536   0.653   0.767   7.385 -0.5202 -0.4633  0.6092
 8692SOL     OW37537   4.464   2.154  15.122  0.0902 -0.2752 -0.0183
 8692SOL    HW137538   4.457   2.188  15.211  0.0856  0.7736 -0.4146
 8692SOL    HW237539   4.388   2.096  15.113 -1.1897  1.2898  0.8389
 8693SOL     OW37540   2.653   3.044   2.930  0.5885 -0.2816  0.4209
 8693SOL    HW137541   2.733   3.094   2.948  0.2614  0.1486  0.6961
 8693SOL    HW237542   2.618   3.082   2.850  1.4257 -0.9326 -0.2461
 8694SOL     OW37543   3.313   0.199   6.649  0.0873 -0.3944  0.6385
 8694SOL    HW137544   3.235   0.254   6.658  0.9590  0.9938 -0.2535
 8694SOL    HW237545   3.376   0.272   6.641 -0.4386 -0.1652 -1.5432
 8695SOL     OW37546   3.041   0.892   5.673 -0.3832 -0.1988 -0.3078
 8695SOL    HW137547   3.022   0.898   5.767  1.0659 -0.1677 -0.0100
 8695SOL    HW237548   3.107   0.823   5.674  0.6473  0.8131  2.1048
 8696SOL     OW37549   3.834   2.314   3.097  0.1213  0.8053 -0.0124
 8696SOL    HW137550   3.798   2.284   3.013  2.0107 -1.7357  0.0658
 8696SOL    HW237551   3.922   2.280   3.080 -0.9218 -1.9425  0.0758
 8697SOL     OW37552   0.784   1.015   9.504  0.0173  0.1435 -0.8827
 8697SOL    HW137553   0.796   1.017   9.599  0.1453  0.8703 -0.9187
 8697SOL    HW237554   0.792   0.924   9.475 -3.3049 -0.2494 -0.6110
 8698SOL     OW37555   3.332   3.573  13.016 -0.1552  0.1644 -0.3393
 8698SOL    HW137556   3.336   3.595  12.923 -2.1432  0.6003 -0.3176
 8698SOL    HW237557   3.308   3.481  13.009  0.8006 -0.2402  1.6555
 8699SOL     OW37558   4.723   0.755  17.419 -0.0728  0.1309 -0.3244
 8699SOL    HW137559   4.714   0.799  17.334  0.2849  0.8864  0.0231
 8699SOL    HW237560   4.712   0.665  17.390  0.6445 -0.3975  1.0419
 8700SOL     OW37561   0.468   4.527  14.713 -0.1617 -0.3874  0.1934
 8700SOL    HW137562   0.536   4.465  14.737  1.2059  0.3032 -1.9025
 8700SOL    HW237563   0.405   4.464  14.676  0.8914  0.6830 -3.3957
 8701SOL     OW37564   1.499   1.504   1.021  0.8194 -0.4909  0.0611
 8701SOL    HW137565   1.548   1.581   0.989 -1.5883  0.6982 -0.7519
 8701SOL    HW237566   1.417   1.504   0.972 -0.3651 -0.3123  2.0546
 8702SOL     OW37567   0.806   3.945   4.046  0.1454 -0.0894  0.0686
 8702SOL    HW137568   0.838   4.033   4.024  1.0694 -0.6221 -0.6851
 8702SOL    HW237569   0.817   3.956   4.141  1.5177  3.3538 -0.4997
 8703SOL     OW37570   1.394   1.249   6.807 -0.5710  0.0900  0.3206
 8703SOL    HW137571   1.358   1.293   6.730  0.6076  0.5440  0.0311
 8703SOL    HW237572   1.333   1.176   6.823 -0.3253  0.0582  1.1298
 8704SOL     OW37573   4.034   1.383   4.141  0.0300  0.2293  0.2500
 8704SOL    HW137574   4.109   1.393   4.082  1.0232 -1.2840  1.2583
 8704SOL    HW237575   3.968   1.365   4.074  0.0422  0.8956  0.0551
 8705SOL     OW37576   2.911   2.518   6.182  0.2990  0.1480 -0.8696
 8705SOL    HW137577   2.853   2.552   6.250  0.2501  0.8519 -1.2598
 8705SOL    HW237578   2.898   2.593   6.124 -0.6420  0.0088 -0.8313
 8706SOL     OW37579   2.096   2.941   6.444  0.3859 -0.1382 -0.2020
 8706SOL    HW137580   2.092   3.036   6.454 -1.4410 -0.0777 -1.5090
 8706SOL    HW237581   2.171   2.916   6.498  0.0131 -0.5961  0.0971
 8707SOL     OW37582   1.245   3.103   0.959  0.2099 -0.3897 -0.7425
 8707SOL    HW137583   1.280   3.159   0.890  0.6508 -1.1782 -1.1537
 8707SOL    HW237584   1.214   3.030   0.906  0.3931 -0.1815 -1.1332
 8708SOL     OW37585   3.419   0.534   2.799 -0.1411 -0.5696 -0.0881
 8708SOL    HW137586   3.502   0.511   2.759 -0.1243  0.3400 -0.5875
 8708SOL    HW237587   3.355   0.484   2.748  0.7033 -0.0291 -1.6984
 8709SOL     OW37588   3.590   3.173   4.639 -0.0165 -0.6268  0.4684
 8709SOL    HW137589   3.578   3.206   4.550 -1.3838 -2.1163  0.1133
 8709SOL    HW237590   3.649   3.239   4.675 -1.4815  0.5533  0.7214
 8710SOL     OW37591   1.451   2.169   7.080 -0.4993 -0.0200  0.3588
 8710SOL    HW137592   1.506   2.141   7.008 -0.7218 -0.9729  0.5658
 8710SOL    HW237593   1.517   2.220   7.127  0.1508  1.1644 -1.8715
 8711SOL     OW37594   0.112   0.416   4.092 -0.1240  0.0484 -0.2892
 8711SOL    HW137595   0.063   0.384   4.168  1.0447 -0.9896  0.0381
 8711SOL    HW237596   0.111   0.511   4.104 -0.2485 -0.0526  0.4742
 8712SOL     OW37597   3.775   2.931   8.309 -0.4546  0.0132 -0.1724
 8712SOL    HW137598   3.714   2.859   8.326 -0.0499 -0.6436 -1.4599
 8712SOL    HW237599   3.828   2.910   8.386 -0.6535 -0.4624 -0.1601
 8713SOL     OW37600   1.698   3.667   7.651 -0.2002 -0.3113 -0.2727
 8713SOL    HW137601   1.771   3.629   7.699 -1.1756 -0.1310  1.3365
 8713SOL    HW237602   1.662   3.590   7.606  0.0173 -1.2125  1.0895
 8714SOL     OW37603   3.743   4.407   6.098  0.0847  0.8815  0.2303
 8714SOL    HW137604   3.679   4.465   6.140 -0.8691 -1.0636  1.4432
 8714SOL    HW237605   3.804   4.390   6.170 -0.8253 -0.9296  0.5697
 8715SOL     OW37606   0.207   0.732   2.479  0.0628 -0.3402  0.2401
 8715SOL    HW137607   0.158   0.721   2.397  1.3235  1.3045 -0.7236
 8715SOL    HW237608   0.213   0.642   2.511 -2.7145  0.0142  1.8062
 8716SOL     OW37609   4.116   2.773   3.404 -0.2796 -0.5759 -0.6099
 8716SOL    HW137610   4.143   2.764   3.496 -1.6182 -3.3571 -0.4790
 8716SOL    HW237611   4.027   2.805   3.419  0.6961  1.5047  0.7623
 8717SOL     OW37612   2.318   2.903   6.573 -0.0867 -0.5152  0.6128
 8717SOL    HW137613   2.315   2.810   6.592  0.9394 -0.7234 -0.2429
 8717SOL    HW237614   2.386   2.930   6.634 -1.3268  1.2513  1.2343
 8718SOL     OW37615   3.213   2.171   0.675 -0.0161 -0.0361 -0.2212
 8718SOL    HW137616   3.163   2.191   0.596 -0.8275  1.3564  0.6364
 8718SOL    HW237617   3.266   2.097   0.648  1.5124  0.4489  1.4531
 8719SOL     OW37618   3.732   1.092   4.362 -0.7519  0.1646 -0.5635
 8719SOL    HW137619   3.691   1.161   4.310 -0.0080  0.8741 -0.2208
 8719SOL    HW237620   3.772   1.156   4.422 -0.9069 -0.1483 -0.1210
 8720SOL     OW37621   1.171   2.297   2.741  0.1998 -0.1910 -0.0442
 8720SOL    HW137622   1.246   2.279   2.798 -0.6077  0.1812  1.1575
 8720SOL    HW237623   1.150   2.383   2.778 -2.1866 -0.0160 -1.8239
 8721SOL     OW37624   0.079   0.945   1.656  0.0656  0.1476 -0.4232
 8721SOL    HW137625   0.117   1.019   1.607 -1.3359  0.7108 -0.6757
 8721SOL    HW237626   0.068   0.978   1.745  0.4879 -2.6237  0.6229
 8722SOL     OW37627   3.795   3.354   4.664 -0.0734 -0.7349 -0.3629
 8722SOL    HW137628   3.832   3.442   4.678  1.1794 -1.4074  0.5521
 8722SOL    HW237629   3.868   3.293   4.655 -0.5924 -1.0716 -2.3111
 8723SOL     OW37630   2.042   3.792  11.477 -0.3969 -0.0743  0.0374
 8723SOL    HW137631   2.075   3.835  11.398 -0.1046 -0.8752 -0.2679
 8723SOL    HW237632   2.080   3.705  11.470  1.2034  0.5872  0.4562
 8724SOL     OW37633   2.418   2.129  17.008 -0.2413 -0.0492 -0.3867
 8724SOL    HW137634   2.363   2.151  16.932 -2.5070 -3.8253  0.1806
 8724SOL    HW237635   2.427   2.035  16.996  0.6772  0.1110 -0.9242
 8725SOL     OW37636   0.604   3.381   9.303 -0.1565 -0.2019 -0.3799
 8725SOL    HW137637   0.582   3.292   9.330  1.8518 -0.4230  0.4684
 8725SOL    HW237638   0.689   3.391   9.345 -0.1312 -1.3514 -0.1654
 8726SOL     OW37639   4.344   0.444  11.070  0.4759  0.0490 -0.1026
 8726SOL    HW137640   4.424   0.400  11.041 -0.7942 -0.8762 -2.2384
 8726SOL    HW237641   4.281   0.375  11.046  1.5220 -0.9797  0.1212
 8727SOL     OW37642   4.317   4.588   9.896 -0.3203  0.0490  0.6525
 8727SOL    HW137643   4.234   4.593   9.849  0.2261 -0.4732 -0.3622
 8727SOL    HW237644   4.354   4.511   9.853 -4.0262  0.2245 -2.8100
 8728SOL     OW37645   3.442   3.753   2.061  0.1868  0.5422 -0.1670
 8728SOL    HW137646   3.465   3.781   2.150 -0.3575  1.7876 -0.4157
 8728SOL    HW237647   3.509   3.687   2.045 -0.9394 -0.3565 -1.1007
 8729SOL     OW37648   0.210   1.822   8.177  0.0445  0.3111 -0.2223
 8729SOL    HW137649   0.305   1.826   8.180  0.0852 -0.7581 -0.2917
 8729SOL    HW237650   0.205   1.748   8.118  1.4816  0.5999 -0.6957
 8730SOL     OW37651   1.641   2.421   9.996  0.0279  0.0469  0.4732
 8730SOL    HW137652   1.634   2.376  10.080  1.1245 -1.9985 -0.5221
 8730SOL    HW237653   1.712   2.483  10.012  1.1998 -1.3643  0.6816
 8731SOL     OW37654   4.221   0.829   6.374  0.0420  0.5495 -0.2823
 8731SOL    HW137655   4.275   0.873   6.308 -0.1019 -0.5857 -1.1739
 8731SOL    HW237656   4.155   0.898   6.379  0.4487  0.8920  0.2919
 8732SOL     OW37657   3.754   2.269   1.802  0.1640  0.0477 -0.0032
 8732SOL    HW137658   3.658   2.276   1.806  0.3868  2.3792  1.6030
 8732SOL    HW237659   3.768   2.181   1.837  0.7204  0.3667  0.5687
 8733SOL     OW37660   1.531   4.263   1.056  0.0646 -0.1394  0.4620
 8733SOL    HW137661   1.492   4.304   1.132 -1.9801 -2.3843  0.6161
 8733SOL    HW237662   1.545   4.175   1.092 -0.0551  0.3498  1.6791
 8734SOL     OW37663   3.004   3.812   5.425 -0.0390  0.3778 -0.6314
 8734SOL    HW137664   3.081   3.850   5.382  0.1808 -1.8452 -2.2108
 8734SOL    HW237665   2.938   3.864   5.380 -2.2252 -1.3168  0.6143
 8735SOL     OW37666   1.718   2.201   4.990  0.3878 -0.0840  0.3828
 8735SOL    HW137667   1.699   2.242   4.905 -1.2263 -1.1882  0.1970
 8735SOL    HW237668   1.692   2.270   5.050 -1.1386 -0.5631  0.2876
 8736SOL     OW37669   3.447   0.829   2.141  0.5422  0.5490 -0.1260
 8736SOL    HW137670   3.426   0.742   2.174 -0.0863  1.6983  2.5434
 8736SOL    HW237671   3.424   0.818   2.049  0.3777  1.6953 -0.2267
 8737SOL     OW37672   1.298   0.177   1.037 -0.2599 -0.4949  0.5901
 8737SOL    HW137673   1.347   0.190   0.955 -1.5071 -1.2255 -0.2679
 8737SOL    HW237674   1.281   0.269   1.057  0.3680 -0.3447  0.4414
 8738SOL     OW37675   3.537   3.058   5.014 -0.1600 -0.0669  0.2852
 8738SOL    HW137676   3.607   3.120   5.037 -0.1926  0.6870 -1.7087
 8738SOL    HW237677   3.572   3.005   4.942  2.0180 -0.4702  1.6266
 8739SOL     OW37678   1.265   3.362   5.892 -0.2026 -0.0178  0.2027
 8739SOL    HW137679   1.209   3.318   5.956 -0.6638 -0.8186 -0.7505
 8739SOL    HW237680   1.290   3.290   5.834 -0.8627 -0.3081  0.2787
 8740SOL     OW37681   2.392   0.905  13.667 -0.1697  0.5795 -0.7914
 8740SOL    HW137682   2.320   0.941  13.615  0.8303  1.4158 -1.5768
 8740SOL    HW237683   2.464   0.903  13.605 -0.9106 -1.1585 -1.6120
 8741SOL     OW37684   1.880   3.981   6.913 -0.1610  0.2280  0.2579
 8741SOL    HW137685   1.791   3.951   6.897 -0.6157  1.5194  0.3708
 8741SOL    HW237686   1.856   4.070   6.939 -0.5995 -0.0655  0.8522
 8742SOL     OW37687   3.534   1.418  11.258  0.6861  0.3076  0.0900
 8742SOL    HW137688   3.624   1.397  11.284  1.1799  0.5220 -1.4431
 8742SOL    HW237689   3.484   1.403  11.338 -1.6103  1.2113 -1.1686
 8743SOL     OW37690   2.353   4.317  16.232 -0.2493  0.1624 -0.4328
 8743SOL    HW137691   2.279   4.268  16.194 -1.3338  0.6849  1.0131
 8743SOL    HW237692   2.320   4.311  16.321 -0.1563 -4.3605 -0.7166
 8744SOL     OW37693   1.014   1.265   4.267 -0.0178 -0.0980 -0.0682
 8744SOL    HW137694   1.008   1.355   4.237  3.0870 -0.4028 -1.6363
 8744SOL    HW237695   0.936   1.227   4.226 -0.1744 -0.5610  0.6555
 8745SOL     OW37696   1.051   0.483   1.453 -0.4710  0.3413 -0.0495
 8745SOL    HW137697   1.092   0.406   1.492 -2.5191 -1.1341 -0.7918
 8745SOL    HW237698   1.121   0.530   1.407  1.3792 -2.8931 -0.5388
 8746SOL     OW37699   2.065   4.701   3.320 -0.3227  0.5406 -0.1433
 8746SOL    HW137700   2.092   4.611   3.337 -0.1803  1.1124  2.7325
 8746SOL    HW237701   1.970   4.698   3.334  0.0973 -2.5229  1.9815
 8747SOL     OW37702   2.980   2.001   9.499 -0.5416 -0.2784  0.4545
 8747SOL    HW137703   2.958   2.076   9.443  1.2938 -1.5434 -1.9476
 8747SOL    HW237704   3.062   1.972   9.459 -1.7393 -2.4313 -0.4000
 8748SOL     OW37705   4.361   0.665   8.021 -0.6133 -0.2467  0.1181
 8748SOL    HW137706   4.286   0.660   8.081  0.1861 -0.6310  1.0864
 8748SOL    HW237707   4.364   0.760   8.009 -0.1703 -0.4242 -1.1577
 8749SOL     OW37708   0.688   0.310   2.105 -0.3552 -0.2831  0.4304
 8749SOL    HW137709   0.640   0.276   2.029 -1.7959  0.3871  1.0587
 8749SOL    HW237710   0.679   0.405   2.102 -2.7708 -0.5197  0.8707
 8750SOL     OW37711   3.361   0.456   6.016 -0.1903 -0.6005  0.1899
 8750SOL    HW137712   3.419   0.524   6.050  1.0030 -0.7529 -1.5585
 8750SOL    HW237713   3.417   0.379   6.012 -2.2226 -2.0306 -0.7723
 8751SOL     OW37714   3.077   2.076  14.783 -0.3093  0.4163 -0.0889
 8751SOL    HW137715   3.139   2.056  14.713  2.5736  0.4583  2.4728
 8751SOL    HW237716   3.032   1.991  14.786 -1.6144  1.1733  2.0887
 8752SOL     OW37717   3.220   2.654   7.026 -0.2894 -0.2293 -0.7026
 8752SOL    HW137718   3.157   2.621   6.963 -1.3050  0.9866 -0.3400
 8752SOL    HW237719   3.166   2.678   7.102  2.0227  2.6098  0.0344
 8753SOL     OW37720   1.931   4.000   5.975  0.0059  0.0614 -0.4875
 8753SOL    HW137721   1.977   3.984   5.893  0.7431 -3.3413  0.6223
 8753SOL    HW237722   1.907   4.089   5.948 -0.2398  0.0296 -0.3745
 8754SOL     OW37723   1.924   4.171  17.654  0.0622 -0.0247 -0.7049
 8754SOL    HW137724   1.953   4.110  17.586 -1.7205 -0.4693 -1.0442
 8754SOL    HW237725   1.837   4.204  17.634  0.7000  2.1481  0.0478
 8755SOL     OW37726   2.131   0.852   2.424 -0.0989 -0.2075 -0.8487
 8755SOL    HW137727   2.139   0.760   2.451 -0.6979 -0.0475 -0.1103
 8755SOL    HW237728   2.205   0.845   2.364  0.1728 -0.0434 -0.5322
 8756SOL     OW37729   2.619   3.030  14.790 -0.0718 -0.0051 -0.1076
 8756SOL    HW137730   2.530   3.053  14.764  0.3568  1.8211  0.0186
 8756SOL    HW237731   2.670   3.033  14.709  2.3320  0.8379  1.4278
 8757SOL     OW37732   1.633   3.497   8.806 -0.0406 -0.4753 -0.5251
 8757SOL    HW137733   1.582   3.541   8.875  1.0849  1.2783 -0.8248
 8757SOL    HW237734   1.703   3.557   8.779 -1.1113  0.7841 -0.5310
 8758SOL     OW37735   0.498   3.325  12.105  0.4742  0.1199  0.4370
 8758SOL    HW137736   0.422   3.358  12.055  1.1011 -1.1656 -1.3748
 8758SOL    HW237737   0.497   3.233  12.077  2.1964  0.4406 -0.6891
 8759SOL     OW37738   0.059   3.948  13.311  0.2361 -0.5456 -0.2897
 8759SOL    HW137739   4.703   3.985  13.348  1.3859  1.4523  0.1944
 8759SOL    HW237740   0.115   3.925  13.385  0.7606 -0.6043 -0.7060
 8760SOL     OW37741   0.337   3.487   8.877  0.6085  0.4994  0.2704
 8760SOL    HW137742   0.373   3.576   8.883 -1.1519  1.1877  0.6193
 8760SOL    HW237743   0.258   3.506   8.827  0.8635  0.1485 -0.2667
 8761SOL     OW37744   2.020   0.469   1.474 -0.6002 -0.4969 -0.0133
 8761SOL    HW137745   2.114   0.481   1.484 -0.6447 -2.5990  2.8898
 8761SOL    HW237746   2.015   0.395   1.534 -1.4376  0.4829  1.1332
 8762SOL     OW37747   2.999   0.226  12.881 -0.2952 -0.3958 -0.8281
 8762SOL    HW137748   2.960   0.299  12.930  1.6303 -0.4374  0.7717
 8762SOL    HW237749   3.081   0.211  12.929 -0.5205 -0.9885 -0.6243
 8763SOL     OW37750   0.108   3.600   4.273  0.6309  0.2222 -0.7718
 8763SOL    HW137751   0.115   3.562   4.360 -0.9689  0.7780 -0.3924
 8763SOL    HW237752   0.161   3.546   4.215  1.0345 -3.3839  2.9696
 8764SOL     OW37753   4.346   4.376  14.357  0.3375 -0.4323 -0.1802
 8764SOL    HW137754   4.329   4.470  14.349  1.1643 -0.3643 -1.2528
 8764SOL    HW237755   4.430   4.381  14.403  0.6575 -4.0182 -0.3887
 8765SOL     OW37756   1.027   1.114   7.902  0.1403 -0.2840 -0.2619
 8765SOL    HW137757   0.932   1.123   7.893  0.4139 -0.5550 -3.4368
 8765SOL    HW237758   1.044   1.182   7.968  0.8747 -0.1145 -0.6248
 8766SOL     OW37759   0.596   2.078   6.887  0.4737  0.2636  0.2885
 8766SOL    HW137760   0.625   2.093   6.797 -1.3542  1.7929 -0.0252
 8766SOL    HW237761   0.524   2.140   6.884  1.6178  1.5519 -0.8954
 8767SOL     OW37762   1.515   1.852   2.521 -0.0165 -0.1560  0.5871
 8767SOL    HW137763   1.455   1.919   2.488 -1.4053 -2.4383 -1.5564
 8767SOL    HW237764   1.595   1.874   2.474 -2.3228 -0.9755 -3.6835
 8768SOL     OW37765   1.060   3.417   2.173  0.0624 -0.3737 -0.4202
 8768SOL    HW137766   1.003   3.381   2.241 -0.5400  0.4377 -0.4905
 8768SOL    HW237767   1.131   3.456   2.224 -0.2515 -0.2527 -0.0642
 8769SOL     OW37768   3.898   3.456   2.524  0.2496 -0.0705 -0.3095
 8769SOL    HW137769   3.837   3.529   2.514  0.6598  0.4082  0.5918
 8769SOL    HW237770   3.856   3.385   2.477  2.0223 -1.0697 -0.4030
 8770SOL     OW37771   4.053   0.561   8.077 -0.1396 -0.3198  0.0607
 8770SOL    HW137772   4.057   0.637   8.134  0.4978  0.1656 -0.6367
 8770SOL    HW237773   4.063   0.497   8.147 -0.8347 -0.2634  0.2172
 8771SOL     OW37774   1.770   1.049  12.541  0.0532 -0.4243  0.0227
 8771SOL    HW137775   1.686   1.053  12.586 -0.0336 -0.7968 -0.1055
 8771SOL    HW237776   1.740   1.075  12.453  1.6599 -1.8313 -0.9313
 8772SOL     OW37777   0.817   4.666   0.493  0.1177 -0.4893 -0.3530
 8772SOL    HW137778   0.875   4.695   0.423  1.1328 -4.2275 -1.0493
 8772SOL    HW237779   0.837   0.012   0.555 -2.0457  0.2544 -0.4952
 8773SOL     OW37780   3.681   4.268   5.510  1.0571  0.0671 -0.5863
 8773SOL    HW137781   3.732   4.303   5.583  1.3543  0.1721 -0.8462
 8773SOL    HW237782   3.601   4.321   5.510  0.0409 -1.4725  0.3069
 8774SOL     OW37783   0.550   3.343   9.031 -0.0663 -0.5956 -0.5038
 8774SOL    HW137784   0.483   3.394   9.077 -2.0138  0.8591 -4.8604
 8774SOL    HW237785   0.608   3.328   9.105 -1.9059  0.8506  1.2414
 8775SOL     OW37786   0.396   2.819   5.163 -0.1085 -0.2643 -0.9051
 8775SOL    HW137787   0.400   2.802   5.069  0.6452 -0.4475 -0.8341
 8775SOL    HW237788   0.450   2.899   5.165 -2.1568  1.1465 -2.0467
 8776SOL     OW37789   3.309   1.839  16.589  0.4112 -0.4175  0.2436
 8776SOL    HW137790   3.232   1.816  16.537  0.6922 -0.3521 -0.1997
 8776SOL    HW237791   3.371   1.812  16.521  2.2138  2.4012  0.7675
 8777SOL     OW37792   2.333   0.693   1.624  0.2762  0.3206  0.3432
 8777SOL    HW137793   2.307   0.636   1.697  1.8964 -2.4160 -1.2081
 8777SOL    HW237794   2.428   0.708   1.630  0.7111 -0.9096 -3.4580
 8778SOL     OW37795   1.156   0.781   7.243 -0.4002 -0.2773  0.1831
 8778SOL    HW137796   1.141   0.770   7.150  2.2737  0.1278 -0.3180
 8778SOL    HW237797   1.248   0.810   7.240 -0.6505  0.5044  0.0125
 8779SOL     OW37798   4.353   4.697  10.778  0.2480  0.7288  0.4905
 8779SOL    HW137799   4.387   4.611  10.754 -0.4088  1.2712 -2.3432
 8779SOL    HW237800   4.356   0.011  10.690  0.6139  1.3683  0.7847
 8780SOL     OW37801   0.670   0.544  10.760 -0.4319  0.9034 -0.0976
 8780SOL    HW137802   0.679   0.578  10.849 -2.5404  0.1969  0.3807
 8780SOL    HW237803   0.725   0.465  10.755  0.6437  1.5738  1.1760
 8781SOL     OW37804   3.457   4.223   9.495  0.2852 -0.1846  0.3998
 8781SOL    HW137805   3.434   4.314   9.476  0.4382 -0.1239  0.5022
 8781SOL    HW237806   3.552   4.234   9.499  0.2560  0.6350 -1.5524
 8782SOL     OW37807   0.939   3.901   7.863 -0.0235 -0.6891 -0.0156
 8782SOL    HW137808   0.916   3.872   7.952  1.2441  1.3093  0.9694
 8782SOL    HW237809   1.028   3.865   7.860 -0.1208 -0.9139 -0.2627
 8783SOL     OW37810   2.068   2.229   8.289  0.1946 -0.4817 -0.5123
 8783SOL    HW137811   2.112   2.312   8.270  0.0787  0.1820  2.0638
 8783SOL    HW237812   2.150   2.182   8.308 -0.4159 -1.6643 -0.8174
 8784SOL     OW37813   2.571   3.206   7.217  0.2373  0.4976 -0.1789
 8784SOL    HW137814   2.666   3.205   7.217  0.2645  0.3207 -3.1376
 8784SOL    HW237815   2.541   3.277   7.273 -1.0244 -1.2498  1.3736
 8785SOL     OW37816   4.621   0.246  17.061  0.3840 -0.2908  0.4144
 8785SOL    HW137817   4.543   0.201  17.093  0.3386 -0.2154  0.4099
 8785SOL    HW237818   4.688   0.195  17.106  1.1178  0.9397  0.7365
 8786SOL     OW37819   0.773   1.247   6.848  0.2344 -0.1653  0.9270
 8786SOL    HW137820   0.847   1.309   6.842  0.3429 -0.4649 -0.9855
 8786SOL    HW237821   0.756   1.230   6.940 -1.2368  0.3896  0.7597
 8787SOL     OW37822   2.526   1.798   0.326  0.0858 -0.0768 -0.0670
 8787SOL    HW137823   2.603   1.853   0.311  0.6606  0.0723  3.5409
 8787SOL    HW237824   2.549   1.725   0.269  0.9841 -0.3245  0.6249
 8788SOL     OW37825   4.202   0.134   5.449 -0.1011  0.3784  0.6006
 8788SOL    HW137826   4.270   0.083   5.405  1.7148  2.9559  0.3702
 8788SOL    HW237827   4.156   0.174   5.375 -1.0905 -2.4434 -0.2918
 8789SOL     OW37828   2.918   3.137   3.762 -0.0282  0.6419 -0.0322
 8789SOL    HW137829   2.826   3.163   3.775  0.0374 -1.2494  4.1457
 8789SOL    HW237830   2.945   3.146   3.853 -0.6967  2.7135 -0.0227
 8790SOL     OW37831   2.606   2.764   6.879  0.1072  0.2295 -0.5530
 8790SOL    HW137832   2.534   2.783   6.818 -0.5668  0.4924  0.3218
 8790SOL    HW237833   2.683   2.773   6.823  0.1859  0.0014 -0.4790
 8791SOL     OW37834   0.974   4.118   1.979  0.2182 -0.1741 -0.2829
 8791SOL    HW137835   1.061   4.084   1.957  0.7778  0.5728  0.7798
 8791SOL    HW237836   0.949   4.153   1.893  2.4108 -0.2813 -0.9517
 8792SOL     OW37837   2.311   2.188   2.855  0.3665 -0.3200 -0.3615
 8792SOL    HW137838   2.276   2.229   2.933  3.1033  2.1200 -0.4257
 8792SOL    HW237839   2.282   2.097   2.860 -0.6676 -0.0366 -1.3301
 8793SOL     OW37840   2.783   1.249   5.499  0.2287  0.6617  0.9082
 8793SOL    HW137841   2.732   1.203   5.432 -0.6276 -0.7983  2.5750
 8793SOL    HW237842   2.735   1.233   5.580 -0.3518 -2.2455  0.0178
 8794SOL     OW37843   1.597   2.381   8.905  0.5338  0.4184 -0.2974
 8794SOL    HW137844   1.647   2.397   8.825  2.4070 -2.5540  0.3052
 8794SOL    HW237845   1.598   2.470   8.942  2.3119 -0.0779  0.8317
 8795SOL     OW37846   3.785   0.705   3.829 -0.8875  0.4944  0.0279
 8795SOL    HW137847   3.751   0.773   3.771 -2.2055 -0.1883  0.0064
 8795SOL    HW237848   3.877   0.714   3.804 -1.0582  1.1247 -0.3512
 8796SOL     OW37849   4.019   2.663   8.751 -0.0436 -0.1800 -0.5188
 8796SOL    HW137850   3.931   2.654   8.786  0.0299  0.6213 -0.1227
 8796SOL    HW237851   4.031   2.758   8.751 -0.3033 -0.1451  0.5347
 8797SOL     OW37852   2.970   2.620   2.074  0.3327  0.8614  0.5606
 8797SOL    HW137853   3.019   2.702   2.079 -1.4538  1.7694  3.3490
 8797SOL    HW237854   3.031   2.571   2.019 -2.2796  0.3166 -1.8539
 8798SOL     OW37855   0.965   2.060   5.075  0.2992 -0.7777 -0.6020
 8798SOL    HW137856   1.043   2.014   5.043  1.2274  2.0385 -2.4021
 8798SOL    HW237857   0.907   2.048   5.000  1.5934 -0.6522 -1.6397
 8799SOL     OW37858   0.148   0.961   1.076 -0.0842 -0.6272  0.1024
 8799SOL    HW137859   0.223   0.917   1.116 -1.1969 -1.2118  1.5511
 8799SOL    HW237860   0.154   1.039   1.131 -1.8868  1.4105 -2.5730
 8800SOL     OW37861   2.585   1.493   1.577  0.1072 -0.0082  0.1521
 8800SOL    HW137862   2.662   1.544   1.601 -0.0000  0.4944 -0.5612
 8800SOL    HW237863   2.526   1.544   1.632  1.7714 -0.3605  2.2468
 8801SOL     OW37864   1.237   2.803  13.531 -0.2817  0.6830  0.0283
 8801SOL    HW137865   1.201   2.715  13.537 -0.4580  0.8259  1.0384
 8801SOL    HW237866   1.174   2.850  13.586  1.3000  1.0002  1.5689
 8802SOL     OW37867   4.723   2.684   6.232 -0.2217  0.1828  0.0086
 8802SOL    HW137868   0.069   2.663   6.293 -0.7070  2.8816  1.5019
 8802SOL    HW237869   0.048   2.659   6.153  1.3856 -0.1326  1.0939
 8803SOL     OW37870   2.529   4.384   9.157 -0.0887 -0.1637  0.0602
 8803SOL    HW137871   2.619   4.414   9.150 -0.5931  1.3520  0.1752
 8803SOL    HW237872   2.482   4.465   9.137 -0.2040  0.6220  3.5873
 8804SOL     OW37873   3.584   2.400   5.055  0.0102  0.0312 -0.1537
 8804SOL    HW137874   3.659   2.459   5.065 -1.0462  0.7483  3.4433
 8804SOL    HW237875   3.570   2.392   4.961 -1.6155  0.5082  0.0405
 8805SOL     OW37876   1.021   0.670   9.198 -0.1776  0.1660 -0.6384
 8805SOL    HW137877   1.113   0.651   9.217 -0.1815  0.3493 -0.4267
 8805SOL    HW237878   1.029   0.765   9.206  3.6379  0.0989 -3.7478
 8806SOL     OW37879   4.619   3.223   7.961 -0.2586 -0.4953  0.1167
 8806SOL    HW137880   4.642   3.174   8.040  0.9657 -1.5079 -0.8661
 8806SOL    HW237881   4.599   3.311   7.991 -1.6359  0.4502 -3.5397
 8807SOL     OW37882   2.864   3.766   4.187  0.0464 -0.2535 -0.2296
 8807SOL    HW137883   2.952   3.784   4.152  0.2439  1.7053  1.2805
 8807SOL    HW237884   2.818   3.845   4.160  0.3732  0.0240  0.0204
 8808SOL     OW37885   1.020   4.632  12.095  0.0260  0.0890 -0.0184
 8808SOL    HW137886   1.071   4.643  12.015 -1.2027 -2.7996 -1.1983
 8808SOL    HW237887   0.940   4.587  12.069  0.8504 -2.1342  1.2942
 8809SOL     OW37888   0.466   3.429   6.838  0.1642 -0.0171  0.6881
 8809SOL    HW137889   0.422   3.373   6.774 -0.3142 -0.5761  1.4925
 8809SOL    HW237890   0.482   3.369   6.911 -0.1408 -0.7140  0.1732
 8810SOL     OW37891   2.754   4.022   4.115 -0.0376  0.1265  0.1696
 8810SOL    HW137892   2.791   4.048   4.031  3.2835 -1.1296  1.2505
 8810SOL    HW237893   2.672   4.071   4.106 -0.4550 -0.4096  1.0246
 8811SOL     OW37894   0.466   2.264  17.163  0.2521  0.1269  0.2534
 8811SOL    HW137895   0.422   2.211  17.096  0.4614  0.0225  0.2002
 8811SOL    HW237896   0.391   2.318  17.187  0.2929  0.2774  0.0388
 8812SOL     OW37897   1.374   2.054   8.174 -0.1397  0.0473  0.2070
 8812SOL    HW137898   1.415   2.086   8.254  2.0510 -0.9333 -0.5196
 8812SOL    HW237899   1.358   1.962   8.195  0.3515 -0.0023  0.3640
 8813SOL     OW37900   2.087   4.560   4.758 -0.1777 -0.1576 -0.6419
 8813SOL    HW137901   2.051   4.556   4.846  1.4202 -1.1635 -0.0275
 8813SOL    HW237902   2.122   4.649   4.755  0.3679 -0.3519  0.0899
 8814SOL     OW37903   3.030   0.368   4.133  0.3932  0.4729 -0.2066
 8814SOL    HW137904   3.053   0.304   4.201 -2.1556 -1.0815 -0.7967
 8814SOL    HW237905   2.969   0.428   4.174 -1.6014 -1.7704  0.0918
 8815SOL     OW37906   0.532   2.605   5.711 -0.3475 -0.6730  0.3096
 8815SOL    HW137907   0.542   2.543   5.639  1.1267  0.3864 -0.4054
 8815SOL    HW237908   0.516   2.683   5.657 -2.0542 -2.4395 -1.7096
 8816SOL     OW37909   1.365   2.434   0.978 -0.6271 -0.3641  0.3157
 8816SOL    HW137910   1.377   2.413   1.071 -0.6944  3.0053  1.0678
 8816SOL    HW237911   1.458   2.441   0.956 -0.9243  3.9581  0.4473
 8817SOL     OW37912   3.532   1.243   5.506 -0.4089 -0.3888  0.4776
 8817SOL    HW137913   3.617   1.209   5.478  0.6544  0.5125  2.5522
 8817SOL    HW237914   3.545   1.318   5.564 -1.7085 -1.1723  1.7863
 8818SOL     OW37915   1.546   0.927  12.209 -0.5240  0.4818  0.1684
 8818SOL    HW137916   1.618   0.867  12.188 -0.5657  0.0736  1.2220
 8818SOL    HW237917   1.595   1.008  12.225  0.5476 -0.4422  1.6206
 8819SOL     OW37918   0.531   0.783   5.828 -0.3668  0.5332  0.0135
 8819SOL    HW137919   0.608   0.776   5.772 -0.8993  0.4051 -0.6974
 8819SOL    HW237920   0.571   0.839   5.895  2.3480 -0.3509 -0.8881
 8820SOL     OW37921   1.313   2.697   7.364 -0.1427 -0.0246  0.2341
 8820SOL    HW137922   1.331   2.774   7.309 -0.8856 -0.4343 -0.5987
 8820SOL    HW237923   1.358   2.720   7.445  0.2162 -1.0157  0.3172
 8821SOL     OW37924   4.525   1.341  10.171  0.1446  0.7247  0.3123
 8821SOL    HW137925   4.585   1.288  10.119 -2.2208 -0.8883 -0.8014
 8821SOL    HW237926   4.466   1.370  10.101 -1.1405 -0.4173  0.9075
 8822SOL     OW37927   0.683   3.520   0.652  0.1067  0.1637 -0.3407
 8822SOL    HW137928   0.679   3.424   0.658  1.1283  0.2973  2.6167
 8822SOL    HW237929   0.648   3.531   0.564  0.9923 -0.0102 -0.7094
 8823SOL     OW37930   2.846   0.549   5.653  0.0870 -0.0325 -0.7338
 8823SOL    HW137931   2.794   0.599   5.590 -0.5720  0.4377  0.1804
 8823SOL    HW237932   2.794   0.559   5.733 -0.0932 -1.3132 -0.6993
 8824SOL     OW37933   0.559   3.782   7.408 -0.0163  0.3704  0.0010
 8824SOL    HW137934   0.558   3.844   7.336  0.7181  0.2758 -0.0863
 8824SOL    HW237935   0.641   3.736   7.392 -0.8045 -1.5536  1.4650
 8825SOL     OW37936   1.096   4.106  14.634  0.3720  0.1033  0.2160
 8825SOL    HW137937   1.052   4.172  14.687 -0.5571  1.2972 -2.0459
 8825SOL    HW237938   1.047   4.028  14.659 -0.8339  1.0138  0.6778
 8826SOL     OW37939   2.015   2.135   6.800 -0.1394 -0.3166  0.5539
 8826SOL    HW137940   1.956   2.082   6.853  1.4994 -3.5192 -0.8236
 8826SOL    HW237941   2.013   2.221   6.843 -0.3207  0.0814 -0.2348
 8827SOL     OW37942   0.168   0.991   2.221 -0.0085  0.2956  0.2510
 8827SOL    HW137943   0.142   0.919   2.279  1.6051 -0.4135  0.0973
 8827SOL    HW237944   0.218   0.955   2.148 -1.4508  0.3685 -0.7729
 8828SOL     OW37945   0.693   0.806   2.135  0.1985 -0.7136  0.0315
 8828SOL    HW137946   0.738   0.876   2.088  1.2747 -1.9766 -0.8191
 8828SOL    HW237947   0.746   0.812   2.214 -1.1823 -1.8297  1.0475
 8829SOL     OW37948   2.844   4.084  10.057  0.0101  0.1557  0.1573
 8829SOL    HW137949   2.890   4.005  10.086 -1.6114 -1.2201 -1.0345
 8829SOL    HW237950   2.910   4.150  10.078 -0.2564 -0.5135  3.1643
 8830SOL     OW37951   3.892   2.013  15.010 -0.1874 -0.2529 -0.3149
 8830SOL    HW137952   3.945   1.945  14.971 -0.4409  0.0783 -1.2306
 8830SOL    HW237953   3.880   1.987  15.102 -1.8864 -1.5523 -0.9091
 8831SOL     OW37954   0.635   4.472   0.559  0.1121  0.4128 -0.2903
 8831SOL    HW137955   0.711   4.518   0.522  0.4788  0.1490  0.1417
 8831SOL    HW237956   0.557   4.502   0.511 -0.6081 -1.7800 -0.4741
 8832SOL     OW37957   3.702   2.587  10.965  0.6636  0.6914 -0.4346
 8832SOL    HW137958   3.691   2.495  10.987  0.9693  0.6753 -0.3481
 8832SOL    HW237959   3.666   2.590  10.876 -0.2535  1.5223 -0.0324
 8833SOL     OW37960   4.356   1.917   3.939  0.3148  0.0120 -0.1313
 8833SOL    HW137961   4.380   1.937   3.848  0.5673  0.9067  0.1253
 8833SOL    HW237962   4.440   1.880   3.968  0.0390 -0.8314 -0.4193
 8834SOL     OW37963   4.580   1.837   6.430 -0.2795  0.6204 -0.1418
 8834SOL    HW137964   4.604   1.801   6.345 -0.0263 -0.3005  0.3082
 8834SOL    HW237965   4.662   1.846   6.479 -1.6133  1.0000  2.0447
 8835SOL     OW37966   2.806   0.806   6.481  0.0170 -0.2388 -0.4409
 8835SOL    HW137967   2.748   0.776   6.412 -0.6595 -0.4834  0.2305
 8835SOL    HW237968   2.885   0.812   6.428 -1.1248 -0.0523 -2.1215
 8836SOL     OW37969   2.312   0.429   5.605 -0.1181  0.3467  0.3192
 8836SOL    HW137970   2.267   0.464   5.529 -0.3459  2.0161  1.2200
 8836SOL    HW237971   2.253   0.359   5.633  1.6095 -1.6890 -1.1167
 8837SOL     OW37972   3.910   1.894   3.850 -0.4507  0.2498  1.0168
 8837SOL    HW137973   3.884   1.834   3.780 -2.4563  1.5230  0.6735
 8837SOL    HW237974   3.898   1.978   3.806 -2.8071  0.6501  2.4597
 8838SOL     OW37975   2.000   1.708   7.093  0.7481 -0.3868  0.1847
 8838SOL    HW137976   1.922   1.660   7.064  0.9749  0.0806 -1.2013
 8838SOL    HW237977   1.977   1.801   7.092 -1.1797 -0.8838 -1.7496
 8839SOL     OW37978   1.071   1.060  13.046 -0.0645  0.5756  0.1566
 8839SOL    HW137979   1.064   0.966  13.029 -0.8990  0.6113  0.3330
 8839SOL    HW237980   0.978   1.080  13.049 -0.4721 -1.4657  0.6365
 8840SOL     OW37981   0.322   2.517  12.243 -0.3306  0.3251  0.7918
 8840SOL    HW137982   0.229   2.498  12.255 -0.8664  2.5115  0.2496
 8840SOL    HW237983   0.324   2.605  12.203 -1.9678 -0.3184 -0.6984
 8841SOL     OW37984   2.063   2.590   0.312  0.4779 -0.6206  0.3544
 8841SOL    HW137985   1.971   2.609   0.295  0.4894  0.1788  1.1356
 8841SOL    HW237986   2.059   2.516   0.372 -0.6632 -1.7949 -1.1864
 8842SOL     OW37987   3.961   4.536   6.604 -0.2844  0.1496 -0.0382
 8842SOL    HW137988   3.893   4.487   6.649  1.3073 -0.6431  1.4612
 8842SOL    HW237989   3.922   4.624   6.605  2.1355  1.2658 -1.0189
 8843SOL     OW37990   0.536   1.699  14.489  0.1394 -0.6132  0.2017
 8843SOL    HW137991   0.494   1.760  14.550  1.3324  1.0417 -0.6333
 8843SOL    HW237992   0.552   1.613  14.527 -1.2197 -0.7371  0.4953
 8844SOL     OW37993   1.216   0.243   4.530 -0.2796  0.1416 -0.0773
 8844SOL    HW137994   1.226   0.201   4.445  2.4155 -0.0064  0.3163
 8844SOL    HW237995   1.141   0.299   4.509 -0.8391 -0.7116 -0.3444
 8845SOL     OW37996   3.395   1.694   8.169  0.0036  0.2970 -0.2718
 8845SOL    HW137997   3.478   1.701   8.217 -1.3115 -2.4229  2.3492
 8845SOL    HW237998   3.342   1.647   8.233  0.1922  1.0609  0.4537
 8846SOL     OW37999   4.544   4.078   2.042 -0.3714  0.2343  0.9031
 8846SOL    HW138000   4.630   4.116   2.024 -1.3219  0.9823 -1.9632
 8846SOL    HW238001   4.524   4.023   1.967 -0.4174  0.2505  0.9034
 8847SOL     OW38002   4.557   0.013   1.724  0.2027 -0.1329 -0.2129
 8847SOL    HW138003   4.540   0.095   1.677  0.2283  0.8796  1.5207
 8847SOL    HW238004   4.505   0.035   1.801  1.0881 -0.3852  0.4605
 8848SOL     OW38005   3.301   1.086   9.024 -0.3120  0.2498  0.3216
 8848SOL    HW138006   3.287   1.056   9.114 -2.0369 -0.5385 -0.2086
 8848SOL    HW238007   3.251   1.167   9.021  0.0805  0.3649 -3.1512
 8849SOL     OW38008   2.061   0.644  10.856 -0.4246  0.0458  0.5857
 8849SOL    HW138009   2.074   0.735  10.830  1.8898 -1.5183 -3.6295
 8849SOL    HW238010   2.125   0.652  10.927  0.1918 -2.3778  0.3007
 8850SOL     OW38011   3.293   3.159   7.067 -0.2983 -0.2936  0.1513
 8850SOL    HW138012   3.314   3.070   7.039 -1.4201  0.6674 -3.8347
 8850SOL    HW238013   3.238   3.132   7.140 -0.0636  2.3657  1.3158
 8851SOL     OW38014   0.382   0.564  17.586  0.2263 -0.3523  0.1120
 8851SOL    HW138015   0.399   0.538  17.677  1.0374  2.4550  0.7413
 8851SOL    HW238016   0.381   0.655  17.615 -0.5444 -0.6058  0.8947
 8852SOL     OW38017   3.513   1.961   6.278 -0.2122 -0.0900 -0.1246
 8852SOL    HW138018   3.525   2.055   6.287  2.4795 -0.4959  0.3776
 8852SOL    HW238019   3.420   1.954   6.256 -0.0724 -0.2687 -0.6734
 8853SOL     OW38020   2.712   0.183   7.966 -0.1734  0.1546 -0.3914
 8853SOL    HW138021   2.700   0.278   7.964  0.6600  0.2694 -0.0488
 8853SOL    HW238022   2.750   0.168   8.052 -0.0916  1.6845 -0.1654
 8854SOL     OW38023   2.491   2.158   8.963 -0.6658 -0.1128  0.0909
 8854SOL    HW138024   2.399   2.153   8.987  0.1774 -1.2501  3.0712
 8854SOL    HW238025   2.518   2.156   9.055  1.4657 -1.1376 -0.5527
 8855SOL     OW38026   2.314   0.187   7.679  0.0219  0.2999 -0.0718
 8855SOL    HW138027   2.284   0.131   7.608  1.5385 -0.0483 -0.4333
 8855SOL    HW238028   2.397   0.145   7.701 -1.0363 -0.8575  1.8000
 8856SOL     OW38029   3.899   0.847   2.218 -0.4933  0.2585  0.3958
 8856SOL    HW138030   3.969   0.782   2.210 -1.5198 -0.5615 -2.1700
 8856SOL    HW238031   3.854   0.826   2.136  1.8518 -1.5952 -0.4285
 8857SOL     OW38032   4.263   0.486  11.856  0.0176  0.2027  0.3588
 8857SOL    HW138033   4.344   0.480  11.906  0.3913  0.2477 -0.2437
 8857SOL    HW238034   4.272   0.563  11.799 -0.4074  1.1556  1.5784
 8858SOL     OW38035   1.960   2.239   6.108  0.0819  0.4213  0.2814
 8858SOL    HW138036   2.015   2.290   6.049  1.2616 -1.2491 -0.0649
 8858SOL    HW238037   1.954   2.298   6.183 -2.3160  0.0600  0.3752
 8859SOL     OW38038   3.610   2.078   8.314  0.4829 -1.0716 -0.2305
 8859SOL    HW138039   3.582   2.144   8.250 -0.8579 -0.4681  0.9672
 8859SOL    HW238040   3.662   2.129   8.376 -0.1427 -0.7008 -0.0033
 8860SOL     OW38041   1.107   3.727   2.663  0.8703 -0.1199 -0.2711
 8860SOL    HW138042   1.051   3.688   2.595 -1.0253 -1.7634  2.2454
 8860SOL    HW238043   1.177   3.767   2.612 -0.3869  0.7466 -1.3076
 8861SOL     OW38044   0.457   3.166   1.646  0.2977  0.2762  0.4495
 8861SOL    HW138045   0.391   3.200   1.585  0.6567  0.0176 -0.0861
 8861SOL    HW238046   0.533   3.218   1.619 -0.3341  0.6025 -0.7040
 8862SOL     OW38047   2.271   2.214   9.381 -0.0680  0.1178 -0.3412
 8862SOL    HW138048   2.220   2.133   9.388 -0.8039  0.4193 -2.2208
 8862SOL    HW238049   2.258   2.255   9.467  3.1240 -0.2898  0.3060
 8863SOL     OW38050   3.051   2.271   8.748  0.4247  0.8184 -0.6377
 8863SOL    HW138051   3.120   2.258   8.814  0.7596 -0.8509 -1.3076
 8863SOL    HW238052   3.109   2.268   8.672  1.0802 -0.0216 -0.1083
 8864SOL     OW38053   1.192   1.498   6.107  0.3010  0.0213  0.6027
 8864SOL    HW138054   1.159   1.478   6.019 -1.3429  3.2715  0.4489
 8864SOL    HW238055   1.285   1.516   6.093  0.5212  0.7574  3.1453
 8865SOL     OW38056   0.655   3.877   1.952  0.2093  0.0733  0.0444
 8865SOL    HW138057   0.694   3.796   1.986 -1.1232 -0.3587  0.5700
 8865SOL    HW238058   0.563   3.852   1.955  0.6970 -2.0140 -2.2352
 8866SOL     OW38059   0.620   1.390   2.613 -1.0183  0.2381  0.5018
 8866SOL    HW138060   0.669   1.471   2.624 -0.9535  0.1796  0.6514
 8866SOL    HW238061   0.680   1.334   2.662 -2.4925  0.7451  2.9354
 8867SOL     OW38062   2.382   1.438   5.626  0.1924  0.0807 -0.0128
 8867SOL    HW138063   2.461   1.456   5.576  1.1431 -0.4362  1.2955
 8867SOL    HW238064   2.362   1.347   5.602 -0.2187  0.9781 -3.0036
 8868SOL     OW38065   4.086   3.372   2.162 -0.1329  0.3214 -0.1849
 8868SOL    HW138066   4.109   3.411   2.246  2.5338 -0.0912 -0.7155
 8868SOL    HW238067   4.079   3.279   2.181  0.2446  0.0826 -1.1996
 8869SOL     OW38068   2.203   1.961   0.282 -0.4507  0.3583 -0.0565
 8869SOL    HW138069   2.295   1.986   0.286  0.2195 -2.0598 -0.2410
 8869SOL    HW238070   2.216   1.916   0.199  0.1123 -1.0577  0.7873
 8870SOL     OW38071   3.097   0.940  10.461 -0.1021 -0.7282  0.3491
 8870SOL    HW138072   3.170   0.883  10.436  0.0543 -1.1242  1.6861
 8870SOL    HW238073   3.021   0.884  10.478 -0.9896  0.2601 -0.3266
 8871SOL     OW38074   4.442   4.682  13.956 -0.0896  0.1513  0.4623
 8871SOL    HW138075   4.368   4.622  13.963  0.4441 -0.7608 -1.7979
 8871SOL    HW238076   4.497   4.634  13.895  0.7395  1.0459  0.5094
 8872SOL     OW38077   4.346   3.697   4.253  0.2962 -0.0499 -0.0737
 8872SOL    HW138078   4.439   3.683   4.235  0.5225 -0.6391  1.5989
 8872SOL    HW238079   4.320   3.607   4.269 -0.9641  0.6153  1.5896
 8873SOL     OW38080   0.582   3.493  11.296 -0.8117 -0.0665  0.0398
 8873SOL    HW138081   0.641   3.567  11.289 -2.0384  0.6492 -2.7064
 8873SOL    HW238082   0.535   3.516  11.376  0.0094  1.2626  0.1405
 8874SOL     OW38083   1.751   3.450  13.729 -0.0228 -0.1547  0.4413
 8874SOL    HW138084   1.827   3.437  13.673  0.4080 -0.4419  1.0872
 8874SOL    HW238085   1.683   3.395  13.690 -0.0266  1.2666 -1.5238
 8875SOL     OW38086   0.908   1.640   7.204 -0.1845 -0.4006  0.7535
 8875SOL    HW138087   0.871   1.729   7.199 -0.3188 -0.4306  1.1515
 8875SOL    HW238088   0.883   1.604   7.119 -0.9541  1.2411  0.2870
 8876SOL     OW38089   2.351   3.067  14.750 -0.1876 -0.2492 -0.2136
 8876SOL    HW138090   2.342   3.002  14.681 -0.3475  0.2423 -0.6529
 8876SOL    HW238091   2.264   3.107  14.749 -1.0088 -1.9397  2.4723
 8877SOL     OW38092   0.071   3.099   8.132 -0.0086  0.5801  0.0222
 8877SOL    HW138093   0.122   3.179   8.147 -0.3598  1.3555 -2.8371
 8877SOL    HW238094   0.044   3.071   8.219 -3.2216  0.9424 -0.8543
 8878SOL     OW38095   4.466   4.541   3.907 -0.5530  0.4428  0.5030
 8878SOL    HW138096   4.439   4.585   3.988 -2.9753  0.0355 -0.0746
 8878SOL    HW238097   4.379   4.549   3.868 -0.8001  1.0322  1.1719
 8879SOL     OW38098   1.878   2.957   2.466  0.0524  0.3251  0.2150
 8879SOL    HW138099   1.934   3.017   2.416 -1.0463  0.4490 -0.8720
 8879SOL    HW238100   1.851   3.004   2.545 -0.9423 -0.3435  0.2726
 8880SOL     OW38101   3.831   1.213   8.501 -0.2086 -0.4404  0.4351
 8880SOL    HW138102   3.750   1.173   8.535 -1.5760  1.2850 -0.8358
 8880SOL    HW238103   3.828   1.181   8.411  0.3561  1.0624 -0.1034
 8881SOL     OW38104   2.989   2.873   2.372  0.2482 -0.0636 -0.7257
 8881SOL    HW138105   3.014   2.792   2.416  1.0035  0.9962  0.7967
 8881SOL    HW238106   3.058   2.875   2.306  0.3912 -2.8387 -0.6318
 8882SOL     OW38107   2.615   4.160   4.550  0.1573  0.4864 -0.3189
 8882SOL    HW138108   2.539   4.145   4.607  1.1440 -0.5079  0.7563
 8882SOL    HW238109   2.621   4.253   4.573 -0.9336  0.4289  0.2224
 8883SOL     OW38110   3.302   1.378   4.828  0.0075 -0.3604 -0.4767
 8883SOL    HW138111   3.330   1.309   4.887 -2.7811 -1.6341 -0.6396
 8883SOL    HW238112   3.206   1.374   4.825  0.1308 -2.5056 -1.4783
 8884SOL     OW38113   3.826   3.898   2.295  0.5941 -0.1332 -0.1287
 8884SOL    HW138114   3.841   3.987   2.327 -0.6447  0.9190 -2.5003
 8884SOL    HW238115   3.812   3.912   2.201  0.8203 -0.0523 -0.1522
 8885SOL     OW38116   2.436   4.692   6.236  0.8145 -0.1496 -0.3453
 8885SOL    HW138117   2.419   4.600   6.216  0.8140  0.1691 -1.8177
 8885SOL    HW238118   2.527   4.692   6.263  0.9017  0.5030 -0.6340
 8886SOL     OW38119   4.556   1.010   7.725 -0.2443  0.2148  0.8899
 8886SOL    HW138120   4.562   0.915   7.714 -2.0044  0.1363  0.6286
 8886SOL    HW238121   4.643   1.044   7.703 -0.3493  0.2360  0.5058
 8887SOL     OW38122   0.234   4.251  13.192  0.1713  0.1103 -0.2233
 8887SOL    HW138123   0.322   4.284  13.173  0.6122  0.7208  2.8466
 8887SOL    HW238124   0.217   4.177  13.134 -0.3038  0.0333  0.0236
 8888SOL     OW38125   3.210   2.605   5.080 -0.4325  0.1598 -0.3338
 8888SOL    HW138126   3.304   2.597   5.096 -0.4392  0.6088 -0.0856
 8888SOL    HW238127   3.187   2.512   5.072 -1.9370  0.5693 -0.7431
 8889SOL     OW38128   2.204   1.285  12.692 -0.0319 -0.4437  0.2030
 8889SOL    HW138129   2.274   1.326  12.743 -1.2826 -0.5179  1.9798
 8889SOL    HW238130   2.255   1.240  12.624  1.3376 -1.0674  1.6609
 8890SOL     OW38131   2.906   4.593   1.419  0.0363 -0.1468  0.4866
 8890SOL    HW138132   2.825   4.562   1.378  0.0008  0.7734 -0.1410
 8890SOL    HW238133   2.964   4.561   1.350 -0.5549  0.9438 -0.5259
 8891SOL     OW38134   3.720   0.409  11.301  0.1472  0.2908  0.5085
 8891SOL    HW138135   3.675   0.332  11.267  1.0802  0.0325 -0.1276
 8891SOL    HW238136   3.659   0.479  11.278 -0.4268 -0.1094  0.8211
 8892SOL     OW38137   1.696   4.386   7.880  0.1179 -0.0208  0.0026
 8892SOL    HW138138   1.623   4.365   7.822 -1.1059 -2.8069  2.5147
 8892SOL    HW238139   1.676   4.473   7.914 -2.3695 -0.7748  0.4811
 8893SOL     OW38140   4.551   0.542   7.023 -0.6301 -0.1426  0.3503
 8893SOL    HW138141   4.561   0.523   6.930  0.2657 -1.5720  0.7446
 8893SOL    HW238142   4.456   0.531   7.029 -0.6348 -0.6898 -0.8060
 8894SOL     OW38143   4.331   3.201  12.347  0.1459 -0.3875  0.3071
 8894SOL    HW138144   4.257   3.187  12.405 -0.1904  0.3087  0.0356
 8894SOL    HW238145   4.296   3.158  12.270 -2.3568  1.5285  0.3926
 8895SOL     OW38146   3.954   1.653   6.655 -0.0642 -0.1132  0.0394
 8895SOL    HW138147   3.909   1.722   6.703  0.7177 -0.2843  1.0272
 8895SOL    HW238148   3.885   1.614   6.602 -2.1995  2.8799  0.6154
 8896SOL     OW38149   2.396   4.408   3.893 -0.3741  0.3943  0.0499
 8896SOL    HW138150   2.451   4.432   3.968 -0.2502 -1.1792  0.4670
 8896SOL    HW238151   2.459   4.412   3.821 -0.7480  0.8646 -0.2501
 8897SOL     OW38152   2.627   1.293   2.592 -0.5370 -0.2226  0.2226
 8897SOL    HW138153   2.545   1.330   2.625  0.0932  1.5283 -0.2106
 8897SOL    HW238154   2.671   1.361   2.542 -0.1478 -1.6513 -1.3643
 8898SOL     OW38155   4.716   4.304  13.494 -0.0454 -0.3463  0.0242
 8898SOL    HW138156   4.622   4.321  13.482  0.0716  0.4829  0.2761
 8898SOL    HW238157   0.029   4.352  13.420 -0.6997  0.6095  0.3258
 8899SOL     OW38158   4.027   4.269  11.255  0.1673 -0.2134  0.1608
 8899SOL    HW138159   3.994   4.216  11.327 -1.3309  1.2523  0.5508
 8899SOL    HW238160   4.020   4.361  11.281 -0.6051 -0.1539 -0.2550
 8900SOL     OW38161   0.483   1.283  17.526  0.4033 -0.1438 -0.0618
 8900SOL    HW138162   0.505   1.349  17.460  0.5103 -0.0249  0.0916
 8900SOL    HW238163   0.436   1.337  17.590  0.2477  0.2803 -0.5291
 8901SOL     OW38164   1.788   3.035   4.474  0.4946 -0.4621 -0.2931
 8901SOL    HW138165   1.843   3.082   4.537  1.8135  0.0980 -1.8850
 8901SOL    HW238166   1.759   2.962   4.530 -1.0172  0.0910 -0.3732
 8902SOL     OW38167   1.480   1.829   6.878  0.3000  0.3387 -0.0792
 8902SOL    HW138168   1.450   1.906   6.828 -0.9878 -0.4226 -0.4753
 8902SOL    HW238169   1.544   1.803   6.812  0.2678  0.8305 -0.3052
 8903SOL     OW38170   0.945   2.823   7.746 -0.0663 -0.6216 -0.1435
 8903SOL    HW138171   1.040   2.815   7.733  0.0320  1.9882 -1.0753
 8903SOL    HW238172   0.910   2.817   7.658 -1.3006  0.1854  0.2932
 8904SOL     OW38173   3.101   4.356   9.381  0.1980  0.3305  0.4802
 8904SOL    HW138174   3.184   4.401   9.392  0.9164 -0.7286 -0.5629
 8904SOL    HW238175   3.096   4.329   9.472 -4.0310  0.8769  0.4126
 8905SOL     OW38176   1.617   3.950   6.920 -0.0409 -0.2867  0.1966
 8905SOL    HW138177   1.537   3.937   6.869  1.3312 -1.5280 -1.6770
 8905SOL    HW238178   1.629   4.042   6.940 -0.5489 -0.1500 -0.1364
 8906SOL     OW38179   0.171   0.822  14.800 -0.2660  0.4711 -0.1911
 8906SOL    HW138180   0.237   0.756  14.778 -1.5270 -1.1398  0.8147
 8906SOL    HW238181   0.103   0.770  14.758  1.7264 -1.1813 -1.3854
 8907SOL     OW38182   3.178   1.996  14.547 -0.1413  0.0419  0.0648
 8907SOL    HW138183   3.121   2.019  14.474 -0.6994  1.0465  0.8122
 8907SOL    HW238184   3.238   2.070  14.551  1.3379 -1.1362 -0.2134
 8908SOL     OW38185   3.859   3.534   6.735 -0.0103  0.3819 -0.2897
 8908SOL    HW138186   3.940   3.545   6.784  0.0824 -0.5402 -0.2461
 8908SOL    HW238187   3.816   3.472   6.793  0.5713 -0.5239 -0.8281
 8909SOL     OW38188   4.475   3.759   0.763 -0.0123 -1.0517 -0.4003
 8909SOL    HW138189   4.570   3.769   0.762 -0.0112 -0.9879  0.3644
 8909SOL    HW238190   4.451   3.849   0.737  0.0942 -0.0697  2.8406
 8910SOL     OW38191   2.345   0.508   3.419 -0.5256 -0.3675 -0.1375
 8910SOL    HW138192   2.357   0.414   3.409  0.5158 -0.3365  0.7162
 8910SOL    HW238193   2.329   0.527   3.327  1.4011 -0.2945 -0.4503
 8911SOL     OW38194   2.119   3.278   1.858 -0.3041  0.0690 -0.7338
 8911SOL    HW138195   2.046   3.233   1.815 -0.3245  0.6982 -1.3490
 8911SOL    HW238196   2.074   3.329   1.926  1.1674 -1.5444  1.4539
 8912SOL     OW38197   3.783   1.677   8.460 -0.1783  0.3445  0.1833
 8912SOL    HW138198   3.780   1.729   8.540  0.0170 -0.6798  0.8467
 8912SOL    HW238199   3.767   1.588   8.491 -0.9127  0.4158  0.0186
 8913SOL     OW38200   1.066   1.366  13.363 -0.1701 -0.1355 -0.0845
 8913SOL    HW138201   1.084   1.459  13.347 -0.3234 -0.2042 -0.6497
 8913SOL    HW238202   1.110   1.348  13.446  0.4305 -4.0928 -1.2400
 8914SOL     OW38203   0.214   2.208   7.416 -0.7384  0.0090  0.0269
 8914SOL    HW138204   0.277   2.220   7.488 -1.0512  1.8927 -0.0209
 8914SOL    HW238205   0.188   2.299   7.402 -0.3512 -0.1643 -1.7852
 8915SOL     OW38206   2.206   1.676   4.223  0.1961 -0.9400 -0.5075
 8915SOL    HW138207   2.256   1.620   4.163  0.3390 -0.2314 -1.0582
 8915SOL    HW238208   2.267   1.689   4.295 -0.7380 -0.8984  0.2800
 8916SOL     OW38209   1.629   3.124   4.240  0.5460 -0.3969  0.0730
 8916SOL    HW138210   1.575   3.189   4.287  0.9437 -0.1277  0.1579
 8916SOL    HW238211   1.665   3.066   4.307  1.2091 -1.4073 -1.1544
 8917SOL     OW38212   2.376   1.525  10.861  0.2647 -0.0214 -0.3053
 8917SOL    HW138213   2.315   1.515  10.788 -0.9987 -0.1308  0.7535
 8917SOL    HW238214   2.422   1.443  10.875  0.7900  0.2070 -0.6717
 8918SOL     OW38215   0.649   1.648   2.356  0.0269 -0.0207  0.3443
 8918SOL    HW138216   0.565   1.637   2.312  0.9585  0.7340 -1.6260
 8918SOL    HW238217   0.701   1.574   2.324  1.0094  1.0862 -0.6543
 8919SOL     OW38218   4.227   0.286   1.611  0.6131 -0.5379  0.4645
 8919SOL    HW138219   4.194   0.369   1.645  1.4541  0.4722 -1.1694
 8919SOL    HW238220   4.164   0.223   1.647 -0.9447 -0.2076 -1.6730
 8920SOL     OW38221   2.398   1.676   4.445  0.1750 -0.5955  0.1341
 8920SOL    HW138222   2.490   1.652   4.429  0.5896  2.2907 -1.8846
 8920SOL    HW238223   2.371   1.619   4.517 -0.6710  0.0119  0.2973
 8921SOL     OW38224   1.833   4.013   3.825  0.1593 -0.0680  0.3198
 8921SOL    HW138225   1.928   4.014   3.830  0.2759 -0.5744 -1.7628
 8921SOL    HW238226   1.815   3.927   3.786  1.3113 -0.2003  0.0900
 8922SOL     OW38227   2.543   2.745   9.785 -0.1332  0.3256  0.2828
 8922SOL    HW138228   2.613   2.731   9.849 -1.2655 -1.7983  1.0545
 8922SOL    HW238229   2.485   2.806   9.831 -1.1518 -0.2565 -0.2303
 8923SOL     OW38230   4.326   0.691   4.338 -1.1153 -0.3290  0.3358
 8923SOL    HW138231   4.268   0.664   4.267 -2.2932  0.3487  1.0436
 8923SOL    HW238232   4.364   0.770   4.298  3.3247 -2.5125  0.3310
 8924SOL     OW38233   4.070   0.656   4.106  0.1808 -0.1229 -0.7148
 8924SOL    HW138234   4.015   0.703   4.168 -0.2912 -0.6881 -0.6976
 8924SOL    HW238235   4.024   0.573   4.119  0.5919 -0.4731 -1.5463
 8925SOL     OW38236   3.016   0.173   3.417 -0.1445 -0.1607 -0.8739
 8925SOL    HW138237   3.044   0.264   3.409 -0.4001  0.0321  0.4778
 8925SOL    HW238238   3.069   0.130   3.350 -0.1474  0.3360 -1.2037
 8926SOL     OW38239   3.601   2.079  15.048 -0.2729 -1.0160  1.0455
 8926SOL    HW138240   3.567   2.016  14.985  0.6846  0.0883 -0.5950
 8926SOL    HW238241   3.695   2.073  15.032  0.3035  3.6946  2.4363
 8927SOL     OW38242   2.447   2.964   0.967  0.5372 -0.6067  0.2196
 8927SOL    HW138243   2.455   3.036   0.904  0.7952  0.5462  1.5851
 8927SOL    HW238244   2.354   2.942   0.960  0.5410 -0.3811 -0.5621
 8928SOL     OW38245   1.229   3.155   4.972  0.2868  0.2851 -0.0474
 8928SOL    HW138246   1.212   3.112   4.888  0.3968  1.0193 -0.4451
 8928SOL    HW238247   1.138   3.176   4.994 -0.5626 -2.0135 -1.3116
 8929SOL     OW38248   2.987   1.286  13.804  0.3326  0.1740  0.0316
 8929SOL    HW138249   2.892   1.280  13.797  0.1391  0.9326  2.0178
 8929SOL    HW238250   3.000   1.194  13.827  2.6826  0.5628  0.3054
 8930SOL     OW38251   3.285   4.237   2.497  0.1683  0.3750 -0.3923
 8930SOL    HW138252   3.305   4.153   2.537 -0.6770  0.0733 -0.5935
 8930SOL    HW238253   3.190   4.231   2.483 -0.3732  0.3335  3.3438
 8931SOL     OW38254   0.785   2.670   6.472  0.4607 -0.2384  0.1611
 8931SOL    HW138255   0.744   2.667   6.558 -0.2800 -0.5182 -0.2103
 8931SOL    HW238256   0.733   2.745   6.443 -0.5999 -1.5826 -1.4114
 8932SOL     OW38257   3.652   1.925  15.320  0.5196 -0.2797  0.1931
 8932SOL    HW138258   3.582   1.947  15.259  1.1052  0.9483 -0.0352
 8932SOL    HW238259   3.694   1.850  15.278 -0.4122  0.5543 -2.1741
 8933SOL     OW38260   1.433   1.692   7.946  0.0410 -0.2451 -0.0344
 8933SOL    HW138261   1.501   1.758   7.931 -2.3342  1.9498 -1.0904
 8933SOL    HW238262   1.487   1.625   7.987  2.0959 -0.0925 -2.4827
 8934SOL     OW38263   4.707   0.073   4.226 -0.1153  0.2553 -0.3256
 8934SOL    HW138264   4.721   0.086   4.132 -0.6855  0.4393 -0.3882
 8934SOL    HW238265   4.693   4.702   4.227  2.9914 -0.1824 -0.2502
 8935SOL     OW38266   2.099   0.727  17.075  0.7252  0.3204  0.2249
 8935SOL    HW138267   2.170   0.690  17.129  0.7259  0.9162  0.6318
 8935SOL    HW238268   2.037   0.657  17.097  1.0075 -0.1648 -0.5100
 8936SOL     OW38269   3.432   4.420   5.232 -0.0849  0.0613  0.4031
 8936SOL    HW138270   3.497   4.488   5.250  0.3125 -0.1231 -0.3301
 8936SOL    HW238271   3.489   4.352   5.195  0.3746  0.2895  0.6903
 8937SOL     OW38272   4.054   1.827   5.029 -0.1076 -0.3628 -0.4348
 8937SOL    HW138273   4.132   1.774   5.011  0.7494  0.6818  0.2553
 8937SOL    HW238274   4.003   1.794   5.103 -0.4651 -2.5942 -1.6719
 8938SOL     OW38275   1.412   3.146   3.601 -0.1970  0.1005 -0.5805
 8938SOL    HW138276   1.359   3.092   3.660 -1.6279 -0.0399 -1.9749
 8938SOL    HW238277   1.339   3.163   3.541  0.0097 -2.3701 -1.5548
 8939SOL     OW38278   3.798   0.776   0.946 -0.2410 -0.4865 -0.3868
 8939SOL    HW138279   3.729   0.825   0.992 -0.1073 -1.2716  0.6444
 8939SOL    HW238280   3.766   0.686   0.952 -1.2896 -0.1786 -1.3647
 8940SOL     OW38281   1.967   2.827   8.265  0.5822  0.0530  0.3318
 8940SOL    HW138282   1.871   2.835   8.260  0.3248 -3.1128  0.2935
 8940SOL    HW238283   1.979   2.837   8.359  0.8773  1.5251  0.1441
 8941SOL     OW38284   3.790   2.912  16.824 -0.4958  0.0716  0.0304
 8941SOL    HW138285   3.711   2.941  16.869 -0.4781  0.0034  0.1059
 8941SOL    HW238286   3.853   2.950  16.885  1.9887 -1.9161 -1.2677
 8942SOL     OW38287   1.980   3.938  13.242  0.0016 -0.0887  0.3128
 8942SOL    HW138288   2.055   3.997  13.236  0.2032 -0.4277 -0.5877
 8942SOL    HW238289   1.920   3.986  13.298 -1.9938 -2.2193 -0.0109
 8943SOL     OW38290   3.490   1.015   9.581  0.1747  0.3507  0.4897
 8943SOL    HW138291   3.441   0.948   9.534  1.9765  0.3803 -1.4510
 8943SOL    HW238292   3.471   1.089   9.523  2.3221 -0.2273 -0.9675
 8944SOL     OW38293   4.494   1.771   0.811  0.4001 -0.2692  0.4694
 8944SOL    HW138294   4.546   1.775   0.731  0.3307 -1.3826  0.3718
 8944SOL    HW238295   4.424   1.831   0.783  0.0265 -2.5654 -3.4265
 8945SOL     OW38296   3.257   2.226   5.953  0.2337 -0.3782 -0.5441
 8945SOL    HW138297   3.336   2.277   5.971  0.1295 -0.5155  0.3164
 8945SOL    HW238298   3.270   2.164   6.025 -1.6811  0.8459  0.8616
 8946SOL     OW38299   3.568   4.156   4.045  0.2782  0.0167 -0.1004
 8946SOL    HW138300   3.615   4.235   4.072 -1.0820  0.7094  0.2510
 8946SOL    HW238301   3.478   4.188   4.036  0.4086  1.0299  2.1011
 8947SOL     OW38302   1.502   1.696  14.841 -0.2325  0.7676 -0.6923
 8947SOL    HW138303   1.433   1.630  14.840  2.8186 -2.4082 -2.3625
 8947SOL    HW238304   1.452   1.765  14.798 -2.7915  0.7230  2.2022
 8948SOL     OW38305   3.025   3.692   7.585 -0.2247 -0.4331  0.0497
 8948SOL    HW138306   3.117   3.683   7.608 -0.9859 -1.0630  2.8905
 8948SOL    HW238307   3.027   3.641   7.505  0.3574  2.1944 -1.6170
 8949SOL     OW38308   2.524   2.466   9.062 -0.1471  0.0536  0.2257
 8949SOL    HW138309   2.501   2.550   9.102 -1.5356  0.0783 -0.6262
 8949SOL    HW238310   2.517   2.419   9.145  2.7118 -0.3455  0.2323
 8950SOL     OW38311   0.015   3.163   2.767 -0.4891 -0.8465 -0.0547
 8950SOL    HW138312   0.039   3.103   2.697 -0.0727  1.1814 -1.6545
 8950SOL    HW238313   4.647   3.177   2.745 -0.6400  0.7768  1.6051
 8951SOL     OW38314   1.304   1.216   3.141  0.9839 -0.2854  0.2558
 8951SOL    HW138315   1.243   1.260   3.199  0.9300 -0.1106  0.0650
 8951SOL    HW238316   1.366   1.281   3.107  1.1042 -1.1720 -1.2641
 8952SOL     OW38317   1.823   4.559   3.944 -0.4681  0.2115 -0.4755
 8952SOL    HW138318   1.816   4.632   3.883  2.2894 -0.5839 -1.7109
 8952SOL    HW238319   1.907   4.521   3.918 -1.3742 -2.6662  0.7706
 8953SOL     OW38320   3.001   3.908  13.460  0.7233  0.5260  0.4585
 8953SOL    HW138321   2.943   3.911  13.383  0.8459 -0.5453  0.3194
 8953SOL    HW238322   2.947   3.883  13.535 -0.7006 -1.3290 -1.1477
 8954SOL     OW38323   3.207   0.919  15.820  0.2796  0.1640 -0.9590
 8954SOL    HW138324   3.248   0.853  15.763 -1.7411 -0.7634 -1.3253
 8954SOL    HW238325   3.159   0.973  15.758 -2.7654 -1.6163 -0.1666
 8955SOL     OW38326   1.399   2.228   6.044  0.1325 -0.1506  0.6605
 8955SOL    HW138327   1.392   2.321   6.025 -0.4611 -0.4130 -0.4033
 8955SOL    HW238328   1.345   2.188   5.976  0.5502  0.4726 -0.0401
 8956SOL     OW38329   1.910   3.896   1.877  0.4652 -0.3295  0.2224
 8956SOL    HW138330   1.857   3.852   1.943 -1.2447 -1.7495 -2.0864
 8956SOL    HW238331   1.897   3.843   1.799 -0.7855  0.3903 -0.0590
 8957SOL     OW38332   3.019   0.917   9.418  0.8000  0.1277  0.0467
 8957SOL    HW138333   2.940   0.971   9.415  0.5840 -0.2924 -2.4680
 8957SOL    HW238334   2.995   0.828   9.390 -0.7532  0.4627  0.2673
 8958SOL     OW38335   3.974   3.082   7.247 -0.1838  0.1316 -0.1556
 8958SOL    HW138336   4.028   3.020   7.297  0.1871 -1.3763 -2.4232
 8958SOL    HW238337   3.977   3.047   7.157  1.3995 -1.1762  0.3970
 8959SOL     OW38338   2.247   1.113  10.426 -0.5409  0.8977  0.6244
 8959SOL    HW138339   2.289   1.175  10.485 -1.1114 -0.1996  2.1703
 8959SOL    HW238340   2.242   1.028  10.469 -1.3998  0.2607 -0.6972
 8960SOL     OW38341   2.856   3.547   9.391 -0.2893 -0.0649  0.1449
 8960SOL    HW138342   2.832   3.639   9.401  2.1441  0.6469 -0.4777
 8960SOL    HW238343   2.770   3.516   9.364 -0.6114  1.3740 -0.4516
 8961SOL     OW38344   2.372   4.067   5.801  0.2109 -0.0932  0.2593
 8961SOL    HW138345   2.467   4.077   5.796  0.2758  0.4683  2.4671
 8961SOL    HW238346   2.354   4.039   5.891  0.0444 -0.6692  0.0482
 8962SOL     OW38347   2.429   2.559   7.957  0.1844  0.1436 -0.4133
 8962SOL    HW138348   2.427   2.546   8.052  3.1189  1.2506 -0.2153
 8962SOL    HW238349   2.504   2.619   7.958  0.6596 -0.4793  1.7233
 8963SOL     OW38350   2.333   0.413   8.246  0.4100 -0.2114 -0.1546
 8963SOL    HW138351   2.406   0.474   8.238 -1.6025  2.4609  1.8255
 8963SOL    HW238352   2.346   0.344   8.181 -3.4303 -0.0468 -1.0864
 8964SOL     OW38353   0.131   1.162   1.269  0.0250 -0.1969  0.2629
 8964SOL    HW138354   0.086   1.160   1.353 -1.7314  0.3044 -0.6623
 8964SOL    HW238355   0.186   1.240   1.270  1.5985 -1.2982 -0.6760
 8965SOL     OW38356   4.067   4.239   1.138 -0.1394  0.4718  0.1069
 8965SOL    HW138357   4.060   4.237   1.233  1.1109  1.2367  0.2262
 8965SOL    HW238358   3.976   4.216   1.123  0.2831  0.5883 -2.7557
 8966SOL     OW38359   3.493   1.985   3.477 -0.0903 -0.2212 -0.6350
 8966SOL    HW138360   3.487   1.890   3.485 -2.5689  0.1450  1.7645
 8966SOL    HW238361   3.405   2.013   3.502  0.3751  0.3824  0.3147
 8967SOL     OW38362   2.410   4.477   5.441  0.4899  0.0401 -0.4509
 8967SOL    HW138363   2.326   4.517   5.463  0.8654  0.0997  0.9170
 8967SOL    HW238364   2.396   4.390   5.477  0.4942 -1.9095 -5.2407
 8968SOL     OW38365   1.099   4.681  15.281  0.3777 -0.1883  0.4844
 8968SOL    HW138366   1.130   4.682  15.190 -2.4818 -2.1678 -0.5317
 8968SOL    HW238367   1.022   0.013  15.288 -0.0214 -0.6993  0.2124
 8969SOL     OW38368   4.484   0.098  17.229 -0.0228  0.5719 -0.6769
 8969SOL    HW138369   4.497   0.004  17.215 -1.5663  0.1282  0.8237
 8969SOL    HW238370   4.400   0.110  17.273  0.0742  1.0106 -0.6108
 8970SOL     OW38371   1.181   1.399  13.841  0.1080 -0.4027 -0.5668
 8970SOL    HW138372   1.203   1.377  13.751  3.4995 -2.8017  0.8052
 8970SOL    HW238373   1.269   1.415  13.875 -0.6726 -1.7704  2.0741
 8971SOL     OW38374   2.784   4.645   2.787  0.7073  0.1124 -0.1443
 8971SOL    HW138375   2.697   4.672   2.756  1.0092  2.5870  1.2162
 8971SOL    HW238376   2.811   0.009   2.813  0.9930 -0.6352  2.0312
 8972SOL     OW38377   4.031   4.515   4.976  0.4817  0.5325 -0.2362
 8972SOL    HW138378   4.046   4.465   4.895 -1.3717  0.9883 -0.8466
 8972SOL    HW238379   4.116   4.528   5.017 -0.8450  2.0434  2.0120
 8973SOL     OW38380   1.251   0.358   6.072 -0.4358 -0.3282  0.4432
 8973SOL    HW138381   1.225   0.340   6.163 -1.3105  0.2907  0.3190
 8973SOL    HW238382   1.179   0.312   6.030  1.3459 -1.4931 -1.3233
 8974SOL     OW38383   1.919   1.758  13.181  0.2478 -0.2412 -0.5155
 8974SOL    HW138384   1.998   1.812  13.188  0.1060 -0.9228  6.0939
 8974SOL    HW238385   1.939   1.721  13.095 -1.2960  0.8346 -1.3275
 8975SOL     OW38386   1.331   1.129   5.935 -0.1277 -0.1254 -0.2051
 8975SOL    HW138387   1.294   1.047   5.903 -2.3372  0.4007  1.0326
 8975SOL    HW238388   1.419   1.091   5.937  1.2854  3.1472 -0.4005
 8976SOL     OW38389   0.120   4.504  14.730 -0.2179  0.1798 -0.5797
 8976SOL    HW138390   0.045   4.533  14.783 -1.3760 -2.4466 -0.7835
 8976SOL    HW238391   0.107   4.554  14.649 -0.3494  0.3942 -0.4277
 8977SOL     OW38392   0.842   1.421  10.509  0.5609  0.2847  0.1535
 8977SOL    HW138393   0.842   1.494  10.447 -1.9512 -1.2185 -1.6048
 8977SOL    HW238394   0.808   1.457  10.591 -1.8092 -0.0447 -0.6885
 8978SOL     OW38395   0.560   2.383   7.779 -0.1051 -0.0558 -0.1138
 8978SOL    HW138396   0.624   2.454   7.787  1.8418 -1.8008 -0.2475
 8978SOL    HW238397   0.620   2.309   7.779  0.7941  0.6481 -2.9430
 8979SOL     OW38398   0.316   2.391   9.886  0.2672  0.0357  0.6861
 8979SOL    HW138399   0.354   2.401   9.973  0.6021  2.4960  0.2576
 8979SOL    HW238400   0.384   2.428   9.830  0.5742 -0.9300  0.4170
 8980SOL     OW38401   0.326   3.702  12.455  0.3792  0.6351  0.0589
 8980SOL    HW138402   0.366   3.621  12.424 -0.1594  1.1136 -1.8885
 8980SOL    HW238403   0.340   3.747  12.372  1.3432  0.6813  0.2528
 8981SOL     OW38404   1.242   3.653   6.725  0.0213  0.0943 -0.2826
 8981SOL    HW138405   1.289   3.660   6.642  1.6606 -2.2928  0.4670
 8981SOL    HW238406   1.192   3.571   6.718 -0.2000  0.0026  2.2739
 8982SOL     OW38407   2.257   2.973   8.981 -0.0178  0.1776  0.1740
 8982SOL    HW138408   2.204   3.020   9.045  0.6487  1.1368  0.0273
 8982SOL    HW238409   2.326   3.039   8.968 -1.5687  1.5986 -0.8572
 8983SOL     OW38410   3.977   3.150   5.261  0.3486  0.1755  0.0584
 8983SOL    HW138411   4.011   3.164   5.172  0.2421 -2.8418 -0.4405
 8983SOL    HW238412   3.984   3.056   5.273 -1.8541 -0.2455 -1.9400
 8984SOL     OW38413   2.069   2.386   1.617 -0.0843  0.5011 -0.2468
 8984SOL    HW138414   2.002   2.451   1.594 -1.2982 -0.5843  0.2524
 8984SOL    HW238415   2.122   2.381   1.537  1.6056  0.5446  0.8537
 8985SOL     OW38416   1.921   0.799   7.164 -0.3724  0.2690 -0.4046
 8985SOL    HW138417   1.895   0.840   7.082 -1.9424  1.9912  0.9447
 8985SOL    HW238418   1.969   0.720   7.139 -2.1068 -0.7528 -0.5928
 8986SOL     OW38419   0.657   0.430   4.400 -0.7721  0.2705  0.0503
 8986SOL    HW138420   0.610   0.400   4.322  1.6580  1.0136 -1.7125
 8986SOL    HW238421   0.653   0.526   4.391  2.7264  0.0018 -4.6381
 8987SOL     OW38422   2.744   3.097  13.883 -0.4263  0.4027 -0.4477
 8987SOL    HW138423   2.692   3.041  13.825  0.8501 -1.7396  0.5013
 8987SOL    HW238424   2.810   3.037  13.917 -1.0225  0.0970  0.1725
 8988SOL     OW38425   1.950   1.732   8.084 -0.2610 -0.3318  0.3941
 8988SOL    HW138426   1.910   1.689   8.009 -1.6302  2.3846 -0.4556
 8988SOL    HW238427   2.039   1.699   8.073  0.1422  0.6534  0.6299
 8989SOL     OW38428   0.166   1.777   7.624  0.1756  0.1851 -0.7920
 8989SOL    HW138429   0.161   1.761   7.530 -0.0629 -1.5571 -0.4709
 8989SOL    HW238430   0.079   1.746   7.648  0.1774 -0.1046 -1.1680
 8990SOL     OW38431   2.792   3.351   5.207  0.1743 -0.7077  0.2876
 8990SOL    HW138432   2.733   3.420   5.237 -0.9575 -1.1784 -0.8409
 8990SOL    HW238433   2.870   3.402   5.184  0.6737 -2.4202 -1.8028
 8991SOL     OW38434   2.343   0.575   4.559 -0.0458  0.0273  0.3567
 8991SOL    HW138435   2.276   0.643   4.553  0.4431  0.4475 -0.3415
 8991SOL    HW238436   2.418   0.631   4.537  1.0248 -0.0718  3.7622
 8992SOL     OW38437   2.910   4.215   5.712  1.4057  0.3025  0.2235
 8992SOL    HW138438   2.849   4.285   5.736  2.4171  0.7170  1.4973
 8992SOL    HW238439   2.935   4.241   5.623 -0.0265  3.7401  0.8473
 8993SOL     OW38440   2.396   0.462   4.263  0.1983 -0.2754  0.0178
 8993SOL    HW138441   2.308   0.438   4.233  0.0723  1.2997 -0.8894
 8993SOL    HW238442   2.389   0.407   4.341 -1.7577  2.2393  1.6033
 8994SOL     OW38443   1.803   2.357   4.218 -0.4138 -0.5023 -0.0572
 8994SOL    HW138444   1.805   2.300   4.295  2.5706  0.7418  0.8017
 8994SOL    HW238445   1.811   2.444   4.258  1.2967 -0.1382 -1.1873
 8995SOL     OW38446   4.591   2.602  12.811  0.2726 -0.1678  0.0651
 8995SOL    HW138447   4.537   2.604  12.732  1.2621  0.8002 -0.6038
 8995SOL    HW238448   4.669   2.648  12.778  0.1581 -0.2306 -0.2954
 8996SOL     OW38449   0.293   0.314   3.248  0.1674  0.2928  0.0432
 8996SOL    HW138450   0.310   0.408   3.245  0.1172  0.3712  2.5204
 8996SOL    HW238451   0.382   0.285   3.267  0.5038  1.7911  0.7616
 8997SOL     OW38452   2.124   1.365   1.095 -0.4119  0.1965 -0.9028
 8997SOL    HW138453   2.113   1.364   1.190  0.0344 -2.5283 -0.8588
 8997SOL    HW238454   2.063   1.430   1.060 -0.8269  1.2127  1.7120
 8998SOL     OW38455   3.504   1.057   1.751 -0.1055 -0.4460  0.1259
 8998SOL    HW138456   3.469   0.971   1.773 -0.6557 -0.0412  0.8159
 8998SOL    HW238457   3.488   1.099   1.836 -1.8571 -0.3783 -0.2460
 8999SOL     OW38458   4.279   3.042   6.386  0.2930  0.4326 -0.1295
 8999SOL    HW138459   4.335   3.033   6.309 -0.7889  5.0812 -1.4623
 8999SOL    HW238460   4.273   2.953   6.422  1.3320  0.7353  0.8104
 9000SOL     OW38461   1.498   0.151   5.100  0.1742  0.1028  0.2921
 9000SOL    HW138462   1.456   0.212   5.039 -1.4755 -0.0744  1.2439
 9000SOL    HW238463   1.451   0.074   5.068  0.5473  0.6007 -1.4538
 9001SOL     OW38464   0.781   1.136  11.097  0.0811 -0.5009 -0.5040
 9001SOL    HW138465   0.784   1.052  11.052 -0.6746 -0.8252  0.0505
 9001SOL    HW238466   0.828   1.189  11.032  2.5440  0.3295  1.9442
 9002SOL     OW38467   2.485   1.279   5.174  0.4429 -0.1626  0.4896
 9002SOL    HW138468   2.489   1.302   5.081  0.3264 -1.9512  0.0319
 9002SOL    HW238469   2.524   1.356   5.214  0.6990  0.2861 -0.6259
 9003SOL     OW38470   2.619   0.288  16.556  0.0116 -0.3081  0.2693
 9003SOL    HW138471   2.548   0.346  16.533  1.2039  0.9763 -0.1617
 9003SOL    HW238472   2.614   0.295  16.652  1.2512  0.6860  0.2708
 9004SOL     OW38473   1.865   4.461   4.220  0.0095 -0.1920 -0.6180
 9004SOL    HW138474   1.863   4.529   4.152  2.6255 -0.6083 -1.1159
 9004SOL    HW238475   1.772   4.441   4.228  0.3304 -0.1715  3.1421
 9005SOL     OW38476   2.561   4.215   7.651  0.0432  0.1616 -0.6602
 9005SOL    HW138477   2.509   4.219   7.732 -0.7187  0.6555 -1.1710
 9005SOL    HW238478   2.503   4.174   7.587  1.1205 -2.7976  0.2622
 9006SOL     OW38479   4.271   2.285   1.233  0.2745  0.0602 -0.2864
 9006SOL    HW138480   4.176   2.287   1.224  0.3814 -0.4386 -1.5291
 9006SOL    HW238481   4.296   2.243   1.151  3.7571 -1.0716  1.3381
 9007SOL     OW38482   2.876   0.390   4.715 -0.2093  0.0295  0.2745
 9007SOL    HW138483   2.942   0.399   4.784 -2.3031 -0.3961  2.3468
 9007SOL    HW238484   2.808   0.347   4.767 -1.5606  0.1176 -1.4298
 9008SOL     OW38485   0.600   0.472   8.325 -0.3719  0.2351 -0.1175
 9008SOL    HW138486   0.629   0.381   8.324 -0.9612  0.0664 -2.3516
 9008SOL    HW238487   0.603   0.492   8.231  0.6274 -0.6903 -0.2764
 9009SOL     OW38488   1.856   4.108   9.020  0.1977 -0.3996  0.0820
 9009SOL    HW138489   1.786   4.170   8.996  1.2874  1.0123  0.5706
 9009SOL    HW238490   1.836   4.106   9.113 -0.4118 -0.5085 -0.0483
 9010SOL     OW38491   0.824   4.392   2.761 -0.0367  0.1640 -0.2688
 9010SOL    HW138492   0.765   4.332   2.715 -0.2524  1.4438 -1.6762
 9010SOL    HW238493   0.788   4.477   2.733 -2.7603 -0.2999  1.8168
 9011SOL     OW38494   2.369   4.356  12.370  0.8723 -0.0115  0.2522
 9011SOL    HW138495   2.438   4.398  12.421  0.2581 -0.6965  1.6581
 9011SOL    HW238496   2.333   4.433  12.326  2.6646  0.0890 -1.0213
 9012SOL     OW38497   4.193   4.167  15.303  0.5775  0.1748 -0.3640
 9012SOL    HW138498   4.260   4.109  15.338  1.6487  1.1412 -0.8269
 9012SOL    HW238499   4.150   4.207  15.379 -1.0725 -1.5764 -0.3590
 9013SOL     OW38500   4.197   1.364   1.017 -0.4917  0.0232  0.6327
 9013SOL    HW138501   4.130   1.296   1.011 -1.3773  0.9993 -0.4789
 9013SOL    HW238502   4.155   1.432   0.964 -1.3352 -0.2640  0.9220
 9014SOL     OW38503   1.226   2.756   3.608 -0.7254 -0.8441  0.5295
 9014SOL    HW138504   1.234   2.702   3.530 -1.8619 -0.7939  0.3786
 9014SOL    HW238505   1.177   2.691   3.659 -2.1811 -0.4355 -0.3670
 9015SOL     OW38506   2.757   4.461  12.714 -0.5076  0.4125 -0.3564
 9015SOL    HW138507   2.808   4.477  12.794 -1.6221 -2.7209  0.9716
 9015SOL    HW238508   2.798   4.389  12.666 -0.6843  1.4748 -2.1069
 9016SOL     OW38509   1.988   3.253   6.811  0.3238  0.0495  0.0295
 9016SOL    HW138510   1.976   3.229   6.903 -0.0561  0.7255  0.1550
 9016SOL    HW238511   2.031   3.338   6.818 -0.1007  0.5925 -4.2841
 9017SOL     OW38512   1.212   3.445   2.634 -0.4017 -0.1584  0.0263
 9017SOL    HW138513   1.178   3.370   2.585 -2.0825  1.1283 -0.7579
 9017SOL    HW238514   1.178   3.524   2.592 -0.0399  0.8956  1.6983
 9018SOL     OW38515   1.184   4.472   6.482  0.2541  0.1915 -0.4521
 9018SOL    HW138516   1.140   4.542   6.433  3.5424  0.8970 -2.3956
 9018SOL    HW238517   1.195   4.526   6.560 -1.5614  0.0292 -0.0677
 9019SOL     OW38518   3.670   3.749   3.299 -0.6786 -0.1541 -0.1950
 9019SOL    HW138519   3.723   3.733   3.221  0.5745  1.8811  0.2192
 9019SOL    HW238520   3.613   3.672   3.304 -2.3264  1.0717 -0.1581
 9020SOL     OW38521   2.668   3.236   6.727 -0.1652 -0.3014 -0.0526
 9020SOL    HW138522   2.724   3.228   6.650 -0.7650  1.5932 -0.6874
 9020SOL    HW238523   2.734   3.238   6.797  0.0732 -1.2766 -0.2565
 9021SOL     OW38524   4.389   0.457   1.232  0.2554  0.0544 -1.2111
 9021SOL    HW138525   4.398   0.381   1.288 -2.2959 -1.8494 -3.3574
 9021SOL    HW238526   4.427   0.534   1.275 -0.2861 -0.0758 -0.4992
 9022SOL     OW38527   3.874   2.401   3.799 -0.1190 -0.0068 -0.1205
 9022SOL    HW138528   3.868   2.309   3.775  0.2490  0.2166 -1.0729
 9022SOL    HW238529   3.803   2.400   3.863 -0.3579 -0.2890 -0.3903
 9023SOL     OW38530   0.041   2.961   2.563 -0.1179 -0.0924 -0.4341
 9023SOL    HW138531   4.699   2.896   2.586 -1.6951  1.3606 -0.8118
 9023SOL    HW238532   0.099   2.910   2.506  1.9565  0.2104  1.4203
 9024SOL     OW38533   3.510   1.690   3.064  0.4222 -0.5370  0.0500
 9024SOL    HW138534   3.435   1.691   3.124  0.1104  0.9899 -0.3792
 9024SOL    HW238535   3.495   1.756   2.997  0.5170 -1.1525 -0.5779
 9025SOL     OW38536   1.599   4.404  11.908  0.5256  0.1348  0.3924
 9025SOL    HW138537   1.578   4.318  11.943 -2.6185  0.9436  0.4725
 9025SOL    HW238538   1.679   4.390  11.857  0.1682 -0.7036  0.0790
 9026SOL     OW38539   3.713   4.202   3.371  0.2913  0.1663  0.1974
 9026SOL    HW138540   3.757   4.128   3.328 -0.4065  1.3728 -2.6288
 9026SOL    HW238541   3.784   4.251   3.413  0.6717  0.7168 -1.0822
 9027SOL     OW38542   2.298   0.843   8.191 -0.7160 -0.2301  0.2462
 9027SOL    HW138543   2.318   0.876   8.103 -1.0886  0.4969  0.4365
 9027SOL    HW238544   2.268   0.755   8.167 -0.8221  0.3467 -1.7197
 9028SOL     OW38545   2.075   4.541  16.586 -0.2197 -0.2938 -0.6545
 9028SOL    HW138546   2.075   4.465  16.644  3.4647 -0.0017 -0.2826
 9028SOL    HW238547   2.065   4.611  16.651 -3.6418 -0.5873 -0.8312
 9029SOL     OW38548   1.213   4.399  11.971  0.3921  0.8468  0.1834
 9029SOL    HW138549   1.275   4.423  12.040 -1.3946 -1.4721  2.6275
 9029SOL    HW238550   1.209   4.484  11.927  1.1998  0.1548 -1.2126
 9030SOL     OW38551   3.072   2.496   0.518 -0.2668  0.2686 -0.4109
 9030SOL    HW138552   3.028   2.579   0.536 -1.0581  0.2498 -2.2201
 9030SOL    HW238553   3.165   2.517   0.524 -0.0402 -1.0456  0.7392
 9031SOL     OW38554   2.406   4.647  12.646 -0.1838 -0.3404 -0.1963
 9031SOL    HW138555   2.380   4.660  12.555  2.4463  0.0738 -0.8857
 9031SOL    HW238556   2.418   0.014  12.674  1.4089 -1.4732  2.7887
 9032SOL     OW38557   2.237   2.421   4.167  0.4253  0.3561 -0.4465
 9032SOL    HW138558   2.265   2.334   4.137 -1.3066  0.5813 -2.7453
 9032SOL    HW238559   2.224   2.406   4.261 -0.3813  1.9873 -0.3086
 9033SOL     OW38560   0.356   1.624  14.835 -0.3188 -0.5488  0.0196
 9033SOL    HW138561   0.347   1.717  14.854  0.0068 -0.1882 -1.5486
 9033SOL    HW238562   0.267   1.598  14.859 -1.0139  1.4931 -0.3047
 9034SOL     OW38563   2.830   3.090  14.933 -0.0988 -0.0419  0.4533
 9034SOL    HW138564   2.898   3.095  14.865  1.6930  0.0825  2.2532
 9034SOL    HW238565   2.748   3.064  14.890  0.3457 -1.2288  0.3081
 9035SOL     OW38566   3.807   2.922   6.543 -0.4042 -0.1010 -0.5908
 9035SOL    HW138567   3.868   2.982   6.501  1.0937  0.2335  2.0872
 9035SOL    HW238568   3.732   2.944   6.487  0.0599 -0.7359 -1.4700
 9036SOL     OW38569   4.440   1.825   8.458 -0.0934 -0.3348 -0.4240
 9036SOL    HW138570   4.350   1.804   8.482 -0.4929  0.1017 -1.5082
 9036SOL    HW238571   4.471   1.738   8.433  0.7494  0.1473 -1.0946
 9037SOL     OW38572   2.565   4.396   3.626 -0.4306  0.6598 -0.4379
 9037SOL    HW138573   2.585   4.463   3.560 -3.1842  1.8935 -0.0172
 9037SOL    HW238574   2.655   4.384   3.657 -0.1075 -0.5646 -1.8444
 9038SOL     OW38575   4.036   3.127   4.985  0.3172  0.4869  0.1527
 9038SOL    HW138576   4.045   3.181   4.906 -0.9896 -2.1830 -1.8215
 9038SOL    HW238577   4.087   3.049   4.964 -0.0690  0.3562 -0.2857
 9039SOL     OW38578   4.703   3.690  13.727  0.4418  0.6227  0.2119
 9039SOL    HW138579   0.048   3.625  13.741 -1.0527 -1.1109 -0.4564
 9039SOL    HW238580   4.624   3.637  13.715  1.2484 -0.1724 -1.5438
 9040SOL     OW38581   4.234   3.318   4.554  0.2387  0.0040  0.4373
 9040SOL    HW138582   4.308   3.258   4.545 -1.4546 -2.0402 -0.0184
 9040SOL    HW238583   4.270   3.392   4.603  0.9058  0.2447 -0.4282
 9041SOL     OW38584   1.586   1.976  12.785 -0.1347  0.0842  0.0353
 9041SOL    HW138585   1.605   1.883  12.794  0.4335  0.4663  2.8056
 9041SOL    HW238586   1.632   2.010  12.861 -1.4802  0.3502  0.7253
 9042SOL     OW38587   3.337   3.406   9.392  0.4616 -0.2315 -0.2801
 9042SOL    HW138588   3.287   3.426   9.313  0.9901  0.3860 -0.4633
 9042SOL    HW238589   3.419   3.373   9.357  0.9615 -0.4662  1.1090
 9043SOL     OW38590   4.021   2.855   4.047  0.6190  0.0253 -0.5277
 9043SOL    HW138591   4.056   2.797   4.114 -0.0966  1.4874  1.1152
 9043SOL    HW238592   4.046   2.941   4.079 -0.2501  0.1364 -0.1413
 9044SOL     OW38593   4.710   2.659   3.057  0.1369 -0.5132  0.5114
 9044SOL    HW138594   0.015   2.573   3.029  0.2545  0.4556 -2.3166
 9044SOL    HW238595   0.030   2.708   2.988  0.5483  0.4609  1.4592
 9045SOL     OW38596   3.799   1.471  10.599 -0.5348  0.1553  0.3013
 9045SOL    HW138597   3.728   1.474  10.664 -1.7851  1.0948 -1.1215
 9045SOL    HW238598   3.884   1.452  10.640  0.6957  2.3497 -1.2797
 9046SOL     OW38599   1.602   1.791  16.341  0.2692  0.1265 -0.0647
 9046SOL    HW138600   1.678   1.838  16.377  0.6745  0.0841 -0.8634
 9046SOL    HW238601   1.648   1.708  16.329 -0.6833 -0.2425 -1.0603
 9047SOL     OW38602   1.386   0.287   2.266 -0.4165  0.0434 -0.2286
 9047SOL    HW138603   1.369   0.340   2.188  1.9331  0.3526 -0.5092
 9047SOL    HW238604   1.418   0.348   2.332 -0.7318  0.4776 -0.4767
 9048SOL     OW38605   4.547   3.367  13.917 -0.5531  0.0789 -0.4675
 9048SOL    HW138606   4.559   3.376  13.823  1.5646 -0.2282 -0.2327
 9048SOL    HW238607   4.483   3.296  13.925  0.9479 -1.2343 -0.1097
 9049SOL     OW38608   0.567   4.689   1.067 -0.4738  0.1370  0.1324
 9049SOL    HW138609   0.551   4.634   0.991  1.8337  0.1878 -0.3907
 9049SOL    HW238610   0.487   4.661   1.112 -0.4594 -1.3818 -0.7747
 9050SOL     OW38611   0.845   0.970   4.308 -0.0379 -0.3014  0.3672
 9050SOL    HW138612   0.841   1.016   4.225 -1.5075 -1.9261 -0.4780
 9050SOL    HW238613   0.815   1.039   4.366  0.9373 -1.1619  1.9128
 9051SOL     OW38614   3.739   4.181   2.348  0.0421 -0.1578 -0.1092
 9051SOL    HW138615   3.728   4.225   2.264  2.0345  2.1801  0.8607
 9051SOL    HW238616   3.653   4.202   2.384 -0.4571 -0.0867 -1.3576
 9052SOL     OW38617   0.606   3.918   7.172 -0.0795  0.1375 -0.2457
 9052SOL    HW138618   0.563   3.997   7.138 -2.2273  0.3208  2.9457
 9052SOL    HW238619   0.688   3.949   7.211  0.4228  0.9849 -1.9454
 9053SOL     OW38620   2.333   1.226   6.198 -0.0997 -0.1380 -0.1687
 9053SOL    HW138621   2.279   1.215   6.119  1.1988  0.8651 -1.1972
 9053SOL    HW238622   2.275   1.271   6.259  0.8925 -0.0849  0.7336
 9054SOL     OW38623   0.213   4.446   6.662  0.0941 -0.2399 -0.5886
 9054SOL    HW138624   0.215   4.369   6.604 -0.1118 -0.6015 -0.1158
 9054SOL    HW238625   0.132   4.488   6.635  0.3374  0.3676 -0.3701
 9055SOL     OW38626   2.324   1.642   7.794  0.5686  0.3852  1.0343
 9055SOL    HW138627   2.378   1.567   7.768 -0.4818  0.7626 -2.3277
 9055SOL    HW238628   2.277   1.650   7.710  0.7894  0.1184  0.8867
 9056SOL     OW38629   3.757   1.356  17.589  0.1300 -0.0060 -1.1445
 9056SOL    HW138630   3.768   1.451  17.586  3.8557 -0.4948 -2.8676
 9056SOL    HW238631   3.840   1.332  17.630 -1.5437  0.4114  2.4351
 9057SOL     OW38632   1.180   0.373  13.208 -0.2750 -0.9094  0.0293
 9057SOL    HW138633   1.225   0.433  13.148 -1.1565  0.0235  0.2992
 9057SOL    HW238634   1.154   0.435  13.276 -0.5029  0.2752 -1.1303
 9058SOL     OW38635   1.175   1.380   6.333  0.0618 -0.3249  0.7648
 9058SOL    HW138636   1.089   1.343   6.316 -1.0620  2.6339 -0.0196
 9058SOL    HW238637   1.191   1.408   6.242 -1.8577 -1.4606  0.0952
 9059SOL     OW38638   4.249   0.191  11.267  0.2714 -0.1861 -0.3712
 9059SOL    HW138639   4.306   0.128  11.224  0.1484  0.1500 -1.0217
 9059SOL    HW238640   4.206   0.229  11.191 -1.2860  2.6499  1.9067
 9060SOL     OW38641   3.147   1.744   9.281 -0.6962 -0.3366  0.3243
 9060SOL    HW138642   3.191   1.660   9.268 -0.4044 -0.2358  0.6504
 9060SOL    HW238643   3.203   1.788   9.345  0.2132 -0.3501 -0.4646
 9061SOL     OW38644   3.695   1.205   1.660 -0.4171 -0.3207  0.4159
 9061SOL    HW138645   3.723   1.137   1.598  0.2532 -0.0435  0.4184
 9061SOL    HW238646   3.612   1.169   1.690 -0.3461 -0.0163  0.9641
 9062SOL     OW38647   0.802   4.292  15.270  0.2118 -0.1081  0.1848
 9062SOL    HW138648   0.857   4.285  15.348  1.5086  1.6516 -0.5734
 9062SOL    HW238649   0.752   4.212  15.289  2.0803 -1.2881  0.1089
 9063SOL     OW38650   2.422   3.811   2.868  0.4757  0.7583  0.0844
 9063SOL    HW138651   2.338   3.834   2.906  0.4689 -1.3303  1.3371
 9063SOL    HW238652   2.467   3.891   2.840  1.1634  1.0972  2.1530
 9064SOL     OW38653   2.190   2.952   4.298  0.5487  0.6079  0.4719
 9064SOL    HW138654   2.217   2.871   4.340  1.3196  0.9234  0.5853
 9064SOL    HW238655   2.254   2.951   4.227  1.3859  1.8502  1.1878
 9065SOL     OW38656   3.346   4.213   9.079  0.5111  0.5142  0.5636
 9065SOL    HW138657   3.431   4.198   9.119  1.0105 -0.7911 -0.9879
 9065SOL    HW238658   3.361   4.167   8.997 -3.7092  1.0516 -0.5080
 9066SOL     OW38659   3.486   0.833  14.251 -0.0156  0.2701  0.2587
 9066SOL    HW138660   3.457   0.922  14.228 -1.1307  0.1598  1.2513
 9066SOL    HW238661   3.570   0.843  14.296  1.4780 -0.4361 -2.3373
 9067SOL     OW38662   1.455   2.170   4.612 -0.2246  0.2923  0.1920
 9067SOL    HW138663   1.468   2.158   4.706 -0.6848 -1.0070  0.0946
 9067SOL    HW238664   1.443   2.078   4.591  0.2761  0.3788 -0.4504
 9068SOL     OW38665   4.258   4.266   5.550  0.5094  0.3637  0.9011
 9068SOL    HW138666   4.169   4.272   5.584 -0.1014  0.8546 -0.7448
 9068SOL    HW238667   4.274   4.361   5.554  1.6332  0.1769  0.8274
 9069SOL     OW38668   2.735   1.825   4.860 -0.2677 -0.1852 -0.0095
 9069SOL    HW138669   2.739   1.836   4.955  0.9301  1.2723 -0.2240
 9069SOL    HW238670   2.692   1.740   4.854  0.1403 -0.3798 -0.1887
 9070SOL     OW38671   1.674   2.473   8.670  0.6140 -0.1736 -0.3412
 9070SOL    HW138672   1.667   2.568   8.682  0.0078 -0.1321 -1.0457
 9070SOL    HW238673   1.768   2.457   8.667  0.3901 -1.1466 -1.9548
 9071SOL     OW38674   1.112   2.010   1.889 -0.1242  0.3983 -0.5454
 9071SOL    HW138675   1.204   1.990   1.905  0.0505 -2.0301 -4.6770
 9071SOL    HW238676   1.093   2.063   1.967  1.0051 -0.4594  0.3041
 9072SOL     OW38677   1.943   2.185   4.673  0.1020  0.0697 -0.8061
 9072SOL    HW138678   2.026   2.215   4.709  0.5891 -2.8194  0.4616
 9072SOL    HW238679   1.972   2.184   4.582  1.6875 -2.7574 -0.2567
 9073SOL     OW38680   3.226   3.310  14.418 -0.2318 -0.7384  0.0314
 9073SOL    HW138681   3.251   3.222  14.448  1.1737 -0.1857  0.4656
 9073SOL    HW238682   3.295   3.357  14.464  0.2584 -0.4921 -0.9621
 9074SOL     OW38683   0.736   0.841   1.826  0.1287 -0.2694 -0.2446
 9074SOL    HW138684   0.780   0.870   1.905  0.6766 -0.7226 -0.3827
 9074SOL    HW238685   0.690   0.765   1.861  2.1137 -0.6179  1.5779
 9075SOL     OW38686   0.570   4.584   8.000  0.4846 -0.5837 -0.3155
 9075SOL    HW138687   0.665   4.583   8.008  0.6307 -0.2507 -1.9985
 9075SOL    HW238688   0.547   4.540   8.082  0.1109 -0.4794 -0.3648
 9076SOL     OW38689   4.480   4.305   6.313  0.4640 -0.2394 -0.2473
 9076SOL    HW138690   4.532   4.384   6.303 -1.5580  1.2875  1.4309
 9076SOL    HW238691   4.444   4.331   6.397  1.5004  1.6981 -0.4253
 9077SOL     OW38692   4.305   4.692   8.960  0.7833 -0.7708  0.0968
 9077SOL    HW138693   4.311   4.598   8.977  0.7689 -0.9693 -1.0293
 9077SOL    HW238694   4.358   0.010   9.028 -2.5293  1.9771  1.0190
 9078SOL     OW38695   4.241   4.152  14.244 -0.5303 -0.1806  0.2330
 9078SOL    HW138696   4.266   4.244  14.245 -0.0088 -0.3221  0.3181
 9078SOL    HW238697   4.146   4.161  14.236 -0.6726 -2.2310 -0.3802
 9079SOL     OW38698   2.983   3.061   2.656 -0.0048  0.3430 -0.0937
 9079SOL    HW138699   2.976   3.156   2.652 -1.4891  0.3283  1.9624
 9079SOL    HW238700   2.910   3.036   2.599  0.3170  0.6549 -0.6402
 9080SOL     OW38701   0.007   2.323   3.202  0.0858 -0.2773  0.3300
 9080SOL    HW138702   0.094   2.362   3.214 -0.1008 -0.4752  2.4049
 9080SOL    HW238703   4.684   2.403   3.225 -1.3653 -0.7022 -1.2191
 9081SOL     OW38704   4.133   3.931   1.270  0.1944  0.1803 -0.2116
 9081SOL    HW138705   4.131   4.026   1.274  0.8800  0.2150 -0.7492
 9081SOL    HW238706   4.146   3.902   1.360 -0.0091 -2.7979 -1.1260
 9082SOL     OW38707   3.908   1.633  14.906 -0.4922 -0.0606  0.0772
 9082SOL    HW138708   3.847   1.604  14.838 -1.0069 -1.5318  1.1641
 9082SOL    HW238709   3.909   1.552  14.958 -0.6175 -1.1369 -1.5968
 9083SOL     OW38710   3.799   0.629   3.502 -0.0971 -0.1216 -0.3426
 9083SOL    HW138711   3.773   0.659   3.415 -2.5002 -2.7437 -0.5194
 9083SOL    HW238712   3.717   0.586   3.527  0.7305 -0.9487  0.9883
 9084SOL     OW38713   0.717   2.704   8.459 -0.0229  0.5177  0.2440
 9084SOL    HW138714   0.756   2.621   8.433  3.7054  2.1835  0.4915
 9084SOL    HW238715   0.744   2.718   8.550 -0.3216  0.9086  0.2768
 9085SOL     OW38716   4.150   2.164   0.331  0.0466 -0.0310  0.0805
 9085SOL    HW138717   4.119   2.203   0.249  0.9914 -2.3143 -1.3612
 9085SOL    HW238718   4.156   2.248   0.378 -2.6819 -1.5174  3.1185
 9086SOL     OW38719   0.385   3.605   3.390  0.1594  0.6211  0.5132
 9086SOL    HW138720   0.337   3.555   3.323  0.9576  2.9710 -1.8173
 9086SOL    HW238721   0.466   3.602   3.339 -0.7907  0.6979 -1.0348
 9087SOL     OW38722   0.589   1.147   0.657  0.1597 -0.0702 -0.2686
 9087SOL    HW138723   0.680   1.149   0.687  0.3095 -1.4174 -0.6096
 9087SOL    HW238724   0.548   1.170   0.741  2.5079  0.6653  0.6877
 9088SOL     OW38725   1.898   2.374   5.324  0.2201  0.4068 -0.0374
 9088SOL    HW138726   1.849   2.292   5.315  0.9820 -0.0921  0.3471
 9088SOL    HW238727   1.944   2.379   5.240  1.2626  0.8109  0.5593
 9089SOL     OW38728   0.331   2.908  11.680 -0.8825  0.5279 -0.0875
 9089SOL    HW138729   0.423   2.905  11.653 -0.8494 -2.1860  0.2887
 9089SOL    HW238730   0.320   2.814  11.697 -0.3517  0.6345  0.8865
 9090SOL     OW38731   0.864   4.264   3.736  0.2511 -0.0537 -1.0803
 9090SOL    HW138732   0.921   4.236   3.664  1.3834 -1.6744  0.4421
 9090SOL    HW238733   0.827   4.340   3.691 -1.3162  0.3785  0.9500
 9091SOL     OW38734   0.259   0.339   7.620  0.4943 -0.4581 -0.2276
 9091SOL    HW138735   0.240   0.419   7.571 -1.7173 -1.3093 -0.7308
 9091SOL    HW238736   0.326   0.301   7.563 -0.4623 -1.2911 -0.7849
 9092SOL     OW38737   4.344   1.042   4.480 -0.4405  0.1898  0.2363
 9092SOL    HW138738   4.332   1.016   4.389 -0.2446  2.5588 -0.4646
 9092SOL    HW238739   4.268   1.100   4.483 -0.9508 -0.2960 -3.4371
 9093SOL     OW38740   1.939   2.647  11.021  0.1619  0.0585 -0.0418
 9093SOL    HW138741   2.007   2.680  10.962  0.4691  0.0959  0.3361
 9093SOL    HW238742   1.914   2.561  10.987  0.6473 -0.7533  1.6688
 9094SOL     OW38743   4.265   0.114   3.735 -0.2526  0.3081  0.1248
 9094SOL    HW138744   4.252   0.129   3.641  1.0987 -0.0458 -0.1236
 9094SOL    HW238745   4.209   0.041   3.759 -0.9092  0.6519 -0.3611
 9095SOL     OW38746   2.716   2.563   4.570  0.0090 -0.1191  0.4073
 9095SOL    HW138747   2.803   2.552   4.609  0.2727  0.5189 -0.0084
 9095SOL    HW238748   2.715   2.503   4.495  1.9118 -1.5098  1.4814
 9096SOL     OW38749   3.618   0.986  17.426 -0.4140  0.0729  0.0241
 9096SOL    HW138750   3.707   0.955  17.407 -0.7938  0.6463 -2.6520
 9096SOL    HW238751   3.574   0.905  17.451 -0.7658  0.0109 -0.8207
 9097SOL     OW38752   4.071   3.840  11.038 -0.0279  0.4061 -0.6251
 9097SOL    HW138753   4.033   3.753  11.045  1.0852 -0.0029  0.1069
 9097SOL    HW238754   4.024   3.893  11.103 -0.8761  0.6178 -1.3911
 9098SOL     OW38755   4.255   3.907   4.674  0.4127 -0.5119 -0.2542
 9098SOL    HW138756   4.167   3.886   4.641 -0.4924 -0.8595  2.4316
 9098SOL    HW238757   4.306   3.909   4.593 -0.8862  0.6850 -1.0359
 9099SOL     OW38758   3.643   1.618   7.466 -0.1774  0.0055 -0.3280
 9099SOL    HW138759   3.650   1.704   7.425 -3.8954  0.9316  0.9779
 9099SOL    HW238760   3.550   1.613   7.486 -0.5102 -0.6063 -2.0725
 9100SOL     OW38761   0.908   4.440   5.592 -0.0018 -0.0683  0.0440
 9100SOL    HW138762   0.894   4.426   5.686  0.4482  0.2370  0.1565
 9100SOL    HW238763   0.841   4.503   5.569 -1.3823 -1.6378 -0.2371
 9101SOL     OW38764   3.390   0.557   1.148 -0.1155  0.2002  0.4347
 9101SOL    HW138765   3.316   0.586   1.201 -1.3273  0.4672 -1.3936
 9101SOL    HW238766   3.439   0.506   1.212 -0.0570 -0.6919 -0.3134
 9102SOL     OW38767   1.234   0.982   3.017  0.1417 -0.0491  0.7513
 9102SOL    HW138768   1.318   0.940   3.000  0.1501  0.5787 -0.7571
 9102SOL    HW238769   1.271   1.064   3.050  1.8432 -0.0059 -1.2918
 9103SOL     OW38770   3.748   2.862  12.827 -0.4818 -0.0356  0.2756
 9103SOL    HW138771   3.694   2.870  12.749 -0.7551 -0.5138  0.4180
 9103SOL    HW238772   3.729   2.948  12.863 -0.3521 -0.1248  0.5570
 9104SOL     OW38773   3.274   0.836  15.170 -0.4319  0.4569 -0.0241
 9104SOL    HW138774   3.236   0.924  15.163  0.8477  1.1001  1.1785
 9104SOL    HW238775   3.324   0.836  15.088 -1.7295  2.5788 -0.8453
 9105SOL     OW38776   3.100   0.354  10.304  0.0491 -0.3827 -0.9879
 9105SOL    HW138777   3.062   0.437  10.334  0.2095 -0.9109  0.7074
 9105SOL    HW238778   3.128   0.320  10.389 -0.4776  0.0952 -0.6158
 9106SOL     OW38779   4.305   4.423   5.041 -0.1560 -0.6136  0.1123
 9106SOL    HW138780   4.376   4.479   5.007  0.3074  0.4236  2.7531
 9106SOL    HW238781   4.341   4.399   5.127 -0.1344  1.4616  0.6944
 9107SOL     OW38782   0.178   1.610  11.740  1.0828  0.3194  0.1919
 9107SOL    HW138783   0.136   1.547  11.799 -1.0413  2.5526  1.0129
 9107SOL    HW238784   0.247   1.555  11.702  2.1940 -0.6048  3.4649
 9108SOL     OW38785   0.968   2.565   3.759  0.6124 -0.0996  0.1725
 9108SOL    HW138786   0.972   2.484   3.709 -0.1035  0.9505 -1.6154
 9108SOL    HW238787   0.931   2.544   3.845  0.7957  1.7523  0.7052
 9109SOL     OW38788   2.119   0.192   2.484  0.3281 -0.7005 -0.4439
 9109SOL    HW138789   2.116   0.147   2.400 -2.1878 -1.3261 -0.0148
 9109SOL    HW238790   2.034   0.174   2.524  0.5175 -0.2067  0.1831
 9110SOL     OW38791   2.935   1.791  14.047 -0.0659 -0.1563 -0.1969
 9110SOL    HW138792   2.935   1.695  14.045  0.6203 -0.1717  0.6744
 9110SOL    HW238793   2.960   1.810  14.137 -1.9785 -2.3765  0.8124
 9111SOL     OW38794   4.362   4.489   1.904  0.7076 -0.0692  0.5250
 9111SOL    HW138795   4.451   4.457   1.891  0.8216  0.8040 -0.9236
 9111SOL    HW238796   4.327   4.430   1.970  0.1845 -0.7048 -0.3183
 9112SOL     OW38797   1.618   1.796   3.666  0.3653 -0.1357  0.2055
 9112SOL    HW138798   1.625   1.797   3.571 -0.1380  1.3534  0.1817
 9112SOL    HW238799   1.582   1.882   3.687 -1.7605 -0.9905  0.0255
 9113SOL     OW38800   0.790   2.972   0.488  0.0938 -0.4853  0.1051
 9113SOL    HW138801   0.806   2.967   0.394 -2.4576 -0.7398 -0.3140
 9113SOL    HW238802   0.847   3.048   0.499  0.8649 -1.0808  0.2257
 9114SOL     OW38803   2.061   0.856  16.238  0.1259  0.7614 -0.0105
 9114SOL    HW138804   2.007   0.795  16.288 -2.6708  0.2603 -3.6826
 9114SOL    HW238805   1.995   0.910  16.194 -0.7782 -0.3149  0.0315
 9115SOL     OW38806   0.447   0.158   4.940  0.1545 -0.4333 -0.2399
 9115SOL    HW138807   0.368   0.127   4.896  0.3001  3.2802 -3.0750
 9115SOL    HW238808   0.489   0.200   4.865 -0.0453 -1.0038 -0.6673
 9116SOL     OW38809   3.785   4.383   0.256  0.3583  0.0412 -1.0873
 9116SOL    HW138810   3.806   4.434   0.177 -0.2498 -0.4077 -1.5409
 9116SOL    HW238811   3.785   4.456   0.318  1.2117  1.2306 -2.4524
 9117SOL     OW38812   2.289   2.257  12.854  0.4800  0.5468  0.2552
 9117SOL    HW138813   2.363   2.235  12.797  0.1863 -1.5483  0.6832
 9117SOL    HW238814   2.328   2.263  12.942 -0.5567 -3.5303  0.9954
 9118SOL     OW38815   0.979   1.731  17.460  0.2735 -0.5461 -0.3414
 9118SOL    HW138816   1.053   1.770  17.413  0.4922  1.9358  2.0639
 9118SOL    HW238817   0.899   1.765  17.419 -0.6388 -1.6818  0.4970
 9119SOL     OW38818   0.295   0.430   4.938  0.2485  0.6751  0.2965
 9119SOL    HW138819   0.230   0.361   4.951  1.4283 -0.2447  1.2895
 9119SOL    HW238820   0.363   0.398   4.997  0.3812 -0.1733 -0.3253
 9120SOL     OW38821   4.429   2.901   3.319 -0.6517 -0.3118 -0.3742
 9120SOL    HW138822   4.402   2.809   3.318 -2.0737  0.1138  1.5113
 9120SOL    HW238823   4.346   2.944   3.299 -0.7368 -0.0699  0.5389
 9121SOL     OW38824   2.820   2.388   7.567  0.6014  0.1362 -0.3607
 9121SOL    HW138825   2.780   2.397   7.653  2.8572  1.4442  0.5306
 9121SOL    HW238826   2.832   2.479   7.539 -0.2107 -0.1098 -1.5320
 9122SOL     OW38827   1.218   1.379   5.871  0.6006 -0.3966 -0.0313
 9122SOL    HW138828   1.256   1.296   5.901 -0.2505 -1.0590 -0.8035
 9122SOL    HW238829   1.164   1.364   5.794 -0.6425  0.5056  0.6748
 9123SOL     OW38830   3.277   1.913   9.410 -0.4490 -0.1571  0.2409
 9123SOL    HW138831   3.342   1.920   9.479  0.1632  0.0782 -0.3632
 9123SOL    HW238832   3.321   1.974   9.352  0.6617 -1.9748 -0.8117
 9124SOL     OW38833   1.675   3.844   0.049 -0.1229 -0.6528  0.5115
 9124SOL    HW138834   1.615   3.796   0.105 -1.9307  0.2307 -0.6751
 9124SOL    HW238835   1.652   3.802  17.663  1.3205 -1.3835  0.4894
 9125SOL     OW38836   0.963   0.840  12.929 -0.3820  0.4000  0.3235
 9125SOL    HW138837   0.963   0.746  12.951 -2.1134  0.2935 -0.0796
 9125SOL    HW238838   0.879   0.841  12.882  0.1339 -1.5325 -0.6510
 9126SOL     OW38839   2.910   3.056   6.730  0.1003 -0.1914 -0.8013
 9126SOL    HW138840   2.853   2.978   6.724  0.0678 -0.1696 -0.7757
 9126SOL    HW238841   2.880   3.109   6.804  1.9123 -0.2139 -0.0527
 9127SOL     OW38842   2.251   4.319   8.809  0.0294  0.2803  0.3566
 9127SOL    HW138843   2.165   4.359   8.799  0.4513  1.2144  0.3905
 9127SOL    HW238844   2.287   4.382   8.872  0.8780  1.4361 -1.2811
 9128SOL     OW38845   0.256   0.636   7.096 -0.5118  0.4947  1.0161
 9128SOL    HW138846   0.167   0.671   7.102 -1.4156 -1.5823 -0.3103
 9128SOL    HW238847   0.310   0.699   7.144 -0.5613  0.2325  1.4137
 9129SOL     OW38848   3.699   4.023   9.927 -0.6931  0.3628 -0.2489
 9129SOL    HW138849   3.648   4.104   9.919 -1.0775 -0.0417 -1.9439
 9129SOL    HW238850   3.701   3.986   9.839 -1.2865 -0.3932  0.0510
 9130SOL     OW38851   0.654   3.993  14.227 -0.0274  0.8257 -0.0750
 9130SOL    HW138852   0.611   3.979  14.143  1.2661  1.1252 -0.7822
 9130SOL    HW238853   0.614   4.070  14.269 -0.4630 -0.0561  1.1558
 9131SOL     OW38854   1.518   2.985   6.739 -0.3722 -0.0103 -0.1770
 9131SOL    HW138855   1.518   2.894   6.770 -0.4307  0.2210  0.5149
 9131SOL    HW238856   1.573   3.037   6.797 -1.7572  1.8603 -0.5356
 9132SOL     OW38857   2.008   4.665   8.205  0.3194 -0.2361 -0.3735
 9132SOL    HW138858   2.008   4.570   8.192 -0.0375 -0.4316  0.9650
 9132SOL    HW238859   2.091   4.697   8.172  0.5960  0.2092  0.7336
 9133SOL     OW38860   2.179   0.592  17.381  1.2135  0.2686 -0.3137
 9133SOL    HW138861   2.233   0.589  17.302  0.4096  2.3186 -0.9407
 9133SOL    HW238862   2.236   0.590  17.458  0.9094 -0.6978 -0.1106
 9134SOL     OW38863   0.526   4.013   7.832  0.4717 -0.1019 -0.4789
 9134SOL    HW138864   0.558   4.052   7.913  1.4841 -1.0772 -0.4095
 9134SOL    HW238865   0.519   3.922   7.860  0.1049 -0.2327 -0.9972
 9135SOL     OW38866   1.585   2.358  16.292  0.0122  0.2554  0.2044
 9135SOL    HW138867   1.500   2.391  16.320 -0.0122  0.1073  0.3025
 9135SOL    HW238868   1.573   2.266  16.317 -1.5851  0.4872  0.2807
 9136SOL     OW38869   1.582   0.368   5.278 -0.3173  0.2162 -0.2073
 9136SOL    HW138870   1.582   0.286   5.229 -2.6166  1.1447 -1.7228
 9136SOL    HW238871   1.533   0.341   5.356  1.9492 -1.8013  0.5252
 9137SOL     OW38872   4.554   1.575  10.978  0.1920 -0.1719 -0.2420
 9137SOL    HW138873   4.537   1.669  10.982  0.6613 -0.0696 -0.6651
 9137SOL    HW238874   4.555   1.558  10.883  0.2650  1.3908 -0.5261
 9138SOL     OW38875   4.007   3.566  13.563 -0.0367 -0.1121  0.5774
 9138SOL    HW138876   4.096   3.546  13.591  0.1848  1.3496  0.9339
 9138SOL    HW238877   4.001   3.525  13.477  0.5902  1.1710 -0.0901
 9139SOL     OW38878   4.419   2.110   9.750 -0.1860 -0.5549  0.1064
 9139SOL    HW138879   4.440   2.051   9.822 -1.8468  1.5584  2.3567
 9139SOL    HW238880   4.389   2.042   9.690 -1.0447 -0.7425  0.7480
 9140SOL     OW38881   2.819   4.712   5.909  0.7384  0.1961 -0.1745
 9140SOL    HW138882   2.838   0.042   5.985 -3.6667  0.3462  0.8256
 9140SOL    HW238883   2.901   4.684   5.867  0.3915  1.5990 -1.8127
 9141SOL     OW38884   3.012   3.271   4.100 -0.3385  0.3732 -0.8194
 9141SOL    HW138885   3.075   3.218   4.051 -0.7103 -0.6251 -0.2102
 9141SOL    HW238886   3.042   3.256   4.190  2.3521 -0.7123 -1.8950
 9142SOL     OW38887   0.960   1.190   7.159  0.1228 -0.1691 -0.1678
 9142SOL    HW138888   0.960   1.126   7.230  0.0145 -2.4288 -2.1899
 9142SOL    HW238889   1.021   1.153   7.095 -0.2597  0.5225 -0.9388
 9143SOL     OW38890   3.509   1.786   2.821  0.2411  0.1138 -0.3642
 9143SOL    HW138891   3.495   1.881   2.815 -0.2652  0.1076  0.7706
 9143SOL    HW238892   3.582   1.778   2.759  2.3565 -0.3782  2.1800
 9144SOL     OW38893   2.696   3.149   3.928  0.3456 -0.1430  0.0157
 9144SOL    HW138894   2.699   3.168   4.022 -0.9319 -1.3873  0.3149
 9144SOL    HW238895   2.682   3.054   3.933  0.1239 -0.1382 -0.5215
 9145SOL     OW38896   0.494   4.318  15.077  0.1331 -0.0945  0.4227
 9145SOL    HW138897   0.521   4.410  15.081 -0.1991  0.0139  0.1583
 9145SOL    HW238898   0.405   4.339  15.048  0.0210 -1.1654 -0.0042
 9146SOL     OW38899   0.278   0.356   8.054 -0.5564  0.5073  0.0229
 9146SOL    HW138900   0.262   0.270   8.093 -0.2862  2.1086  3.6842
 9146SOL    HW238901   0.213   0.345   7.985  1.7588  0.0067 -2.0547
 9147SOL     OW38902   1.710   4.012   7.710  0.0626 -0.3907 -0.2508
 9147SOL    HW138903   1.634   3.987   7.763 -0.3356  0.6130 -0.3323
 9147SOL    HW238904   1.668   4.067   7.644 -2.7483 -1.0929  0.9533
 9148SOL     OW38905   3.202   1.135  11.341 -0.4986 -0.2862  0.4952
 9148SOL    HW138906   3.202   1.229  11.361  0.3081 -0.0153 -0.7869
 9148SOL    HW238907   3.169   1.110  11.428  1.0315 -1.1576  0.8296
 9149SOL     OW38908   1.926   4.646   7.849 -0.0663  0.2474 -0.2925
 9149SOL    HW138909   1.991   4.593   7.896  0.3592  1.1713  0.1499
 9149SOL    HW238910   1.923   0.003   7.900  1.4299  0.4979 -0.5980
 9150SOL     OW38911   3.243   4.133   6.835  0.1135  0.1198  0.1665
 9150SOL    HW138912   3.176   4.157   6.899  1.3187  2.1254  0.6862
 9150SOL    HW238913   3.321   4.145   6.889 -0.8679  1.2830  1.3002
 9151SOL     OW38914   1.810   1.622   7.878  0.2383  0.0021 -0.6728
 9151SOL    HW138915   1.801   1.569   7.798  1.4334 -1.4126  0.1310
 9151SOL    HW238916   1.749   1.693   7.861 -0.2361  0.0917  1.5145
 9152SOL     OW38917   0.625   0.714   5.446 -0.0696  0.1275 -0.5651
 9152SOL    HW138918   0.626   0.635   5.499  1.7356  1.7202  1.7992
 9152SOL    HW238919   0.530   0.719   5.431 -0.2288 -0.9188  0.1684
 9153SOL     OW38920   2.276   0.587   7.956  0.1300 -0.1216 -0.0450
 9153SOL    HW138921   2.218   0.578   8.032 -0.9019  0.3958 -0.7694
 9153SOL    HW238922   2.240   0.524   7.894  0.7830  0.9143 -1.4854
 9154SOL     OW38923   3.989   4.409   5.363 -0.1929  0.2850 -0.1551
 9154SOL    HW138924   4.002   4.417   5.457  0.1342 -1.3847 -0.0585
 9154SOL    HW238925   3.894   4.418   5.357 -0.2796  0.6718  1.9220
 9155SOL     OW38926   2.484   2.179  12.666 -0.8572 -0.0639 -0.4950
 9155SOL    HW138927   2.531   2.102  12.633 -0.6291 -0.7057  1.3193
 9155SOL    HW238928   2.549   2.249  12.663  0.3649 -1.1546  0.3069
 9156SOL     OW38929   0.824   3.732   5.567  0.2351  0.6427 -0.5789
 9156SOL    HW138930   0.846   3.640   5.557  0.1717  0.6489 -0.7760
 9156SOL    HW238931   0.773   3.722   5.648 -0.2167  1.6400 -0.7363
 9157SOL     OW38932   0.075   2.083   7.155 -0.1706  0.2610  0.1559
 9157SOL    HW138933   0.144   2.028   7.118  0.5906  2.0059 -1.0362
 9157SOL    HW238934   0.033   2.015   7.207  3.5116 -0.4090  2.2994
 9158SOL     OW38935   2.456   4.231   2.513  0.4029 -0.0334 -0.0270
 9158SOL    HW138936   2.410   4.211   2.432 -2.3229  1.1710  1.2221
 9158SOL    HW238937   2.433   4.324   2.514  1.8168  0.3149  0.1364
 9159SOL     OW38938   3.979   1.866  15.496  0.3389  0.1184 -1.2080
 9159SOL    HW138939   3.920   1.876  15.571  2.3705 -0.3379  0.4339
 9159SOL    HW238940   4.038   1.794  15.518  1.1190  0.9159 -0.6985
 9160SOL     OW38941   0.784   0.293   2.620 -0.0045 -0.2382  0.1377
 9160SOL    HW138942   0.750   0.258   2.537 -2.6638  0.4001  0.9571
 9160SOL    HW238943   0.781   0.388   2.611 -2.3918 -0.1629  1.6256
 9161SOL     OW38944   1.033   0.840  16.774  0.2974  0.0524 -0.2143
 9161SOL    HW138945   1.079   0.876  16.699  0.7114 -0.1248 -0.0449
 9161SOL    HW238946   1.080   0.762  16.804 -1.4139 -1.0064 -0.2732
 9162SOL     OW38947   4.033   2.244  15.102 -0.2485  0.6775 -0.1291
 9162SOL    HW138948   4.015   2.288  15.020  0.2628  0.3524 -0.4209
 9162SOL    HW238949   3.977   2.167  15.094  1.6059 -0.7552  0.6120
 9163SOL     OW38950   0.150   2.603   4.014 -0.4379  0.0405 -0.3888
 9163SOL    HW138951   0.146   2.698   4.013  3.2386  0.1932  0.0364
 9163SOL    HW238952   0.243   2.590   4.033 -0.3903  1.5065  0.3494
 9164SOL     OW38953   0.168   3.837   6.549 -0.4198  0.1439  0.1226
 9164SOL    HW138954   0.121   3.828   6.632  0.3581  1.3227  0.7090
 9164SOL    HW238955   0.256   3.857   6.583 -0.2923 -2.6852  1.4532
 9165SOL     OW38956   1.992   1.519   5.537  0.0221 -0.0058  0.8491
 9165SOL    HW138957   1.999   1.451   5.605  2.1162 -1.3724 -0.7510
 9165SOL    HW238958   1.902   1.520   5.507  0.7904 -1.0839 -1.4710
 9166SOL     OW38959   3.526   3.995   8.554  0.3277  1.2090  0.0502
 9166SOL    HW138960   3.464   4.052   8.600 -0.9582 -0.3898  0.3058
 9166SOL    HW238961   3.596   4.060   8.557  0.7808  0.6956  0.6680
 9167SOL     OW38962   0.342   2.739  10.942  0.2843 -0.7460  0.2302
 9167SOL    HW138963   0.383   2.810  10.892  0.3111 -1.5365 -0.8655
 9167SOL    HW238964   0.250   2.765  10.944  1.0031  2.0291 -2.7342
 9168SOL     OW38965   3.129   1.020  13.279  0.4591 -0.5382  0.5014
 9168SOL    HW138966   3.080   1.076  13.340  0.6944 -0.1253  0.3103
 9168SOL    HW238967   3.183   0.964  13.335 -1.2228 -3.5092 -0.8790
 9169SOL     OW38968   3.341   0.864  17.166  0.2413  0.2797  0.1321
 9169SOL    HW138969   3.299   0.912  17.237  1.0544  2.4098 -0.8301
 9169SOL    HW238970   3.423   0.913  17.156 -0.3051  1.3229  0.8566
 9170SOL     OW38971   1.151   4.335  16.206  0.5386 -0.4530 -0.1982
 9170SOL    HW138972   1.237   4.352  16.169  0.2239  2.2286  0.3100
 9170SOL    HW238973   1.116   4.293  16.127 -0.0278 -0.7090  0.1823
 9171SOL     OW38974   4.439   4.281   3.583 -0.3304 -0.0639 -0.4563
 9171SOL    HW138975   4.438   4.377   3.591 -1.1152 -0.0845 -0.3082
 9171SOL    HW238976   4.407   4.249   3.667  2.1461 -0.3202  0.3717
 9172SOL     OW38977   3.811   1.872  12.065  0.1625  0.1216  0.2475
 9172SOL    HW138978   3.831   1.842  12.153  1.9440  2.8330  0.7567
 9172SOL    HW238979   3.893   1.856  12.018 -0.2398 -0.9924 -0.0689
 9173SOL     OW38980   2.759   0.944   3.996 -0.4061 -0.2175  0.6402
 9173SOL    HW138981   2.678   0.987   4.025  1.6907  4.6564 -0.7784
 9173SOL    HW238982   2.830   1.008   3.998 -2.2031  1.8153  0.0036
 9174SOL     OW38983   3.268   0.665  16.011  0.2650  0.3865 -0.1131
 9174SOL    HW138984   3.338   0.647  15.948  0.9484  2.1918  0.1072
 9174SOL    HW238985   3.220   0.741  15.977 -0.0752  0.4663  0.5408
 9175SOL     OW38986   0.781   1.264   5.102  0.2404 -0.2574 -0.1681
 9175SOL    HW138987   0.823   1.214   5.032  1.4991  1.9078 -0.9307
 9175SOL    HW238988   0.820   1.223   5.179  0.6234  1.2351  0.4246
 9176SOL     OW38989   3.504   1.186   8.079 -0.0230  0.4308 -0.2399
 9176SOL    HW138990   3.505   1.091   8.090  0.4132  0.3955 -0.6036
 9176SOL    HW238991   3.494   1.212   8.171 -0.9741  3.9850 -1.3705
 9177SOL     OW38992   4.339   3.545   3.477 -0.2012 -0.5148 -0.1765
 9177SOL    HW138993   4.362   3.518   3.389  0.7426  0.6258 -0.2836
 9177SOL    HW238994   4.261   3.491   3.490 -0.5311 -0.2989 -1.3121
 9178SOL     OW38995   4.454   0.268  16.380  0.4232 -0.1598 -0.2791
 9178SOL    HW138996   4.500   0.322  16.444  1.3872 -0.8605 -0.3843
 9178SOL    HW238997   4.404   0.214  16.441  0.6981  0.4527  0.4912
 9179SOL     OW38998   2.414   3.349   8.298 -0.0387  0.2675 -0.1695
 9179SOL    HW138999   2.359   3.387   8.367  2.3747 -0.0983  1.9355
 9179SOL    HW239000   2.353   3.331   8.227 -0.0910 -1.2105  0.2495
 9180SOL     OW39001   1.457   2.531  13.054 -0.3270  0.1512  0.3852
 9180SOL    HW139002   1.520   2.601  13.070  0.7253 -0.6005 -0.4235
 9180SOL    HW239003   1.411   2.522  13.137  0.3345  0.6877  0.8094
 9181SOL     OW39004   4.151   2.339   4.865 -0.3292 -0.4643  0.1443
 9181SOL    HW139005   4.152   2.257   4.915  0.2822 -1.1853 -1.0666
 9181SOL    HW239006   4.234   2.332   4.819 -1.2423 -2.7685 -1.1420
 9182SOL     OW39007   3.181   2.720   3.259 -0.9184  0.5939 -0.1862
 9182SOL    HW139008   3.155   2.754   3.174 -1.6219 -0.8500 -0.5492
 9182SOL    HW239009   3.192   2.627   3.238 -0.9927 -0.0510  2.6004
 9183SOL     OW39010   2.063   0.203   9.230  0.3020 -0.2030  0.4178
 9183SOL    HW139011   2.087   0.236   9.144  0.9384  2.2220  1.5145
 9183SOL    HW239012   2.126   0.131   9.236  0.7148  0.2483  1.5437
 9184SOL     OW39013   4.687   0.699   6.751  0.1891  0.2920  0.5770
 9184SOL    HW139014   4.618   0.738   6.805  0.2985  0.2425  0.7544
 9184SOL    HW239015   0.020   0.774   6.735  0.9031  0.0425  1.9008
 9185SOL     OW39016   2.956   2.263   1.745 -0.3227  0.2146 -0.0530
 9185SOL    HW139017   2.954   2.251   1.840 -2.4354  0.4439 -0.0659
 9185SOL    HW239018   2.887   2.206   1.709 -0.3706  0.1316  0.1729
 9186SOL     OW39019   0.748   3.872  14.454  0.0674 -0.2679 -0.0498
 9186SOL    HW139020   0.692   3.906  14.523  1.2404  0.2776  0.6308
 9186SOL    HW239021   0.708   3.909  14.375 -0.5601 -1.1046 -0.1241
 9187SOL     OW39022   0.112   3.403   6.753 -0.0510 -0.0888  0.1992
 9187SOL    HW139023   0.089   3.420   6.662  1.7504 -0.8701 -0.4032
 9187SOL    HW239024   0.185   3.341   6.747  1.1572  1.4300 -0.8139
 9188SOL     OW39025   3.651   4.656   3.608  0.2754 -0.1343 -0.2335
 9188SOL    HW139026   3.591   4.648   3.533 -1.5018 -0.7325  1.2626
 9188SOL    HW239027   3.602   4.719   3.661  1.7508  0.1830  0.7316
 9189SOL     OW39028   2.934   3.136   5.273  0.3821  0.1953 -0.2973
 9189SOL    HW139029   2.875   3.211   5.278 -1.2485 -1.0874 -0.2863
 9189SOL    HW239030   3.014   3.179   5.244  1.1922  0.5614  2.4444
 9190SOL     OW39031   1.216   0.923   4.116  0.0299 -0.1477  0.6318
 9190SOL    HW139032   1.134   0.876   4.130 -1.3580  1.1250 -3.2640
 9190SOL    HW239033   1.276   0.885   4.181 -2.1938  0.7361  3.2134
 9191SOL     OW39034   4.622   2.516   4.144 -0.0552  0.2365  0.1353
 9191SOL    HW139035   4.618   2.463   4.223  0.4017  0.6963  0.4652
 9191SOL    HW239036   4.711   2.549   4.136  0.0146 -0.1550 -0.6488
 9192SOL     OW39037   2.354   0.898   2.914  0.2395 -0.1778 -0.2212
 9192SOL    HW139038   2.392   0.950   2.844  1.1290 -2.5710 -1.5158
 9192SOL    HW239039   2.260   0.914   2.918  0.0503 -1.0903 -0.9528
 9193SOL     OW39040   1.194   2.482   6.595  0.3635 -0.5954  0.0596
 9193SOL    HW139041   1.150   2.544   6.537  0.3678 -0.4235  0.2403
 9193SOL    HW239042   1.116   2.436   6.625  1.2411 -2.1559 -0.0865
 9194SOL     OW39043   1.898   0.116   8.875 -0.2233  0.0199 -0.0995
 9194SOL    HW139044   1.817   0.161   8.852 -1.7561 -1.6589  2.1119
 9194SOL    HW239045   1.892   0.127   8.970 -1.3336  1.1029 -0.2972
 9195SOL     OW39046   2.537   4.019  12.632 -0.4086  0.0512  0.3306
 9195SOL    HW139047   2.539   3.948  12.568  0.0948  0.6076 -0.2798
 9195SOL    HW239048   2.585   3.993  12.710 -0.5436 -0.9775  0.0667
 9196SOL     OW39049   0.486   0.974   6.562  0.3061 -0.0850  0.2188
 9196SOL    HW139050   0.578   0.951   6.570  0.2446 -0.9080 -1.3371
 9196SOL    HW239051   0.459   0.908   6.498  0.8913 -1.0059  0.9282
 9197SOL     OW39052   1.072   4.404  15.361 -0.1084  0.0909 -0.6899
 9197SOL    HW139053   1.058   4.396  15.267  1.7287  1.0505 -1.0463
 9197SOL    HW239054   1.094   4.497  15.368 -2.4941  0.7993 -2.3918
 9198SOL     OW39055   4.574   0.943   4.698  0.2178  0.3894 -0.3384
 9198SOL    HW139056   4.653   0.994   4.679 -1.3333  3.5422  1.5598
 9198SOL    HW239057   4.568   0.883   4.624 -1.8309 -0.8407  0.8338
 9199SOL     OW39058   0.353   4.455  13.847 -0.3459  0.2589  0.0597
 9199SOL    HW139059   0.270   4.410  13.831 -0.5212  0.5405  0.1823
 9199SOL    HW239060   0.318   4.539  13.877  0.7409  0.6264  0.2848
 9200SOL     OW39061   1.036   2.120   7.235  0.6068 -0.7401  0.1238
 9200SOL    HW139062   0.958   2.123   7.289  0.7129 -2.4297  0.3546
 9200SOL    HW239063   1.073   2.195   7.282 -0.5251  1.0222 -1.7484
 9201SOL     OW39064   2.403   0.120   4.097  0.2778 -0.4432  0.2372
 9201SOL    HW139065   2.442   0.207   4.092  2.9325 -1.7362 -1.2869
 9201SOL    HW239066   2.452   0.072   4.031  1.6104  0.4629  0.5778
 9202SOL     OW39067   1.018   1.754   7.472 -0.1843 -0.2452  0.2417
 9202SOL    HW139068   0.955   1.709   7.416  0.0576  1.9956 -1.8255
 9202SOL    HW239069   1.026   1.683   7.535  0.7693 -1.9208 -1.7435
 9203SOL     OW39070   0.782   3.367   3.246 -0.1281  0.3522  1.0373
 9203SOL    HW139071   0.729   3.409   3.314 -0.6550  0.2600  0.6827
 9203SOL    HW239072   0.837   3.440   3.217  0.2644  0.1268  1.2076
 9204SOL     OW39073   3.742   0.415   3.887 -0.0241  0.2701  0.0889
 9204SOL    HW139074   3.765   0.507   3.874  1.0059 -0.0386 -0.3157
 9204SOL    HW239075   3.828   0.374   3.880  0.0422  0.0160  2.6638
 9205SOL     OW39076   1.039   2.924   3.215 -0.6214 -0.1837  0.2586
 9205SOL    HW139077   1.002   2.860   3.276 -1.0103  0.7893  1.0290
 9205SOL    HW239078   0.993   2.999   3.251 -1.2053  0.3474 -1.5602
 9206SOL     OW39079   4.618   3.120   6.851 -0.5531 -0.5453 -0.5187
 9206SOL    HW139080   4.564   3.181   6.800 -0.5042  0.7259  0.9526
 9206SOL    HW239081   4.590   3.043   6.802 -1.7703  1.5606 -3.1782
 9207SOL     OW39082   2.770   1.988  11.989 -0.6218 -0.0990 -0.3305
 9207SOL    HW139083   2.708   2.019  12.055 -1.4365 -1.8874 -0.2559
 9207SOL    HW239084   2.855   2.024  12.014 -1.0327  0.1519  0.6919
 9208SOL     OW39085   2.413   0.162   3.236 -0.1835 -0.2377  0.4103
 9208SOL    HW139086   2.387   0.110   3.160 -0.1839  0.9530 -0.4119
 9208SOL    HW239087   2.476   0.216   3.188 -0.7260 -0.9409 -1.0977
 9209SOL     OW39088   2.937   2.277   6.292 -0.6390 -0.1156  0.5496
 9209SOL    HW139089   2.864   2.283   6.353 -0.3344  1.0883  0.8108
 9209SOL    HW239090   2.946   2.364   6.251 -0.7779  0.2056  1.2014
 9210SOL     OW39091   2.955   2.303  14.637 -0.9058 -0.2670 -0.5821
 9210SOL    HW139092   3.008   2.238  14.684 -0.2036  1.1346  0.5513
 9210SOL    HW239093   2.942   2.272  14.547  1.9586  0.4831 -1.2630
 9211SOL     OW39094   0.214   1.371  11.602 -0.2508 -0.4630  0.6163
 9211SOL    HW139095   0.125   1.402  11.584  0.6124  1.4592 -0.3642
 9211SOL    HW239096   0.255   1.355  11.517  0.6428  2.4111  0.4831
 9212SOL     OW39097   4.611   0.948   3.236  0.1593 -0.8897  0.0392
 9212SOL    HW139098   4.680   0.957   3.170  0.0687 -1.6727 -0.1569
 9212SOL    HW239099   4.664   0.955   3.315 -0.9837  3.1555  0.4620
 9213SOL     OW39100   1.622   0.516  10.464 -0.3057  0.0270  0.4264
 9213SOL    HW139101   1.541   0.468  10.450  2.5735 -4.4490 -0.7209
 9213SOL    HW239102   1.585   0.575  10.529  1.8000  0.2419  1.4150
 9214SOL     OW39103   2.383   1.475   4.680 -0.1386 -0.4047 -0.1316
 9214SOL    HW139104   2.381   1.397   4.625 -0.5084 -0.5860  0.1424
 9214SOL    HW239105   2.358   1.446   4.768 -0.9595 -1.2757 -0.6577
 9215SOL     OW39106   3.168   0.865   6.645 -0.1652  0.0750  0.4011
 9215SOL    HW139107   3.127   0.850   6.730  0.7564 -0.2567  0.7832
 9215SOL    HW239108   3.111   0.922   6.593 -0.6531 -1.1561 -0.4276
 9216SOL     OW39109   2.250   3.182   7.253  0.1098 -0.2012 -0.1266
 9216SOL    HW139110   2.271   3.089   7.242  0.7509 -0.2849  1.7065
 9216SOL    HW239111   2.231   3.182   7.347 -0.5486 -0.9019 -0.2598
 9217SOL     OW39112   0.713   2.032   8.123 -0.0056 -0.1917 -0.1591
 9217SOL    HW139113   0.686   1.997   8.038  1.1088 -1.4545 -0.0013
 9217SOL    HW239114   0.800   1.992   8.132 -0.3430 -1.1445 -1.1683
 9218SOL     OW39115   0.649   2.367   5.201 -0.0617  0.4736  0.3408
 9218SOL    HW139116   0.717   2.375   5.134  1.7922 -2.3060  1.8599
 9218SOL    HW239117   0.572   2.386   5.147  0.8481 -0.2617 -1.2390
 9219SOL     OW39118   1.826   0.994   4.027 -0.0321 -0.0892  0.0322
 9219SOL    HW139119   1.880   1.068   4.000 -0.1740  0.1302  0.3518
 9219SOL    HW239120   1.816   0.950   3.942 -0.2297 -0.8806  0.4611
 9220SOL     OW39121   1.910   4.459   0.741 -0.2116  0.5775  0.3991
 9220SOL    HW139122   1.865   4.526   0.689  1.1070  1.5371  0.5020
 9220SOL    HW239123   1.850   4.430   0.809 -2.1935 -0.8216 -1.9446
 9221SOL     OW39124   0.735   1.843   7.190 -0.2792 -0.1633  0.3007
 9221SOL    HW139125   0.658   1.833   7.134 -1.0846 -1.4799  1.6699
 9221SOL    HW239126   0.715   1.928   7.230  0.5380  0.5321 -0.7521
 9222SOL     OW39127   4.041   1.315  17.665  0.2526  0.2584  0.5147
 9222SOL    HW139128   4.065   1.343   0.056 -1.3941 -1.3967  1.4879
 9222SOL    HW239129   4.122   1.339  17.620 -0.9449  1.8404 -0.8025
 9223SOL     OW39130   0.265   4.353  17.272  0.4490 -0.3481 -0.4557
 9223SOL    HW139131   0.315   4.301  17.335  1.2554 -0.6261 -1.3335
 9223SOL    HW239132   0.324   4.352  17.197 -1.2459  0.4099 -1.8035
 9224SOL     OW39133   2.739   1.848   6.144  0.1879 -0.5622  0.4927
 9224SOL    HW139134   2.807   1.914   6.158 -0.9360  0.3217  1.6901
 9224SOL    HW239135   2.715   1.867   6.053 -3.2409 -4.4500  0.6006
 9225SOL     OW39136   3.436   0.174   0.125 -0.0287 -0.1259 -0.3215
 9225SOL    HW139137   3.505   0.228   0.164  0.4893 -2.1603  1.5747
 9225SOL    HW239138   3.431   0.111   0.197 -0.6577  1.4857  1.0651
 9226SOL     OW39139   3.457   0.435  11.029 -0.0028  0.4930 -0.1233
 9226SOL    HW139140   3.462   0.369  10.960 -1.7860 -0.5178  0.7503
 9226SOL    HW239141   3.483   0.376  11.100  1.7222  2.8902  1.2578
 9227SOL     OW39142   3.071   0.307   8.721  0.8123  0.3308 -0.1160
 9227SOL    HW139143   3.123   0.362   8.662  1.9675 -0.4775  0.1494
 9227SOL    HW239144   3.129   0.305   8.797 -1.0993 -1.6620  1.3011
 9228SOL     OW39145   3.893   1.838   4.268 -0.2511  0.0178  0.1874
 9228SOL    HW139146   3.973   1.863   4.222 -0.6639 -1.4192 -1.3086
 9228SOL    HW239147   3.825   1.890   4.225  1.7971  1.1205 -1.6949
 9229SOL     OW39148   3.940   3.022  16.608  0.0774  0.1853  0.3083
 9229SOL    HW139149   3.988   2.982  16.680  0.5403 -1.3619 -0.8751
 9229SOL    HW239150   3.853   2.987  16.626 -0.5825  0.6981 -1.8315
 9230SOL     OW39151   0.973   0.223   4.781  0.2390  0.5305 -0.8806
 9230SOL    HW139152   0.939   0.293   4.725  1.6593  1.3957 -0.6645
 9230SOL    HW239153   0.930   0.238   4.864 -0.4781 -0.4271 -1.0817
 9231SOL     OW39154   0.407   4.644  16.688  0.3515 -0.0335 -0.3928
 9231SOL    HW139155   0.391   4.589  16.611 -4.7973  1.1079 -0.1377
 9231SOL    HW239156   0.402   0.010  16.657 -1.8448  0.1565  0.5429
 9232SOL     OW39157   1.707   1.910   9.656 -0.4126 -1.0104  0.0113
 9232SOL    HW139158   1.770   1.890   9.586 -0.1482  1.6286 -0.4926
 9232SOL    HW239159   1.757   1.871   9.727 -0.4071 -3.0678 -1.0993
 9233SOL     OW39160   0.139   1.421   1.645 -0.3406 -0.0774  0.4622
 9233SOL    HW139161   0.121   1.332   1.612 -0.3792  0.2541 -0.4127
 9233SOL    HW239162   0.187   1.462   1.573 -1.2142 -0.6719 -0.4639
 9234SOL     OW39163   0.892   4.478   7.045 -0.1311 -0.7239 -0.2178
 9234SOL    HW139164   0.803   4.481   7.082  1.2614 -0.2704  3.1484
 9234SOL    HW239165   0.930   4.419   7.110 -1.2330  0.0839  1.1712
 9235SOL     OW39166   3.332   1.740   3.295  0.7050 -0.4951 -0.0750
 9235SOL    HW139167   3.380   1.733   3.378  1.6298 -0.8343 -0.6448
 9235SOL    HW239168   3.242   1.718   3.319 -0.0372  0.8172 -1.7035
 9236SOL     OW39169   1.611   4.262   5.739 -0.2947 -0.0496 -0.0524
 9236SOL    HW139170   1.579   4.256   5.829  0.4128  2.2115  0.3300
 9236SOL    HW239171   1.603   4.168   5.718  0.1946 -0.0927 -0.0530
 9237SOL     OW39172   1.473   0.150   8.987  0.1150  0.2640 -0.4092
 9237SOL    HW139173   1.521   0.214   9.039 -4.2601  1.7904  1.7110
 9237SOL    HW239174   1.382   0.165   9.013  1.0023  0.0392  2.8518
 9238SOL     OW39175   3.219   2.159   2.309  0.3846  0.3367 -0.1543
 9238SOL    HW139176   3.200   2.219   2.237 -0.6081 -1.2482 -1.2277
 9238SOL    HW239177   3.214   2.221   2.382 -0.9267 -1.1384  1.0373
 9239SOL     OW39178   2.138   2.674  11.265 -0.7592  0.0831 -0.4073
 9239SOL    HW139179   2.195   2.747  11.240  0.0009  0.2626  1.8289
 9239SOL    HW239180   2.079   2.669  11.190 -0.7294  0.7100 -0.4701
 9240SOL     OW39181   1.365   4.701   4.952  0.5925 -0.3408  0.1821
 9240SOL    HW139182   1.329   0.034   4.883 -0.6120 -0.4949  0.6823
 9240SOL    HW239183   1.284   4.656   4.978  0.4859 -1.5490 -2.1660
 9241SOL     OW39184   0.315   4.348   5.919 -0.3794 -0.0799  1.1457
 9241SOL    HW139185   0.308   4.255   5.938  2.9345 -0.5475  0.1012
 9241SOL    HW239186   0.284   4.358   5.829  0.0685 -1.9314  0.7793
 9242SOL     OW39187   3.030   2.013   5.923  0.1948  0.1900  0.1791
 9242SOL    HW139188   3.097   2.082   5.924  0.0801  0.2986  0.2393
 9242SOL    HW239189   2.995   2.023   6.011 -0.8358 -0.8338 -0.1145
 9243SOL     OW39190   2.145   4.712   3.579  0.0638 -0.2652  0.1825
 9243SOL    HW139191   2.094   0.006   3.500 -0.4540 -0.4986  0.4659
 9243SOL    HW239192   2.133   4.620   3.599  0.8348 -0.2322  0.7979
 9244SOL     OW39193   1.133   4.449   3.171 -0.0483  0.5659 -0.1565
 9244SOL    HW139194   1.159   4.461   3.263  0.0375  1.0834 -0.2455
 9244SOL    HW239195   1.090   4.531   3.148 -0.0165 -0.4100 -3.6956
 9245SOL     OW39196   2.565   4.038   5.103  0.3794 -0.7307  0.1070
 9245SOL    HW139197   2.543   3.969   5.040  0.3200 -1.7988  1.2926
 9245SOL    HW239198   2.539   3.999   5.187  2.0551 -0.7997  0.5789
 9246SOL     OW39199   2.627   2.222   8.722 -0.2729 -0.0885  0.2637
 9246SOL    HW139200   2.578   2.201   8.801  1.2786 -1.8528  0.7530
 9246SOL    HW239201   2.574   2.164   8.669  1.3465 -2.7832  1.6089
 9247SOL     OW39202   0.045   0.685   9.949  0.7023 -0.0205 -0.3365
 9247SOL    HW139203   0.067   0.616  10.011 -0.9507 -0.5769 -0.3600
 9247SOL    HW239204   0.135   0.702   9.921  0.3682 -0.8557 -1.9297
 9248SOL     OW39205   1.627   0.184   2.042 -0.0619  0.1699 -0.0274
 9248SOL    HW139206   1.561   0.254   2.041  0.2518  0.4771  1.0576
 9248SOL    HW239207   1.586   0.124   2.104  0.0113 -1.4781 -1.5694
 9249SOL     OW39208   2.487   3.171  11.706 -0.6178  0.8883  0.0058
 9249SOL    HW139209   2.495   3.089  11.755  0.2438  0.8982 -0.1190
 9249SOL    HW239210   2.497   3.126  11.623  0.3245  1.3261 -0.1182
 9250SOL     OW39211   2.628   3.389   9.378 -0.7879 -0.5080 -0.3349
 9250SOL    HW139212   2.602   3.322   9.441 -1.5394  1.1196  1.1260
 9250SOL    HW239213   2.560   3.454   9.396  1.9478  1.8936  1.4863
 9251SOL     OW39214   0.317   1.940   6.717  0.2443  0.4822 -0.4617
 9251SOL    HW139215   0.255   1.867   6.716  1.8181 -0.8822  0.1817
 9251SOL    HW239216   0.367   1.927   6.637 -0.4142 -3.1977 -0.3049
 9252SOL     OW39217   1.767   0.968   6.417 -0.2669 -0.0358 -0.5476
 9252SOL    HW139218   1.683   0.961   6.371 -0.6336 -0.5154  0.2022
 9252SOL    HW239219   1.747   1.040   6.477 -1.7250 -1.0690  0.2036
 9253SOL     OW39220   2.745   1.752  11.762  0.2011  0.7079  0.6566
 9253SOL    HW139221   2.700   1.670  11.739 -0.3478  1.2428 -0.2011
 9253SOL    HW239222   2.781   1.791  11.682 -2.6226 -2.6420 -2.2730
 9254SOL     OW39223   2.371   0.329   3.826 -0.0895  1.2461 -0.0857
 9254SOL    HW139224   2.308   0.288   3.766  0.4568  0.5259 -0.1623
 9254SOL    HW239225   2.313   0.347   3.900  0.8381 -2.9842  1.6554
 9255SOL     OW39226   2.351   1.715  13.603 -0.5533  0.1828 -0.3664
 9255SOL    HW139227   2.317   1.728  13.692  2.1198  0.1764  0.6637
 9255SOL    HW239228   2.311   1.788  13.557 -0.9192 -0.2295 -0.7115
 9256SOL     OW39229   0.369   1.255  16.695  0.3737  0.4757  0.0365
 9256SOL    HW139230   0.439   1.295  16.643 -1.4901  2.7637 -0.7544
 9256SOL    HW239231   0.416   1.259  16.778  0.2015 -1.4560  0.2134
 9257SOL     OW39232   3.735   3.549   5.656 -0.0177 -0.4524 -0.8126
 9257SOL    HW139233   3.683   3.630   5.650  0.6076 -0.0460 -0.7525
 9257SOL    HW239234   3.815   3.573   5.611  2.1088 -1.5475  2.3844
 9258SOL     OW39235   4.406   1.257   0.258  0.2193  0.1426 -0.0045
 9258SOL    HW139236   4.379   1.190   0.321 -0.0078 -0.2541 -0.5198
 9258SOL    HW239237   4.480   1.206   0.223  0.2845  0.2452 -0.0177
 9259SOL     OW39238   2.959   2.050   2.254 -0.5011 -0.3867  0.5622
 9259SOL    HW139239   2.945   2.097   2.336 -0.6559 -1.6888  1.2736
 9259SOL    HW239240   3.051   2.025   2.245 -0.7988 -0.3712 -2.6200
 9260SOL     OW39241   2.686   2.109   7.870 -0.4969  0.2621  0.0975
 9260SOL    HW139242   2.719   2.091   7.959 -0.8447 -0.2530  0.1217
 9260SOL    HW239243   2.711   2.032   7.819 -1.2792 -0.4088  0.7181
 9261SOL     OW39244   3.750   1.562  12.559  0.2953 -0.1357 -0.6193
 9261SOL    HW139245   3.708   1.647  12.546  2.1077  0.9428  0.5484
 9261SOL    HW239246   3.840   1.583  12.536 -0.0064  0.2952 -1.3911
 9262SOL     OW39247   4.681   3.010  13.612 -0.6848 -0.3443 -0.1359
 9262SOL    HW139248   4.713   3.007  13.521 -0.2378 -0.3398  0.0194
 9262SOL    HW239249   4.703   3.099  13.640 -3.6723  0.4050 -0.2570
 9263SOL     OW39250   4.531   4.252   1.171 -0.3665  0.0490 -0.2421
 9263SOL    HW139251   4.569   4.236   1.084  1.6854  0.0468  0.6607
 9263SOL    HW239252   4.602   4.224   1.229  0.5084  1.4617 -0.6152
 9264SOL     OW39253   2.269   3.665   4.687  0.3841 -0.1007  0.1682
 9264SOL    HW139254   2.300   3.656   4.597  1.1128  0.9423  0.3123
 9264SOL    HW239255   2.232   3.753   4.688  0.4525 -0.0964  1.9100
 9265SOL     OW39256   2.469   0.672   2.040 -0.1592 -0.1104  0.2194
 9265SOL    HW139257   2.521   0.752   2.048 -1.5273  0.7568  0.2671
 9265SOL    HW239258   2.530   0.603   2.066 -0.4013 -0.2392  0.4397
 9266SOL     OW39259   1.493   2.001  17.122  0.2084  1.0471  0.4206
 9266SOL    HW139260   1.419   1.944  17.103  0.4868  0.7144  0.3346
 9266SOL    HW239261   1.516   2.034  17.035 -3.1371  0.8238 -0.5574
 9267SOL     OW39262   2.348   1.993   1.916  0.2464 -0.7000 -0.2993
 9267SOL    HW139263   2.344   1.924   1.850 -1.8212 -0.5714 -0.3124
 9267SOL    HW239264   2.309   2.068   1.871  0.6253 -0.6288 -0.5101
 9268SOL     OW39265   3.549   1.860   9.243  0.2412  0.1697 -0.1116
 9268SOL    HW139266   3.626   1.847   9.189 -0.5781 -2.4318 -0.6487
 9268SOL    HW239267   3.479   1.820   9.191 -0.2080  1.1175 -0.2308
 9269SOL     OW39268   4.000   4.646   7.634 -0.0409  0.2805  0.0306
 9269SOL    HW139269   3.957   4.611   7.712 -0.7223 -1.9085 -1.3302
 9269SOL    HW239270   4.090   4.641   7.667 -0.0103  2.2105  0.2538
 9270SOL     OW39271   2.572   3.515  12.867  0.3239 -0.1534 -0.4097
 9270SOL    HW139272   2.488   3.555  12.843  0.6800 -0.0194 -1.4595
 9270SOL    HW239273   2.622   3.490  12.789 -0.7354 -1.5240 -0.6374
 9271SOL     OW39274   1.585   3.561   3.071 -0.2548  0.0539 -0.0066
 9271SOL    HW139275   1.558   3.480   3.028 -3.5452  1.5767 -0.8649
 9271SOL    HW239276   1.502   3.599   3.100  0.5822  0.4677  1.8898
 9272SOL     OW39277   0.724   4.440   6.799 -0.2970 -0.6201  0.3206
 9272SOL    HW139278   0.724   4.344   6.800 -0.2062 -0.6363 -0.8226
 9272SOL    HW239279   0.769   4.467   6.878 -0.4434 -2.6302  1.0963
 9273SOL     OW39280   2.629   2.338   2.946  0.0867  0.6526  0.5258
 9273SOL    HW139281   2.575   2.415   2.931 -1.5583 -0.2762  1.7142
 9273SOL    HW239282   2.665   2.368   3.030  0.7235 -3.0255  1.5597
 9274SOL     OW39283   2.357   2.699   5.020  0.5713 -0.4912 -0.4135
 9274SOL    HW139284   2.334   2.792   5.018 -0.1862 -0.6995 -1.3200
 9274SOL    HW239285   2.425   2.692   4.953  0.4299 -2.7064 -0.3343
 9275SOL     OW39286   1.348   1.636   6.612  0.1156  0.3028 -0.1784
 9275SOL    HW139287   1.273   1.694   6.625  1.0730  1.5532 -0.2339
 9275SOL    HW239288   1.419   1.699   6.598  0.9888 -0.2153  1.9252
 9276SOL     OW39289   3.949   4.515   8.386 -0.6533 -0.1377  0.1891
 9276SOL    HW139290   3.937   4.440   8.328  1.2488 -0.1429 -0.1946
 9276SOL    HW239291   3.988   4.467   8.459  0.3803 -0.7089 -0.7422
 9277SOL     OW39292   2.392   0.654   4.845  0.6542  0.7534  0.0036
 9277SOL    HW139293   2.414   0.610   4.927  3.5500  2.3862  0.1017
 9277SOL    HW239294   2.315   0.604   4.818 -0.3839  3.3156 -1.7750
 9278SOL     OW39295   0.295   2.502   2.562 -0.2051  0.1869 -0.4699
 9278SOL    HW139296   0.282   2.416   2.523  2.0922 -1.1447  1.6964
 9278SOL    HW239297   0.347   2.540   2.491 -0.4343  0.6375 -0.3991
 9279SOL     OW39298   2.635   2.032  14.891 -0.4423 -0.1861  0.3066
 9279SOL    HW139299   2.549   2.065  14.865  0.3048  1.6812  0.1965
 9279SOL    HW239300   2.615   1.945  14.926  1.9024 -1.7002 -2.1618
 9280SOL     OW39301   3.451   1.227  10.934  0.4205 -0.3905  0.4434
 9280SOL    HW139302   3.387   1.203  11.001 -0.0289 -0.7003 -0.1008
 9280SOL    HW239303   3.448   1.148  10.880 -0.1900 -0.7287  0.9759
 9281SOL     OW39304   3.885   4.246   6.763 -0.1258 -0.2505  0.1236
 9281SOL    HW139305   3.959   4.185   6.766 -0.4616 -0.6152  1.3625
 9281SOL    HW239306   3.872   4.263   6.857  2.1843 -1.8886  0.7545
 9282SOL     OW39307   4.474   2.698   2.738  0.4204 -0.0958 -0.5837
 9282SOL    HW139308   4.557   2.721   2.779  0.2424  0.9223 -0.8087
 9282SOL    HW239309   4.483   2.615   2.691  1.9974 -1.2587  1.7685
 9283SOL     OW39310   3.064   3.790   1.018  0.0712  0.1342  0.7675
 9283SOL    HW139311   3.021   3.707   1.040 -1.0347 -0.0549 -2.2182
 9283SOL    HW239312   2.986   3.842   1.005 -0.3031 -0.5447  0.2892
 9284SOL     OW39313   1.116   4.605   3.940  0.2528  0.1991  0.2471
 9284SOL    HW139314   1.050   4.579   4.004  0.3792  0.8021  0.6252
 9284SOL    HW239315   1.106   4.700   3.947  1.2326  0.1306  2.4764
 9285SOL     OW39316   1.286   1.167   7.169 -0.0783  0.6417  0.2989
 9285SOL    HW139317   1.368   1.212   7.148  0.2884 -0.6626 -1.0606
 9285SOL    HW239318   1.264   1.124   7.086 -1.3826 -0.1922  1.0752
 9286SOL     OW39319   4.264   0.306   0.208 -0.1369  0.2598  0.1612
 9286SOL    HW139320   4.287   0.234   0.150 -0.3942 -1.3829  2.0661
 9286SOL    HW239321   4.302   0.280   0.292 -1.2961 -1.8541  0.0529
 9287SOL     OW39322   0.054   1.943   3.451  0.8243 -0.0245 -0.2394
 9287SOL    HW139323   0.098   1.865   3.417  0.5839 -0.7254  1.0498
 9287SOL    HW239324   0.082   1.936   3.542  1.0929 -2.7767 -0.5360
 9288SOL     OW39325   4.207   3.730   5.984 -0.2871 -0.0199 -0.8852
 9288SOL    HW139326   4.269   3.656   5.986 -0.0487  0.2060  0.2043
 9288SOL    HW239327   4.199   3.736   6.079 -0.0749 -0.8915 -0.8015
 9289SOL     OW39328   3.965   0.450  11.801  0.0750  0.0647  0.3104
 9289SOL    HW139329   3.977   0.544  11.791 -0.5964  0.1064 -0.1067
 9289SOL    HW239330   3.895   0.435  11.738 -1.5580 -0.3517  2.2132
 9290SOL     OW39331   1.723   4.124  16.569  0.0626  0.0808  0.6520
 9290SOL    HW139332   1.641   4.099  16.612 -0.1282 -1.3143 -0.5266
 9290SOL    HW239333   1.694   4.132  16.478  0.6580 -2.3632  0.2489
 9291SOL     OW39334   2.140   2.251   5.836  0.1165 -0.4435 -0.1246
 9291SOL    HW139335   2.192   2.230   5.759  0.8198 -1.7901  0.7165
 9291SOL    HW239336   2.161   2.185   5.902  0.5180  0.4065  0.6080
 9292SOL     OW39337   0.150   4.276   2.251  0.0070  0.1749 -0.2249
 9292SOL    HW139338   0.243   4.253   2.249 -0.1737 -0.5353 -0.5424
 9292SOL    HW239339   0.157   4.316   2.164  1.4859  0.4068  0.0092
 9293SOL     OW39340   2.946   1.797   0.663  0.3756  0.3486  0.7021
 9293SOL    HW139341   2.938   1.833   0.575 -3.4813  0.0058  0.9132
 9293SOL    HW239342   2.866   1.832   0.701  0.6191  2.4157 -0.6689
 9294SOL     OW39343   2.904   1.937  12.759  0.0458  0.0345  0.1823
 9294SOL    HW139344   2.918   1.858  12.707 -0.7070  0.3494 -0.5030
 9294SOL    HW239345   2.955   2.002  12.711 -1.8616  1.8518  0.6242
 9295SOL     OW39346   2.270   3.905   3.567  0.0559  0.0066 -0.0637
 9295SOL    HW139347   2.352   3.890   3.521 -0.6380  0.7226 -1.5410
 9295SOL    HW239348   2.290   3.883   3.658 -0.4824 -1.7284 -0.3681
 9296SOL     OW39349   0.098   3.221   5.340  0.5687 -0.2908  0.5140
 9296SOL    HW139350   0.070   3.310   5.361 -0.2550 -0.2078 -0.9038
 9296SOL    HW239351   0.084   3.177   5.423 -1.8480 -0.4268  0.0443
 9297SOL     OW39352   1.731   1.965   2.424  0.2813  0.2622  0.1540
 9297SOL    HW139353   1.792   1.957   2.351 -0.4539 -0.3820 -0.3926
 9297SOL    HW239354   1.760   2.053   2.448  0.4465  0.7081 -1.7298
 9298SOL     OW39355   0.852   1.915   4.581 -0.3900 -0.0530 -0.1527
 9298SOL    HW139356   0.887   1.880   4.499  0.7657  0.5183  0.0855
 9298SOL    HW239357   0.813   1.998   4.554 -0.1899  0.7311  1.9516
 9299SOL     OW39358   3.926   2.055  15.299  0.2405  0.1487 -0.1250
 9299SOL    HW139359   3.957   1.984  15.354  0.7324  1.8415  1.7779
 9299SOL    HW239360   3.883   2.118  15.356 -2.5735 -1.4626 -0.4777
 9300SOL     OW39361   0.391   3.971  16.381 -0.2129 -0.0392 -0.0905
 9300SOL    HW139362   0.358   4.018  16.458  0.3279 -1.4732  1.0243
 9300SOL    HW239363   0.428   3.892  16.421 -2.2490 -0.3086  1.3072
 9301SOL     OW39364   2.848   1.350  12.493  0.2800 -0.0226 -0.0866
 9301SOL    HW139365   2.927   1.404  12.492  0.9804 -1.0262  0.2681
 9301SOL    HW239366   2.800   1.374  12.414  1.0232  1.9125  0.0477
 9302SOL     OW39367   1.049   2.606   6.402 -0.1436 -0.5850 -0.6742
 9302SOL    HW139368   1.021   2.572   6.316 -0.1811 -1.1715 -0.4308
 9302SOL    HW239369   0.965   2.648   6.423  1.1839  0.5171  2.2941
 9303SOL     OW39370   3.540   3.295   6.080  0.2513  0.1920 -0.6403
 9303SOL    HW139371   3.452   3.270   6.110 -0.2520 -1.6167 -3.6107
 9303SOL    HW239372   3.513   3.343   6.001  0.5770  2.7108  0.7757
 9304SOL     OW39373   2.009   0.575  11.735  0.1502  0.0409 -0.2531
 9304SOL    HW139374   1.932   0.546  11.783 -0.1069  1.5841  0.2601
 9304SOL    HW239375   2.083   0.544  11.786 -0.2978  2.8506  2.0899
 9305SOL     OW39376   1.570   4.309  16.828  0.2703 -0.5199  0.7539
 9305SOL    HW139377   1.660   4.290  16.799  1.0731  2.5970  1.2209
 9305SOL    HW239378   1.519   4.255  16.767 -2.4007  1.5481  1.1890
 9306SOL     OW39379   0.351   2.912  13.134 -0.2881  0.1138 -0.2099
 9306SOL    HW139380   0.338   2.825  13.172 -0.5395 -0.5944 -1.9351
 9306SOL    HW239381   0.427   2.945  13.183  0.2200 -0.8663 -0.3244
 9307SOL     OW39382   1.295   0.112  15.415  0.5154 -0.3755  0.3569
 9307SOL    HW139383   1.243   0.071  15.346 -0.4536 -0.4514  1.1411
 9307SOL    HW239384   1.381   0.093  15.377  0.4121 -1.6624  0.7981
 9308SOL     OW39385   0.099   0.578   4.805  0.1532 -0.2970  0.5361
 9308SOL    HW139386   0.177   0.539   4.843  1.0256  0.1448 -0.7991
 9308SOL    HW239387   0.080   0.534   4.722 -0.2777 -3.9946  2.5786
 9309SOL     OW39388   0.531   3.618   4.141  0.1459 -0.4881 -0.0840
 9309SOL    HW139389   0.619   3.593   4.114 -0.6567 -0.1112 -2.9414
 9309SOL    HW239390   0.540   3.577   4.227 -2.2633 -1.4413 -0.2778
 9310SOL     OW39391   1.258   3.540   8.057  0.1682 -0.4789 -0.3122
 9310SOL    HW139392   1.329   3.504   8.110  0.4651  0.2350 -0.2153
 9310SOL    HW239393   1.226   3.458   8.021 -3.7888  0.7525  0.4610
 9311SOL     OW39394   2.081   0.160  12.967 -0.0221 -0.1713 -0.5272
 9311SOL    HW139395   2.088   0.184  13.059  3.4365 -0.1358 -0.7872
 9311SOL    HW239396   2.167   0.197  12.946  0.7123 -0.0967  2.6915
 9312SOL     OW39397   1.962   2.392   7.896  0.1202  0.3153 -0.2230
 9312SOL    HW139398   1.922   2.459   7.840  0.1580  1.7380  1.4709
 9312SOL    HW239399   1.895   2.382   7.963  0.1526  2.5886  0.1423
 9313SOL     OW39400   1.456   0.470   2.482  0.3022 -0.4594  0.1275
 9313SOL    HW139401   1.444   0.532   2.554  2.0681  0.8685 -0.7096
 9313SOL    HW239402   1.511   0.524   2.426 -1.0618  0.3760 -0.4184
 9314SOL     OW39403   0.122   4.224  13.716 -0.3081 -0.2056 -0.4131
 9314SOL    HW139404   0.088   4.230  13.626 -1.7902 -0.3170  0.1360
 9314SOL    HW239405   0.085   4.309  13.741  0.3929  0.3057 -1.0753
 9315SOL     OW39406   2.297   4.220   5.166 -0.1490  0.5444 -0.6563
 9315SOL    HW139407   2.234   4.292   5.175 -1.0355 -0.3082 -0.1336
 9315SOL    HW239408   2.374   4.270   5.137  0.4684  0.1270  0.2691
 9316SOL     OW39409   4.709   2.327   6.306  0.3600 -0.1598 -0.4145
 9316SOL    HW139410   4.721   2.382   6.383 -2.3271  1.0843 -0.8628
 9316SOL    HW239411   0.076   2.309   6.281 -0.0267 -1.0818 -1.1475
 9317SOL     OW39412   4.673   2.673  16.325 -0.5030 -0.2924 -0.9870
 9317SOL    HW139413   4.595   2.724  16.345  1.1581  1.5712  0.6750
 9317SOL    HW239414   4.633   2.591  16.353 -0.8139 -0.2335 -1.2500
 9318SOL     OW39415   3.134   2.434   4.467  0.3685  0.2117 -0.7656
 9318SOL    HW139416   3.098   2.359   4.514 -1.2648  0.1892 -2.0542
 9318SOL    HW239417   3.228   2.415   4.462  0.3743  0.1263 -0.2870
 9319SOL     OW39418   0.114   3.605   3.479  0.6348 -0.3988 -0.1917
 9319SOL    HW139419   0.209   3.612   3.486  0.4885  0.6602  0.7540
 9319SOL    HW239420   0.096   3.665   3.552  0.0790  0.2471 -0.8523
 9320SOL     OW39421   1.664   0.011   4.319  0.4282  0.0459  0.4633
 9320SOL    HW139422   1.695   0.022   4.409  1.2838 -0.6288  0.2494
 9320SOL    HW239423   1.659   4.639   4.320 -1.7862  0.1133 -2.9037
 9321SOL     OW39424   1.597   3.276   0.288 -0.1476  0.6119  0.5860
 9321SOL    HW139425   1.533   3.207   0.271 -1.4796  1.7676  0.9335
 9321SOL    HW239426   1.594   3.314   0.200 -1.3048 -1.3793 -0.2390
 9322SOL     OW39427   2.009   0.580   4.474  0.0906  0.1644  0.4531
 9322SOL    HW139428   1.921   0.608   4.448  0.3178 -0.1297 -0.6439
 9322SOL    HW239429   2.023   0.624   4.557  0.2667 -0.4433  0.7481
 9323SOL     OW39430   3.962   4.191  14.174  0.1735  0.0634  0.4529
 9323SOL    HW139431   3.922   4.128  14.114  1.9040 -0.0973 -0.5138
 9323SOL    HW239432   3.896   4.183  14.243  0.8756  3.2109  1.4927
 9324SOL     OW39433   0.700   3.156   3.040  0.1188 -0.0215 -0.1780
 9324SOL    HW139434   0.758   3.230   3.052 -1.8826  1.9040 -2.2119
 9324SOL    HW239435   0.715   3.140   2.946 -1.6046  0.7915 -0.5931
 9325SOL     OW39436   3.803   0.890  16.241  0.3074 -0.4766  0.1037
 9325SOL    HW139437   3.760   0.944  16.175  0.2516  0.5169  0.9404
 9325SOL    HW239438   3.891   0.895  16.205 -0.7751  1.5497 -2.2149
 9326SOL     OW39439   0.102   0.853   5.809 -0.2304 -0.0110  0.0571
 9326SOL    HW139440   0.023   0.907   5.806  1.1515  1.9916  0.0688
 9326SOL    HW239441   0.060   0.772   5.839 -2.3768  0.5200 -1.4649
 9327SOL     OW39442   3.372   3.597  12.750 -0.2739  0.1685  0.6972
 9327SOL    HW139443   3.312   3.590  12.676  0.3339 -0.8848  0.3019
 9327SOL    HW239444   3.372   3.688  12.778 -1.8234 -0.2275  2.0094
 9328SOL     OW39445   0.320   0.859  10.991  0.0773 -0.4153 -0.1446
 9328SOL    HW139446   0.385   0.888  10.927 -2.0736  1.8007 -1.3398
 9328SOL    HW239447   0.370   0.784  11.022 -0.4722 -1.4118 -1.6948
 9329SOL     OW39448   4.191   0.411   7.021 -0.4915  0.3123  0.2292
 9329SOL    HW139449   4.265   0.374   7.070 -0.9330  0.1491  0.7766
 9329SOL    HW239450   4.120   0.361   7.062 -1.7192  0.2060 -2.0615
 9330SOL     OW39451   4.698   1.472  17.356  0.3909  0.4465  0.2883
 9330SOL    HW139452   4.657   1.438  17.276  2.7825 -2.5774  0.3320
 9330SOL    HW239453   0.006   1.553  17.315  0.5105 -0.2895 -1.0830
 9331SOL     OW39454   0.828   1.146   3.175  0.0006  0.8172 -0.4341
 9331SOL    HW139455   0.782   1.201   3.112  0.5534 -0.0887 -1.6235
 9331SOL    HW239456   0.896   1.108   3.120  0.2087 -1.2213  1.1995
 9332SOL     OW39457   0.997   2.663  11.007 -0.4309  0.9429 -0.1677
 9332SOL    HW139458   0.943   2.729  10.964 -2.6595 -2.6864 -2.9076
 9332SOL    HW239459   1.052   2.713  11.068 -0.7229  0.5096  0.4498
 9333SOL     OW39460   2.182   1.312   7.875  0.1479 -0.0856 -0.7919
 9333SOL    HW139461   2.186   1.310   7.971 -0.3998  0.9564 -0.7505
 9333SOL    HW239462   2.255   1.254   7.853 -0.6993 -1.6482  0.5497
 9334SOL     OW39463   1.066   3.598   8.812 -0.1527 -0.0578 -0.1992
 9334SOL    HW139464   1.073   3.532   8.743 -2.8880 -2.1463  1.5293
 9334SOL    HW239465   1.111   3.562   8.888  0.2894  0.3101 -0.2836
 9335SOL     OW39466   0.142   4.217  15.298 -0.8260  0.5199  0.3423
 9335SOL    HW139467   0.104   4.284  15.355  1.7997  1.3828  1.1057
 9335SOL    HW239468   0.210   4.174  15.351 -0.7533  0.8251  0.4986
 9336SOL     OW39469   1.987   0.609   2.577  0.4563 -0.0749 -0.1299
 9336SOL    HW139470   1.923   0.579   2.512  1.1436  0.5941 -1.1208
 9336SOL    HW239471   2.061   0.551   2.564  1.2362  0.6842  0.9470
 9337SOL     OW39472   1.775   0.129   0.365  0.2536  0.2081  0.7662
 9337SOL    HW139473   1.797   0.170   0.282 -1.3724 -1.2858 -0.3762
 9337SOL    HW239474   1.722   0.052   0.345 -1.8614  1.7365  0.5030
 9338SOL     OW39475   2.122   1.529   3.764 -0.2148 -0.0097 -0.2365
 9338SOL    HW139476   2.078   1.480   3.693  2.0485 -2.0506 -0.2252
 9338SOL    HW239477   2.083   1.616   3.759  0.7885  0.4464  0.0389
 9339SOL     OW39478   0.660   3.230   2.528 -0.0491 -0.5276 -0.2593
 9339SOL    HW139479   0.647   3.291   2.456 -1.0170  0.2802  0.6016
 9339SOL    HW239480   0.633   3.291   2.596  1.3213  1.0264 -1.1043
 9340SOL     OW39481   1.418   1.304   2.409 -0.2687  0.8130  0.4037
 9340SOL    HW139482   1.462   1.388   2.398 -1.2748  1.1383 -1.2345
 9340SOL    HW239483   1.412   1.272   2.319  2.5403 -0.5539  0.6957
 9341SOL     OW39484   4.571   2.217   4.061 -0.0822 -0.3328 -0.2207
 9341SOL    HW139485   4.627   2.141   4.045 -0.1022 -0.3349 -0.2773
 9341SOL    HW239486   4.575   2.238   4.155 -2.1062  0.1042 -0.2426
 9342SOL     OW39487   3.120   0.491   7.284 -0.6045  0.1605 -0.4502
 9342SOL    HW139488   3.068   0.459   7.358  0.8051  0.4261  0.6445
 9342SOL    HW239489   3.208   0.499   7.320 -1.0510  0.8045  0.4939
 9343SOL     OW39490   4.129   2.444  13.669  0.2194  0.0961  0.0184
 9343SOL    HW139491   4.129   2.509  13.598 -0.8969  0.9140  0.7736
 9343SOL    HW239492   4.039   2.445  13.701  0.0388 -0.2854 -0.4697
 9344SOL     OW39493   1.110   1.442   4.845  0.0234 -0.0769 -0.1903
 9344SOL    HW139494   1.056   1.521   4.844 -0.1231 -0.1882 -1.3023
 9344SOL    HW239495   1.179   1.478   4.788  0.2051  0.7517  0.5411
 9345SOL     OW39496   0.159   2.594  11.133 -0.6264 -0.2290 -0.0297
 9345SOL    HW139497   0.230   2.653  11.106  1.5405 -1.7341  2.3345
 9345SOL    HW239498   0.168   2.523  11.069 -0.4819  0.3329 -0.6277
 9346SOL     OW39499   4.589   2.272  10.449 -0.2422  0.6574  0.0209
 9346SOL    HW139500   4.682   2.249  10.453  0.2280  2.6940  0.2605
 9346SOL    HW239501   4.555   2.195  10.495  1.3803  1.2715  2.2213
 9347SOL     OW39502   0.845   0.283  16.719  0.5358 -0.7891 -0.5237
 9347SOL    HW139503   0.824   0.260  16.810  0.5583  2.2412  0.2349
 9347SOL    HW239504   0.895   0.205  16.694  0.8640 -0.3901 -1.1186
 9348SOL     OW39505   4.595   1.314   2.122  0.2694 -0.2147 -0.1649
 9348SOL    HW139506   4.599   1.369   2.200  0.5034 -0.5011  0.0284
 9348SOL    HW239507   4.690   1.301   2.111  0.2526  0.0910 -0.6828
 9349SOL     OW39508   0.841   0.563   3.470  0.0326 -0.1668  0.4665
 9349SOL    HW139509   0.930   0.553   3.504  0.2044 -0.0867  0.0418
 9349SOL    HW239510   0.859   0.602   3.384 -2.1156 -0.5391 -0.1490
 9350SOL     OW39511   2.557   4.468  12.522 -0.3412 -0.3719  0.7711
 9350SOL    HW139512   2.626   4.467  12.588  1.7464 -1.2394 -1.3784
 9350SOL    HW239513   2.514   4.549  12.550 -1.3146 -0.8388  0.6196
 9351SOL     OW39514   2.278   0.384   8.520 -0.2332 -0.0717  0.2047
 9351SOL    HW139515   2.333   0.306   8.533  0.5460  0.1983 -1.5096
 9351SOL    HW239516   2.298   0.401   8.428 -1.4602 -0.6498 -0.1598
 9352SOL     OW39517   3.680   3.847   6.217  0.0142 -0.2731 -0.0065
 9352SOL    HW139518   3.609   3.912   6.219 -0.0515 -0.3254 -0.5311
 9352SOL    HW239519   3.634   3.772   6.179 -0.7184  0.3868 -0.4466
 9353SOL     OW39520   2.875   3.320   3.195  0.0185  0.3205  0.1809
 9353SOL    HW139521   2.891   3.268   3.116 -1.5044  2.2280 -1.3694
 9353SOL    HW239522   2.789   3.286   3.216  1.6675 -2.9976  1.5556
 9354SOL     OW39523   2.569   2.537   8.502 -0.4033  0.3084 -0.8214
 9354SOL    HW139524   2.585   2.531   8.596 -0.0010  2.4410 -0.7557
 9354SOL    HW239525   2.489   2.485   8.495  0.0674 -0.7314  1.6050
 9355SOL     OW39526   1.752   2.213  11.683  0.0811 -0.4847 -0.0205
 9355SOL    HW139527   1.710   2.284  11.634 -3.2427 -0.7309  2.4890
 9355SOL    HW239528   1.677   2.155  11.700  0.2193 -0.5846  0.2457
 9356SOL     OW39529   3.155   1.433   0.573 -0.1495  0.0262  0.3724
 9356SOL    HW139530   3.082   1.479   0.616  0.0320  0.0663  0.6315
 9356SOL    HW239531   3.216   1.422   0.645 -0.8541  1.7229  1.2370
 9357SOL     OW39532   1.599   3.009   3.306 -0.5098  0.7489  0.3030
 9357SOL    HW139533   1.569   3.100   3.297  0.2534  0.9523 -0.1112
 9357SOL    HW239534   1.511   2.973   3.322 -0.6742  0.0544 -2.0989
 9358SOL     OW39535   4.147   4.652  13.789 -0.5769  0.3995 -0.3720
 9358SOL    HW139536   4.067   4.700  13.768 -1.3450  0.2341  2.1482
 9358SOL    HW239537   4.210   4.721  13.768  0.0096  0.3198  1.1525
 9359SOL     OW39538   2.644   0.441   8.680 -0.3355 -1.0417  0.0836
 9359SOL    HW139539   2.561   0.430   8.726  0.4302 -2.6964  1.0519
 9359SOL    HW239540   2.696   0.369   8.715  1.5959 -0.4517 -1.5752
 9360SOL     OW39541   0.700   0.703  13.011  0.8358  1.0945 -0.2251
 9360SOL    HW139542   0.772   0.650  12.978 -0.4295 -0.1182 -1.0626
 9360SOL    HW239543   0.724   0.744  13.094 -1.3689 -2.3223  2.1081
 9361SOL     OW39544   3.748   2.067   2.017  0.1238 -0.0279  0.4894
 9361SOL    HW139545   3.783   1.986   1.980  0.8326  0.5336 -0.0665
 9361SOL    HW239546   3.728   2.033   2.104 -1.0342  0.7712  0.5295
 9362SOL     OW39547   3.282   4.583  10.116  0.2133 -0.0357  0.2256
 9362SOL    HW139548   3.341   4.509  10.127 -0.2374 -0.5895 -1.1278
 9362SOL    HW239549   3.222   4.556  10.046 -0.0050  0.8846  0.0621
 9363SOL     OW39550   0.409   4.545   6.444 -0.2760  0.2291  0.2496
 9363SOL    HW139551   0.383   4.517   6.532 -1.1163 -0.4257 -0.2184
 9363SOL    HW239552   0.501   4.520   6.440 -0.1259  0.4853  1.9768
 9364SOL     OW39553   2.928   2.305   4.858 -0.4834 -0.5361  0.2306
 9364SOL    HW139554   2.850   2.354   4.882 -0.7067 -0.5074 -0.5578
 9364SOL    HW239555   2.900   2.215   4.875  0.1034 -0.5838  0.9611
 9365SOL     OW39556   2.007   0.429   5.969 -0.2178 -0.0657 -0.4027
 9365SOL    HW139557   2.014   0.346   6.016  1.3885 -0.5705 -1.5379
 9365SOL    HW239558   2.009   0.409   5.875  2.0809  1.0415 -0.5931
 9366SOL     OW39559   0.342   0.999  16.628 -0.1299  0.4864  0.1143
 9366SOL    HW139560   0.373   1.021  16.540  0.7364  1.5699  0.6902
 9366SOL    HW239561   0.334   1.089  16.660 -2.2772 -0.0803  1.1740
 9367SOL     OW39562   0.419   0.250   5.646  0.0431 -0.5175  0.1512
 9367SOL    HW139563   0.349   0.189   5.669  0.8655 -0.7735  2.0077
 9367SOL    HW239564   0.379   0.335   5.664  3.2628  0.8747  0.7707
 9368SOL     OW39565   0.887   0.299   6.390  0.2020 -0.0838 -0.2472
 9368SOL    HW139566   0.817   0.305   6.325 -1.0218  0.9099  1.1580
 9368SOL    HW239567   0.846   0.297   6.477  1.3365  2.3228  0.3322
 9369SOL     OW39568   0.668   2.900  13.870 -0.0517  0.4049  0.0132
 9369SOL    HW139569   0.592   2.853  13.838  1.2108 -1.4917 -0.1633
 9369SOL    HW239570   0.670   2.872  13.961 -2.7278 -2.0803 -0.7255
 9370SOL     OW39571   2.961   3.187   8.298 -0.1720 -0.4135 -0.0031
 9370SOL    HW139572   2.957   3.283   8.291  2.7164 -0.2700  0.3626
 9370SOL    HW239573   2.910   3.185   8.379 -1.6901  2.1735 -0.8891
 9371SOL     OW39574   2.578   2.463  11.535 -0.4015 -0.5492 -0.3753
 9371SOL    HW139575   2.560   2.371  11.556  0.0087 -0.3083  0.9660
 9371SOL    HW239576   2.496   2.497  11.573  0.1237  0.8186 -0.4652
 9372SOL     OW39577   0.712   3.634   9.170 -0.1735 -0.3221 -0.1279
 9372SOL    HW139578   0.686   3.589   9.250 -1.8810 -1.0136 -1.0587
 9372SOL    HW239579   0.735   3.560   9.114 -3.4100 -0.4537 -1.3065
 9373SOL     OW39580   3.780   2.750   9.875  0.2054 -0.6929 -0.2808
 9373SOL    HW139581   3.713   2.804   9.833  0.7670 -1.2813 -1.9542
 9373SOL    HW239582   3.855   2.808   9.889  0.0658  0.2984 -3.4524
 9374SOL     OW39583   1.641   1.715  12.856  0.2693  0.1148  0.1254
 9374SOL    HW139584   1.580   1.714  12.930 -0.2574 -0.7816 -0.3151
 9374SOL    HW239585   1.715   1.673  12.899 -0.3403 -2.0648 -0.9492
 9375SOL     OW39586   0.181   3.219  13.133 -0.5691 -0.0335 -0.4865
 9375SOL    HW139587   0.178   3.162  13.210  1.8200  1.3883  0.6657
 9375SOL    HW239588   0.213   3.299  13.174 -0.4602  1.5077 -3.6076
 9376SOL     OW39589   2.598   2.321  16.164 -0.0911  0.3697 -0.6268
 9376SOL    HW139590   2.591   2.413  16.139 -0.3795  0.8886  1.3339
 9376SOL    HW239591   2.664   2.343  16.230 -1.1408  0.5221  0.3820
 9377SOL     OW39592   1.999   3.147   5.136 -0.0169 -0.3719  0.2290
 9377SOL    HW139593   2.076   3.163   5.190  0.0728  0.2541 -0.0851
 9377SOL    HW239594   2.017   3.203   5.061  0.1608  0.9076  1.2358
 9378SOL     OW39595   1.619   1.299   4.658 -0.1598 -0.4176  0.1937
 9378SOL    HW139596   1.682   1.235   4.690  0.2972  0.2664  0.6617
 9378SOL    HW239597   1.544   1.241   4.671 -0.1605 -0.6310 -0.8497
 9379SOL     OW39598   0.474   4.010  14.005 -0.7854 -0.6551 -0.1137
 9379SOL    HW139599   0.380   4.011  13.987 -0.6030 -0.0644 -1.0335
 9379SOL    HW239600   0.497   4.095  13.968 -0.8906 -0.2108  0.8486
 9380SOL     OW39601   2.831   0.849   8.528 -0.2072  0.1968 -0.1370
 9380SOL    HW139602   2.874   0.766   8.550 -0.0413  1.0101  2.6031
 9380SOL    HW239603   2.826   0.894   8.613  0.8124 -0.2955  0.1907
 9381SOL     OW39604   3.737   0.925   9.672 -0.0116 -0.2478  0.4195
 9381SOL    HW139605   3.657   0.945   9.622  0.9576  1.5806 -0.4229
 9381SOL    HW239606   3.791   1.000   9.646  0.2344  0.2887  2.4489
 9382SOL     OW39607   1.111   0.855   1.173 -0.2333 -0.2170  0.5800
 9382SOL    HW139608   1.019   0.860   1.146 -0.0818  0.6316  0.2125
 9382SOL    HW239609   1.117   0.762   1.194  0.8998 -0.2863 -0.0641
 9383SOL     OW39610   0.800   2.621  10.369  0.8677  0.3176  0.5798
 9383SOL    HW139611   0.808   2.647  10.277 -2.4805 -2.2059 -0.4056
 9383SOL    HW239612   0.890   2.613  10.402  1.6682  0.6159 -1.4762
 9384SOL     OW39613   3.883   3.138   3.740  0.0356 -0.6230 -0.6907
 9384SOL    HW139614   3.927   3.190   3.808 -2.5267 -0.6210  0.9359
 9384SOL    HW239615   3.943   3.157   3.668  0.9445 -1.3897 -0.1449
 9385SOL     OW39616   0.142   0.274   7.842  0.2549  0.1637 -0.1055
 9385SOL    HW139617   0.069   0.326   7.809 -2.7225 -1.4408  3.9963
 9385SOL    HW239618   0.195   0.280   7.763  2.7163  0.1260  1.5365
 9386SOL     OW39619   3.663   4.704   8.805 -0.5505  0.2243  0.1736
 9386SOL    HW139620   3.660   0.076   8.809 -0.5748  0.2768 -1.0480
 9386SOL    HW239621   3.571   4.680   8.800 -0.6618  0.7942 -0.4744
 9387SOL     OW39622   1.024   1.726  10.585  0.0052 -0.2959 -0.0501
 9387SOL    HW139623   0.966   1.725  10.661 -1.3539  2.0222 -1.0626
 9387SOL    HW239624   0.978   1.785  10.525 -0.0514 -1.0182 -0.7183
 9388SOL     OW39625   3.855   0.318   7.449  0.0489 -0.4142 -0.2263
 9388SOL    HW139626   3.823   0.228   7.442  0.3991 -0.6477  1.0620
 9388SOL    HW239627   3.941   0.298   7.486 -0.3892  0.0013  1.0320
 9389SOL     OW39628   3.623   0.210   4.612  0.1211 -0.4239 -0.2521
 9389SOL    HW139629   3.669   0.272   4.556 -0.3095 -1.3412 -1.6198
 9389SOL    HW239630   3.536   0.207   4.571 -1.8344  0.0396  3.8208
 9390SOL     OW39631   1.520   2.211   2.473  0.3813 -0.0607 -0.0482
 9390SOL    HW139632   1.471   2.256   2.404  1.0457  0.8745  0.0910
 9390SOL    HW239633   1.465   2.134   2.485  0.2981 -0.3062 -1.9605
 9391SOL     OW39634   0.568   2.863   8.803  0.1423  0.0706 -0.1695
 9391SOL    HW139635   0.522   2.915   8.737 -0.9774 -0.3614  0.2780
 9391SOL    HW239636   0.614   2.934   8.848  1.7359 -0.7891 -0.4335
 9392SOL     OW39637   4.718   0.365  16.842  0.1429  0.1002 -0.2912
 9392SOL    HW139638   4.689   0.327  16.925  0.9712  0.0601 -0.0204
 9392SOL    HW239639   0.087   0.343  16.832 -0.4774 -2.7052  0.2710
 9393SOL     OW39640   0.533   2.869  17.504  0.1713  0.2032  0.1785
 9393SOL    HW139641   0.619   2.833  17.482  0.5875  0.9503  0.5788
 9393SOL    HW239642   0.536   2.944  17.445 -1.2069 -0.4139 -0.6822
 9394SOL     OW39643   0.841   4.208   9.913 -0.2852 -0.0127  0.4576
 9394SOL    HW139644   0.761   4.173   9.953 -0.4846  1.5285  1.4466
 9394SOL    HW239645   0.818   4.299   9.893  4.2645  0.5322 -2.1410
 9395SOL     OW39646   4.675   0.550   1.579  0.0305 -0.0491  0.1248
 9395SOL    HW139647   4.655   0.596   1.498 -0.9226  1.2123  1.0830
 9395SOL    HW239648   0.047   0.559   1.576  0.3466 -2.5837  2.6664
 9396SOL     OW39649   1.752   2.549   8.361 -0.5855  0.5240  0.1770
 9396SOL    HW139650   1.788   2.623   8.410 -0.0834 -0.3875  1.1931
 9396SOL    HW239651   1.674   2.529   8.414 -0.2789 -0.7231  0.1555
 9397SOL     OW39652   1.216   3.395   9.046  0.4028  0.3913  0.3821
 9397SOL    HW139653   1.284   3.332   9.070  1.6540  1.8439  0.6740
 9397SOL    HW239654   1.239   3.466   9.106  0.9280 -0.3236  1.0160
 9398SOL     OW39655   2.543   2.730   1.354 -0.5591 -0.4518 -0.0634
 9398SOL    HW139656   2.480   2.661   1.331 -1.9780  0.4579  1.0788
 9398SOL    HW239657   2.604   2.679   1.408 -0.0467  1.0194  0.7498
 9399SOL     OW39658   1.874   1.618   9.200 -0.1121  0.1999 -0.6153
 9399SOL    HW139659   1.800   1.620   9.138 -1.1010 -0.3874  0.5362
 9399SOL    HW239660   1.948   1.634   9.142  1.5727 -0.6086  1.2910
 9400SOL     OW39661   1.729   1.285   4.947 -0.4579 -0.6807  0.1516
 9400SOL    HW139662   1.650   1.320   4.906  0.2153 -0.7779 -1.2264
 9400SOL    HW239663   1.766   1.219   4.889  1.0669  0.1487  0.1591
 9401SOL     OW39664   0.824   3.822   8.542  0.2679 -0.0502  0.6048
 9401SOL    HW139665   0.910   3.808   8.503 -0.1004  0.6379 -0.4424
 9401SOL    HW239666   0.848   3.796   8.631  1.2517 -0.8593  0.1044
 9402SOL     OW39667   2.288   4.214   9.508 -0.1297  0.4792  0.5346
 9402SOL    HW139668   2.232   4.192   9.583 -1.5615  0.1525 -0.6314
 9402SOL    HW239669   2.224   4.222   9.438  2.8609 -0.4042 -2.3152
 9403SOL     OW39670   1.588   2.300   5.399 -0.7598  0.0857  0.0225
 9403SOL    HW139671   1.636   2.267   5.475 -1.6605 -0.8340  0.1981
 9403SOL    HW239672   1.508   2.336   5.439 -0.7669 -1.9714  1.8422
 9404SOL     OW39673   1.559   4.134  11.975  0.2926 -0.0064 -0.0704
 9404SOL    HW139674   1.487   4.122  11.914  1.3859 -0.7195 -1.2180
 9404SOL    HW239675   1.506   4.137  12.054  0.2046 -0.2633 -0.1217
 9405SOL     OW39676   2.417   3.127  16.785  0.6489  0.2528 -0.1220
 9405SOL    HW139677   2.344   3.179  16.817 -0.7879 -1.0986 -1.1897
 9405SOL    HW239678   2.371   3.050  16.752  1.2050  0.2386 -0.8751
 9406SOL     OW39679   2.277   2.465  11.379 -0.4512 -0.2427 -0.3147
 9406SOL    HW139680   2.288   2.492  11.470 -1.3793 -0.0434 -0.2681
 9406SOL    HW239681   2.259   2.549  11.338  0.7915  0.4473  0.5449
 9407SOL     OW39682   2.888   0.566   8.263  0.0038 -0.6991 -0.0227
 9407SOL    HW139683   2.893   0.576   8.168 -0.2329 -3.6377 -0.3469
 9407SOL    HW239684   2.978   0.578   8.293  0.3243 -0.6792 -0.9872
 9408SOL     OW39685   2.262   2.513   2.532 -0.2782  0.1027 -0.4635
 9408SOL    HW139686   2.189   2.569   2.508 -0.8355 -0.3457  0.2002
 9408SOL    HW239687   2.233   2.482   2.617  1.4376 -2.1000 -0.6525
 9409SOL     OW39688   1.991   4.571   0.216  0.1362  0.2345 -0.3710
 9409SOL    HW139689   2.009   4.493   0.163 -0.6142  0.7282 -1.3400
 9409SOL    HW239690   2.012   4.543   0.305  0.5080 -1.2281 -0.9122
 9410SOL     OW39691   2.893   1.031   4.374 -0.3040  0.2133 -0.0885
 9410SOL    HW139692   2.888   0.976   4.453  0.2706  1.4354  0.7993
 9410SOL    HW239693   2.983   1.064   4.378 -0.2677  0.1866 -0.6692
 9411SOL     OW39694   1.733   4.069   9.283 -0.4588 -0.4059 -0.3413
 9411SOL    HW139695   1.718   4.133   9.352  2.9668  0.2527 -0.1993
 9411SOL    HW239696   1.772   4.012   9.348  1.8284  2.8679  1.2005
 9412SOL     OW39697   0.685   2.563  16.051  0.5614  0.2541 -0.6945
 9412SOL    HW139698   0.725   2.633  16.102 -2.2432  2.2676 -1.2633
 9412SOL    HW239699   0.767   2.516  16.037  2.0734  3.3352 -2.1277
 9413SOL     OW39700   1.789   1.218   5.681  0.3894 -0.4511  0.1325
 9413SOL    HW139701   1.759   1.286   5.621  2.0562  0.4125  0.2863
 9413SOL    HW239702   1.704   1.189   5.715 -0.5037  0.4840 -1.3228
 9414SOL     OW39703   2.624   3.980   1.202 -0.4017 -0.1792  0.2063
 9414SOL    HW139704   2.557   3.962   1.268 -1.2082  0.8422 -0.3513
 9414SOL    HW239705   2.691   3.924   1.243 -2.4611 -0.4859  3.1764
 9415SOL     OW39706   4.657   1.981  12.381  0.1566 -0.1041  0.4139
 9415SOL    HW139707   0.013   1.938  12.351  0.7990  1.8658 -0.6407
 9415SOL    HW239708   4.590   1.949  12.321  0.7121 -1.4936  0.5251
 9416SOL     OW39709   0.322   4.099   4.161 -0.0489 -0.1525  0.0725
 9416SOL    HW139710   0.304   4.013   4.201 -0.7713  0.0254  0.1358
 9416SOL    HW239711   0.401   4.075   4.112  1.6426  0.1847  2.6585
 9417SOL     OW39712   4.638   3.567  14.103  0.0988 -0.3873  0.2318
 9417SOL    HW139713   0.006   3.540  14.103 -0.9146 -3.7736 -4.5626
 9417SOL    HW239714   4.597   3.501  14.047  1.1892  0.2533 -1.3030
 9418SOL     OW39715   1.463   2.902  14.506 -0.6345  0.2781  0.4693
 9418SOL    HW139716   1.551   2.866  14.513 -0.5669  0.8055  2.1083
 9418SOL    HW239717   1.480   2.988  14.543  0.7893  0.0195  0.4127
 9419SOL     OW39718   1.848   3.129   0.368 -0.3009 -0.1613 -0.0606
 9419SOL    HW139719   1.856   3.186   0.444  0.0744  4.8309 -3.8880
 9419SOL    HW239720   1.799   3.189   0.312  0.2233  1.2382  0.9948
 9420SOL     OW39721   0.191   4.019   6.214 -0.6208 -0.8246  0.0033
 9420SOL    HW139722   0.198   3.990   6.123  3.5719  0.7474 -0.1664
 9420SOL    HW239723   0.281   4.016   6.245 -1.0205  1.6983  1.4065
 9421SOL     OW39724   2.454   2.793   5.846 -0.5648 -0.5253  0.1438
 9421SOL    HW139725   2.486   2.774   5.935  2.1403  0.5627 -0.5884
 9421SOL    HW239726   2.446   2.710   5.799 -0.7307 -1.2814  1.4790
 9422SOL     OW39727   4.217   3.711   9.862  0.4563 -0.6286  0.0374
 9422SOL    HW139728   4.243   3.624   9.831 -1.8812 -1.1240 -0.5118
 9422SOL    HW239729   4.122   3.698   9.858  0.1133  1.4648  1.1118
 9423SOL     OW39730   4.552   3.523   3.264 -0.2843  0.4756 -0.0168
 9423SOL    HW139731   4.637   3.488   3.239 -0.8024 -1.3145  0.6815
 9423SOL    HW239732   4.519   3.520   3.174 -0.0143 -2.6777 -0.0060
 9424SOL     OW39733   3.656   3.227  11.657 -0.3397  0.6272  0.2324
 9424SOL    HW139734   3.662   3.263  11.746  1.4248  2.1501 -0.4962
 9424SOL    HW239735   3.743   3.189  11.652 -1.2791 -1.5983  1.0793
 9425SOL     OW39736   1.260   2.840   9.849 -0.4341  0.2345  0.2999
 9425SOL    HW139737   1.347   2.810   9.822 -0.3341  0.9088 -0.1542
 9425SOL    HW239738   1.269   2.896   9.926  0.0155 -0.1684  0.5361
 9426SOL     OW39739   2.918   0.157   8.419 -0.0308 -0.5076 -0.2158
 9426SOL    HW139740   2.902   0.114   8.335  0.4015 -0.8230 -0.1395
 9426SOL    HW239741   2.848   0.221   8.414 -0.1355 -0.5687  0.5616
 9427SOL     OW39742   1.159   2.163   6.537 -0.0793  0.5641  0.1138
 9427SOL    HW139743   1.091   2.096   6.526  0.9868 -0.3474 -0.8806
 9427SOL    HW239744   1.112   2.244   6.557 -0.1483  0.3989  0.6305
 9428SOL     OW39745   4.314   2.884   8.320 -0.1274 -0.6029 -0.1942
 9428SOL    HW139746   4.383   2.869   8.256  1.1785 -0.3249  1.1374
 9428SOL    HW239747   4.257   2.950   8.281 -0.9357  0.7765  3.2770
 9429SOL     OW39748   2.804   3.674   5.911 -0.4952 -0.2515 -0.2878
 9429SOL    HW139749   2.855   3.745   5.873  0.1307 -1.3522 -1.5018
 9429SOL    HW239750   2.874   3.624   5.952 -0.3882  0.6614  0.6408
 9430SOL     OW39751   2.249   3.817  13.085 -0.2324 -0.6715 -0.1042
 9430SOL    HW139752   2.298   3.791  13.163 -0.1809 -2.1616 -0.6275
 9430SOL    HW239753   2.240   3.909  13.110 -0.0906 -0.2110 -1.7071
 9431SOL     OW39754   4.524   4.065  13.692 -0.1111  0.1368  0.0009
 9431SOL    HW139755   4.607   4.025  13.715  0.2570  1.5538  1.1320
 9431SOL    HW239756   4.489   4.081  13.780 -1.2010 -0.8474 -0.2392
 9432SOL     OW39757   2.113   3.822  15.043  0.1563 -0.3051  0.0503
 9432SOL    HW139758   2.206   3.821  15.066  0.1469  1.2839  0.2076
 9432SOL    HW239759   2.097   3.733  15.014  1.8945  0.4318 -3.1659
 9433SOL     OW39760   3.414   4.550   3.131  0.4923  0.2271  0.7337
 9433SOL    HW139761   3.500   4.541   3.090 -0.3349  0.0922 -0.9433
 9433SOL    HW239762   3.353   4.539   3.058  1.5840  1.5664 -0.3850
 9434SOL     OW39763   3.425   2.342  12.499 -0.0420 -0.3999  0.3545
 9434SOL    HW139764   3.504   2.387  12.528 -1.0128  0.4126  1.7424
 9434SOL    HW239765   3.360   2.413  12.493  0.1229 -0.2171  0.6914
 9435SOL     OW39766   1.666   3.708  13.712 -0.1322  0.3655  0.3055
 9435SOL    HW139767   1.694   3.626  13.751 -1.1418 -0.1621 -0.0904
 9435SOL    HW239768   1.716   3.707  13.631 -0.0621 -0.8989  0.3646
 9436SOL     OW39769   3.353   0.596   8.493 -0.5098 -0.1122 -0.1887
 9436SOL    HW139770   3.344   0.652   8.416 -1.8054  0.1698  0.1714
 9436SOL    HW239771   3.267   0.556   8.484 -1.5971  2.5244 -1.4735
 9437SOL     OW39772   3.502   2.600   1.102 -0.3036  0.0317 -0.4106
 9437SOL    HW139773   3.441   2.569   1.035 -0.1262  0.8674 -0.9552
 9437SOL    HW239774   3.478   2.541   1.173  1.7374 -2.5528 -1.8800
 9438SOL     OW39775   1.193   0.783  14.161  0.2487 -0.1801  0.7731
 9438SOL    HW139776   1.165   0.696  14.133  0.1385 -0.6743  2.4170
 9438SOL    HW239777   1.194   0.839  14.084 -0.0319 -0.0022  0.8988
 9439SOL     OW39778   3.897   2.933   5.709  0.3372 -0.5476  0.2167
 9439SOL    HW139779   3.938   3.008   5.666  0.2329 -1.7001 -1.9084
 9439SOL    HW239780   3.806   2.962   5.714  0.0844 -1.2388 -0.5194
 9440SOL     OW39781   3.553   2.926   4.231 -0.2328  0.0465  0.1388
 9440SOL    HW139782   3.613   2.895   4.163 -0.6439 -1.5189  0.4693
 9440SOL    HW239783   3.522   3.006   4.189 -0.7935  0.3493  1.1279
 9441SOL     OW39784   0.144   1.365   8.311  0.2631 -0.9214  0.0184
 9441SOL    HW139785   0.227   1.319   8.302  2.5759  3.3753 -0.6912
 9441SOL    HW239786   0.080   1.309   8.267  0.4591 -0.8816 -0.3197
 9442SOL     OW39787   0.686   1.649   2.865 -0.2120 -0.0684  0.1623
 9442SOL    HW139788   0.596   1.639   2.836 -0.8143  1.2447  1.5475
 9442SOL    HW239789   0.729   1.654   2.780 -1.2264  0.7952 -0.3013
 9443SOL     OW39790   3.407   0.876   2.936 -0.1879 -0.2127 -0.3370
 9443SOL    HW139791   3.346   0.843   2.869 -0.2087 -0.9247  0.0262
 9443SOL    HW239792   3.352   0.940   2.980 -0.7143  0.1637 -1.5222
 9444SOL     OW39793   0.900   0.204   9.525  0.0490 -0.1669  0.1109
 9444SOL    HW139794   0.910   0.194   9.620  0.2603  0.6911  0.1722
 9444SOL    HW239795   0.884   0.111   9.507 -2.4419  0.2461  0.1771
 9445SOL     OW39796   2.415   3.845   3.242  0.1802  0.2297  0.1334
 9445SOL    HW139797   2.403   3.905   3.168 -2.5872  1.0511  1.2559
 9445SOL    HW239798   2.480   3.787   3.202  0.2463  0.4722 -0.1131
 9446SOL     OW39799   0.128   4.088   9.229 -0.0368 -0.4006 -0.5834
 9446SOL    HW139800   0.043   4.124   9.253 -0.1151 -1.8903  1.3906
 9446SOL    HW239801   0.150   4.037   9.307 -2.7564  0.6944  0.8963
 9447SOL     OW39802   1.875   3.897   5.416 -0.0510 -0.0218  0.0749
 9447SOL    HW139803   1.870   3.819   5.361  1.1454 -0.2876  0.3420
 9447SOL    HW239804   1.799   3.895   5.473 -1.0352 -2.5116 -1.3515
 9448SOL     OW39805   2.939   1.589   7.635  0.0443 -0.3708 -0.0178
 9448SOL    HW139806   2.881   1.513   7.638 -0.3715 -0.0493  0.1270
 9448SOL    HW239807   2.952   1.589   7.730  1.2847 -0.3905 -0.1912
 9449SOL     OW39808   3.523   4.098   6.906 -0.0603  0.1813 -0.0407
 9449SOL    HW139809   3.480   4.052   6.977  0.2426  0.0839  0.0783
 9449SOL    HW239810   3.609   4.127   6.938  0.0868 -0.7435  0.4041
 9450SOL     OW39811   3.973   3.844   4.797  0.2625  0.0534 -0.2232
 9450SOL    HW139812   3.995   3.937   4.805  1.9183 -0.3115 -0.5392
 9450SOL    HW239813   3.891   3.825   4.843  2.0746 -0.3008  2.8786
 9451SOL     OW39814   2.089   3.793   6.402  0.2393  0.0749  0.2855
 9451SOL    HW139815   2.102   3.729   6.332 -1.8134  0.2084 -0.2243
 9451SOL    HW239816   2.012   3.841   6.372  1.2143  0.6124 -1.3601
 9452SOL     OW39817   2.637   4.365  13.376 -0.9020  0.3155  0.0012
 9452SOL    HW139818   2.648   4.270  13.364 -0.7443 -0.0199  2.8167
 9452SOL    HW239819   2.580   4.366  13.453 -0.7006 -2.0085  0.1727
 9453SOL     OW39820   2.754   1.755   4.127 -0.7443 -0.6372  0.2461
 9453SOL    HW139821   2.726   1.784   4.040 -0.2498  0.8896  0.5939
 9453SOL    HW239822   2.777   1.840   4.166 -2.6081  0.6763 -1.5021
 9454SOL     OW39823   2.319   4.713   7.461 -0.7026 -0.5975  0.0709
 9454SOL    HW139824   2.407   4.702   7.498 -0.7309 -0.5520  0.1523
 9454SOL    HW239825   2.275   4.635   7.495  1.1485 -1.6273  0.0997
 9455SOL     OW39826   3.730   3.378   6.976  0.0463  0.7058  0.1148
 9455SOL    HW139827   3.685   3.331   7.046 -0.6416  0.3153 -0.5953
 9455SOL    HW239828   3.708   3.321   6.903 -0.9793  0.4477  0.6204
 9456SOL     OW39829   4.056   2.195   7.932  0.2763 -0.2243  0.4559
 9456SOL    HW139830   4.015   2.254   7.868  0.6435  1.2670  1.6056
 9456SOL    HW239831   4.115   2.259   7.972 -1.0214  0.5755  1.0820
 9457SOL     OW39832   0.187   4.094   1.499  0.7005 -0.0709 -0.2461
 9457SOL    HW139833   0.234   4.013   1.516  4.1937  1.8458 -0.6913
 9457SOL    HW239834   0.235   4.168   1.538  1.1218 -1.0291  1.0645
 9458SOL     OW39835   3.198   4.599   4.567  0.7134  0.1415 -0.3870
 9458SOL    HW139836   3.157   4.656   4.632  1.4138 -0.7477  0.8302
 9458SOL    HW239837   3.159   4.519   4.599  2.4627 -1.0020 -1.0844
 9459SOL     OW39838   2.931   3.626   6.696  0.0093 -0.0695 -0.8383
 9459SOL    HW139839   2.921   3.649   6.789  0.2711  3.0390 -1.5867
 9459SOL    HW239840   2.844   3.650   6.666  0.0742  0.2966 -0.7340
 9460SOL     OW39841   1.414   1.804   0.360  0.1152  0.5376  0.3819
 9460SOL    HW139842   1.450   1.805   0.271 -1.6801  0.2727 -0.3435
 9460SOL    HW239843   1.333   1.754   0.351 -0.0216  0.6677  0.9176
 9461SOL     OW39844   1.630   1.554   8.109 -0.3625 -0.2945 -0.1129
 9461SOL    HW139845   1.706   1.561   8.051 -0.2782 -0.8792 -0.0688
 9461SOL    HW239846   1.645   1.472   8.156 -0.7140 -0.0891  0.3556
 9462SOL     OW39847   2.665   3.832   6.418  0.2271 -1.2749  0.2350
 9462SOL    HW139848   2.629   3.784   6.493 -1.4298  0.8031  0.7829
 9462SOL    HW239849   2.758   3.810   6.415 -0.0949 -2.1952 -2.3650
 9463SOL     OW39850   0.821   1.054   7.714  0.3121 -0.8598  0.0300
 9463SOL    HW139851   0.867   0.971   7.706 -0.2194 -1.2241  0.8124
 9463SOL    HW239852   0.892   1.106   7.676 -0.0192  0.0124  0.5963
 9464SOL     OW39853   1.132   0.260   0.753 -0.1668 -0.1157 -0.4566
 9464SOL    HW139854   1.219   0.245   0.790  0.0970 -2.0041 -1.8758
 9464SOL    HW239855   1.149   0.310   0.673  2.3613 -2.4809 -1.3740
 9465SOL     OW39856   1.166   2.160   4.773 -0.5828  0.4921  0.0699
 9465SOL    HW139857   1.260   2.149   4.787 -0.1762  1.0684 -2.0905
 9465SOL    HW239858   1.153   2.088   4.710  1.4059 -0.7055  1.0181
 9466SOL     OW39859   2.808   4.538  15.176 -0.2249 -0.3797 -0.3295
 9466SOL    HW139860   2.807   4.629  15.207  0.2674  0.2556 -2.1935
 9466SOL    HW239861   2.811   4.552  15.082  0.8336 -1.7737 -0.4894
 9467SOL     OW39862   3.891   1.320   5.130  0.3840  0.0893  0.1348
 9467SOL    HW139863   3.973   1.320   5.179  1.2492  1.5526 -1.3000
 9467SOL    HW239864   3.862   1.411   5.139 -1.6585 -0.6937  1.3364
 9468SOL     OW39865   2.849   1.437   1.086 -0.5408  0.0801 -0.1566
 9468SOL    HW139866   2.892   1.352   1.080  2.0789  1.2809  1.2499
 9468SOL    HW239867   2.881   1.474   1.168 -1.3062  1.1022 -0.3167
 9469SOL     OW39868   3.083   3.294   7.652  0.3573 -0.2060 -0.4119
 9469SOL    HW139869   2.988   3.282   7.657  0.2187  2.0492  2.4972
 9469SOL    HW239870   3.102   3.290   7.746 -1.3774 -1.7326 -0.1168
 9470SOL     OW39871   4.076   3.372   5.747 -0.0892 -0.0202 -0.6499
 9470SOL    HW139872   4.140   3.443   5.742  2.5570 -2.1419  3.0520
 9470SOL    HW239873   4.113   3.307   5.687 -0.2744  0.9518 -1.8095
 9471SOL     OW39874   3.205   1.063   9.279 -0.3248 -0.3491  0.2024
 9471SOL    HW139875   3.175   1.149   9.310 -1.0271  0.3719 -2.4937
 9471SOL    HW239876   3.143   1.003   9.320  0.7802  0.1502  2.6372
 9472SOL     OW39877   4.051   4.608  13.309  0.7698 -0.4090 -0.3968
 9472SOL    HW139878   3.977   4.664  13.333 -0.9877 -1.9883 -2.2159
 9472SOL    HW239879   4.098   4.578  13.387  2.2224  1.5482 -0.5258
 9473SOL     OW39880   1.907   1.286  16.337 -0.0308 -0.6171 -0.0530
 9473SOL    HW139881   1.973   1.217  16.337  1.2070  0.5686 -0.4190
 9473SOL    HW239882   1.846   1.256  16.405 -0.3613 -0.8072 -0.4325
 9474SOL     OW39883   0.402   0.302   0.355 -0.2881 -0.0590  0.2009
 9474SOL    HW139884   0.367   0.226   0.307 -0.1440 -1.7257  2.7480
 9474SOL    HW239885   0.401   0.274   0.446  0.3802  1.1512  0.5713
 9475SOL     OW39886   2.478   2.363   7.505  0.9136  0.4459  0.0788
 9475SOL    HW139887   2.404   2.347   7.447  2.5536 -0.8005 -1.6942
 9475SOL    HW239888   2.510   2.274   7.517  1.2878  0.4276 -1.0443
 9476SOL     OW39889   4.423   2.967   6.141 -0.5123 -0.1465 -0.1287
 9476SOL    HW139890   4.422   2.935   6.051  1.8305  2.3879 -1.0447
 9476SOL    HW239891   4.477   2.899   6.181  1.5974  2.8276  2.0322
 9477SOL     OW39892   3.370   3.311   8.435  0.3253 -0.6093 -0.0832
 9477SOL    HW139893   3.437   3.361   8.483 -0.1258  0.1182 -0.2042
 9477SOL    HW239894   3.428   3.251   8.389  1.7155  1.3740 -0.9361
 9478SOL     OW39895   3.853   2.420   6.232  0.3951  0.2999  0.2176
 9478SOL    HW139896   3.794   2.446   6.161 -0.0381 -0.6606  0.2228
 9478SOL    HW239897   3.864   2.500   6.283  1.4383  0.9647 -1.0459
 9479SOL     OW39898   4.496   4.084   2.381 -0.6837  0.4569  0.4414
 9479SOL    HW139899   4.437   4.091   2.306 -1.7359 -0.3546  1.1975
 9479SOL    HW239900   4.465   4.157   2.435  1.0363  0.4402  1.4554
 9480SOL     OW39901   3.170   4.145   7.984  0.8225  0.0606  0.2050
 9480SOL    HW139902   3.205   4.121   7.898  1.2473 -1.2759  0.7531
 9480SOL    HW239903   3.087   4.098   7.973  0.5508  0.4344  0.6529
 9481SOL     OW39904   2.783   2.578   8.293  0.5606 -0.1092  0.1064
 9481SOL    HW139905   2.733   2.516   8.240  0.7726  2.0145 -2.6340
 9481SOL    HW239906   2.726   2.581   8.370  1.1649  0.2171  0.5357
 9482SOL     OW39907   2.807   0.270   7.111 -0.2360 -0.1391  0.1524
 9482SOL    HW139908   2.741   0.221   7.161 -2.3013  0.8385 -1.6325
 9482SOL    HW239909   2.747   0.306   7.046 -0.5710  1.6700  1.4703
 9483SOL     OW39910   0.023   1.774  15.317 -0.5538 -0.3245 -0.3019
 9483SOL    HW139911   0.010   1.862  15.353 -0.4224  0.0759 -1.2346
 9483SOL    HW239912   4.679   1.780  15.249 -0.6524 -1.8380 -0.3374
 9484SOL     OW39913   1.597   0.003   6.781  0.4476 -0.6754  0.3590
 9484SOL    HW139914   1.516   0.051   6.802 -1.4954 -3.0758 -1.5878
 9484SOL    HW239915   1.593   4.669   6.857  0.7528 -0.4187  0.5690
 9485SOL     OW39916   3.723   4.223   9.505 -0.3985 -0.1392  0.2133
 9485SOL    HW139917   3.758   4.307   9.533 -0.6991 -0.1258  0.5617
 9485SOL    HW239918   3.797   4.201   9.449 -1.4497  0.2945 -1.3231
 9486SOL     OW39919   2.797   1.243  14.911 -0.2510  0.3415  0.0339
 9486SOL    HW139920   2.892   1.244  14.902 -0.2161 -1.2007  0.2458
 9486SOL    HW239921   2.776   1.153  14.884 -1.5981  0.3655  1.0094
 9487SOL     OW39922   3.157   0.797  13.099 -0.5436  0.1570  0.5872
 9487SOL    HW139923   3.089   0.734  13.124  0.4121 -1.3092 -0.4966
 9487SOL    HW239924   3.132   0.878  13.143  0.2533  1.1336 -0.7569
 9488SOL     OW39925   4.140   3.812   2.685 -0.1348  0.2200  0.5615
 9488SOL    HW139926   4.183   3.892   2.653  0.8426 -1.4122 -2.2004
 9488SOL    HW239927   4.143   3.826   2.779 -0.6653 -0.5890  0.6985
 9489SOL     OW39928   1.053   1.327  17.296 -0.6384  0.2901  0.3401
 9489SOL    HW139929   1.011   1.403  17.257 -2.0980 -1.1856 -1.0092
 9489SOL    HW239930   1.112   1.364  17.361  0.1549 -0.8764  0.2912
 9490SOL     OW39931   0.788   2.734   0.597  0.1834 -0.2052  0.7190
 9490SOL    HW139932   0.765   2.747   0.689 -0.4104 -0.5941  0.6218
 9490SOL    HW239933   0.779   2.824   0.565 -0.5837  0.0851  1.7692
 9491SOL     OW39934   0.771   4.163   0.814  0.4406  0.4264  0.2295
 9491SOL    HW139935   0.767   4.074   0.848  0.4262  0.5034  0.4323
 9491SOL    HW239936   0.848   4.162   0.758 -0.4041 -1.6932 -0.8752
 9492SOL     OW39937   2.879   0.695   3.467 -0.0156 -0.1115  0.0902
 9492SOL    HW139938   2.868   0.760   3.398  1.1698  0.7375  0.7098
 9492SOL    HW239939   2.847   0.733   3.548  0.4064 -0.5841  0.4785
 9493SOL     OW39940   0.862   0.838   2.337  0.4189 -0.2186 -0.0109
 9493SOL    HW139941   0.937   0.810   2.389  0.8062  0.9621  0.0612
 9493SOL    HW239942   0.887   0.919   2.292  1.2177 -0.1690  0.5228
 9494SOL     OW39943   0.565   3.522   4.414  0.0895 -0.4121  0.5981
 9494SOL    HW139944   0.508   3.556   4.484 -1.0644 -2.0893  0.4784
 9494SOL    HW239945   0.614   3.453   4.459  1.3730  1.3407  1.8721
 9495SOL     OW39946   2.116   3.205  14.781 -0.7177 -0.3677 -0.0276
 9495SOL    HW139947   2.036   3.156  14.797 -1.3286  0.3218 -0.9700
 9495SOL    HW239948   2.140   3.252  14.862  0.2225  1.4866 -1.3820
 9496SOL     OW39949   1.980   1.835   7.548 -0.0205  0.1953 -0.3061
 9496SOL    HW139950   1.930   1.756   7.528  3.3734 -2.3165  1.1479
 9496SOL    HW239951   2.067   1.797   7.542 -0.2507 -0.4251  0.2181
 9497SOL     OW39952   0.341   0.075   0.191  0.0139 -0.0325 -0.4207
 9497SOL    HW139953   0.355   4.711   0.226 -2.8407 -0.8358 -1.2543
 9497SOL    HW239954   0.409   0.084   0.124 -0.2014 -1.0680 -0.7757
 9498SOL     OW39955   1.702   0.152   3.643  0.2315 -0.1267  0.2616
 9498SOL    HW139956   1.658   0.234   3.623  1.5435  0.4525 -0.2984
 9498SOL    HW239957   1.686   0.143   3.736 -1.2508  1.7198  0.1624
 9499SOL     OW39958   1.078   0.335   8.353  0.7910 -0.2128  0.0126
 9499SOL    HW139959   1.131   0.315   8.430  1.8980  2.3596 -0.0976
 9499SOL    HW239960   1.027   0.254   8.349  0.5262 -0.1161  1.6166
 9500SOL     OW39961   1.153   3.791   3.795 -0.4762 -0.5190  0.0011
 9500SOL    HW139962   1.201   3.708   3.787  1.2469  0.4333  0.5386
 9500SOL    HW239963   1.213   3.848   3.746 -0.1660 -1.2850 -0.5157
 9501SOL     OW39964   4.293   2.220  16.154  0.5220 -0.4897 -0.0533
 9501SOL    HW139965   4.304   2.143  16.211  0.3108 -1.6015 -1.5091
 9501SOL    HW239966   4.276   2.174  16.071 -0.3341 -1.7885  0.8275
 9502SOL     OW39967   4.697   4.281  13.101  0.3492 -0.2391  0.8530
 9502SOL    HW139968   0.056   4.256  13.140  1.4155  0.6013 -0.8864
 9502SOL    HW239969   4.710   4.368  13.064  1.4214 -0.1831  1.3836
 9503SOL     OW39970   2.858   1.321  11.824  0.3831 -0.0201  0.2312
 9503SOL    HW139971   2.836   1.261  11.753  1.5380 -0.9624  0.6723
 9503SOL    HW239972   2.950   1.326  11.799  0.1400 -3.3113 -1.3368
 9504SOL     OW39973   4.350   0.499   3.102  0.3234  0.3171  0.2820
 9504SOL    HW139974   4.260   0.529   3.114  0.0756 -1.4182  2.7567
 9504SOL    HW239975   4.321   0.459   3.020  2.2478 -1.0079  0.2545
 9505SOL     OW39976   1.900   4.363  16.197 -0.2065 -0.0252 -0.1738
 9505SOL    HW139977   1.859   4.397  16.277  1.9697  0.8178  0.5835
 9505SOL    HW239978   1.917   4.277  16.236  0.0504  0.1089  0.0137
 9506SOL     OW39979   0.106   4.305   5.448 -1.1189  0.2019 -0.0614
 9506SOL    HW139980   0.102   4.215   5.417 -0.0696  0.7103 -1.6986
 9506SOL    HW239981   0.012   4.321   5.458 -0.7281  1.9474  0.8531
 9507SOL     OW39982   3.453   1.442   8.719  0.3451  0.0211  0.3259
 9507SOL    HW139983   3.489   1.374   8.776  1.2827  0.1714 -0.0869
 9507SOL    HW239984   3.447   1.514   8.782  1.1683 -0.2312  0.6878
 9508SOL     OW39985   2.411   0.496  16.908  0.3882  0.1372 -0.5360
 9508SOL    HW139986   2.331   0.451  16.881  1.0666 -0.4750 -1.5261
 9508SOL    HW239987   2.409   0.565  16.842 -0.8426 -0.6319 -1.3074
 9509SOL     OW39988   3.523   1.056   2.271  0.1885  0.1316 -0.2934
 9509SOL    HW139989   3.486   0.973   2.239  2.2206  0.2183 -2.9065
 9509SOL    HW239990   3.531   1.038   2.364 -1.6781  1.5778  0.1551
 9510SOL     OW39991   3.324   3.891  16.756 -0.7501  0.5720 -0.3213
 9510SOL    HW139992   3.241   3.933  16.733 -0.7474  1.1704  0.7933
 9510SOL    HW239993   3.378   3.964  16.786 -1.2994  1.7728 -2.2575
 9511SOL     OW39994   0.793   1.470  13.435  0.3138  0.1214  0.0946
 9511SOL    HW139995   0.769   1.383  13.403 -1.5197  0.5596  0.3191
 9511SOL    HW239996   0.887   1.458  13.448  0.5582  1.1086 -0.7308
 9512SOL     OW39997   3.052   0.738   3.029 -0.3648  0.0949  0.2543
 9512SOL    HW139998   2.977   0.738   2.970 -1.1938 -1.2298  1.2853
 9512SOL    HW239999   3.064   0.831   3.046 -2.9613  0.4881 -0.0715
 9513SOL     OW40000   4.187   1.902   8.088  0.0411  0.0131  0.0374
 9513SOL    HW140001   4.269   1.932   8.126 -0.9678  0.5332  1.8453
 9513SOL    HW240002   4.149   1.979   8.046 -0.4804 -0.5797 -0.5871
 9514SOL     OW40003   2.906   3.568   1.333 -0.2554 -0.3994 -0.1731
 9514SOL    HW140004   2.960   3.581   1.411 -0.7444  2.3918 -0.3089
 9514SOL    HW240005   2.895   3.473   1.325 -0.9375 -0.1801 -1.7417
 9515SOL     OW40006   3.870   4.367   2.887 -0.2886 -0.3383  0.1019
 9515SOL    HW140007   3.795   4.418   2.857  0.3424 -1.4766 -3.5009
 9515SOL    HW240008   3.944   4.427   2.890 -0.5846 -0.0045  0.5832
 9516SOL     OW40009   4.182   2.362   6.388  0.2686  0.0937 -0.0703
 9516SOL    HW140010   4.151   2.363   6.298  1.6278 -1.0793 -0.5472
 9516SOL    HW240011   4.277   2.351   6.393  0.3223  0.6145  0.0501
 9517SOL     OW40012   0.063   0.338   4.670 -0.2072  0.0388 -0.1507
 9517SOL    HW140013   4.693   0.332   4.651 -0.1200  1.9912 -1.2145
 9517SOL    HW240014   0.101   0.278   4.605  1.3820  2.1580 -1.1468
 9518SOL     OW40015   3.541   2.963  10.774  0.0676  0.9695 -0.3229
 9518SOL    HW140016   3.452   2.982  10.748 -0.5461 -1.5858 -0.0993
 9518SOL    HW240017   3.524   2.878  10.814  0.2939  1.2022  0.2846
 9519SOL     OW40018   3.263   2.121   7.197  0.2300 -0.3635  0.0386
 9519SOL    HW140019   3.222   2.202   7.228 -2.0716 -1.4278 -0.2053
 9519SOL    HW240020   3.218   2.107   7.114 -1.5628  0.7300  0.8240
 9520SOL     OW40021   4.496   0.715  14.477  0.0861 -0.0785 -0.1282
 9520SOL    HW140022   4.493   0.811  14.474  0.3033 -0.1908 -3.3087
 9520SOL    HW240023   4.478   0.695  14.385  0.1405 -0.5413 -0.0361
 9521SOL     OW40024   1.188   4.344   1.145  0.4895 -0.5250 -0.1959
 9521SOL    HW140025   1.245   4.348   1.222 -0.1532 -0.6242  0.2834
 9521SOL    HW240026   1.189   4.250   1.124  2.1190 -0.6525  0.4040
 9522SOL     OW40027   0.963   4.015   5.909  0.6864  0.1087 -0.1417
 9522SOL    HW140028   0.981   3.946   5.845 -3.3013 -0.1619 -1.0051
 9522SOL    HW240029   0.897   4.069   5.866  0.2404  0.4495  0.9818
 9523SOL     OW40030   4.110   4.192  13.651  0.2244 -0.4264  0.2011
 9523SOL    HW140031   4.111   4.193  13.747  1.0011 -2.5125  0.2084
 9523SOL    HW240032   4.205   4.202  13.642  0.2449 -0.8269 -0.0083
 9524SOL     OW40033   0.252   2.557   8.174 -0.1780 -0.2400  0.9606
 9524SOL    HW140034   0.295   2.543   8.089 -1.0655 -1.0495  0.6503
 9524SOL    HW240035   0.326   2.604   8.213  1.2183 -1.4945 -0.1995
 9525SOL     OW40036   3.791   1.278   3.486  0.0059  0.0310  0.2191
 9525SOL    HW140037   3.837   1.255   3.405 -1.3287 -4.6169  0.7825
 9525SOL    HW240038   3.828   1.222   3.554  0.5309  0.6545  0.4534
 9526SOL     OW40039   0.990   1.759   2.502  0.5064 -0.0463  0.7532
 9526SOL    HW140040   0.956   1.802   2.425 -0.5356 -0.2309  1.1118
 9526SOL    HW240041   1.081   1.734   2.482  0.0480 -0.8066 -0.3586
 9527SOL     OW40042   1.930   0.314   4.627 -0.2031  0.1909 -0.0085
 9527SOL    HW140043   1.929   0.219   4.625 -0.1090  0.2192 -1.1400
 9527SOL    HW240044   1.914   0.317   4.722  1.1124  0.7952  0.2028
 9528SOL     OW40045   2.073   2.280   7.664  0.4102  0.0149  0.1542
 9528SOL    HW140046   2.132   2.225   7.715  0.1066  0.3819  0.9051
 9528SOL    HW240047   2.070   2.353   7.726 -0.0828 -1.7666  2.2315
 9529SOL     OW40048   2.520   2.834   2.808 -0.2150  1.0083 -0.3644
 9529SOL    HW140049   2.518   2.904   2.743  0.0101  0.7355 -0.6658
 9529SOL    HW240050   2.595   2.866   2.858 -0.1557 -0.9982  0.8457
 9530SOL     OW40051   2.415   3.766  14.712  0.3505 -0.4392  0.1263
 9530SOL    HW140052   2.449   3.747  14.800 -0.6300 -1.0704  0.3695
 9530SOL    HW240053   2.418   3.860  14.698 -1.3971 -0.0948  2.0943
 9531SOL     OW40054   3.643   2.365   7.587 -0.1410  0.3269 -0.2697
 9531SOL    HW140055   3.601   2.367   7.501 -0.4493  0.6738 -0.1066
 9531SOL    HW240056   3.736   2.355   7.567  0.3329  0.8277  1.6297
 9532SOL     OW40057   3.836   0.104   2.154 -0.0225 -0.0373 -0.2890
 9532SOL    HW140058   3.916   0.060   2.128 -0.9767 -1.7665 -0.2582
 9532SOL    HW240059   3.867   0.135   2.240 -0.1013  0.1520 -0.3277
 9533SOL     OW40060   4.290   1.706   5.645 -0.4891 -0.1740  0.2855
 9533SOL    HW140061   4.320   1.796   5.657 -0.9905 -0.2656  2.2032
 9533SOL    HW240062   4.236   1.723   5.568 -0.0138  0.3029  0.0607
 9534SOL     OW40063   3.660   4.556   5.296  0.1298  0.2562 -0.2306
 9534SOL    HW140064   3.701   4.584   5.214  1.3803 -0.1362  0.2482
 9534SOL    HW240065   3.691   4.635   5.340  1.0997  0.0828 -0.6039
 9535SOL     OW40066   4.294   4.676   8.052 -0.5967  0.2788 -0.4953
 9535SOL    HW140067   4.224   0.015   8.033  0.2549  0.5994 -2.5621
 9535SOL    HW240068   4.263   4.631   8.131 -0.2421  0.4260 -0.2699
 9536SOL     OW40069   3.204   3.909   3.352  0.0306 -0.2091 -0.4716
 9536SOL    HW140070   3.258   3.892   3.429  0.3445  2.7355 -0.0264
 9536SOL    HW240071   3.127   3.868   3.391 -0.7181  0.5606 -1.1278
 9537SOL     OW40072   0.696   1.737  10.564  0.3375 -0.1180  0.1773
 9537SOL    HW140073   0.749   1.690  10.500  0.7027  0.4957  0.0302
 9537SOL    HW240074   0.733   1.825  10.563  1.5207 -0.6026  1.5839
 9538SOL     OW40075   0.285   1.115   3.908  0.1595 -0.1004 -0.1807
 9538SOL    HW140076   0.260   1.065   3.986 -3.4304 -0.7382 -1.7517
 9538SOL    HW240077   0.199   1.125   3.869 -0.7046  1.2914  2.0616
 9539SOL     OW40078   2.617   4.267  10.071 -0.7950  0.2010  0.1483
 9539SOL    HW140079   2.665   4.339  10.030 -2.7530  1.9035  0.8477
 9539SOL    HW240080   2.687   4.201  10.073  1.7520  2.8379 -3.3355
 9540SOL     OW40081   1.787   3.340  16.335  1.0286 -0.5927 -0.2079
 9540SOL    HW140082   1.801   3.296  16.251  0.3189 -2.2800  0.5367
 9540SOL    HW240083   1.840   3.419  16.339 -1.8301  1.2074  1.8863
 9541SOL     OW40084   0.195   3.819   5.970  0.0840 -0.2686  0.5199
 9541SOL    HW140085   0.182   3.733   5.929 -1.2293 -0.7438  1.9521
 9541SOL    HW240086   0.107   3.832   6.005 -0.1830 -0.1880 -0.1691
 9542SOL     OW40087   0.867   4.650   9.520  0.1508  0.4597  0.4278
 9542SOL    HW140088   0.830   4.666   9.607 -2.0531  1.1590 -0.6405
 9542SOL    HW240089   0.887   4.557   9.527  1.2109  0.6397 -0.3184
 9543SOL     OW40090   0.249   4.261  14.778 -0.1406  0.3389  0.2062
 9543SOL    HW140091   0.265   4.310  14.858  3.4265  1.8648 -1.4382
 9543SOL    HW240092   0.174   4.313  14.745  0.1838 -0.3707 -1.6855
 9544SOL     OW40093   0.517   3.415   1.418 -0.1020  0.5373  0.5624
 9544SOL    HW140094   0.423   3.398   1.409 -0.0574  0.7013 -0.1964
 9544SOL    HW240095   0.519   3.456   1.505  0.8102  0.3207  0.6386
 9545SOL     OW40096   0.988   3.724   2.210 -0.1604  0.4009  0.0493
 9545SOL    HW140097   1.082   3.729   2.229  0.1858  1.3968 -1.8763
 9545SOL    HW240098   0.986   3.654   2.144  0.0945  0.5231 -0.0880
 9546SOL     OW40099   1.972   4.084   2.452 -0.7926 -0.4528 -0.1929
 9546SOL    HW140100   1.961   3.989   2.449  1.5380 -0.8123  1.9309
 9546SOL    HW240101   2.056   4.084   2.497 -0.7315  0.7005 -0.2898
 9547SOL     OW40102   2.311   3.816   9.196  0.1345 -0.2824 -0.1453
 9547SOL    HW140103   2.360   3.894   9.221 -1.4093  0.6226  0.0645
 9547SOL    HW240104   2.246   3.816   9.266 -0.1316  1.9883 -0.3871
 9548SOL     OW40105   2.860   2.048  10.274  0.2323 -0.8325 -0.0919
 9548SOL    HW140106   2.834   1.965  10.233 -1.3981  0.0699 -0.8991
 9548SOL    HW240107   2.871   2.022  10.365 -0.2399  1.9793  0.7594
 9549SOL     OW40108   0.434   0.781  15.527 -0.2647 -0.0953  0.0265
 9549SOL    HW140109   0.447   0.730  15.446  0.8288  0.4412 -0.1397
 9549SOL    HW240110   0.365   0.839  15.496 -0.4187  0.8138  2.1236
 9550SOL     OW40111   3.918   4.069   8.442 -0.1362  0.0786 -0.1223
 9550SOL    HW140112   3.844   4.109   8.487  0.7629  0.2113  1.2204
 9550SOL    HW240113   3.880   3.983   8.424 -0.8664  0.4701 -0.4510
 9551SOL     OW40114   3.043   0.074   0.072  0.3659  0.6484 -0.2684
 9551SOL    HW140115   3.072   0.113  17.687  0.7863 -0.2650 -0.5508
 9551SOL    HW240116   2.950   0.072   0.050  0.6272 -1.9969 -1.0846
 9552SOL     OW40117   2.056   1.919   4.509  0.4098 -0.1857  0.1967
 9552SOL    HW140118   2.098   1.992   4.553 -1.8026  0.6200  0.9841
 9552SOL    HW240119   2.085   1.931   4.418  0.6857  2.1661  0.5985
 9553SOL     OW40120   0.751   2.650  14.560  0.3528 -0.2332 -0.2054
 9553SOL    HW140121   0.787   2.730  14.522 -0.1536  0.6102  1.1224
 9553SOL    HW240122   0.793   2.584  14.505 -1.4261 -1.5307 -0.0030
 9554SOL     OW40123   0.199   2.643   6.434  0.0237  0.4648 -0.0703
 9554SOL    HW140124   0.219   2.642   6.528 -2.6422 -3.3042  0.5009
 9554SOL    HW240125   0.288   2.636   6.400  0.3554 -1.9945  1.2436
 9555SOL     OW40126   3.226   1.074   6.061  0.8304  0.1751 -0.0443
 9555SOL    HW140127   3.221   1.114   6.148  0.9611  0.6887 -0.2747
 9555SOL    HW240128   3.219   1.148   6.001 -0.2148  0.5028  0.4835
 9556SOL     OW40129   2.789   1.435   2.950  0.2453 -0.3171 -0.1735
 9556SOL    HW140130   2.782   1.486   2.869  0.4182  0.0593  0.0478
 9556SOL    HW240131   2.838   1.495   3.006 -1.5043  1.4797 -0.5740
 9557SOL     OW40132   4.709   0.268   3.481  0.2338  0.0591  0.0947
 9557SOL    HW140133   0.037   0.187   3.478  0.1308 -0.0120  0.2958
 9557SOL    HW240134   0.046   0.342   3.479  0.0053  0.2193 -0.8390
 9558SOL     OW40135   0.126   1.014   3.389 -0.4203 -0.5739  0.4997
 9558SOL    HW140136   0.118   0.935   3.442 -0.1424 -2.6563 -2.5212
 9558SOL    HW240137   0.209   0.992   3.347 -0.0698  2.4717 -0.4373
 9559SOL     OW40138   2.903   2.189  13.091  0.4074 -0.6261  0.0340
 9559SOL    HW140139   2.887   2.187  13.185  0.5806  0.2335  0.0782
 9559SOL    HW240140   2.979   2.247  13.089 -0.0323 -0.0365  1.0194
 9560SOL     OW40141   2.916   1.764  15.710 -0.3988 -1.2098  0.4735
 9560SOL    HW140142   2.962   1.841  15.743  1.1426 -1.6578 -0.6237
 9560SOL    HW240143   2.916   1.782  15.616  0.7200 -0.0653  0.6849
 9561SOL     OW40144   1.655   0.249   8.792 -0.1971 -0.1615 -0.0167
 9561SOL    HW140145   1.591   0.200   8.843  0.2961  1.2728  1.9572
 9561SOL    HW240146   1.653   0.333   8.838 -0.4793  0.3105 -0.9052
 9562SOL     OW40147   0.542   2.885   3.945 -0.3211 -0.0452  0.4029
 9562SOL    HW140148   0.496   2.846   3.871 -0.3310  0.4904  0.1240
 9562SOL    HW240149   0.634   2.870   3.920 -0.5884  0.6945 -1.0354
 9563SOL     OW40150   4.694   2.707  11.511 -0.3406  0.1934 -0.8308
 9563SOL    HW140151   4.616   2.652  11.505  0.1904 -0.6625  0.1864
 9563SOL    HW240152   4.650   2.789  11.532 -0.0959 -0.1070  0.9012
 9564SOL     OW40153   3.098   3.910   6.094  0.1455  0.2223  0.0151
 9564SOL    HW140154   3.181   3.862   6.099 -0.0517 -0.2101 -0.9158
 9564SOL    HW240155   3.118   3.982   6.154  2.5011 -1.5471  1.3703
 9565SOL     OW40156   2.297   1.096   2.277  0.7330 -0.1564 -0.4045
 9565SOL    HW140157   2.305   1.098   2.373 -1.2352  0.0414 -0.2341
 9565SOL    HW240158   2.270   1.004   2.269  1.1672 -0.2313 -1.0167
 9566SOL     OW40159   0.508   1.950  16.513  0.4831 -0.0682 -0.4826
 9566SOL    HW140160   0.600   1.949  16.539  0.3320  2.1626  0.1343
 9566SOL    HW240161   0.476   1.866  16.545  1.2117  0.0601  0.5718
 9567SOL     OW40162   1.534   1.838   7.150 -0.0007 -0.8286 -0.2497
 9567SOL    HW140163   1.445   1.861   7.180  0.5243  0.7658  0.1153
 9567SOL    HW240164   1.522   1.862   7.058 -1.4599 -1.2066 -0.1694
 9568SOL     OW40165   3.164   2.525   6.458  0.1525  0.2027 -0.1776
 9568SOL    HW140166   3.081   2.572   6.456 -0.1610 -0.3563 -0.3675
 9568SOL    HW240167   3.195   2.545   6.369 -3.1240  2.0691 -0.8729
   4.72381   4.72381  17.69696
