Membrane in water
40167
    1TCq1    O1    1   1.245   2.448  11.796  0.1646  0.2712  0.4926
    1TCq1    C1    2   1.342   2.537  11.814 -0.1844 -0.1084  0.5426
    1TCq1    O2    3   1.325   2.655  11.804 -0.1845 -0.0199  0.0871
    1TCq1    C2    4   1.474   2.472  11.784  0.5668 -0.2824 -0.4580
    1TCq1    C3    5   1.560   2.537  11.698  0.2862 -0.1006  0.4553
    1TCq1    C4    6   1.669   2.475  11.654  0.1082  0.3517  0.9142
    1TCq1    C5    7   1.697   2.349  11.703  0.0228 -0.5125  0.6682
    1TCq1    C6    8   1.616   2.291  11.793 -0.8296 -0.0550  0.4350
    1TCq1    C7    9   1.498   2.343  11.832 -0.2320  0.0955 -0.0555
    1TCq1    C8   10   1.626   2.150  11.822 -0.5834  0.1966  0.5006
    1TCq1    O4   11   1.605   2.117  11.944 -0.1167  0.2634 -0.7244
    1TCq1    C9   12   1.754   2.538  11.554  0.6721  0.1912 -0.1610
    1TCq1    O5   13   1.847   2.465  11.514 -0.0396 -0.2371 -0.5015
    1TCq1    O6   14   1.727   2.658  11.518  0.1018  0.0283  0.0386
    1TCq1    H1   15   1.264   2.358  11.761 -1.5407 -0.2788  1.0252
    1TCq1    H2   16   1.529   2.629  11.649  0.8789 -0.7327 -1.0953
    1TCq1    H3   17   1.792   2.303  11.677 -0.2096 -1.3796  1.3559
    1TCq1    H4   18   1.422   2.288  11.886 -0.2537  0.0298 -0.1519
    2MPD2     C   19   1.670   1.662  11.674  0.2926  0.4471 -0.2128
    2MPD2    C1   20   1.598   1.724  11.771 -0.4252 -0.1993 -0.8397
    2MPD2    C2   21   1.609   1.861  11.800 -0.2753  0.4100 -0.2040
    2MPD2    C3   22   1.689   1.940  11.717 -0.7079  0.1980 -0.1721
    2MPD2    C4   23   1.748   1.880  11.613 -0.0278 -0.6548  0.5265
    2MPD2    C5   24   1.747   1.740  11.595  0.1406  0.0233 -0.2059
    2MPD2     H   25   1.555   1.913  11.879 -0.9106 -0.9690  0.2640
    2MPD2    H1   26   1.806   1.937  11.541 -0.2145  0.1663  1.0362
    2MPD2    H2   27   1.657   1.557  11.651 -1.2451  0.6823 -0.4465
    2MPD2    H3   28   1.787   1.700  11.502  1.7009 -1.4860  1.1055
    2MPD2     N   29   1.675   2.079  11.717 -0.1483 -0.6618 -0.6534
    2MPD2    H5   30   1.714   2.125  11.635 -2.2794  0.2616 -1.1289
    2MPD2    N1   31   1.494   1.662  11.849 -0.5009 -0.4254  0.3195
    2MPD2    H7   32   1.443   1.727  11.908 -3.8959 -2.5382 -0.3235
    3TCq1    O1   33   4.226   3.053  10.227  0.6254  0.1503 -0.3899
    3TCq1    C1   34   4.307   3.159  10.231 -0.4529 -0.1592 -0.0234
    3TCq1    O2   35   4.382   3.198  10.146  0.4863  0.3681  0.2594
    3TCq1    C2   36   4.311   3.211  10.363  0.2824 -0.7299  0.4840
    3TCq1    C3   37   4.344   3.343  10.373  0.2125 -0.4785  0.4504
    3TCq1    C4   38   4.422   3.387  10.480  0.4734  0.4306 -0.8294
    3TCq1    C5   39   4.455   3.302  10.573 -0.4943 -0.2950 -0.3348
    3TCq1    C6   40   4.422   3.174  10.563 -0.3721  0.0591 -0.2872
    3TCq1    C7   41   4.346   3.125  10.459 -0.5693 -0.6391 -0.2485
    3TCq1    C8   42   4.459   3.079  10.664 -0.5751  0.6617 -0.1423
    3TCq1    O4   43   4.420   2.967  10.647 -0.4597 -0.2836  0.0548
    3TCq1    C9   44   4.461   3.521  10.492  0.2367 -0.1312 -0.0113
    3TCq1    O5   45   4.528   3.563  10.591 -0.2083 -0.1662  0.2954
    3TCq1    O6   46   4.458   3.584  10.382 -0.0991 -0.2057  0.3895
    3TCq1    H1   47   4.159   3.064  10.298  3.1231  0.9226  1.8028
    3TCq1    H2   48   4.327   3.406  10.286  1.1722 -1.6758 -0.6035
    3TCq1    H3   49   4.512   3.345  10.655 -0.1441  1.7592 -1.6453
    3TCq1    H4   50   4.337   3.019  10.439 -2.9617 -0.7990  1.6238
    4MPD2     C   51   4.553   2.962  11.151 -0.0110  0.4815  0.3211
    4MPD2    C1   52   4.562   3.099  11.125  0.1985  0.2353  0.0576
    4MPD2    C2   53   4.572   3.156  11.006 -0.0480 -0.3205  0.1896
    4MPD2    C3   54   4.537   3.076  10.899 -0.0202 -0.5806  0.5581
    4MPD2    C4   55   4.526   2.945  10.921  0.0536  1.0952  0.4120
    4MPD2    C5   56   4.544   2.883  11.039  0.0412 -0.9828  0.3689
    4MPD2     H   57   4.587   3.262  10.989 -0.2757 -0.3007  0.1190
    4MPD2    H1   58   4.504   2.881  10.836 -2.0068  1.4518  0.6884
    4MPD2    H2   59   4.542   2.914  11.248 -2.2783  3.4627  1.5382
    4MPD2    H3   60   4.522   2.777  11.049 -0.7599 -0.8188  0.3409
    4MPD2     N   61   4.522   3.136  10.769  0.4789 -0.6477 -0.5797
    4MPD2    H5   62   4.548   3.234  10.764  1.5503 -1.0147 -2.2341
    4MPD2    N1   63   4.582   3.181  11.232  0.0427  0.4418 -0.4828
    4MPD2    H7   64   4.601   3.277  11.205  0.4588 -0.2431 -2.6086
    5TCq1    O1   65   0.497   0.311  11.898 -1.0271  0.2480  0.4353
    5TCq1    C1   66   0.529   0.199  11.832 -0.3660 -0.4023 -0.1052
    5TCq1    O2   67   0.596   0.205  11.730 -0.1047 -0.8760  0.0514
    5TCq1    C2   68   0.411   0.119  11.839 -0.1729  0.3393 -0.4212
    5TCq1    C3   69   0.343   0.100  11.955 -0.3413 -0.6191 -0.1257
    5TCq1    C4   70   0.277   4.706  11.961  0.1396 -0.1913  1.0253
    5TCq1    C5   71   0.280   4.609  11.867 -1.2795 -0.2433 -0.7091
    5TCq1    C6   72   0.341   4.639  11.750 -0.4703 -0.0378 -0.4844
    5TCq1    C7   73   0.402   0.035  11.733  0.3097  0.2804 -0.1519
    5TCq1    C8   74   0.339   4.546  11.640  0.0938  0.2665  0.7024
    5TCq1    O4   75   0.436   4.526  11.573 -0.1053  0.2726  0.2239
    5TCq1    C9   76   0.208   4.670  12.088  0.1805  0.5062  0.2079
    5TCq1    O5   77   0.203   4.548  12.111 -0.4415 -0.4661  0.2331
    5TCq1    O6   78   0.191   0.033  12.184  1.0180  0.3594  0.1907
    5TCq1    H1   79   0.408   0.306  11.939 -1.6277 -0.2182 -0.9328
    5TCq1    H2   80   0.353   0.156  12.047  1.2027  0.2806 -0.8333
    5TCq1    H3   81   0.211   4.527  11.883 -2.6448  0.8707 -0.8809
    5TCq1    H4   82   0.438   0.064  11.635  1.0427 -2.5961 -0.7295
    6MPD2     C   83   0.040   4.362  11.542  0.2719  0.1156 -0.0737
    6MPD2    C1   84   0.167   4.395  11.544  0.1912 -0.0107 -0.2054
    6MPD2    C2   85   0.253   4.327  11.455 -0.1207  0.2512 -0.0509
    6MPD2    C3   86   0.208   4.220  11.381 -0.3975 -0.4887 -0.3738
    6MPD2    C4   87   0.075   4.187  11.388 -0.5838 -0.2035 -1.4708
    6MPD2    C5   88   4.711   4.261  11.468  0.0293 -0.0519  0.4051
    6MPD2     H   89   0.358   4.351  11.461  0.0392 -0.1876 -1.0884
    6MPD2    H1   90   0.036   4.113  11.318 -0.7535 -0.8078 -0.7327
    6MPD2    H2   91   4.694   4.424  11.599  0.6618  1.1773 -0.7813
    6MPD2    H3   92   4.604   4.254  11.455 -0.0481  1.6633  0.1127
    6MPD2     N   93   0.305   4.141  11.310  0.2579 -0.1972  0.3604
    6MPD2    H5   94   0.401   4.174  11.304 -0.6673  2.5846  0.7804
    6MPD2    N1   95   0.214   4.487  11.637  0.5408  0.1906 -0.1526
    6MPD2    H7   96   0.154   4.525  11.709  0.0017 -0.8112 -0.0803
    7TCq1    O1   97   2.408   3.881  12.886  0.3018 -0.2144  0.2018
    7TCq1    C1   98   2.516   3.961  12.867 -0.1200 -0.2516 -0.3067
    7TCq1    O2   99   2.540   4.015  12.761  0.2885 -0.2526 -0.9126
    7TCq1    C2  100   2.595   3.963  12.985 -0.0169 -0.4791  0.2567
    7TCq1    C3  101   2.624   4.088  13.052  0.3970  0.3556 -0.0486
    7TCq1    C4  102   2.672   4.083  13.179 -0.6187  0.7354 -0.2076
    7TCq1    C5  103   2.691   3.965  13.236 -1.4294  0.6147  0.2881
    7TCq1    C6  104   2.663   3.852  13.167  0.0137 -0.5031  0.4616
    7TCq1    C7  105   2.605   3.843  13.041  0.5696  0.3089  0.5937
    7TCq1    C8  106   2.728   3.728  13.210 -0.4622 -0.2903  0.2865
    7TCq1    O4  107   2.690   3.626  13.156 -0.0795  0.2888 -0.3770
    7TCq1    C9  108   2.696   4.199  13.265  1.0926  0.0495 -0.0524
    7TCq1    O5  109   2.750   4.181  13.373  0.4123  0.3981 -0.1873
    7TCq1    O6  110   2.660   4.312  13.215  0.0548 -0.5314 -0.4024
    7TCq1    H1  111   2.380   3.875  12.980 -1.9722 -3.3287 -0.6858
    7TCq1    H2  112   2.611   4.179  12.995 -0.7273  2.0496  2.9014
    7TCq1    H3  113   2.715   3.966  13.342 -3.2039  0.0751  0.6905
    7TCq1    H4  114   2.614   3.755  12.979  1.6488  2.2124 -1.9457
    8MPD2     C  115   3.145   3.551  13.430 -0.0775 -0.3130  0.2511
    8MPD2    C1  116   3.030   3.475  13.398  0.1302  0.1334  0.1450
    8MPD2    C2  117   2.919   3.545  13.342 -0.3017  0.2772 -0.4592
    8MPD2    C3  118   2.928   3.683  13.333 -0.3654  0.3066  0.3497
    8MPD2    C4  119   3.041   3.756  13.369 -0.0672 -0.1889  0.1906
    8MPD2    C5  120   3.152   3.687  13.410 -0.0109  0.0070 -0.1007
    8MPD2     H  121   2.827   3.499  13.311  0.1629 -2.2831  2.0470
    8MPD2    H1  122   3.042   3.864  13.355  0.8319 -0.2402 -0.1163
    8MPD2    H2  123   3.229   3.495  13.469 -0.0799 -1.4225 -1.3242
    8MPD2    H3  124   3.241   3.743  13.436  0.7605 -1.5436  0.6128
    8MPD2     N  125   2.832   3.767  13.284  0.0707 -0.0760  0.8646
    8MPD2    H5  126   2.855   3.866  13.280  0.3381 -0.2205 -0.9968
    8MPD2    N1  127   3.022   3.339  13.433 -0.5493  0.0898  0.9643
    8MPD2    H7  128   3.101   3.305  13.487 -1.2970 -2.5027  0.3981
    9TCq1    O1  129   1.269   2.202  10.998 -0.2503 -0.4661  0.6206
    9TCq1    C1  130   1.174   2.173  10.906 -0.4806 -0.0553  0.0120
    9TCq1    O2  131   1.192   2.100  10.812 -0.2568 -0.1970 -0.0324
    9TCq1    C2  132   1.042   2.221  10.958  0.2071  0.1984  0.2975
    9TCq1    C3  133   0.932   2.135  10.964  0.1754 -0.2164 -0.9849
    9TCq1    C4  134   0.822   2.180  11.027  0.2319 -0.4944  0.8053
    9TCq1    C5  135   0.817   2.302  11.086  0.4720 -0.2125 -0.4798
    9TCq1    C6  136   0.925   2.387  11.079  0.5567  0.0398 -0.0508
    9TCq1    C7  137   1.044   2.347  11.012  0.8662 -0.1410  0.4351
    9TCq1    C8  138   0.926   2.510  11.161  0.5774  0.1374 -0.2177
    9TCq1    O4  139   1.021   2.581  11.140 -0.6074 -0.0761  0.4900
    9TCq1    C9  140   0.702   2.103  11.022 -0.2229 -0.0672 -0.7123
    9TCq1    O5  141   0.592   2.156  11.056 -0.0242  0.0946  0.6144
    9TCq1    O6  142   0.717   1.993  10.965  0.6851  0.1379  0.2081
    9TCq1    H1  143   1.241   2.236  11.086  0.2895  0.2556  0.5138
    9TCq1    H2  144   0.941   2.030  10.936  0.0061 -0.4606 -0.1417
    9TCq1    H3  145   0.719   2.334  11.122 -0.0029 -1.4403 -0.6902
    9TCq1    H4  146   1.129   2.415  11.009  0.4489  0.2668 -1.7708
   10MPD2     C  147   0.893   2.736  11.355 -0.6005  0.3330 -0.1247
   10MPD2    C1  148   0.830   2.612  11.362 -0.9371 -1.0197 -0.2027
   10MPD2    C2  149   0.748   2.585  11.471 -0.6600 -0.4379 -0.2181
   10MPD2    C3  150   0.753   2.665  11.580 -0.1372  0.2942  0.1682
   10MPD2    C4  151   0.827   2.782  11.581  0.0791 -0.3875  0.2425
   10MPD2    C5  152   0.894   2.821  11.468 -0.5608  0.5434 -0.2497
   10MPD2     H  153   0.697   2.489  11.473 -3.5571  1.1169  0.0874
   10MPD2    H1  154   0.834   2.844  11.670 -1.5025 -0.9229  0.7464
   10MPD2    H2  155   0.947   2.759  11.264 -2.0531 -1.3108 -1.4072
   10MPD2    H3  156   0.948   2.915  11.466  0.6503 -0.1811 -1.8839
   10MPD2     N  157   0.707   2.630  11.706  0.0724  0.4365  0.2938
   10MPD2    H5  158   0.740   2.687  11.782 -2.1416  1.8443  0.2090
   10MPD2    N1  159   0.833   2.519  11.259  0.3174  0.5541 -0.4910
   10MPD2    H7  160   0.764   2.444  11.265 -0.0850  0.9463 -0.2047
   11TCq1    O1  161   1.856   2.298  14.236  0.4717  0.4428  0.2982
   11TCq1    C1  162   1.897   2.422  14.273 -0.2221 -0.6209  0.8519
   11TCq1    O2  163   2.011   2.444  14.295 -0.3263 -0.5385  0.4374
   11TCq1    C2  164   1.788   2.498  14.317 -0.4894 -0.4377  0.1698
   11TCq1    C3  165   1.804   2.599  14.407  0.5035 -0.3478 -0.5968
   11TCq1    C4  166   1.702   2.686  14.440 -0.0383 -0.5510  0.5409
   11TCq1    C5  167   1.583   2.677  14.368  0.4919 -0.0394 -0.0921
   11TCq1    C6  168   1.573   2.570  14.282  0.3505  0.9256  0.2686
   11TCq1    C7  169   1.675   2.491  14.238 -0.5235  0.3706 -0.5158
   11TCq1    C8  170   1.437   2.558  14.219  0.0920  0.4232 -0.1831
   11TCq1    O4  171   1.358   2.644  14.251  0.6947 -0.3296  0.2470
   11TCq1    C9  172   1.714   2.791  14.540  0.3021 -0.5849 -0.9886
   11TCq1    O5  173   1.634   2.889  14.541  0.4575 -0.0536  0.1648
   11TCq1    O6  174   1.815   2.789  14.615  0.9868 -0.0003 -0.9267
   11TCq1    H1  175   1.762   2.274  14.248  0.2719  0.8911 -0.3710
   11TCq1    H2  176   1.897   2.601  14.463 -0.5920  1.8164  1.1238
   11TCq1    H3  177   1.499   2.740  14.397  0.0949  0.1688 -1.7259
   11TCq1    H4  178   1.665   2.424  14.154 -1.7226  1.8443 -1.5610
   12MPD2     C  179   1.208   2.538  14.033  0.6083  0.3383 -0.0759
   12MPD2    C1  180   1.297   2.432  14.058 -0.5416  0.4597  0.0860
   12MPD2    C2  181   1.289   2.310  14.003 -0.4700  0.2690 -0.4973
   12MPD2    C3  182   1.181   2.276  13.929 -0.0767 -0.3172 -0.2286
   12MPD2    C4  183   1.076   2.374  13.908  0.3823  0.1849  0.1771
   12MPD2    C5  184   1.093   2.499  13.964  0.0849 -0.2644  0.0405
   12MPD2     H  185   1.366   2.244  14.039 -1.0616  0.5584  1.3481
   12MPD2    H1  186   0.977   2.348  13.872  0.3507  2.0387 -1.0556
   12MPD2    H2  187   1.214   2.642  14.061 -2.8534  0.9867 -1.7468
   12MPD2    H3  188   1.006   2.563  13.953  0.3621 -0.1648 -1.5311
   12MPD2     N  189   1.173   2.139  13.883 -0.5558  0.2191 -0.0004
   12MPD2    H5  190   1.248   2.075  13.910  0.2783  0.5345 -1.5635
   12MPD2    N1  191   1.415   2.450  14.137 -0.2715  0.0918 -1.3194
   12MPD2    H7  192   1.484   2.376  14.128 -1.9163 -1.5823 -0.0321
   13TCq1    O1  193   1.038   1.707  11.162 -0.3694  0.1522  0.0424
   13TCq1    C1  194   1.144   1.768  11.223 -0.2740  0.1764 -0.0574
   13TCq1    O2  195   1.262   1.765  11.191  0.3672  0.4385 -0.2571
   13TCq1    C2  196   1.078   1.877  11.293  0.7984 -0.7179 -0.0146
   13TCq1    C3  197   1.141   2.000  11.277 -0.6451 -1.0684  0.2332
   13TCq1    C4  198   1.082   2.103  11.343 -0.2589  0.7667  0.1108
   13TCq1    C5  199   0.970   2.083  11.419 -0.2106  0.0739 -0.1521
   13TCq1    C6  200   0.917   1.959  11.437 -0.0357  0.1675  0.3198
   13TCq1    C7  201   0.970   1.851  11.374 -0.2800 -0.5086  0.0491
   13TCq1    C8  202   0.789   1.953  11.506  0.2433  0.1420 -0.0477
   13TCq1    O4  203   0.764   2.053  11.570  0.3983  0.7524 -0.3824
   13TCq1    C9  204   1.134   2.236  11.329 -0.1701 -0.5140  0.6663
   13TCq1    O5  205   1.233   2.262  11.252 -0.0122  0.3315  0.2334
   13TCq1    O6  206   1.085   2.311  11.413 -0.2438  0.1872  0.3935
   13TCq1    H1  207   0.949   1.743  11.181 -0.6823 -0.4453 -0.2653
   13TCq1    H2  208   1.225   2.001  11.208  0.4022 -0.8478  1.5058
   13TCq1    H3  209   0.925   2.172  11.463 -0.3555  1.1692 -2.4903
   13TCq1    H4  210   0.944   1.748  11.396 -1.0266 -0.6876 -1.7120
   14MPD2     C  211   0.530   1.699  11.530  0.1611 -0.5005 -0.3428
   14MPD2    C1  212   0.585   1.820  11.538  0.1663  0.3489 -0.3959
   14MPD2    C2  213   0.516   1.918  11.613 -0.3945  0.4980 -0.0988
   14MPD2    C3  214   0.401   1.889  11.679  0.1222 -0.2296 -0.3813
   14MPD2    C4  215   0.353   1.757  11.676  0.7945  0.4765  0.7441
   14MPD2    C5  216   0.430   1.666  11.608 -0.1199 -0.2126 -0.1943
   14MPD2     H  217   0.549   2.020  11.600  2.6894 -0.7232 -1.7689
   14MPD2    H1  218   0.267   1.720  11.730  1.0477  1.2372  1.6656
   14MPD2    H2  219   0.578   1.614  11.482  0.2727 -0.8278  0.3439
   14MPD2    H3  220   0.401   1.561  11.609 -3.2216  0.6605  0.1308
   14MPD2     N  221   0.331   1.996  11.738 -0.1938 -0.0414  0.7904
   14MPD2    H5  222   0.377   2.084  11.717  0.7398 -0.8930 -0.7906
   14MPD2    N1  223   0.712   1.842  11.478 -0.0378 -0.9068  0.4103
   14MPD2    H7  224   0.748   1.770  11.417 -1.4939 -1.9306  0.7477
   15TCq1    O1  225   2.704   1.816   2.520  0.3904  0.4052  0.0604
   15TCq1    C1  226   2.726   1.754   2.400 -0.2133 -0.0275 -0.6724
   15TCq1    O2  227   2.827   1.764   2.329  0.6908  0.5046 -0.5397
   15TCq1    C2  228   2.601   1.695   2.357  0.4685  0.3332  0.0152
   15TCq1    C3  229   2.483   1.707   2.422  0.5979  0.1534 -0.6753
   15TCq1    C4  230   2.382   1.616   2.380  0.4272 -0.0858  0.0084
   15TCq1    C5  231   2.390   1.529   2.269  0.4832  0.5638  0.0258
   15TCq1    C6  232   2.520   1.527   2.215 -0.6325 -0.1905  0.2069
   15TCq1    C7  233   2.621   1.603   2.263  0.5627 -0.0640 -0.0271
   15TCq1    C8  234   2.560   1.420   2.125  0.5547  0.7253  0.4984
   15TCq1    O4  235   2.675   1.387   2.114 -0.5413  0.0636  0.2684
   15TCq1    C9  236   2.256   1.625   2.442  0.1179  0.1994  0.5394
   15TCq1    O5  237   2.169   1.543   2.405  0.1007 -0.3693  0.1756
   15TCq1    O6  238   2.231   1.735   2.498 -0.2808  0.6515  0.3308
   15TCq1    H1  239   2.621   1.775   2.552  1.8865 -0.8959  2.3235
   15TCq1    H2  240   2.450   1.786   2.489 -0.1309  0.1343 -1.0177
   15TCq1    H3  241   2.313   1.459   2.241  0.8562 -0.2080  0.9475
   15TCq1    H4  242   2.717   1.600   2.213 -0.5174  0.5732 -2.1389
   16MPD2     C  243   2.339   1.264   1.873 -0.1701 -0.2552 -0.9273
   16MPD2    C1  244   2.462   1.282   1.941 -0.3134 -0.1255 -1.0059
   16MPD2    C2  245   2.573   1.223   1.892  0.6274  0.3732  0.1656
   16MPD2    C3  246   2.564   1.139   1.782 -0.3827 -0.5594  0.6618
   16MPD2    C4  247   2.452   1.130   1.706  0.1612 -0.4094  0.3172
   16MPD2    C5  248   2.341   1.184   1.762 -0.5246  0.1337  0.3274
   16MPD2     H  249   2.662   1.238   1.951  1.6198  2.1670 -1.7883
   16MPD2    H1  250   2.440   1.063   1.621 -0.2407 -0.4324  0.3905
   16MPD2    H2  251   2.255   1.321   1.910  1.6954  3.4127 -2.2891
   16MPD2    H3  252   2.255   1.167   1.699  0.3327  0.4537 -0.9449
   16MPD2     N  253   2.688   1.083   1.751 -0.6683 -0.1278  0.1521
   16MPD2    H5  254   2.770   1.120   1.798 -0.3124  0.3458 -0.8348
   16MPD2    N1  255   2.455   1.369   2.050 -0.3601 -0.0723 -0.5915
   16MPD2    H7  256   2.369   1.423   2.054 -1.2766 -1.6527  0.9188
   17TCq1    O1  257   1.207   1.616  11.650  0.4915 -0.2027 -0.2891
   17TCq1    C1  258   1.307   1.651  11.567 -0.1080  0.0629  0.4424
   17TCq1    O2  259   1.387   1.576  11.511  0.2827  0.4741  0.1913
   17TCq1    C2  260   1.328   1.791  11.570  0.5739  0.1576 -0.1205
   17TCq1    C3  261   1.268   1.876  11.661  0.6253 -0.5671 -0.3036
   17TCq1    C4  262   1.299   2.009  11.650 -0.2488 -0.4099 -0.5628
   17TCq1    C5  263   1.376   2.057  11.551 -0.3592 -0.8155 -0.5367
   17TCq1    C6  264   1.430   1.975  11.460  0.0380  0.0350 -0.3214
   17TCq1    C7  265   1.401   1.840  11.465  0.4822 -0.0055  0.1487
   17TCq1    C8  266   1.491   2.043  11.348  0.0971 -0.9209  0.2344
   17TCq1    O4  267   1.515   2.161  11.357  0.6636  0.1913  0.0228
   17TCq1    C9  268   1.232   2.104  11.731 -0.5888 -0.3913  0.2631
   17TCq1    O5  269   1.168   2.056  11.830  0.0308 -0.1956 -0.4160
   17TCq1    O6  270   1.239   2.224  11.702  0.3520  0.1711 -0.3875
   17TCq1    H1  271   1.152   1.686  11.691  0.5665 -0.9659  1.1043
   17TCq1    H2  272   1.195   1.842  11.733  0.3207 -0.5331 -0.5970
   17TCq1    H3  273   1.380   2.165  11.541 -2.6132 -0.6683  0.1546
   17TCq1    H4  274   1.464   1.768  11.412  0.6997  0.9153 -0.8566
   18MPD2     C  275   1.633   2.093  11.080  0.1582 -0.4689  0.1228
   18MPD2    C1  276   1.552   1.987  11.107  0.7592  0.4459 -0.4686
   18MPD2    C2  277   1.517   1.891  11.009  0.5468 -0.1847  0.0410
   18MPD2    C3  278   1.571   1.913  10.878  0.7166 -0.1831  0.8052
   18MPD2    C4  279   1.658   2.024  10.860 -0.4058  0.2244  0.2423
   18MPD2    C5  280   1.688   2.112  10.960 -0.3071  0.0810  0.2288
   18MPD2     H  281   1.454   1.806  11.035  0.3587  0.8808  3.0057
   18MPD2    H1  282   1.719   2.038  10.771  1.1892  1.0714  1.4669
   18MPD2    H2  283   1.657   2.165  11.158  1.0689 -1.5099  0.8110
   18MPD2    H3  284   1.763   2.191  10.956 -1.0817  0.8701  1.3248
   18MPD2     N  285   1.563   1.823  10.774 -0.1071  0.3577 -0.1222
   18MPD2    H5  286   1.603   1.842  10.682  2.4244 -1.8846  0.5003
   18MPD2    N1  287   1.491   1.966  11.232 -0.5293 -0.1145 -0.4234
   18MPD2    H7  288   1.436   1.880  11.237  0.0388 -0.6484 -3.3778
   19TMC2    C1  289   2.065   2.042  13.802 -0.0419 -0.1090  0.1473
   19TMC2    C2  290   1.964   2.127  13.763  0.4178 -0.0122 -0.2687
   19TMC2    C3  291   1.848   2.139  13.842 -0.1761 -0.3202  0.0315
   19TMC2    C4  292   2.049   1.968  13.919 -0.5510 -0.8434 -0.4644
   19TMC2    C5  293   1.926   1.975  13.989 -0.1671  1.1375 -0.6695
   19TMC2    C6  294   1.831   2.076  13.961  0.8455 -0.0995  0.8376
   19TMC2     C  295   2.188   2.055  13.740  0.1146  0.6829  1.0732
   19TMC2     O  296   2.196   2.111  13.632  0.3020  1.0382  0.0842
   19TMC2     H  297   1.958   2.166  13.662 -0.3679 -0.2753 -0.3295
   19TMC2    H1  298   2.114   1.882  13.937 -0.0997 -0.8223 -2.0206
   19TMC2    H2  299   1.747   2.098  14.025  0.3575  4.3227 -1.3384
   19TMC2    C7  300   1.912   1.908  14.119 -0.2491  0.0826  0.3154
   19TMC2    C8  301   1.741   2.228  13.799 -0.2804 -0.6625 -0.1113
   19TMC2    O1  302   1.797   1.876  14.134  0.0096 -0.2792  0.4993
   19TMC2    O2  303   1.628   2.227  13.850 -0.1223  0.0122 -0.2934
   19TMC2    O5  304   1.807   2.343  13.756  0.5574 -1.0889 -0.0750
   19TMC2    H5  305   1.903   2.332  13.773  0.8748  0.3897 -0.8540
   20MPD2     C  306   2.482   2.100  13.702  0.9352  0.0663 -0.3640
   20MPD2    C1  307   2.429   2.014  13.791 -0.2228  0.3213 -0.0865
   20MPD2    C2  308   2.513   1.942  13.877 -0.1422  0.3930 -0.4536
   20MPD2    C3  309   2.649   1.970  13.876 -0.2532  0.1506 -0.5006
   20MPD2    C4  310   2.706   2.060  13.788 -0.3350 -0.2410 -0.2363
   20MPD2    C5  311   2.619   2.118  13.696  0.1704  0.4732  0.1364
   20MPD2     H  312   2.467   1.867  13.941  2.2180 -0.9477 -0.3235
   20MPD2    H1  313   2.812   2.078  13.791 -0.2404 -0.7499 -0.6533
   20MPD2    H2  314   2.422   2.171  13.646 -0.3818  1.4383  2.7835
   20MPD2    H3  315   2.669   2.188  13.630 -2.2190  0.4241 -1.6934
   20MPD2     N  316   2.728   1.905  13.976 -0.1646 -0.1581  0.4250
   20MPD2    H5  317   2.817   1.950  13.993 -0.8945  1.5019 -0.1989
   20MPD2    N1  318   2.289   2.005  13.813 -0.0715 -0.6639  0.6760
   20MPD2    H7  319   2.264   1.938  13.885 -2.3836  0.2010  0.6550
   21MPD2     C  320   0.114   3.215  14.271 -0.0824 -0.4207 -0.1597
   21MPD2    C1  321   0.195   3.104  14.250  0.6962 -0.5087 -0.4141
   21MPD2    C2  322   0.154   2.977  14.289 -0.0823 -0.1555  0.0118
   21MPD2    C3  323   0.034   2.957  14.351  0.3537 -0.6075  1.0459
   21MPD2    C4  324   4.663   3.059  14.344  0.1138 -0.0425  0.3579
   21MPD2    C5  325   4.707   3.187  14.316  0.1007  0.0648  0.0713
   21MPD2     H  326   0.225   2.899  14.264  0.0203 -0.1331  0.2358
   21MPD2    H1  327   4.566   3.046  14.390  0.7483 -2.0828  1.1500
   21MPD2    H2  328   0.140   3.316  14.241 -1.8085  0.5268  1.4950
   21MPD2    H3  329   4.635   3.266  14.303  1.1498  0.9731 -0.2283
   21MPD2     N  330   4.711   2.836  14.412  0.5434  0.2447  0.5173
   21MPD2    H5  331   4.615   2.832  14.445  0.2985  2.9327  0.1647
   21MPD2    N1  332   0.320   3.109  14.188 -0.1400 -0.5008  0.2689
   21MPD2    H7  333   0.367   3.025  14.156  0.7057  0.0124  0.1543
   22TCq2    C1  334   0.078   2.729  14.442 -0.0874 -0.0751 -0.2924
   22TCq2    O2  335   0.199   2.715  14.416 -0.3604 -0.1664  0.0718
   22TCq2    C2  336   0.017   2.631  14.524  0.2400  0.1133  0.4521
   22TCq2    C3  337   0.067   2.504  14.523  0.5848  0.5096 -0.2729
   22TCq2    C4  338   0.022   2.411  14.613 -0.0119  0.1561 -0.1068
   22TCq2    C5  339   4.655   2.446  14.714 -0.2396 -0.1295  0.6546
   22TCq2    C6  340   4.602   2.574  14.710 -0.0869  0.6504  0.7704
   22TCq2    C7  341   4.648   2.669  14.621 -0.0588  0.1174  0.3985
   22TCq2    C8  342   4.503   2.612  14.810 -0.0769  0.5249  0.4354
   22TCq2    O4  343   4.490   2.550  14.917  0.2749 -0.1520 -0.0660
   22TCq2    C9  344   0.070   2.275  14.609 -0.0393  0.6258  0.3840
   22TCq2    O5  345   0.055   2.206  14.715  0.1395 -0.0198  0.3462
   22TCq2    O6  346   0.155   2.250  14.522  0.3549 -0.1352  1.0433
   22TCq2    H2  347   0.121   2.467  14.436 -1.9669  0.9616 -2.0442
   22TCq2    H3  348   4.624   2.371  14.786  1.0742 -1.6350 -0.3873
   22TCq2    H4  349   4.627   2.775  14.630 -0.8766  0.0026 -0.1697
   23MPD2     C  350   1.665   3.381  14.330  0.2688  0.9304 -0.1910
   23MPD2    C1  351   1.650   3.459  14.443  0.0014  0.2176 -0.0125
   23MPD2    C2  352   1.631   3.593  14.435  0.2768  0.2270  0.3692
   23MPD2    C3  353   1.622   3.649  14.310  0.3405 -0.3022  0.0686
   23MPD2    C4  354   1.642   3.570  14.193 -0.2845 -0.1240 -0.2500
   23MPD2    C5  355   1.657   3.442  14.205 -0.2937 -0.3150 -0.0047
   23MPD2     H  356   1.597   3.641  14.526 -0.7882  1.1655 -0.5096
   23MPD2    H1  357   1.644   3.623  14.099  2.0751  0.1313 -0.0671
   23MPD2    H2  358   1.668   3.273  14.329  0.0410  0.9209  0.7514
   23MPD2    H3  359   1.671   3.381  14.116 -0.6782 -0.2102 -0.1329
   23MPD2     N  360   1.588   3.785  14.285 -0.0780  0.4573  0.1258
   23MPD2    H5  361   1.573   3.820  14.191 -0.8235 -0.0051  0.0727
   23MPD2    N1  362   1.644   3.391  14.568 -0.1974 -0.8431  0.4570
   23MPD2    H7  363   1.615   3.446  14.648  1.3998 -1.1314  1.2362
   24TCq2    C1  364   1.575   3.881  14.379 -0.2773 -0.3023 -0.1365
   24TCq2    O2  365   1.610   3.871  14.495 -0.3091 -0.2269 -0.2276
   24TCq2    C2  366   1.486   3.993  14.342  0.1471 -0.0708 -0.2815
   24TCq2    C3  367   1.470   4.081  14.445  0.0482 -0.2536 -0.0193
   24TCq2    C4  368   1.367   4.177  14.426  0.7553 -0.1508  0.0991
   24TCq2    C5  369   1.292   4.192  14.315  0.9768 -0.2696  0.2135
   24TCq2    C6  370   1.313   4.100  14.212  0.4497  0.1554  0.1403
   24TCq2    C7  371   1.407   3.994  14.231  0.4109  0.0104  0.2969
   24TCq2    C8  372   1.215   4.083  14.109  0.1854 -0.2415  0.1308
   24TCq2    O4  373   1.239   4.001  14.024  0.7086 -0.8603 -0.9006
   24TCq2    C9  374   1.346   4.277  14.523 -0.9717 -0.0117 -0.6793
   24TCq2    O5  375   1.252   4.358  14.497 -0.6252 -0.0114  0.0288
   24TCq2    O6  376   1.438   4.295  14.608  0.0602 -0.2012 -0.7228
   24TCq2    H2  377   1.546   4.100  14.519  0.8926 -4.4394  0.1852
   24TCq2    H3  378   1.235   4.284  14.309 -0.5644 -1.1840  0.7566
   24TCq2    H4  379   1.417   3.924  14.148  1.4863 -1.0412  1.3200
   25TMC2    C1  380   0.325   1.106  11.834  0.2024  0.1607 -0.1943
   25TMC2    C2  381   0.398   1.206  11.896  0.8795 -0.3818  0.0366
   25TMC2    C3  382   0.345   1.272  12.003 -0.1431  0.5075 -0.6409
   25TMC2    C4  383   0.210   1.067  11.891  0.3493 -0.1499 -0.2066
   25TMC2    C5  384   0.150   1.147  11.988  0.2308 -0.2136 -1.4174
   25TMC2    C6  385   0.217   1.245  12.049 -0.1680 -0.0525 -0.0812
   25TMC2     C  386   0.378   1.048  11.713 -0.5415  0.2894  0.5691
   25TMC2     O  387   0.498   1.054  11.697  0.0800 -0.5370  0.0523
   25TMC2     H  388   0.498   1.220  11.856  1.4607 -0.6957  1.3590
   25TMC2    H1  389   0.160   0.975  11.863  0.4994 -0.5410  0.7952
   25TMC2    H2  390   0.172   1.290  12.136 -0.9584  0.9075 -0.9875
   25TMC2    C7  391   0.036   1.091  12.064  0.3609  0.1576 -0.0416
   25TMC2    C8  392   0.435   1.350  12.083  0.5862 -0.0034 -0.6340
   25TMC2    O1  393   0.032   1.121  12.184 -0.0979  0.3038 -0.0209
   25TMC2    O2  394   0.555   1.322  12.091  0.0787 -0.2711  0.3529
   25TMC2    O5  395   0.367   1.464  12.105  0.3773 -0.0993  0.1969
   25TMC2    H5  396   0.277   1.471  12.066 -0.2511  0.0232  1.6487
   26MPD2     C  397   0.344   0.697  11.344 -0.6964 -0.0121  0.2960
   26MPD2    C1  398   0.228   0.693  11.421 -0.9586 -0.7885 -0.1250
   26MPD2    C2  399   0.209   0.786  11.518  0.2509  0.2721  0.7374
   26MPD2    C3  400   0.310   0.875  11.550 -0.2501  0.2928  0.4160
   26MPD2    C4  401   0.431   0.870  11.482 -0.0201 -0.6435  0.9495
   26MPD2    C5  402   0.443   0.783  11.378  0.0573  0.0238 -0.0418
   26MPD2     H  403   0.111   0.791  11.564  0.4709 -1.3244  1.3886
   26MPD2    H1  404   0.512   0.941  11.492 -0.4217 -0.2375  1.3452
   26MPD2    H2  405   0.364   0.622  11.268  0.7129  1.4266 -0.7263
   26MPD2    H3  406   0.541   0.788  11.333  0.3205  0.9357  0.6335
   26MPD2     N  407   0.282   0.977  11.648  0.1888  0.0110 -0.2452
   26MPD2    H5  408   0.187   0.979  11.684 -0.0906 -2.1750 -0.8395
   26MPD2    N1  409   0.126   0.597  11.387 -0.3053  0.3445 -0.0947
   26MPD2    H7  410   0.123   0.552  11.296  0.5122 -1.3928  0.7388
   27TMC2    C1  411   3.706   2.905  12.505 -0.4339 -0.1946  0.1902
   27TMC2    C2  412   3.741   2.837  12.397  0.0118  0.5207 -0.1903
   27TMC2    C3  413   3.744   2.898  12.272  0.4000  0.1030  0.0575
   27TMC2    C4  414   3.682   3.039  12.490 -0.8372 -0.6895 -0.3852
   27TMC2    C5  415   3.675   3.100  12.366 -0.7106  1.0533 -0.2119
   27TMC2    C6  416   3.702   3.028  12.256  0.2234 -0.5239 -0.4051
   27TMC2     C  417   3.670   2.839  12.625  1.4163  0.2417  0.6143
   27TMC2     O  418   3.730   2.734  12.645 -0.1313 -0.2987  0.2881
   27TMC2     H  419   3.779   2.739  12.422 -0.6757  0.6359  1.2805
   27TMC2    H1  420   3.651   3.103  12.571 -0.0129 -1.6596  0.6883
   27TMC2    H2  421   3.717   3.070  12.157  1.7256  1.3350  0.5954
   27TMC2    C7  422   3.689   3.242  12.367  0.3345  0.2940  0.0290
   27TMC2    C8  423   3.821   2.826  12.169 -0.0812  0.1466  0.0254
   27TMC2    O1  424   3.704   3.295  12.476 -0.0616  0.1450  0.2735
   27TMC2    O2  425   3.930   2.784  12.197  0.1922 -0.4465 -0.2504
   27TMC2    O5  426   3.760   2.824  12.049 -0.3493 -0.1734  0.2728
   27TMC2    H5  427   3.676   2.874  12.055  0.5779  1.6084 -1.5571
   28MPD2     C  428   3.464   2.866  13.109 -0.5241  0.6706  0.6770
   28MPD2    C1  429   3.453   2.983  13.039 -0.0145  0.6506  0.4730
   28MPD2    C2  430   3.485   2.987  12.906  0.4189 -0.3778  0.0198
   28MPD2    C3  431   3.547   2.888  12.843  0.1601  0.1618  0.2635
   28MPD2    C4  432   3.572   2.768  12.912 -0.6222 -0.3629  0.5147
   28MPD2    C5  433   3.513   2.757  13.039  1.3213  0.6444 -0.5162
   28MPD2     H  434   3.472   3.077  12.847  0.5604  0.3255  1.0557
   28MPD2    H1  435   3.620   2.684  12.864  0.2430 -0.9444  2.3691
   28MPD2    H2  436   3.439   2.860  13.215 -0.9978 -2.6192  0.3612
   28MPD2    H3  437   3.525   2.659  13.085  1.1433  0.4602 -0.8577
   28MPD2     N  438   3.593   2.918  12.710  0.3438 -0.5561  0.7851
   28MPD2    H5  439   3.554   3.004  12.672 -0.5885 -1.1048  0.4950
   28MPD2    N1  440   3.368   3.080  13.098  0.9454  0.2720  0.3506
   28MPD2    H7  441   3.314   3.054  13.180  0.0562  1.0682  0.0196
   29MPD2     C  442   2.997   0.437  14.350  0.2927  0.5766 -0.2268
   29MPD2    C1  443   3.075   0.441  14.465  0.1939 -0.5506 -0.6000
   29MPD2    C2  444   3.122   0.565  14.515  0.0177  0.4633  0.8719
   29MPD2    C3  445   3.074   0.680  14.463 -1.0652  0.1700  0.4942
   29MPD2    C4  446   2.994   0.675  14.349 -0.6483  0.2488  0.4251
   29MPD2    C5  447   2.957   0.557  14.293  0.6276 -0.1636 -0.6979
   29MPD2     H  448   3.187   0.567  14.602 -0.3732  0.2039  1.1663
   29MPD2    H1  449   2.955   0.762  14.296 -0.2363  1.0173  1.4045
   29MPD2    H2  450   2.948   0.348  14.313  2.9688 -0.7849 -0.4286
   29MPD2    H3  451   2.896   0.563  14.204 -0.9339 -2.5259  0.2036
   29MPD2     N  452   3.091   0.805  14.522 -0.2442 -0.2140 -0.2153
   29MPD2    H5  453   3.047   0.883  14.475 -2.3132 -0.8868  0.6191
   29MPD2    N1  454   3.128   0.323  14.521 -0.0492 -0.1975 -0.7476
   29MPD2    H7  455   3.205   0.344  14.584 -0.9722  1.4841 -0.1669
   30TCq2    C1  456   3.152   0.826  14.640  0.3516 -0.2059  0.1703
   30TCq2    O2  457   3.201   0.752  14.724 -0.0848  0.2477  0.0177
   30TCq2    C2  458   3.153   0.973  14.679  0.5863  0.3727 -0.3382
   30TCq2    C3  459   3.202   1.000  14.799 -0.5238  0.0026 -1.0215
   30TCq2    C4  460   3.262   1.119  14.825 -0.5053  0.3569 -0.4144
   30TCq2    C5  461   3.276   1.214  14.733  0.1339 -0.5509 -0.4575
   30TCq2    C6  462   3.226   1.181  14.604  0.7642  0.1807 -0.0974
   30TCq2    C7  463   3.161   1.064  14.577 -0.1121 -0.5033  0.5507
   30TCq2    C8  464   3.214   1.291  14.513 -0.1008 -0.4633  0.5122
   30TCq2    O4  465   3.113   1.301  14.444 -0.1606 -0.1277  0.4203
   30TCq2    C9  466   3.315   1.142  14.963 -0.0334 -0.2414  0.2672
   30TCq2    O5  467   3.277   1.065  15.058 -0.5867 -0.4150 -0.1704
   30TCq2    O6  468   3.397   1.238  14.980  0.2371 -0.0844  0.6784
   30TCq2    H2  469   3.190   0.923  14.874  0.8803  1.0315  0.2720
   30TCq2    H3  470   3.321   1.308  14.765 -0.0209 -0.2383 -1.1711
   30TCq2    H4  471   3.128   1.048  14.475 -1.8091  1.7014  0.7502
   31MPD2     C  472   1.235   4.411  15.188 -0.5139  0.4779 -0.1488
   31MPD2    C1  473   1.123   4.492  15.171 -0.9684 -0.0927  0.0292
   31MPD2    C2  474   1.031   4.484  15.270  0.1378 -0.6700  0.7474
   31MPD2    C3  475   1.054   4.433  15.398  0.7194  0.2128 -0.5062
   31MPD2    C4  476   1.175   4.374  15.411  0.4980  0.4800  0.1361
   31MPD2    C5  477   1.268   4.365  15.315  0.1590  0.1972  0.6988
   31MPD2     H  478   0.931   4.522  15.252 -0.6254 -2.1667  1.8100
   31MPD2    H1  479   1.199   4.341  15.511  1.2052 -0.8440 -0.4636
   31MPD2    H2  480   1.313   4.409  15.113  0.9573 -1.4817  1.4085
   31MPD2    H3  481   1.366   4.320  15.327 -0.4152 -1.5128 -1.0118
   31MPD2     N  482   0.968   4.445  15.512 -0.0099  0.8892  0.3349
   31MPD2    H5  483   1.009   4.405  15.596 -1.1340  2.0616  1.4360
   31MPD2    N1  484   1.113   4.557  15.041 -0.1565  0.5579  0.3526
   31MPD2    H7  485   1.195   4.548  14.982 -1.8928 -2.5975 -1.6033
   32TCq2    C1  486   0.842   4.506  15.509  0.4129 -0.2032 -0.0911
   32TCq2    O2  487   0.785   4.555  15.413 -0.0673  0.1934  0.0037
   32TCq2    C2  488   0.766   4.508  15.633 -0.7900 -0.4250  0.7010
   32TCq2    C3  489   0.651   4.583  15.628 -0.6432  1.1096  0.5777
   32TCq2    C4  490   0.592   4.610  15.748  0.0887  0.3631  0.2776
   32TCq2    C5  491   0.641   4.556  15.867 -0.5526  0.5008 -0.2894
   32TCq2    C6  492   0.751   4.472  15.867 -0.0385  0.2506 -0.1180
   32TCq2    C7  493   0.818   4.462  15.748 -0.2860 -0.2880  1.0109
   32TCq2    C8  494   0.799   4.420  15.995  0.0430  0.5770  0.1871
   32TCq2    O4  495   0.741   4.469  16.089 -0.2504 -0.0200 -0.4018
   32TCq2    C9  496   0.476   4.687  15.755 -0.4631  0.1573 -0.2002
   32TCq2    O5  497   0.418   0.004  15.651  0.1460  0.5364  0.1245
   32TCq2    O6  498   0.431   4.718  15.869 -0.2615 -0.0175 -0.0444
   32TCq2    H2  499   0.606   4.605  15.532 -1.4160 -3.3143 -0.0350
   32TCq2    H3  500   0.578   4.577  15.953  0.1639 -1.4857  0.7323
   32TCq2    H4  501   0.899   4.391  15.743  1.0615  1.2408  1.0409
   33MPD2     C  502   1.622   2.093  10.267  0.5236 -0.3607  0.3188
   33MPD2    C1  503   1.589   1.966  10.226  0.3581  0.1663  0.2748
   33MPD2    C2  504   1.540   1.952  10.093  0.2888 -0.0789  0.0604
   33MPD2    C3  505   1.517   2.066  10.013 -0.1214 -0.2497  0.0071
   33MPD2    C4  506   1.556   2.194  10.057 -0.3369 -0.5033 -0.1011
   33MPD2    C5  507   1.605   2.207  10.184  0.5939  0.1593  0.4369
   33MPD2     H  508   1.495   1.859  10.060  0.7719 -0.6562  1.0117
   33MPD2    H1  509   1.555   2.277   9.988  1.5439 -0.3404  0.0801
   33MPD2    H2  510   1.660   2.100  10.368 -0.3275  2.8407  0.4116
   33MPD2    H3  511   1.639   2.300  10.227  1.9872 -0.4058  0.5513
   33MPD2     N  512   1.451   2.066   9.893  0.3440 -0.5752  0.5770
   33MPD2    H5  513   1.437   2.157   9.851  0.7025 -1.0602 -0.5704
   33MPD2    N1  514   1.588   1.863  10.322  0.1926  0.0517 -0.0728
   33MPD2    H7  515   1.610   1.890  10.417 -0.6583  2.3473 -0.5290
   34TCq2    C1  516   1.393   1.960   9.824  0.1922 -0.3278 -0.7442
   34TCq2    O2  517   1.391   1.843   9.851  0.2475 -0.9884 -0.2756
   34TCq2    C2  518   1.309   2.008   9.718  0.0844  0.4683 -1.1176
   34TCq2    C3  519   1.211   1.919   9.676  0.1873  0.3439  0.3178
   34TCq2    C4  520   1.133   1.963   9.569  0.0712 -0.1276 -0.1734
   34TCq2    C5  521   1.152   2.084   9.500 -0.0367  0.3124  0.4612
   34TCq2    C6  522   1.254   2.163   9.554  0.5534  0.4372 -0.8620
   34TCq2    C7  523   1.335   2.128   9.658  0.1554  0.4049  0.1465
   34TCq2    C8  524   1.307   2.286   9.491 -0.4798  0.4043 -0.7845
   34TCq2    O4  525   1.406   2.341   9.539 -0.2000  0.2591 -0.3524
   34TCq2    C9  526   1.016   1.883   9.536  0.2696 -0.3232 -0.6702
   34TCq2    O5  527   0.944   1.919   9.442 -0.1343  0.2457 -0.0382
   34TCq2    O6  528   0.989   1.774   9.595 -0.1665  0.3370  0.3786
   34TCq2    H2  529   1.201   1.831   9.738 -1.7245  0.6229  0.3926
   34TCq2    H3  530   1.072   2.123   9.437  1.0945  0.4417 -0.8829
   34TCq2    H4  531   1.404   2.202   9.694 -0.1155 -0.6249  2.7678
   35MPD2     C  532   3.066   4.121  11.656 -0.2635 -0.0235 -0.3300
   35MPD2    C1  533   3.018   3.995  11.677 -0.2094 -0.2088  0.2027
   35MPD2    C2  534   2.972   3.919  11.575  0.4703 -0.3134  0.1931
   35MPD2    C3  535   2.974   3.975  11.447 -0.0540  0.0164  0.4283
   35MPD2    C4  536   3.004   4.104  11.417  0.0666  0.2896  0.8990
   35MPD2    C5  537   3.056   4.172  11.521 -0.5229  0.2130 -0.5250
   35MPD2     H  538   2.946   3.815  11.588  1.3400 -0.5943 -0.3191
   35MPD2    H1  539   3.007   4.143  11.316 -2.6907 -1.2730  0.2340
   35MPD2    H2  540   3.115   4.173  11.737 -0.0745  1.8178 -1.6303
   35MPD2    H3  541   3.088   4.270  11.490  0.3231 -0.1518 -0.8143
   35MPD2     N  542   2.907   3.896  11.346 -0.0424 -0.4621 -0.4180
   35MPD2    H5  543   2.848   3.825  11.389  0.0988  0.0533  0.6126
   35MPD2    N1  544   3.030   3.953  11.812 -0.0032  0.7306  0.1091
   35MPD2    H7  545   3.067   4.010  11.888 -2.5387  1.5593  0.7050
   36TCq2    C1  546   2.904   3.906  11.211 -0.3368 -0.8028 -0.6072
   36TCq2    O2  547   2.973   3.972  11.137 -0.0560  0.4951  0.0537
   36TCq2    C2  548   2.794   3.829  11.154  0.1849 -0.1098 -0.2426
   36TCq2    C3  549   2.781   3.826  11.016  0.1695  0.1383 -0.0199
   36TCq2    C4  550   2.709   3.729  10.953 -0.2521 -0.1061  0.0092
   36TCq2    C5  551   2.634   3.636  11.015 -0.0532  0.0790 -0.0853
   36TCq2    C6  552   2.664   3.625  11.143  0.1746 -0.0606  0.2454
   36TCq2    C7  553   2.742   3.713  11.220  0.5558 -0.7086 -0.4592
   36TCq2    C8  554   2.577   3.531  11.218 -0.4866  0.2554  0.0708
   36TCq2    O4  555   2.607   3.488  11.329  0.3229 -0.3815 -0.4646
   36TCq2    C9  556   2.697   3.735  10.812  0.1124  0.1436  0.4564
   36TCq2    O5  557   2.640   3.646  10.749 -0.3774  0.0215 -0.4142
   36TCq2    O6  558   2.750   3.840  10.761 -0.2125  0.0248 -0.4270
   36TCq2    H2  559   2.809   3.911  10.955 -2.4368  1.9859  1.3057
   36TCq2    H3  560   2.565   3.570  10.964  1.2289 -1.8756  0.7003
   36TCq2    H4  561   2.736   3.699  11.328  0.2948 -3.2469 -0.7980
   37TMC2    C1  562   0.221   3.133  11.506  0.0976 -0.1431 -0.2177
   37TMC2    C2  563   0.170   3.096  11.383  0.2068  0.3274 -0.4239
   37TMC2    C3  564   0.230   3.153  11.273 -0.7094 -0.0359 -0.6417
   37TMC2    C4  565   0.310   3.232  11.518  0.6372 -0.0126  0.6477
   37TMC2    C5  566   0.364   3.279  11.405 -0.1525  0.3658  0.6385
   37TMC2    C6  567   0.340   3.238  11.282  0.3716 -0.5130 -0.2571
   37TMC2     C  568   0.129   3.122  11.616 -0.7521  0.2978  1.0280
   37TMC2     O  569   0.062   3.019  11.616 -0.3836 -0.1399  0.1782
   37TMC2     H  570   0.079   3.039  11.371  1.2275 -1.1118 -1.2791
   37TMC2    H1  571   0.352   3.264  11.613  0.3071 -0.6888  1.0234
   37TMC2    H2  572   0.371   3.295  11.196 -0.8524 -0.2908 -0.5532
   37TMC2    C7  573   0.484   3.361  11.419  0.0408 -0.0823 -0.3316
   37TMC2    C8  574   0.227   3.084  11.150 -0.5609  0.8333 -0.0505
   37TMC2    O1  575   0.518   3.404  11.532  0.6313  0.2435  0.0944
   37TMC2    O2  576   0.223   2.965  11.134  0.9856  0.5411  0.2495
   37TMC2    O5  577   0.195   3.178  11.057  0.1488  0.3846 -0.7481
   37TMC2    H5  578   0.193   3.274  11.077 -2.4831  0.8998 -3.4962
   38MPD2     C  579   4.604   3.329  12.004  0.5944  0.3416 -0.4309
   38MPD2    C1  580   4.693   3.421  11.956 -0.2567 -0.0764  0.0012
   38MPD2    C2  581   0.067   3.378  11.868 -0.3712 -0.4658  0.1405
   38MPD2    C3  582   0.057   3.248  11.814 -0.4212 -0.4020 -0.2464
   38MPD2    C4  583   4.687   3.150  11.860 -0.1741 -0.1837  0.0328
   38MPD2    C5  584   4.605   3.196  11.955 -0.5918  0.0882  0.0794
   38MPD2     H  585   0.150   3.440  11.836  0.5861 -1.8031  0.0730
   38MPD2    H1  586   4.687   3.047  11.825 -0.0506  0.1947 -1.0796
   38MPD2    H2  587   4.517   3.353  12.064  1.0068  0.0530  0.2719
   38MPD2    H3  588   4.535   3.127  12.000  1.3438 -0.7996  1.7494
   38MPD2     N  589   0.137   3.228  11.705 -0.0205 -0.1713  0.4892
   38MPD2    H5  590   0.205   3.300  11.681  1.8941 -1.9354  0.5965
   38MPD2    N1  591   4.714   3.549  12.010  0.0011  0.7327  0.0860
   38MPD2    H7  592   0.081   3.594  11.990 -0.1388  1.2979  0.7702
   39MPD2     C  593   2.761   0.837   2.057  0.0790  0.6819  0.0881
   39MPD2    C1  594   2.640   0.889   2.083 -0.3641  0.0964  0.3469
   39MPD2    C2  595   2.533   0.856   2.001 -0.5017  0.0093  0.4398
   39MPD2    C3  596   2.556   0.779   1.888 -0.3127  0.2405 -0.0880
   39MPD2    C4  597   2.681   0.729   1.861  0.3255 -0.5318 -0.1620
   39MPD2    C5  598   2.784   0.768   1.947 -0.1755 -0.6154 -0.3797
   39MPD2     H  599   2.437   0.899   2.024 -1.2836  0.0861 -2.9458
   39MPD2    H1  600   2.711   0.706   1.760  1.5022 -2.2814  0.5807
   39MPD2    H2  601   2.844   0.852   2.126  0.0270 -0.0169  0.3043
   39MPD2    H3  602   2.884   0.733   1.923 -0.2019 -1.7524  1.1526
   39MPD2     N  603   2.457   0.761   1.789 -0.6369  0.7579 -0.2979
   39MPD2    H5  604   2.494   0.724   1.703 -1.7500  5.0496 -2.6357
   39MPD2    N1  605   2.634   0.971   2.201 -0.0209 -0.3173 -0.0338
   39MPD2    H7  606   2.722   0.998   2.245 -1.1780  1.8006  0.9960
   40TCq2    C1  607   2.521   1.020   2.257  0.1613  0.1212 -0.2144
   40TCq2    O2  608   2.401   0.990   2.254  0.2096 -0.1277 -0.2639
   40TCq2    C2  609   2.549   1.128   2.350 -0.2583 -0.6544 -0.0011
   40TCq2    C3  610   2.445   1.176   2.420 -0.3029  0.0849 -0.1856
   40TCq2    C4  611   2.472   1.269   2.514  0.1921 -0.0216  0.7279
   40TCq2    C5  612   2.598   1.316   2.531 -0.1871 -0.2437  0.3094
   40TCq2    C6  613   2.698   1.277   2.448 -0.7950  1.0924  0.0085
   40TCq2    C7  614   2.671   1.186   2.354  0.0278  0.0282  0.3063
   40TCq2    C8  615   2.822   1.340   2.442  0.3528 -0.6348 -0.7592
   40TCq2    O4  616   2.874   1.364   2.554  0.2777  0.2732  0.3648
   40TCq2    C9  617   2.372   1.318   2.603 -0.3607 -0.3722 -0.2065
   40TCq2    O5  618   2.403   1.429   2.656  0.1603 -0.4188 -0.5039
   40TCq2    O6  619   2.262   1.256   2.623  0.1130 -0.4669  0.2048
   40TCq2    H2  620   2.350   1.125   2.433 -0.6748  1.2261  1.6126
   40TCq2    H3  621   2.622   1.388   2.608  0.0968 -2.0926  1.9369
   40TCq2    H4  622   2.757   1.133   2.313 -0.9675 -2.0149  0.8602
   41TMC2    C1  623   2.013   3.363  13.567 -0.1411 -0.4080 -0.3516
   41TMC2    C2  624   1.911   3.409  13.645 -0.0124 -0.5948  0.7251
   41TMC2    C3  625   1.783   3.368  13.606 -0.0064  0.4717 -0.6937
   41TMC2    C4  626   2.001   3.284  13.449  0.3675  0.5880 -0.0650
   41TMC2    C5  627   1.868   3.264  13.411  0.0811 -0.2435  0.1975
   41TMC2    C6  628   1.764   3.302  13.489  0.2774 -0.4587 -0.4883
   41TMC2     C  629   2.139   3.346  13.629  0.0741  0.5368  0.0029
   41TMC2     O  630   2.240   3.352  13.561 -0.1047 -0.4666 -0.2630
   41TMC2     H  631   1.930   3.475  13.729  0.7769 -0.9690  0.8439
   41TMC2    H1  632   2.091   3.246  13.402  1.7045  0.7878  2.3476
   41TMC2    H2  633   1.666   3.273  13.451  0.3963 -1.2578 -0.1987
   41TMC2    C7  634   1.835   3.230  13.274  0.0098 -0.6909  0.5482
   41TMC2    C8  635   1.670   3.424  13.669  0.0779 -0.1499  0.6088
   41TMC2    O1  636   1.725   3.186  13.252 -0.9041 -0.6611 -0.6753
   41TMC2    O2  637   1.575   3.472  13.611 -1.3951 -0.0687 -0.4050
   41TMC2    O5  638   1.713   3.478  13.787 -1.0869 -0.8228  0.4015
   41TMC2    H5  639   1.795   3.431  13.811 -1.3249 -1.3555  0.1604
   42MPD2     C  640   2.368   3.281  13.817  0.6405 -0.1379  0.0597
   42MPD2    C1  641   2.236   3.311  13.852 -0.0391  0.5338 -0.0935
   42MPD2    C2  642   2.209   3.306  13.988 -0.2567 -0.1242  0.3890
   42MPD2    C3  643   2.303   3.262  14.079  0.8155  0.2950 -0.5922
   42MPD2    C4  644   2.430   3.225  14.044  0.5494  0.0391 -0.6446
   42MPD2    C5  645   2.465   3.240  13.910  0.1035  0.5863 -0.2424
   42MPD2     H  646   2.110   3.330  14.025 -0.8360 -0.8239 -0.7117
   42MPD2    H1  647   2.508   3.185  14.107  0.7754  0.5395 -0.6052
   42MPD2    H2  648   2.404   3.288  13.715 -0.8246 -0.4011 -0.4673
   42MPD2    H3  649   2.566   3.213  13.883  0.4401  2.9410 -1.2973
   42MPD2     N  650   2.265   3.236  14.217  0.3833  0.1637  0.7394
   42MPD2    H5  651   2.340   3.207  14.279  0.8420  0.5946  0.3811
   42MPD2    N1  652   2.132   3.342  13.762  0.1873 -0.0822  0.0140
   42MPD2    H7  653   2.041   3.363  13.803 -0.2150 -2.7120  0.4883
   43MPD2     C  654   3.042   1.258   0.955 -0.0181 -0.3453  0.4421
   43MPD2    C1  655   3.116   1.351   0.882  1.2590 -0.6359  0.1780
   43MPD2    C2  656   3.093   1.485   0.891  0.0504 -0.8819  0.0744
   43MPD2    C3  657   2.990   1.536   0.956  0.4477 -0.7639  0.0136
   43MPD2    C4  658   2.911   1.443   1.028 -0.3430  0.1854  0.2611
   43MPD2    C5  659   2.932   1.308   1.022  0.4351 -0.1601  0.4557
   43MPD2     H  660   3.158   1.552   0.836 -0.3961  1.5071  2.4045
   43MPD2    H1  661   2.836   1.492   1.089  0.4043  2.1473 -0.3902
   43MPD2    H2  662   3.059   1.151   0.955  0.1133 -0.3235  0.0347
   43MPD2    H3  663   2.874   1.233   1.074  0.8438  1.1844  2.8317
   43MPD2     N  664   2.964   1.674   0.970  0.3446  0.2032  0.6003
   43MPD2    H5  665   2.880   1.691   1.025  1.4532 -0.0632  2.3734
   43MPD2    N1  666   3.239   1.316   0.821  0.4832  0.4188 -0.1392
   43MPD2    H7  667   3.282   1.392   0.769  0.6531  1.0878  0.9698
   44TCq2    C1  668   3.207   2.025   1.240 -0.1396  0.5025 -0.0914
   44TCq2    O2  669   3.318   2.004   1.197 -0.0593  0.4232  0.5115
   44TCq2    C2  670   3.101   2.055   1.145 -0.1253  0.2034  0.5803
   44TCq2    C3  671   2.977   2.078   1.196 -0.3195 -0.0009  0.9169
   44TCq2    C4  672   2.877   1.999   1.158  0.0757  0.6302  0.7809
   44TCq2    C5  673   2.889   1.907   1.056  0.5472  0.0391 -0.2233
   44TCq2    C6  674   3.010   1.895   0.996 -0.0923  0.9290  0.3514
   44TCq2    C7  675   3.118   1.970   1.040 -0.2939 -0.0962  0.5905
   44TCq2    C8  676   3.046   1.779   0.928 -1.0138 -1.1984 -1.0477
   44TCq2    O4  677   3.155   1.776   0.874 -0.0271  0.1873 -0.1164
   44TCq2    C9  678   2.750   2.015   1.228 -0.3219 -0.1657 -0.8548
   44TCq2    O5  679   2.683   1.913   1.262 -0.2299 -0.0717  0.0012
   44TCq2    O6  680   2.742   2.127   1.284 -0.0988 -0.4046  0.0169
   44TCq2    H2  681   2.958   2.155   1.270 -0.7610  1.2900 -0.5518
   44TCq2    H3  682   2.802   1.849   1.028  0.9091  0.2696 -1.8160
   44TCq2    H4  683   3.219   1.963   1.002 -0.5018  0.7691 -0.1278
   45TMC2    C1  684   3.911   4.338   9.362  0.2377 -0.3459 -0.6962
   45TMC2    C2  685   3.831   4.416   9.284 -0.7612  0.3088 -0.2270
   45TMC2    C3  686   3.862   4.552   9.279  0.4835  0.0400  0.0903
   45TMC2    C4  687   4.024   4.388   9.422  0.0217  0.1897  0.4389
   45TMC2    C5  688   4.057   4.520   9.405 -0.2788  0.1038  0.1680
   45TMC2    C6  689   3.970   4.609   9.342  0.2878  0.1135 -0.0783
   45TMC2     C  690   3.906   4.195   9.359 -0.3139  0.7944  0.2994
   45TMC2     O  691   3.977   4.131   9.437 -0.1282  0.2100  0.2926
   45TMC2     H  692   3.752   4.378   9.221 -0.4910  0.1979 -0.4971
   45TMC2    H1  693   4.102   4.327   9.466 -0.8275 -0.9595  0.3564
   45TMC2    H2  694   3.991   4.715   9.349 -1.6703  0.4628  0.8030
   45TMC2    C7  695   4.167   4.579   9.485 -0.0504  0.0199  0.5815
   45TMC2    C8  696   3.787   4.631   9.184 -0.2580 -0.6519  0.3238
   45TMC2    O1  697   4.213   4.508   9.573  0.1165  0.6595 -0.0076
   45TMC2    O2  698   3.743   4.577   9.084 -0.1532  0.0466  0.7422
   45TMC2    O5  699   3.779   0.039   9.220 -0.0103  0.5775 -0.1770
   45TMC2    H5  700   3.788   0.065   9.314 -1.2981  0.2862  0.0126
   46MPD2     C  701   3.863   3.940   9.228  0.6493  0.5621 -0.6991
   46MPD2    C1  702   3.763   4.027   9.255 -0.0073  0.3442  0.3321
   46MPD2    C2  703   3.635   3.996   9.216  0.6163 -0.7062 -0.1497
   46MPD2    C3  704   3.602   3.869   9.173  0.3811  0.2002 -0.1541
   46MPD2    C4  705   3.704   3.778   9.150  0.1404 -0.2593 -0.1992
   46MPD2    C5  706   3.832   3.818   9.175  0.3419  0.3052  0.1218
   46MPD2     H  707   3.561   4.073   9.228  0.0594 -0.8626 -2.7770
   46MPD2    H1  708   3.687   3.679   9.109  2.6440  0.5211 -3.1050
   46MPD2    H2  709   3.969   3.963   9.228  1.1560 -1.8102  1.9922
   46MPD2    H3  710   3.909   3.754   9.135  0.3207 -0.2407  0.9544
   46MPD2     N  711   3.464   3.848   9.160  0.0593 -1.3189 -0.4049
   46MPD2    H5  712   3.415   3.934   9.183  0.6659 -0.8166 -0.9588
   46MPD2    N1  713   3.788   4.156   9.306 -0.0658 -0.1805 -0.5766
   46MPD2    H7  714   3.715   4.227   9.305  1.6444  1.5400 -2.4127
   47TMC2    C1  715   2.278   4.522   8.899  0.3016  0.4428  0.2778
   47TMC2    C2  716   2.217   4.597   8.799 -0.0753 -0.6317 -0.6409
   47TMC2    C3  717   2.281   4.619   8.679  0.0927  0.3096 -0.0241
   47TMC2    C4  718   2.405   4.468   8.869  0.2744 -0.2212  0.4664
   47TMC2    C5  719   2.457   4.492   8.743 -0.5421  0.0290  0.4665
   47TMC2    C6  720   2.396   4.565   8.647  0.0187  0.3473 -0.3623
   47TMC2     C  721   2.217   4.536   9.026  0.2841  0.5452 -0.0349
   47TMC2     O  722   2.149   4.636   9.041  0.0010  0.5001 -0.8436
   47TMC2     H  723   2.115   4.630   8.816  0.0233 -0.4861 -0.3358
   47TMC2    H1  724   2.466   4.421   8.946  1.2605  1.8780  0.9684
   47TMC2    H2  725   2.444   4.583   8.551  0.8232 -0.0315 -0.0250
   47TMC2    C7  726   2.591   4.451   8.716  0.0849  0.0054 -0.4978
   47TMC2    C8  727   2.201   4.678   8.574 -0.6092 -0.3908  0.8934
   47TMC2    O1  728   2.636   4.363   8.782 -0.2295  0.0342 -0.3400
   47TMC2    O2  729   2.078   4.694   8.580  0.0279 -0.7766  0.1918
   47TMC2    O5  730   2.278   0.055   8.531 -0.5410 -0.7046 -0.1188
   47TMC2    H5  731   2.373   0.029   8.537 -0.1232  0.4926 -1.4568
   48MPD2     C  732   2.174   4.536   9.324  0.2785 -0.4383 -0.6134
   48MPD2    C1  733   2.228   4.429   9.255  0.5838  0.3178  0.2417
   48MPD2    C2  734   2.268   4.319   9.328 -0.0722 -0.4740  0.2808
   48MPD2    C3  735   2.270   4.317   9.465 -0.2402 -0.1586 -0.1818
   48MPD2    C4  736   2.213   4.423   9.530  0.3772 -0.1493  0.2466
   48MPD2    C5  737   2.169   4.536   9.465 -0.1874 -0.9256 -0.0824
   48MPD2     H  738   2.296   4.229   9.273 -3.4733 -1.4607  0.1594
   48MPD2    H1  739   2.204   4.434   9.638  0.0507 -2.1016  0.4233
   48MPD2    H2  740   2.118   4.608   9.265 -1.2626 -2.3204 -1.4207
   48MPD2    H3  741   2.111   4.610   9.518  0.1633 -0.8015  0.1323
   48MPD2     N  742   2.290   4.192   9.523  0.2252  0.1201 -0.7828
   48MPD2    H5  743   2.285   4.116   9.457  1.7001 -0.4035 -0.2783
   48MPD2    N1  744   2.248   4.435   9.116 -0.1158  0.8954  0.0955
   48MPD2    H7  745   2.288   4.356   9.065  0.6031  1.4123 -0.1378
   49MPD2     C  746   0.068   0.793  10.862  0.1113 -0.5278  0.0282
   49MPD2    C1  747   0.079   0.933  10.852  0.6234  1.2412 -0.1672
   49MPD2    C2  748   0.121   0.999  10.967  0.9544 -0.5873 -0.6599
   49MPD2    C3  749   0.138   0.931  11.086  0.6970 -0.7495  0.0006
   49MPD2    C4  750   0.136   0.796  11.087  0.4068  0.1299  0.2280
   49MPD2    C5  751   0.097   0.727  10.975  0.1401 -0.1287  0.3420
   49MPD2     H  752   0.138   1.106  10.964 -0.4001 -0.3301  1.5937
   49MPD2    H1  753   0.181   0.742  11.170 -0.8074  0.8486  1.3409
   49MPD2    H2  754   0.027   0.741  10.776 -1.0735  2.5700 -1.2760
   49MPD2    H3  755   0.085   0.619  10.982  0.5754 -0.3201 -1.9188
   49MPD2     N  756   0.167   0.998  11.206  0.0836 -0.0485 -0.2941
   49MPD2    H5  757   0.170   0.944  11.291  0.0577 -0.5520 -0.6123
   49MPD2    N1  758   0.039   0.994  10.731  0.5626 -0.4986 -0.2159
   49MPD2    H7  759   0.034   0.933  10.651  0.4129  0.5012 -0.9652
   50TCq2    C1  760   0.029   1.127  10.708  0.0868  1.0614 -0.2415
   50TCq2    O2  761   0.028   1.217  10.791 -0.5620 -0.0689  0.0019
   50TCq2    C2  762   4.707   1.156  10.571 -0.1915 -0.3020  0.7797
   50TCq2    C3  763   4.711   1.287  10.534 -0.3375 -0.1927 -0.6500
   50TCq2    C4  764   4.680   1.307  10.397  0.6585  0.1315  0.0028
   50TCq2    C5  765   4.643   1.207  10.318 -0.3429  0.2712  1.4354
   50TCq2    C6  766   4.643   1.078  10.362  0.7097  0.6715  0.5688
   50TCq2    C7  767   4.683   1.052  10.486  0.7851 -0.7205  0.0093
   50TCq2    C8  768   4.614   0.963  10.279 -0.5262 -0.1509 -0.5294
   50TCq2    O4  769   4.584   0.864  10.340  0.1968 -0.1625 -0.3045
   50TCq2    C9  770   4.686   1.443  10.344  0.6276  0.0565  0.7833
   50TCq2    O5  771   4.713   1.533  10.423  0.3181 -0.4951 -0.0752
   50TCq2    O6  772   4.646   1.464  10.226 -0.0001 -0.4625  0.1325
   50TCq2    H2  773   0.020   1.371  10.595 -0.9986 -0.3327 -0.1252
   50TCq2    H3  774   4.618   1.240  10.218  2.3921 -0.4586  0.5246
   50TCq2    H4  775   4.692   0.947  10.512 -1.4841 -1.0303 -0.4145
   51MPD2     C  776   0.912   4.268   2.113  0.0692 -1.0072  0.1501
   51MPD2    C1  777   0.874   4.344   2.007  0.0360 -0.4083 -0.1206
   51MPD2    C2  778   0.841   4.476   2.027 -0.6186 -0.1000 -0.4060
   51MPD2    C3  779   0.853   4.527   2.160  0.2607  1.0289  0.2929
   51MPD2    C4  780   0.906   4.452   2.263 -0.3777  0.5563 -0.9359
   51MPD2    C5  781   0.926   4.316   2.240 -0.9911 -0.3234  0.6248
   51MPD2     H  782   0.797   4.537   1.949 -0.9159 -0.4512 -0.5127
   51MPD2    H1  783   0.934   4.492   2.360 -1.6654  1.3276 -0.8912
   51MPD2    H2  784   0.953   4.168   2.099  0.5784 -1.0385  1.8508
   51MPD2    H3  785   0.979   4.251   2.309 -0.3349  0.9615  1.3513
   51MPD2     N  786   0.826   4.666   2.191  0.1432 -0.1954  0.2980
   51MPD2    H5  787   0.824   4.692   2.289 -0.0995  1.2298 -0.0926
   51MPD2    N1  788   0.853   4.288   1.878 -0.1605  0.0113  0.0596
   51MPD2    H7  789   0.828   4.358   1.810  0.5815  1.4477  1.2747
   52TCq2    C1  790   0.786   0.045   2.112 -0.3014 -0.1864 -0.2373
   52TCq2    O2  791   0.747   0.045   1.996  0.4242 -0.5039 -0.3127
   52TCq2    C2  792   0.757   0.165   2.189  0.1195 -0.5168 -0.4689
   52TCq2    C3  793   0.798   0.165   2.325 -0.0089 -0.4316 -0.9746
   52TCq2    C4  794   0.726   0.221   2.425  0.5522 -0.3376 -0.8937
   52TCq2    C5  795   0.612   0.290   2.393 -0.7659  0.5036  0.6650
   52TCq2    C6  796   0.585   0.310   2.256  0.1851 -0.2890 -0.2393
   52TCq2    C7  797   0.655   0.248   2.149 -0.4395  0.7176  0.6507
   52TCq2    C8  798   0.499   0.419   2.215  0.1155 -0.4930 -0.1971
   52TCq2    O4  799   0.503   0.460   2.101  0.5139 -0.1428  0.6422
   52TCq2    C9  800   0.784   0.224   2.558 -0.3498  0.0481  0.0660
   52TCq2    O5  801   0.732   0.297   2.648 -0.3466 -0.2512 -0.2810
   52TCq2    O6  802   0.885   0.152   2.575  0.0902 -0.5537 -0.3274
   52TCq2    H2  803   0.890   0.114   2.349 -0.1217 -0.2270 -0.1012
   52TCq2    H3  804   0.562   0.341   2.474  2.6127  1.7227  1.9737
   52TCq2    H4  805   0.616   0.247   2.048 -1.1771 -1.6187  0.9608
   53TMC2    C1  806   1.085   3.760  11.540 -1.0442  0.5902 -0.1456
   53TMC2    C2  807   1.219   3.799  11.547  0.4501 -0.3469  1.5582
   53TMC2    C3  808   1.275   3.811  11.672 -0.0733  0.2873  0.2270
   53TMC2    C4  809   1.011   3.757  11.652  1.0985 -0.1795 -0.5501
   53TMC2    C5  810   1.067   3.786  11.771  0.0113 -0.2984 -0.1440
   53TMC2    C6  811   1.199   3.813  11.788  0.0493  0.6064  0.4533
   53TMC2     C  812   1.046   3.699  11.416  0.2878  0.6967  0.0336
   53TMC2     O  813   1.135   3.692  11.327  0.1831 -0.2608 -0.0387
   53TMC2     H  814   1.283   3.820  11.462 -0.9014  1.1063  0.9154
   53TMC2    H1  815   0.903   3.743  11.646  0.9858  0.0331  0.8641
   53TMC2    H2  816   1.247   3.826  11.884  2.6608  1.7830 -1.0052
   53TMC2    C7  817   0.975   3.804  11.876  0.3362  0.3485  0.0434
   53TMC2    C8  818   1.391   3.900  11.679  0.2366 -0.6302 -0.0244
   53TMC2    O1  819   0.860   3.771  11.850 -0.6016  0.4081 -0.7447
   53TMC2    O2  820   1.399   3.985  11.765  0.2163  0.6359 -0.6980
   53TMC2    O5  821   1.475   3.858  11.583  0.4891 -0.5540  0.4462
   53TMC2    H5  822   1.450   3.770  11.549  0.2174 -0.4184  0.3021
   54MPD2     C  823   0.922   3.523  11.215  0.2385  0.4550 -0.7355
   54MPD2    C1  824   0.860   3.564  11.331 -0.0426 -0.0337 -0.2487
   54MPD2    C2  825   0.739   3.504  11.362 -0.3296  0.4780  0.3991
   54MPD2    C3  826   0.689   3.400  11.293  0.4309 -0.3738  0.7039
   54MPD2    C4  827   0.761   3.355  11.183  0.3620 -0.0077 -0.2576
   54MPD2    C5  828   0.876   3.424  11.141 -0.5972 -0.9059  0.5339
   54MPD2     H  829   0.697   3.524  11.460 -1.2994 -1.3663  0.3491
   54MPD2    H1  830   0.733   3.267  11.127  1.8971  0.6490 -2.0480
   54MPD2    H2  831   1.016   3.566  11.184 -0.5837  2.1988 -0.7886
   54MPD2    H3  832   0.938   3.391  11.059  3.1158  2.5469  1.9800
   54MPD2     N  833   0.572   3.332  11.317  0.0581  0.0020  0.2316
   54MPD2    H5  834   0.549   3.257  11.253 -1.9266  3.0899 -2.6852
   54MPD2    N1  835   0.919   3.650  11.425 -0.1425 -0.0771 -0.4700
   54MPD2    H7  836   0.875   3.656  11.516  1.9701 -0.2708  0.5595
   55MPD2     C  837   1.428   0.937  17.563  0.3434  0.3058 -0.2162
   55MPD2    C1  838   1.330   0.943  17.658 -0.2599 -0.8366  0.0455
   55MPD2    C2  839   1.230   1.043  17.659  0.7416 -0.2486 -0.4840
   55MPD2    C3  840   1.235   1.150  17.574  0.2636 -0.5070 -0.4853
   55MPD2    C4  841   1.333   1.144  17.477  0.0818  0.0440  0.7822
   55MPD2    C5  842   1.422   1.036  17.463  0.1319 -0.8167  0.2528
   55MPD2     H  843   1.150   1.048   0.043  2.5679  0.8424  1.4733
   55MPD2    H1  844   1.345   1.220  17.400  1.7131 -0.2717  0.7142
   55MPD2    H2  845   1.506   0.862  17.569 -1.2302 -1.4153 -1.2676
   55MPD2    H3  846   1.487   1.031  17.376 -1.2643  1.6123 -0.9517
   55MPD2     N  847   1.148   1.254  17.599 -0.1135  0.0129  0.6517
   55MPD2    H5  848   1.083   1.236  17.674 -0.4490 -0.6200  0.2105
   55MPD2    N1  849   1.341   0.836   0.062  0.5219  0.2782 -0.9097
   55MPD2    H7  850   1.416   0.769   0.051 -0.9779 -1.4876 -0.3489
   56TCq2    C1  851   1.264   0.824   0.172 -0.3034 -0.0806 -0.6630
   56TCq2    O2  852   1.169   0.892   0.204  0.2100  0.3115  0.4565
   56TCq2    C2  853   1.316   0.718   0.260 -0.3580  0.3977 -0.4742
   56TCq2    C3  854   1.413   0.631   0.211  0.7235 -0.6117 -0.0264
   56TCq2    C4  855   1.516   0.598   0.294 -0.1478 -0.0009  0.5969
   56TCq2    C5  856   1.519   0.632   0.424 -0.4055  1.1260  0.3788
   56TCq2    C6  857   1.419   0.713   0.472  0.7027  0.1223  0.4828
   56TCq2    C7  858   1.311   0.755   0.389 -0.0901 -0.0076 -0.3048
   56TCq2    C8  859   1.473   0.818   0.551 -0.0038  0.3802 -0.3505
   56TCq2    O4  860   1.560   0.793   0.635 -0.4311 -0.1849 -0.4652
   56TCq2    C9  861   1.629   0.523   0.248  0.2508 -0.1745  0.4479
   56TCq2    O5  862   1.708   0.483   0.342  0.2145  0.4686 -1.0156
   56TCq2    O6  863   1.630   0.484   0.128 -0.3644 -0.5506 -0.4956
   56TCq2    H2  864   1.422   0.600   0.108  0.6646  1.3348 -0.6236
   56TCq2    H3  865   1.615   0.624   0.475  0.2687  0.6103 -0.9834
   56TCq2    H4  866   1.235   0.824   0.423  0.7750 -0.3813  2.3894
   57TMC2    C1  867   0.584   2.075  13.514 -0.3257  0.2645 -0.4939
   57TMC2    C2  868   0.706   2.137  13.485 -0.3291 -0.5225 -0.8740
   57TMC2    C3  869   0.767   2.107  13.365 -1.0792 -0.2723  0.0318
   57TMC2    C4  870   0.539   1.957  13.444  0.7392 -0.5629  0.4955
   57TMC2    C5  871   0.608   1.933  13.327  0.0594  0.3573 -0.5536
   57TMC2    C6  872   0.722   2.004  13.290  0.3419 -0.3760  0.2515
   57TMC2     C  873   0.513   2.118  13.632  0.4467  0.1411 -0.1302
   57TMC2     O  874   0.508   2.237  13.657  0.6246  0.1091  0.6504
   57TMC2     H  875   0.734   2.231  13.531 -2.1701  1.1922 -3.2822
   57TMC2    H1  876   0.449   1.902  13.471 -0.4825  1.5381  0.7109
   57TMC2    H2  877   0.763   1.972  13.195 -1.6927  2.2229 -1.5147
   57TMC2    C7  878   0.530   1.876  13.221  0.4920  0.5326  0.0860
   57TMC2    C8  879   0.904   2.125  13.361 -0.7250 -0.2486  0.4683
   57TMC2    O1  880   0.408   1.876  13.241  0.8336  0.0063  0.4771
   57TMC2    O2  881   0.980   2.148  13.454 -0.5520  0.2630 -0.3745
   57TMC2    O5  882   0.932   2.172  13.236  0.4623  0.2156  0.4339
   57TMC2    H5  883   0.858   2.186  13.172  0.5735 -0.9970  0.0279
   58MPD2     C  884   0.137   2.063  13.984 -0.2364 -0.2929  0.4678
   58MPD2    C1  885   0.187   2.176  13.918  1.1824 -0.9221  0.6710
   58MPD2    C2  886   0.284   2.156  13.822 -0.2547 -0.4800  0.0271
   58MPD2    C3  887   0.336   2.032  13.790  0.1677 -0.3723  0.8544
   58MPD2    C4  888   0.285   1.917  13.850 -0.1838  0.7440  0.1483
   58MPD2    C5  889   0.186   1.938  13.942  1.0902  0.2501  0.3847
   58MPD2     H  890   0.315   2.235  13.755  0.5030  0.2152  1.1857
   58MPD2    H1  891   0.319   1.820  13.816  0.7135  0.6265  1.3665
   58MPD2    H2  892   0.056   2.060  14.057  0.8311 -4.5273  1.4687
   58MPD2    H3  893   0.148   1.850  13.992  4.0923 -1.4610 -0.3030
   58MPD2     N  894   0.442   2.013  13.692  0.2174  0.3546  0.5594
   58MPD2    H5  895   0.473   1.923  13.658 -1.4908 -0.0989  0.2206
   58MPD2    N1  896   0.145   2.307  13.948 -0.0966 -0.5958 -0.1304
   58MPD2    H7  897   0.187   2.390  13.906  0.6004  1.3077  4.3379
   59MPD2     C  898   3.195   2.611  13.199  0.2127 -0.2052 -0.5147
   59MPD2    C1  899   3.156   2.742  13.174  0.3010 -0.4760 -0.1954
   59MPD2    C2  900   3.190   2.835  13.271 -0.1733  0.8003 -0.5598
   59MPD2    C3  901   3.265   2.805  13.388  0.4967 -0.9444  0.6432
   59MPD2    C4  902   3.285   2.674  13.416  0.0023  0.2313  0.1333
   59MPD2    C5  903   3.250   2.576  13.323  0.4616 -0.1364  0.4341
   59MPD2     H  904   3.163   2.937  13.248  0.8165  0.9772 -0.9366
   59MPD2    H1  905   3.341   2.640  13.502  0.6010  1.0855  0.0812
   59MPD2    H2  906   3.168   2.536  13.126 -0.8946 -0.6210  0.3265
   59MPD2    H3  907   3.265   2.471  13.341 -0.5552  0.1816  3.2174
   59MPD2     N  908   3.307   2.905  13.487  0.7545 -0.1912  0.1775
   59MPD2    H5  909   3.374   2.864  13.551  1.8347  2.3691  0.7177
   59MPD2    N1  910   3.094   2.773  13.053  0.2557  0.2076  0.0881
   59MPD2    H7  911   3.109   2.872  13.034  0.9396 -0.1644 -1.2958
   60TCq2    C1  912   3.052   2.693  12.947 -0.7194  0.6341 -0.0880
   60TCq2    O2  913   3.045   2.573  12.936 -0.4107 -0.5861 -0.1440
   60TCq2    C2  914   3.020   2.768  12.831  0.6600 -0.7849 -0.3084
   60TCq2    C3  915   2.918   2.722  12.755  0.3175 -0.2046 -0.3580
   60TCq2    C4  916   2.873   2.813  12.659 -0.1255 -0.0523 -0.2488
   60TCq2    C5  917   2.940   2.928  12.618  0.4383  0.4580 -0.0975
   60TCq2    C6  918   3.049   2.965  12.690  0.0234 -0.3509  0.1571
   60TCq2    C7  919   3.086   2.886  12.794  0.2115  0.2258  0.0779
   60TCq2    C8  920   3.111   3.096  12.690  0.2274  0.0384 -0.0251
   60TCq2    O4  921   3.201   3.114  12.773 -0.2413 -0.1445  0.6106
   60TCq2    C9  922   2.758   2.783  12.584  0.1912 -0.5985 -0.2371
   60TCq2    O5  923   2.682   2.689  12.623  0.2037 -0.2530  0.2306
   60TCq2    O6  924   2.764   2.831  12.467  0.3134  0.1747  0.0811
   60TCq2    H2  925   2.864   2.632  12.781  2.3517 -1.9969 -2.2901
   60TCq2    H3  926   2.897   2.992  12.542 -1.3642  1.3346  1.6791
   60TCq2    H4  927   3.177   2.904  12.851  0.6855  1.0098 -0.9113
   61MPD2     C  928   2.528   3.880  14.383  0.4742 -0.7038 -0.2746
   61MPD2    C1  929   2.431   3.873  14.486  0.1144  0.5312  0.7804
   61MPD2    C2  930   2.308   3.933  14.474  0.1582  0.0142 -0.0075
   61MPD2    C3  931   2.273   3.992  14.354 -0.3868  0.7283 -1.0248
   61MPD2    C4  932   2.374   4.000  14.255 -0.2129 -0.1082 -0.7004
   61MPD2    C5  933   2.505   3.955  14.267 -0.1474 -0.6689  0.5700
   61MPD2     H  934   2.241   3.911  14.556 -0.1382  3.0297  0.5549
   61MPD2    H1  935   2.353   4.064  14.170  0.8167  0.0132 -0.8644
   61MPD2    H2  936   2.626   3.836  14.394  0.9580  0.0190 -1.7411
   61MPD2    H3  937   2.573   3.962  14.182 -0.6973  0.1443  0.2001
   61MPD2     N  938   2.153   4.060  14.344 -0.0183 -0.0944  0.3131
   61MPD2    H5  939   2.153   4.138  14.279  1.2263  1.0145  1.6645
   61MPD2    N1  940   2.453   3.831  14.621 -0.3824  0.3180 -0.4299
   61MPD2    H7  941   2.370   3.803  14.673 -0.8152  0.4553 -1.0520
   62TCq2    C1  942   2.579   3.812  14.674  0.2689  0.3104  0.4001
   62TCq2    O2  943   2.691   3.823  14.621  0.0717  0.4102 -0.0326
   62TCq2    C2  944   2.581   3.815  14.823  0.0430  0.6525  0.9482
   62TCq2    C3  945   2.707   3.802  14.870 -0.3047 -0.3752 -0.4693
   62TCq2    C4  946   2.736   3.859  14.992 -0.9636  0.0521  1.1521
   62TCq2    C5  947   2.638   3.924  15.061 -0.5374 -0.0022 -0.4940
   62TCq2    C6  948   2.508   3.932  15.018 -0.1488 -0.5503  1.3110
   62TCq2    C7  949   2.478   3.884  14.889  0.3273 -0.2960 -0.1441
   62TCq2    C8  950   2.420   4.020  15.097 -0.3680 -0.0375 -0.5322
   62TCq2    O4  951   2.474   4.064  15.198  0.3957 -0.1464 -0.2775
   62TCq2    C9  952   2.861   3.838  15.045  0.0748 -0.4566  0.1445
   62TCq2    O5  953   2.945   3.764  14.991  0.1473 -0.6653  0.0564
   62TCq2    O6  954   2.884   3.900  15.149 -0.7132  0.1151  0.0930
   62TCq2    H2  955   2.788   3.754  14.817  0.1605 -0.5212  0.3653
   62TCq2    H3  956   2.666   3.972  15.154  1.1251  0.9526 -1.4916
   62TCq2    H4  957   2.391   3.924  14.839 -1.0253 -1.8661  0.9597
   63TMC2    C1  958   1.823   4.025  10.869  0.7524  0.0198 -0.1385
   63TMC2    C2  959   1.896   4.078  10.967  0.7773  0.0585 -0.3400
   63TMC2    C3  960   2.010   4.140  10.927  0.1087 -0.8993 -1.1114
   63TMC2    C4  961   1.849   4.039  10.741 -0.3444 -0.6911 -0.1259
   63TMC2    C5  962   1.966   4.095  10.698 -0.0790 -0.5020  0.2470
   63TMC2    C6  963   2.047   4.151  10.794 -0.5489  0.1884  0.2560
   63TMC2     C  964   1.708   3.954  10.913  0.5872  0.1146 -0.1999
   63TMC2     O  965   1.653   4.001  11.013  0.1334 -0.2990 -0.1718
   63TMC2     H  966   1.870   4.056  11.071  0.6898 -1.4411 -0.6692
   63TMC2    H1  967   1.788   3.986  10.669 -1.7215  0.5304  0.1437
   63TMC2    H2  968   2.138   4.209  10.786  0.9413 -2.4362 -1.9924
   63TMC2    C7  969   1.988   4.125  10.558  0.0931 -0.0378  1.2564
   63TMC2    C8  970   2.125   4.134  11.020  0.4002 -0.2992 -0.3659
   63TMC2    O1  971   1.893   4.138  10.479  0.0982 -0.0844  0.2462
   63TMC2    O2  972   2.239   4.156  10.981  0.7193  0.3571  0.1739
   63TMC2    O5  973   2.091   4.141  11.151  0.4618 -0.2057  0.1989
   63TMC2    H5  974   1.996   4.151  11.170 -0.1636 -1.7199 -2.1167
   64MPD2     C  975   1.416   3.546  10.962  0.2841 -0.0114 -0.0873
   64MPD2    C1  976   1.515   3.517  10.870 -0.5105  0.7649 -0.4923
   64MPD2    C2  977   1.598   3.621  10.833  0.2278  0.0706  0.3962
   64MPD2    C3  978   1.587   3.747  10.888  1.1257  0.2770 -0.3088
   64MPD2    C4  979   1.488   3.767  10.983 -0.3107  0.3631  0.0301
   64MPD2    C5  980   1.399   3.666  11.017 -0.5560  0.5959  0.1333
   64MPD2     H  981   1.674   3.599  10.760  1.4696  0.8762  1.4488
   64MPD2    H1  982   1.464   3.863  11.026  0.4872  1.3477 -1.7096
   64MPD2    H2  983   1.353   3.465  10.997 -2.3111  2.3713  0.7934
   64MPD2    H3  984   1.316   3.681  11.085 -0.7806 -0.9371  0.2055
   64MPD2     N  985   1.675   3.843  10.845  0.4317  0.5540 -0.3826
   64MPD2    H5  986   1.741   3.820  10.771  0.9346 -0.0250  0.2400
   64MPD2    N1  987   1.556   3.395  10.822  0.1292 -0.6564 -0.4691
   64MPD2    H7  988   1.641   3.389  10.766  1.5476  0.2932  1.5684
   65MPD2     C  989   3.408   3.507  15.910  0.2421  0.1171  0.7043
   65MPD2    C1  990   3.336   3.543  15.795 -0.0162  0.0688  0.2521
   65MPD2    C2  991   3.257   3.438  15.740 -0.1352  0.1467  0.4153
   65MPD2    C3  992   3.235   3.318  15.808  0.2204  0.1772  0.4576
   65MPD2    C4  993   3.304   3.283  15.921  0.1170  0.9048 -0.0997
   65MPD2    C5  994   3.382   3.390  15.974 -0.2167 -0.0069  0.3970
   65MPD2     H  995   3.199   3.472  15.655  1.1859 -1.0429 -0.9534
   65MPD2    H1  996   3.298   3.185  15.967 -1.7620  0.7947 -0.5630
   65MPD2    H2  997   3.478   3.582  15.945  1.0005 -0.9415  1.4625
   65MPD2    H3  998   3.447   3.376  16.059 -0.4903  0.1890  0.6392
   65MPD2     N  999   3.142   3.217  15.756 -0.2468  0.0154  0.4794
   65MPD2    H5 1000   3.131   3.134  15.813 -0.5212 -0.5014 -0.3155
   65MPD2    N1 1001   3.339   3.668  15.726 -0.0201 -0.4373  0.0224
   65MPD2    H7 1002   3.283   3.679  15.642 -1.7263 -0.8817  1.1176
   66TCq2    C1 1003   3.408   3.782  15.765  0.4368  0.0002 -0.6937
   66TCq2    O2 1004   3.483   3.804  15.857  0.2464  0.5089  0.2558
   66TCq2    C2 1005   3.401   3.888  15.665 -0.1004 -0.3038 -0.3390
   66TCq2    C3 1006   3.329   3.874  15.549  1.1101 -0.2707 -0.6890
   66TCq2    C4 1007   3.307   3.984  15.468  0.0770  1.1579 -0.7188
   66TCq2    C5 1008   3.318   4.110  15.518  0.0291  0.1890  0.1154
   66TCq2    C6 1009   3.383   4.119  15.635 -0.1984 -0.1724 -0.6440
   66TCq2    C7 1010   3.434   4.017  15.703  0.0107  0.3306  0.6339
   66TCq2    C8 1011   3.377   4.246  15.694 -0.1324  0.3175 -0.0299
   66TCq2    O4 1012   3.438   4.335  15.638  0.4486  0.0179 -0.8083
   66TCq2    C9 1013   3.244   3.971  15.338  0.1658  0.1532  0.6249
   66TCq2    O5 1014   3.196   4.075  15.283  0.1366  0.4482 -0.6412
   66TCq2    O6 1015   3.252   3.862  15.275 -0.5500 -0.2578 -0.9850
   66TCq2    H2 1016   3.298   3.778  15.508  0.1245  1.1523 -3.2680
   66TCq2    H3 1017   3.276   4.198  15.470  0.0894  0.4626  0.5621
   66TCq2    H4 1018   3.474   4.030  15.803 -2.5948  0.6787  1.6214
   67MPD2     C 1019   2.985   2.792  14.070  0.8181 -0.0896 -0.8113
   67MPD2    C1 1020   2.924   2.861  14.172  0.2210  0.1791 -0.3389
   67MPD2    C2 1021   2.790   2.876  14.173 -0.0616 -0.0028  0.6324
   67MPD2    C3 1022   2.708   2.828  14.067  0.1510 -0.8257 -0.1853
   67MPD2    C4 1023   2.771   2.755  13.968 -0.1146  0.3813 -0.0284
   67MPD2    C5 1024   2.910   2.743  13.968 -0.2763  0.0599 -0.4511
   67MPD2     H 1025   2.748   2.933  14.255  1.2475  0.6599  0.8414
   67MPD2    H1 1026   2.711   2.719  13.885 -1.9015  1.9535  0.5924
   67MPD2    H2 1027   3.092   2.777  14.063  1.1715  1.2516  1.6103
   67MPD2    H3 1028   2.941   2.695  13.876  0.5675 -0.5114  0.1374
   67MPD2     N 1029   2.570   2.838  14.069 -0.6863  0.2675  0.0718
   67MPD2    H5 1030   2.523   2.797  13.989 -0.3436 -0.7265  0.3784
   67MPD2    N1 1031   2.993   2.924  14.275 -0.1377 -0.1922 -0.4006
   67MPD2    H7 1032   2.941   2.983  14.340 -0.2515 -1.1502  0.3753
   68TCq2    C1 1033   3.128   2.906  14.296 -0.0614  0.1112 -0.4039
   68TCq2    O2 1034   3.199   2.808  14.262  0.3127 -0.4691 -0.2570
   68TCq2    C2 1035   3.194   2.988  14.388 -0.1622  0.1918  0.2061
   68TCq2    C3 1036   3.144   3.112  14.418 -0.3884  0.1088  0.1525
   68TCq2    C4 1037   3.213   3.193  14.502 -0.5566 -0.1318 -0.5119
   68TCq2    C5 1038   3.339   3.155  14.557  0.5637  0.1047  0.3023
   68TCq2    C6 1039   3.387   3.030  14.520 -0.0928  0.3131 -0.4786
   68TCq2    C7 1040   3.319   2.945  14.428  0.5930  0.0961  0.2388
   68TCq2    C8 1041   3.486   2.963  14.597 -0.1410 -1.0240 -0.5488
   68TCq2    O4 1042   3.546   2.864  14.559  0.2311  0.1179  0.4545
   68TCq2    C9 1043   3.170   3.328  14.529 -0.0364  0.0499  0.4935
   68TCq2    O5 1044   3.233   3.389  14.618 -1.1045 -0.2572  0.4658
   68TCq2    O6 1045   3.068   3.377  14.476  0.7537  0.0038  0.2594
   68TCq2    H2 1046   3.052   3.147  14.373  0.2669  0.2531 -1.0592
   68TCq2    H3 1047   3.397   3.230  14.610 -0.4571  0.4411  0.9348
   68TCq2    H4 1048   3.355   2.843  14.417 -0.6214 -0.2490 -0.4970
   69TMC2    C1 1049   0.792   4.261  13.094 -0.7981 -0.1508  0.1527
   69TMC2    C2 1050   0.917   4.250  13.149 -0.2721  0.5616  0.4105
   69TMC2    C3 1051   1.015   4.333  13.100  0.0532 -0.8268  0.6402
   69TMC2    C4 1052   0.762   4.343  12.988  0.1447 -0.3644  0.0882
   69TMC2    C5 1053   0.864   4.420  12.939 -0.8521 -0.0371  0.1703
   69TMC2    C6 1054   0.990   4.414  12.994  0.2696 -0.1321 -0.4486
   69TMC2     C 1055   0.690   4.172  13.129 -0.9225  0.3314  0.7267
   69TMC2     O 1056   0.720   4.062  13.167  0.1232 -0.4737  0.1294
   69TMC2     H 1057   0.937   4.172  13.221  1.0433  2.0257  1.6481
   69TMC2    H1 1058   0.668   4.333  12.936  0.8064 -0.5023 -1.0916
   69TMC2    H2 1059   1.070   4.477  12.955 -0.1937  1.5352  1.3260
   69TMC2    C7 1060   0.865   4.426  12.800  0.7196 -0.2855  0.7766
   69TMC2    C8 1061   1.149   4.331  13.154  0.1297 -0.8382  0.0111
   69TMC2    O1 1062   0.979   4.408  12.754  0.6211 -0.1126 -0.0980
   69TMC2    O2 1063   1.220   4.430  13.140 -0.7552  0.2824  0.0392
   69TMC2    O5 1064   1.190   4.207  13.126  0.1920 -0.0451  0.1455
   69TMC2    H5 1065   1.109   4.151  13.126 -0.4625  0.9125  0.2519
   70MPD2     C 1066   0.348   4.256  13.211  1.0815  0.7013  0.0511
   70MPD2    C1 1067   0.448   4.173  13.152  0.3719  0.0148  0.1280
   70MPD2    C2 1068   0.422   4.038  13.139 -0.5835 -0.5236  0.9522
   70MPD2    C3 1069   0.298   3.993  13.177 -0.0885 -0.7594 -0.3093
   70MPD2    C4 1070   0.202   4.080  13.233 -0.5370 -0.3293 -1.1747
   70MPD2    C5 1071   0.228   4.205  13.244  0.2427  0.6711 -1.1380
   70MPD2     H 1072   0.494   3.979  13.082  0.6256  1.2906  0.6098
   70MPD2    H1 1073   0.101   4.049  13.257 -0.2392 -0.5308 -0.1789
   70MPD2    H2 1074   0.360   4.363  13.211 -0.3694  0.8651 -0.0715
   70MPD2    H3 1075   0.154   4.278  13.276 -0.3594  0.4045 -1.9213
   70MPD2     N 1076   0.255   3.857  13.163  0.2095  0.8352 -0.3660
   70MPD2    H5 1077   0.162   3.831  13.196  0.7522 -0.9283 -0.2477
   70MPD2    N1 1078   0.567   4.233  13.116  0.5239 -0.6884  0.1006
   70MPD2    H7 1079   0.580   4.333  13.112 -0.3962 -0.5788 -0.1016
   71TMC2    C1 1080   2.463   0.468   2.127  0.5323  0.1211  0.5764
   71TMC2    C2 1081   2.576   0.515   2.193  0.1384 -0.6435  0.3031
   71TMC2    C3 1082   2.558   0.564   2.322  0.5348  0.4336 -0.9426
   71TMC2    C4 1083   2.344   0.450   2.202 -0.3644 -0.4351 -0.5158
   71TMC2    C5 1084   2.337   0.491   2.327 -0.1542  0.5128 -0.5178
   71TMC2    C6 1085   2.442   0.542   2.396  1.2903  0.2222 -0.1836
   71TMC2     C 1086   2.478   0.434   1.985 -0.1237  0.6308  0.4972
   71TMC2     O 1087   2.590   0.401   1.945  0.3896  0.2944  0.3069
   71TMC2     H 1088   2.667   0.544   2.141  0.9442 -1.6577  1.1394
   71TMC2    H1 1089   2.255   0.443   2.140  0.1070 -0.8041 -1.1505
   71TMC2    H2 1090   2.425   0.572   2.498  0.0333  0.3675 -0.4403
   71TMC2    C7 1091   2.210   0.467   2.399  0.4108  0.2239  0.3888
   71TMC2    C8 1092   2.684   0.626   2.380 -0.6884  0.8486  0.4783
   71TMC2    O1 1093   2.193   0.532   2.499 -0.0457  0.9368 -0.0885
   71TMC2    O2 1094   2.788   0.634   2.322  0.7560  0.6822 -0.1908
   71TMC2    O5 1095   2.660   0.684   2.505  0.0903  0.3984 -0.2093
   71TMC2    H5 1096   2.564   0.684   2.527  0.1307  1.1714 -0.0288
   72MPD2     C 1097   2.203   0.255   1.577  0.4864  0.0205 -0.1956
   72MPD2    C1 1098   2.322   0.210   1.632 -0.6251  0.1062  0.0732
   72MPD2    C2 1099   2.376   0.261   1.751 -0.0489 -0.6210  0.1701
   72MPD2    C3 1100   2.315   0.374   1.808 -0.2252 -0.0251 -0.1868
   72MPD2    C4 1101   2.188   0.413   1.761  0.3864  0.4450 -0.7885
   72MPD2    C5 1102   2.141   0.351   1.651  0.7981 -0.2518 -0.2449
   72MPD2     H 1103   2.472   0.228   1.788 -1.3082 -3.4057  1.0062
   72MPD2    H1 1104   2.135   0.498   1.803  1.5938  0.9679 -0.3245
   72MPD2    H2 1105   2.172   0.227   1.477  1.4772  0.3112 -0.5837
   72MPD2    H3 1106   2.038   0.375   1.629  0.3776 -1.9456 -0.0757
   72MPD2     N 1107   2.353   0.426   1.928  0.1769 -0.3651 -0.0140
   72MPD2    H5 1108   2.288   0.492   1.970  3.0205  0.5621  2.9373
   72MPD2    N1 1109   2.399   0.114   1.566  0.6501 -0.6484  0.2059
   72MPD2    H7 1110   2.483   0.086   1.615  0.3774 -0.0721  0.9869
   73TMC2    C1 1111   1.631   1.830  13.684 -0.5019  0.1375 -0.4026
   73TMC2    C2 1112   1.576   1.911  13.773  0.6448  0.8624 -0.7260
   73TMC2    C3 1113   1.562   1.862  13.897  0.1400 -0.2520  1.3272
   73TMC2    C4 1114   1.689   1.707  13.712  0.3922 -0.0359  0.7875
   73TMC2    C5 1115   1.676   1.657  13.839 -0.9224  0.8073 -0.0808
   73TMC2    C6 1116   1.610   1.736  13.935  0.4889 -0.4683 -0.0843
   73TMC2     C 1117   1.729   1.898  13.604  0.9434  0.0862  0.3325
   73TMC2     O 1118   1.840   1.850  13.618 -0.5538  0.3434  0.4973
   73TMC2     H 1119   1.525   2.003  13.745 -0.0160  0.3267 -1.2923
   73TMC2    H1 1120   1.734   1.650  13.631  0.1470 -1.2230  1.4928
   73TMC2    H2 1121   1.602   1.704  14.038 -0.9681 -3.0672 -1.0261
   73TMC2    C7 1122   1.800   1.597  13.889 -0.6066  0.4341 -0.5843
   73TMC2    C8 1123   1.488   1.937  13.987 -0.7882 -0.5233 -0.3750
   73TMC2    O1 1124   1.803   1.543  13.999  0.4180 -0.1630 -0.6218
   73TMC2    O2 1125   1.408   2.020  13.944  0.0426  0.1103 -0.3350
   73TMC2    O5 1126   1.560   1.961  14.097 -0.5683  0.5679  0.8986
   73TMC2    H5 1127   1.642   1.907  14.099 -0.0396  1.4031  2.3202
   74MPD2     C 1128   1.953   2.262  13.316 -0.3439 -0.3038 -0.3788
   74MPD2    C1 1129   1.991   2.134  13.349 -0.1649  0.3088 -0.4402
   74MPD2    C2 1130   1.907   2.059  13.426  0.1033 -0.0599  0.0516
   74MPD2    C3 1131   1.779   2.097  13.461  0.4562  1.0435  0.7199
   74MPD2    C4 1132   1.736   2.220  13.410 -0.4141  0.6094 -0.1147
   74MPD2    C5 1133   1.823   2.301  13.338  0.8063 -0.7720  0.1868
   74MPD2     H 1134   1.948   1.969  13.470  1.5104  0.3523 -0.4201
   74MPD2    H1 1135   1.632   2.249  13.402  0.0769  2.8306  1.5665
   74MPD2    H2 1136   2.018   2.313  13.246 -1.2566 -1.3565 -1.9969
   74MPD2    H3 1137   1.788   2.393  13.293  1.6595 -1.1504 -1.2578
   74MPD2     N 1138   1.691   2.015  13.534 -0.1041  0.3067  0.0266
   74MPD2    H5 1139   1.591   2.032  13.524 -0.4583 -1.6996  0.1220
   74MPD2    N1 1140   2.120   2.082  13.311  0.1415 -0.0588  0.5425
   74MPD2    H7 1141   2.178   2.142  13.254 -1.6542  1.0991 -0.0696
   75TCq2    C1 1142   2.491   2.882  14.170 -0.5715 -0.0332 -0.4740
   75TCq2    O2 1143   2.521   2.906  14.284  0.1041 -0.3578 -0.1150
   75TCq2    C2 1144   2.353   2.886  14.130  0.3013  0.1090 -0.5359
   75TCq2    C3 1145   2.265   2.875  14.235 -1.1583  0.6503  1.2483
   75TCq2    C4 1146   2.134   2.908  14.217 -0.0747 -0.3319  0.0508
   75TCq2    C5 1147   2.092   2.944  14.087 -0.7653 -0.2673  0.6382
   75TCq2    C6 1148   2.187   2.942  13.983 -0.3386  0.1826 -1.0869
   75TCq2    C7 1149   2.314   2.911  14.007 -0.0656 -0.0324  0.2380
   75TCq2    C8 1150   2.159   2.951  13.838  0.2900 -0.0894 -0.5313
   75TCq2    O4 1151   2.238   2.917  13.748  0.4552 -0.0888 -0.2070
   75TCq2    C9 1152   2.040   2.908  14.327 -0.3825 -0.0141  0.0325
   75TCq2    O5 1153   2.076   2.841  14.427 -0.2059 -0.0227  0.0076
   75TCq2    O6 1154   1.937   2.975  14.317  0.4729  0.5460 -0.2790
   75TCq2    H2 1155   2.299   2.859  14.337  3.2133  0.7884 -0.1843
   75TCq2    H3 1156   1.992   2.977  14.062  0.1691  1.5211 -0.7600
   75TCq2    H4 1157   2.390   2.943  13.936  0.4455 -3.3355 -0.7130
   76MPD2     C 1158   1.708   4.092  12.082 -0.0108  0.2089 -0.4725
   76MPD2    C1 1159   1.608   4.019  12.025 -0.0598  0.5799 -0.3385
   76MPD2    C2 1160   1.641   3.909  11.949 -0.4936  0.4776 -0.4116
   76MPD2    C3 1161   1.774   3.876  11.929  0.3476 -0.1272 -0.4779
   76MPD2    C4 1162   1.873   3.959  11.984  0.1619 -0.0401  0.0341
   76MPD2    C5 1163   1.837   4.060  12.064 -0.7350  0.6297 -0.7694
   76MPD2     H 1164   1.572   3.848  11.891 -0.0810  0.4543 -0.8833
   76MPD2    H1 1165   1.978   3.938  11.967  0.3525 -1.5515  3.1712
   76MPD2    H2 1166   1.688   4.181  12.140  0.4426 -0.4599  0.7376
   76MPD2    H3 1167   1.917   4.109  12.118 -0.3016  0.5773 -1.3713
   76MPD2     N 1168   1.819   3.760  11.860 -0.0179 -0.2974 -0.5396
   76MPD2    H5 1169   1.913   3.750  11.825 -0.5326  0.4300 -2.1091
   76MPD2    N1 1170   1.471   4.048  12.042  0.2311  0.6027  0.3645
   76MPD2    H7 1171   1.419   3.989  11.977  0.2473  0.5467  0.4021
   77TCq2    C1 1172   1.734   3.660  11.815  0.6004 -0.7120  1.0666
   77TCq2    O2 1173   1.612   3.644  11.828 -0.0454 -0.1424  0.1044
   77TCq2    C2 1174   1.814   3.571  11.725  0.5016 -0.0620 -0.1858
   77TCq2    C3 1175   1.751   3.523  11.617 -0.1899 -0.9788  0.1873
   77TCq2    C4 1176   1.824   3.446  11.528 -0.2611  0.2246  0.6481
   77TCq2    C5 1177   1.945   3.400  11.567 -0.1847  0.4958  0.2256
   77TCq2    C6 1178   2.006   3.438  11.685 -0.1522  0.7024 -0.5862
   77TCq2    C7 1179   1.943   3.535  11.760 -0.3283 -0.9687  0.5080
   77TCq2    C8 1180   2.112   3.354  11.742  0.4672  0.1246 -0.0599
   77TCq2    O4 1181   2.158   3.268  11.665  0.0237 -0.2588 -0.2158
   77TCq2    C9 1182   1.742   3.395  11.410 -0.1305  0.0046  0.2478
   77TCq2    O5 1183   1.623   3.431  11.403  0.1549  0.2845  0.3816
   77TCq2    O6 1184   1.799   3.303  11.347  0.0145 -0.8612 -0.4150
   77TCq2    H2 1185   1.649   3.554  11.601  0.4633 -0.0418 -2.0980
   77TCq2    H3 1186   1.991   3.313  11.522  1.3875  0.4651  1.8937
   77TCq2    H4 1187   1.984   3.575  11.853  0.7203 -0.4884 -0.1659
   78MPD1     C 1188   0.414   2.037   2.297 -0.0749  0.1684  0.5838
   78MPD1    C1 1189   0.419   2.153   2.370 -0.2746 -0.1503 -0.7151
   78MPD1    C2 1190   0.305   2.192   2.437  0.4088  0.2693 -0.4883
   78MPD1    C3 1191   0.187   2.123   2.425 -0.0708 -0.0627 -0.0441
   78MPD1    C4 1192   0.186   2.008   2.353  0.0549 -0.0357 -0.1921
   78MPD1    C5 1193   0.303   1.966   2.287 -0.2823  0.5596  0.0927
   78MPD1     H 1194   0.308   2.282   2.497 -0.0230  0.1075 -0.2195
   78MPD1    H1 1195   0.093   1.958   2.329  0.4200 -0.7983 -0.0315
   78MPD1    H2 1196   0.502   1.996   2.248 -2.7348 -2.8785 -1.5997
   78MPD1    H3 1197   0.312   1.872   2.234  1.7541  1.4787 -1.2174
   78MPD1     N 1198   0.067   2.162   2.477  0.2654  0.0822 -0.5417
   78MPD1    H5 1199   4.718   2.090   2.472  1.0157 -0.6738 -0.3263
   78MPD1    N1 1200   0.541   2.220   2.379 -0.0739 -0.4164  0.3093
   78MPD1    H6 1201   0.518   2.319   2.375  2.4376  0.1879  0.8525
   78MPD1    H7 1202   0.596   2.198   2.297 -0.9797  0.4935 -0.5265
   79TCq2    C1 1203   0.037   2.273   2.558 -0.7659  0.1013 -0.3073
   79TCq2    O2 1204   0.117   2.359   2.599  0.3090 -0.0485 -0.0704
   79TCq2    C2 1205   4.618   2.293   2.583  0.2361 -0.3493 -0.9527
   79TCq2    C3 1206   4.527   2.193   2.591  0.2995 -0.3479  0.2216
   79TCq2    C4 1207   4.394   2.220   2.623 -0.5345 -0.2908 -0.3613
   79TCq2    C5 1208   4.351   2.352   2.632 -0.0243 -0.3924  0.7025
   79TCq2    C6 1209   4.450   2.448   2.615  0.0479 -0.4982 -0.6766
   79TCq2    C7 1210   4.579   2.422   2.586  0.2532 -0.4785 -0.1267
   79TCq2    C8 1211   4.403   2.579   2.563 -0.5351  0.3171  0.3030
   79TCq2    O4 1212   4.483   2.670   2.566  0.4898 -0.1381 -1.1684
   79TCq2    C9 1213   4.297   2.109   2.635 -0.7422 -0.6512  0.1307
   79TCq2    O5 1214   4.335   1.989   2.611  0.1394 -0.0720  0.2940
   79TCq2    O6 1215   4.178   2.146   2.663  0.1464 -0.0528 -0.1883
   79TCq2    H2 1216   4.556   2.089   2.582  0.2630 -0.4679  1.4365
   79TCq2    H3 1217   4.248   2.368   2.664 -0.4134 -0.8641 -0.2850
   79TCq2    H4 1218   4.651   2.499   2.560 -1.3883  0.3376 -2.3163
   80MPD2     C 1219   0.833   3.505  12.226  0.1173  0.1198  0.0713
   80MPD2    C1 1220   0.753   3.534  12.111 -0.3831  0.4960 -0.8983
   80MPD2    C2 1221   0.635   3.604  12.130  0.2186 -0.4753 -0.2952
   80MPD2    C3 1222   0.580   3.639  12.251 -0.4961  0.8295  0.1462
   80MPD2    C4 1223   0.656   3.602  12.358  0.4057  0.1357 -0.1875
   80MPD2    C5 1224   0.783   3.545  12.346 -0.2793 -0.3391  0.8999
   80MPD2     H 1225   0.581   3.631  12.040  0.3103 -0.5187 -0.3630
   80MPD2    H1 1226   0.622   3.608  12.460  1.5138  0.5482  0.1537
   80MPD2    H2 1227   0.930   3.457  12.220 -1.3075 -2.5783 -1.4699
   80MPD2    H3 1228   0.847   3.535  12.433 -1.7964  0.4793  2.0857
   80MPD2     N 1229   0.442   3.670  12.275  0.5717  0.2826 -0.0256
   80MPD2    H5 1230   0.424   3.677  12.375  2.8958  2.2883  0.2680
   80MPD2    N1 1231   0.796   3.505  11.981 -0.1797 -0.4242  0.2996
   80MPD2    H7 1232   0.741   3.542  11.904  0.7635 -0.7464 -0.5315
   81TCq2    C1 1233   0.919   3.458  11.946 -0.2040  0.2427  0.0532
   81TCq2    O2 1234   1.015   3.439  12.020  1.2258 -0.2044 -0.1412
   81TCq2    C2 1235   0.938   3.440  11.803  0.1288  0.1194 -0.5328
   81TCq2    C3 1236   1.062   3.444  11.758  0.4494  0.4248 -0.0010
   81TCq2    C4 1237   1.102   3.373  11.645 -0.2916 -0.1308  0.5989
   81TCq2    C5 1238   1.009   3.303  11.570 -0.3847 -0.0380  0.2142
   81TCq2    C6 1239   0.881   3.290  11.630  0.0561  0.6850 -0.1395
   81TCq2    C7 1240   0.847   3.365  11.740  0.6540  0.6946 -0.3647
   81TCq2    C8 1241   0.793   3.196  11.567 -1.2499 -0.2456 -0.2588
   81TCq2    O4 1242   0.818   3.158  11.452  0.1949 -0.0377 -0.1476
   81TCq2    C9 1243   1.234   3.375  11.590  0.2041 -0.3267 -0.4412
   81TCq2    O5 1244   1.314   3.457  11.643 -0.3320  0.0660  0.1764
   81TCq2    O6 1245   1.251   3.302  11.490 -0.7862 -0.6203  0.0249
   81TCq2    H2 1246   1.137   3.510  11.801  0.9683 -0.5943  0.6719
   81TCq2    H3 1247   1.032   3.242  11.483  3.6227 -1.9469  2.6145
   81TCq2    H4 1248   0.755   3.342  11.794 -0.4496  1.1113 -2.0990
   82MPD2     C 1249   3.597   3.003  10.652  0.2850  0.3540  0.6137
   82MPD2    C1 1250   3.533   2.881  10.636  0.0998 -0.4932  1.0295
   82MPD2    C2 1251   3.575   2.777  10.723 -0.0524  0.2969 -0.9017
   82MPD2    C3 1252   3.678   2.799  10.815  0.4795  0.0815  0.0770
   82MPD2    C4 1253   3.736   2.926  10.826 -0.1656  0.5687  0.7339
   82MPD2    C5 1254   3.688   3.028  10.754 -0.3911  0.7004  1.0235
   82MPD2     H 1255   3.528   2.683  10.696 -0.7114  0.2569  0.4145
   82MPD2    H1 1256   3.816   2.944  10.896  0.9824  0.4867 -0.5553
   82MPD2    H2 1257   3.574   3.087  10.588 -0.4564 -0.5505 -0.2940
   82MPD2    H3 1258   3.733   3.126  10.767  0.7112  0.6827 -2.5679
   82MPD2     N 1259   3.716   2.697  10.909 -0.0053  0.1198 -0.0151
   82MPD2    H5 1260   3.772   2.734  10.985 -0.9784  0.3587  0.5768
   82MPD2    N1 1261   3.432   2.872  10.536  0.4815  0.2022  0.2328
   82MPD2    H7 1262   3.415   2.958  10.484 -0.5355  0.4953  1.0634
   83TCq2    C1 1263   3.665   2.569  10.920  0.5355 -0.0729  0.2610
   83TCq2    O2 1264   3.589   2.514  10.844  0.0095 -0.0416  0.1256
   83TCq2    C2 1265   3.724   2.498  11.034  1.1126 -0.0586 -0.0086
   83TCq2    C3 1266   3.825   2.550  11.108  0.0335 -0.4209  0.6238
   83TCq2    C4 1267   3.857   2.502  11.228  0.4699 -0.0040  0.8582
   83TCq2    C5 1268   3.787   2.399  11.280 -0.1437 -0.3595 -0.0297
   83TCq2    C6 1269   3.696   2.331  11.197 -0.0365  0.2687 -0.4505
   83TCq2    C7 1270   3.665   2.383  11.078 -0.6978  0.1457 -0.0104
   83TCq2    C8 1271   3.630   2.216  11.247  0.2214 -0.5471 -0.0614
   83TCq2    O4 1272   3.621   2.218  11.372  0.1527 -0.3409 -0.0405
   83TCq2    C9 1273   3.956   2.567  11.304 -0.0919  0.0491  0.3160
   83TCq2    O5 1274   3.965   2.521  11.420 -0.6225 -0.4542  0.8056
   83TCq2    O6 1275   4.007   2.675  11.268  0.0558  0.5640  0.1461
   83TCq2    H2 1276   3.891   2.623  11.062 -0.3729 -0.3560  0.1446
   83TCq2    H3 1277   3.817   2.347  11.371  1.6856 -0.4648 -0.6801
   83TCq2    H4 1278   3.591   2.337  11.012 -0.9955  0.0733  0.3745
   84TCq2    C1 1279   0.173   1.136  11.229 -0.4322  0.9047  0.8126
   84TCq2    O2 1280   0.203   1.220  11.148  0.4552 -0.2275  0.3443
   84TCq2    C2 1281   0.138   1.191  11.367 -0.8360 -0.8871  0.2717
   84TCq2    C3 1282   0.076   1.111  11.461  0.1004 -0.5740  0.4871
   84TCq2    C4 1283   0.018   1.173  11.569 -0.0015  0.5644 -0.0130
   84TCq2    C5 1284   0.011   1.313  11.582 -0.2904  0.0541 -0.1327
   84TCq2    C6 1285   0.061   1.383  11.478 -0.0290  0.0651 -0.4825
   84TCq2    C7 1286   0.129   1.326  11.373 -0.1474  0.4277 -0.0678
   84TCq2    C8 1287   0.045   1.529  11.477 -0.2696 -0.2982 -1.6020
   84TCq2    O4 1288   4.682   1.579  11.548 -0.0784 -0.4263  0.5587
   84TCq2    C9 1289   4.688   1.103  11.678  0.6184 -0.6140  0.1116
   84TCq2    O5 1290   4.607   1.166  11.748 -0.2342 -0.0912 -0.1292
   84TCq2    O6 1291   4.711   0.980  11.690  0.4588 -0.3943  0.1093
   84TCq2    H2 1292   0.071   1.003  11.455  0.4347 -0.4508 -2.1006
   84TCq2    H3 1293   4.680   1.357  11.666  2.6956  0.1131  1.7062
   84TCq2    H4 1294   0.155   1.387  11.288  1.7850 -0.3831 -0.0640
   85MPD2     C 1295   0.872   4.514  16.671  0.1673  0.4045 -0.1175
   85MPD2    C1 1296   0.827   4.536  16.547  0.3292  0.8657  0.3357
   85MPD2    C2 1297   0.857   4.651  16.484  0.4854 -0.2149 -0.3076
   85MPD2    C3 1298   0.942   0.024  16.542 -0.3440  0.0493  0.9847
   85MPD2    C4 1299   0.991   4.710  16.666 -0.2743  0.4548  0.1761
   85MPD2    C5 1300   0.956   4.598  16.727 -0.2774  0.0410  0.3384
   85MPD2     H 1301   0.806   4.676  16.392 -0.2546 -0.9850 -0.1024
   85MPD2    H1 1302   1.054   0.062  16.715 -1.2769  0.7220  1.0661
   85MPD2    H2 1303   0.858   4.420  16.722  0.3955  0.6809  0.4479
   85MPD2    H3 1304   0.994   4.575  16.825 -2.2523 -0.4264  1.0039
   85MPD2     N 1305   0.979   0.143  16.479  0.0656  0.2547  0.2627
   85MPD2    H5 1306   0.959   0.154  16.380  0.2749 -1.7979 -0.0194
   85MPD2    N1 1307   0.736   4.446  16.487  0.1492  0.0708 -0.0623
   85MPD2    H7 1308   0.675   4.489  16.419 -0.7205  0.8012  1.1764
   86TCq2    C1 1309   1.052   0.242  16.535  0.3464  0.8320  0.3494
   86TCq2    O2 1310   1.086   0.269  16.650 -0.2055  0.0765 -0.3339
   86TCq2    C2 1311   1.091   0.332  16.435  0.9996  0.3809  0.7563
   86TCq2    C3 1312   1.079   0.464  16.457 -0.2139 -0.6748 -0.0520
   86TCq2    C4 1313   1.116   0.543  16.357  0.1399 -0.1908  0.5249
   86TCq2    C5 1314   1.181   0.499  16.242 -0.3895  0.4108  0.1166
   86TCq2    C6 1315   1.205   0.362  16.241  0.5225  0.3254  0.3337
   86TCq2    C7 1316   1.148   0.272  16.323  0.4336  0.3401 -0.3473
   86TCq2    C8 1317   1.246   0.305  16.111  1.3729 -0.0303  0.0863
   86TCq2    O4 1318   1.285   0.191  16.125  0.3177 -0.0262 -0.5931
   86TCq2    C9 1319   1.081   0.685  16.365  0.3441 -0.0773  0.4001
   86TCq2    O5 1320   1.070   0.745  16.258  0.1321 -0.3429 -0.1264
   86TCq2    O6 1321   1.055   0.736  16.478  0.3682  0.4867 -0.1244
   86TCq2    H2 1322   1.029   0.501  16.546  0.0481  1.8309 -0.9404
   86TCq2    H3 1323   1.223   0.563  16.165 -1.3404  0.4093 -0.4006
   86TCq2    H4 1324   1.178   0.169  16.312  1.2968  0.2611  2.7562
   87MPD2     C 1325   2.480   2.873   1.109  0.3569  0.3835 -0.0422
   87MPD2    C1 1326   2.510   2.969   1.209 -0.0729  0.1872  0.0253
   87MPD2    C2 1327   2.440   3.085   1.202 -0.2196 -0.0983 -0.1337
   87MPD2    C3 1328   2.339   3.108   1.109 -0.2534  0.0925 -0.6400
   87MPD2    C4 1329   2.298   3.008   1.028 -0.0679 -0.1001  0.6166
   87MPD2    C5 1330   2.380   2.899   1.014  0.2964 -0.2412 -0.4294
   87MPD2     H 1331   2.465   3.166   1.270 -0.1850  1.9617 -2.5809
   87MPD2    H1 1332   2.211   3.013   0.964 -0.5651 -0.6681  1.2406
   87MPD2    H2 1333   2.538   2.782   1.098  1.9173  1.4692 -0.8619
   87MPD2    H3 1334   2.349   2.833   0.934 -0.4299  1.5490 -1.6367
   87MPD2     N 1335   2.252   3.223   1.103 -0.1683  0.0559 -0.1090
   87MPD2    H5 1336   2.176   3.220   1.035 -0.0490 -0.7365 -0.2073
   87MPD2    N1 1337   2.614   2.944   1.303 -0.6329 -0.8580  0.5534
   87MPD2    H7 1338   2.664   2.859   1.279  2.9065  1.7070 -0.9934
   88TCq2    C1 1339   2.628   3.008   1.423 -0.0077 -0.5717  0.2154
   88TCq2    O2 1340   2.555   3.095   1.471 -0.0513 -0.8788 -0.2377
   88TCq2    C2 1341   2.731   2.963   1.512 -0.7990  1.0075  0.0896
   88TCq2    C3 1342   2.741   3.013   1.638  0.0020 -0.9645 -0.1804
   88TCq2    C4 1343   2.861   3.005   1.701 -0.4971  0.6623 -0.0547
   88TCq2    C5 1344   2.963   2.940   1.648  0.1120 -0.0375 -0.1143
   88TCq2    C6 1345   2.956   2.885   1.519  0.0766  0.7789 -0.2341
   88TCq2    C7 1346   2.835   2.905   1.445  0.2081  0.3428  0.6450
   88TCq2    C8 1347   3.076   2.825   1.459  0.6456 -0.8466 -0.1245
   88TCq2    O4 1348   3.189   2.871   1.488  0.1368 -0.2501  0.2852
   88TCq2    C9 1349   2.878   3.085   1.822  0.8187 -0.1257  0.6348
   88TCq2    O5 1350   2.988   3.071   1.878  0.2917  0.0028 -0.0691
   88TCq2    O6 1351   2.777   3.154   1.862  0.5314  0.3719  0.5228
   88TCq2    H2 1352   2.665   3.071   1.688  0.5221  0.4315 -1.0070
   88TCq2    H3 1353   3.062   2.952   1.690 -0.0921 -1.3088  0.7370
   88TCq2    H4 1354   2.844   2.874   1.342  1.4296 -1.1677  1.2138
   89MPD2     C 1355   3.090   1.442   2.387 -0.1351  0.3398 -0.3320
   89MPD2    C1 1356   2.989   1.427   2.295  0.1036  0.3901  0.2086
   89MPD2    C2 1357   3.017   1.470   2.171  0.0084 -0.1710  0.4085
   89MPD2    C3 1358   3.137   1.513   2.127  0.2741 -0.1997  0.1779
   89MPD2    C4 1359   3.243   1.517   2.222 -0.2546  0.2870 -0.1231
   89MPD2    C5 1360   3.212   1.500   2.356  0.0509 -0.4030  0.3902
   89MPD2     H 1361   2.937   1.481   2.099  0.5364  1.1447  0.0161
   89MPD2    H1 1362   3.337   1.567   2.200 -0.1293 -0.3007 -0.9148
   89MPD2    H2 1363   3.078   1.399   2.486  0.7118 -3.1987 -1.7643
   89MPD2    H3 1364   3.272   1.525   2.443  0.5342  0.2645 -0.1392
   89MPD2     N 1365   3.150   1.556   1.991 -0.3456 -0.3115  0.3068
   89MPD2    H5 1366   3.060   1.576   1.948  0.5282  1.9132 -0.5030
   89MPD2    N1 1367   2.864   1.374   2.316 -0.6261  0.1573  0.2486
   89MPD2    H7 1368   2.813   1.350   2.232  0.3487  0.0381 -0.2980
   90TCq2    C1 1369   3.272   1.570   1.920 -0.1039 -0.0944  0.0817
   90TCq2    O2 1370   3.380   1.535   1.956 -0.6561  0.6626  0.0685
   90TCq2    C2 1371   3.240   1.611   1.788 -0.1105  0.2506 -0.2917
   90TCq2    C3 1372   3.116   1.650   1.742 -0.2377  0.7307  0.8798
   90TCq2    C4 1373   3.075   1.627   1.620  0.4796 -0.1520 -0.1807
   90TCq2    C5 1374   3.160   1.566   1.526  0.2804  0.4044 -0.1929
   90TCq2    C6 1375   3.275   1.516   1.568  0.1433  0.2423  0.3692
   90TCq2    C7 1376   3.320   1.545   1.693 -0.4614  0.6216 -0.8829
   90TCq2    C8 1377   3.368   1.475   1.465 -0.0857 -0.0017 -0.8266
   90TCq2    O4 1378   3.472   1.419   1.499 -0.2403 -0.0121  0.4133
   90TCq2    C9 1379   2.949   1.683   1.583  0.3494 -0.5904  0.0366
   90TCq2    O5 1380   2.859   1.700   1.676  0.6415  0.0197  0.4448
   90TCq2    O6 1381   2.936   1.724   1.461 -0.0608  0.5211 -0.6030
   90TCq2    H2 1382   3.051   1.711   1.804  1.1030  0.9420  2.0801
   90TCq2    H3 1383   3.107   1.548   1.433  1.1171 -0.2647 -0.5388
   90TCq2    H4 1384   3.404   1.481   1.719 -1.0212  0.3835  0.3280
   91TMC2    C1 1385   0.606   0.738  17.023  0.2635 -0.2705 -0.1058
   91TMC2    C2 1386   0.503   0.780  17.105  0.0753 -0.1708 -0.0131
   91TMC2    C3 1387   0.420   0.878  17.056  0.4252 -0.2601 -0.1591
   91TMC2    C4 1388   0.607   0.776  16.891 -0.0417  0.8202  0.3587
   91TMC2    C5 1389   0.531   0.875  16.853 -0.3720 -0.2934  0.5611
   91TMC2    C6 1390   0.430   0.924  16.925 -0.2826  0.7135  0.2500
   91TMC2     C 1391   0.718   0.680  17.084 -0.2117 -0.8129 -0.0902
   91TMC2     O 1392   0.686   0.602  17.169 -0.6505  0.6387 -0.6047
   91TMC2     H 1393   0.492   0.738  17.204  0.3977 -1.3084 -0.4592
   91TMC2    H1 1394   0.685   0.738  16.827 -2.4204 -2.0284 -0.8165
   91TMC2    H2 1395   0.360   1.000  16.892 -1.2800 -0.2081  0.2268
   91TMC2    C7 1396   0.572   0.957  16.743  0.0059  0.0445  0.3495
   91TMC2    C8 1397   0.309   0.935  17.130  0.6736  0.0875 -0.3833
   91TMC2    O1 1398   0.690   0.950  16.716 -0.2865 -0.3402  0.3327
   91TMC2    O2 1399   0.196   0.965  17.100  0.2118 -0.0299  0.1949
   91TMC2    O5 1400   0.363   0.948  17.253  0.2559 -0.3165 -0.0900
   91TMC2    H5 1401   0.456   0.917  17.249 -0.8475 -3.4411 -2.0096
   92MPD2     C 1402   0.984   0.578  17.143  0.5348 -0.2001 -0.4916
   92MPD2    C1 1403   0.956   0.665  17.041  0.4504 -0.4149  0.6110
   92MPD2    C2 1404   1.054   0.698  16.946 -0.3045  0.6654 -0.0593
   92MPD2    C3 1405   1.186   0.648  16.949  0.8368  0.2724 -0.1896
   92MPD2    C4 1406   1.215   0.555  17.051  0.2821  0.2598  0.3524
   92MPD2    C5 1407   1.113   0.518  17.137 -0.1198 -0.3918 -0.5172
   92MPD2     H 1408   1.038   0.772  16.869 -1.5056 -1.7648 -2.1310
   92MPD2    H1 1409   1.316   0.517  17.063  0.2084  0.2668  0.9843
   92MPD2    H2 1410   0.912   0.561  17.222 -0.0275  1.7450 -0.5986
   92MPD2    H3 1411   1.138   0.443  17.211 -1.0289 -0.8280 -0.6437
   92MPD2     N 1412   1.282   0.678  16.850  0.3877 -0.4773 -0.5236
   92MPD2    H5 1413   1.258   0.749  16.782 -1.8084 -1.3138 -0.6291
   92MPD2    N1 1414   0.834   0.724  17.026 -0.4189 -0.2424  0.2297
   92MPD2    H7 1415   0.827   0.800  16.959 -0.5554  0.2270  0.7700
   93MPD2     C 1416   1.979   0.926  13.961  0.3017 -0.0481  0.0138
   93MPD2    C1 1417   1.944   0.979  14.083  0.3408 -0.1111 -0.0664
   93MPD2    C2 1418   1.813   1.004  14.103 -0.4108  0.2621 -0.0940
   93MPD2    C3 1419   1.718   0.977  13.997  0.3750 -0.2096  0.1135
   93MPD2    C4 1420   1.762   0.911  13.881 -0.4014  0.4929 -0.1562
   93MPD2    C5 1421   1.894   0.896  13.864  0.2929  1.2418 -0.0079
   93MPD2     H 1422   1.791   1.058  14.194  0.9439 -1.4389  1.2226
   93MPD2    H1 1423   1.699   0.916  13.792 -0.3925  0.5787 -0.1578
   93MPD2    H2 1424   2.082   0.918  13.928  0.7308 -0.2407  1.4341
   93MPD2    H3 1425   1.932   0.866  13.767  0.2862 -0.4597  0.5131
   93MPD2     N 1426   1.591   1.028  14.010  0.4198  0.0361 -0.5261
   93MPD2    H5 1427   1.536   1.001  13.929 -1.9362  1.4483  0.5952
   93MPD2    N1 1428   2.044   1.010  14.183 -0.4196 -0.7805  0.8364
   93MPD2    H7 1429   2.011   1.040  14.275  1.8566 -2.0570  2.0688
   94TCq2    C1 1430   2.181   1.019  14.163  0.2020 -0.1060  0.2793
   94TCq2    O2 1431   2.237   1.023  14.056 -0.4663 -0.3298 -0.2005
   94TCq2    C2 1432   2.255   1.032  14.289 -0.5251 -0.0365  0.1492
   94TCq2    C3 1433   2.202   1.008  14.411 -0.1432 -0.7757  0.1482
   94TCq2    C4 1434   2.277   1.027  14.522 -0.9049  0.3064 -0.2586
   94TCq2    C5 1435   2.410   1.063  14.516 -0.5734 -0.1582 -0.0747
   94TCq2    C6 1436   2.461   1.080  14.383  0.0957  0.1504 -0.6887
   94TCq2    C7 1437   2.388   1.050  14.270 -0.0473  0.0818 -0.1026
   94TCq2    C8 1438   2.590   1.147  14.360 -0.6942  0.5064  0.3408
   94TCq2    O4 1439   2.672   1.131  14.448 -0.3241  0.5603  0.0104
   94TCq2    C9 1440   2.215   1.034  14.651 -0.1913  0.6002  0.1260
   94TCq2    O5 1441   2.090   1.047  14.656  0.4612 -0.0966  0.4999
   94TCq2    O6 1442   2.285   1.024  14.759 -0.5854 -0.1392 -0.5790
   94TCq2    H2 1443   2.096   0.991  14.427 -0.5249  0.7825 -0.7661
   94TCq2    H3 1444   2.457   1.099  14.607 -1.4874 -0.1169  0.3864
   94TCq2    H4 1445   2.431   1.033  14.172 -1.0732  0.8118 -0.6841
   95TMC2    C1 1446   2.416   2.558  16.329  0.3150 -0.3780 -0.4159
   95TMC2    C2 1447   2.391   2.429  16.281 -0.2959 -1.0052  0.5504
   95TMC2    C3 1448   2.305   2.352  16.347 -0.1440  0.1952 -0.4450
   95TMC2    C4 1449   2.347   2.604  16.439 -0.0582 -0.1527 -0.1497
   95TMC2    C5 1450   2.259   2.515  16.502  0.3774 -0.6588  0.3507
   95TMC2    C6 1451   2.238   2.387  16.460  0.0731  0.3031 -0.5556
   95TMC2     C 1452   2.490   2.645  16.234 -0.0731  0.4290 -0.4206
   95TMC2     O 1453   2.551   2.599  16.139 -0.5210 -0.0424 -0.4941
   95TMC2     H 1454   2.433   2.397  16.186  0.8961 -1.6314  1.2918
   95TMC2    H1 1455   2.382   2.691  16.492 -0.6428  1.1821 -1.9799
   95TMC2    H2 1456   2.169   2.327  16.518  1.5893 -1.8930 -1.0798
   95TMC2    C7 1457   2.161   2.580  16.589  0.3967 -0.1193  0.0029
   95TMC2    C8 1458   2.275   2.212  16.308 -0.1544 -0.7966  0.8777
   95TMC2    O1 1459   2.195   2.681  16.645  0.4035  0.0490 -0.4131
   95TMC2    O2 1460   2.254   2.137  16.399 -0.3679  0.2446  0.3358
   95TMC2    O5 1461   2.358   2.185  16.202 -0.3202  0.2643 -0.3837
   95TMC2    H5 1462   2.346   2.254  16.134  0.1031  1.9405  1.2322
   96MPD2     C 1463   2.636   3.134  16.112 -0.5068  0.3779 -0.8151
   96MPD2    C1 1464   2.653   3.016  16.041 -0.2319  0.3365 -0.0501
   96MPD2    C2 1465   2.610   2.893  16.091 -0.4903 -0.1575 -0.4719
   96MPD2    C3 1466   2.534   2.888  16.208 -0.6014  0.2483  0.6310
   96MPD2    C4 1467   2.511   3.004  16.278 -0.2736 -0.3974  0.8292
   96MPD2    C5 1468   2.566   3.119  16.230 -0.1861 -0.0654 -0.1730
   96MPD2     H 1469   2.638   2.802  16.040 -3.2422 -0.5533 -1.2765
   96MPD2    H1 1470   2.457   3.001  16.372 -3.5628 -1.8563 -1.0926
   96MPD2    H2 1471   2.664   3.233  16.078 -2.8329  1.0329 -0.8042
   96MPD2    H3 1472   2.545   3.209  16.287  1.6740  0.9428 -1.0518
   96MPD2     N 1473   2.470   2.777  16.267 -0.4122 -0.2108 -0.1216
   96MPD2    H5 1474   2.414   2.795  16.350 -0.5897 -0.5634 -0.1624
   96MPD2    N1 1475   2.716   3.025  15.916 -1.3608  0.8630  0.0063
   96MPD2    H7 1476   2.754   3.115  15.890 -1.5615  0.8171 -0.4384
   97MPD2     C 1477   0.665   0.359   1.774  0.1793 -0.3804 -0.4541
   97MPD2    C1 1478   0.563   0.270   1.769  0.1368 -0.2881  0.4482
   97MPD2    C2 1479   0.560   0.174   1.671 -0.8147 -0.1309  0.0708
   97MPD2    C3 1480   0.667   0.157   1.580  0.5481 -0.3357  0.0806
   97MPD2    C4 1481   0.770   0.251   1.587 -0.6969  0.6885  0.3324
   97MPD2    C5 1482   0.764   0.352   1.680 -0.1625  0.1755  0.9707
   97MPD2     H 1483   0.468   0.117   1.660 -1.6312  1.2946 -0.4882
   97MPD2    H1 1484   0.855   0.254   1.520 -1.0302 -1.0221 -0.1778
   97MPD2    H2 1485   0.658   0.445   1.839  0.1740 -2.0525  1.7487
   97MPD2    H3 1486   0.832   0.435   1.664  0.0857 -0.4233 -1.1207
   97MPD2     N 1487   0.654   0.064   1.473 -0.3589  0.9745  0.3789
   97MPD2    H5 1488   0.733   0.057   1.410  0.1804 -0.3547  1.2017
   97MPD2    N1 1489   0.450   0.296   1.856  0.2994  0.5771  0.0766
   97MPD2    H7 1490   0.452   0.384   1.907  1.9376  0.7895 -0.3415
   98TCq2    C1 1491   0.557   4.687   1.467  0.6428  0.3970 -0.4615
   98TCq2    O2 1492   0.493   4.648   1.562  0.8122 -0.6420  0.1467
   98TCq2    C2 1493   0.550   4.616   1.344  0.4572 -0.0956 -0.5027
   98TCq2    C3 1494   0.464   4.509   1.344  0.1171 -0.6868 -0.3497
   98TCq2    C4 1495   0.404   4.474   1.223  0.1423  0.7450 -0.1437
   98TCq2    C5 1496   0.432   4.541   1.110  0.0906 -0.8882 -0.2071
   98TCq2    C6 1497   0.516   4.649   1.117 -0.0477  0.2198  0.0459
   98TCq2    C7 1498   0.581   4.683   1.231 -0.5145  0.4580  0.2432
   98TCq2    C8 1499   0.520   0.027   1.010 -0.2742  0.1320  0.2575
   98TCq2    O4 1500   0.612   0.105   1.010  0.2089  0.0848 -0.1258
   98TCq2    C9 1501   0.307   4.372   1.222 -0.2448 -0.5108 -0.5418
   98TCq2    O5 1502   0.296   4.321   1.104 -0.3311 -0.2914 -0.2691
   98TCq2    O6 1503   0.247   4.339   1.329 -0.6259 -0.2143  0.7808
   98TCq2    H2 1504   0.437   4.459   1.436  0.0231  2.3377  1.2957
   98TCq2    H3 1505   0.382   4.516   1.017  1.4365  0.7642 -1.3579
   98TCq2    H4 1506   0.647   0.047   1.230  0.4951 -0.3229  1.2160
   99MPD2     C 1507   3.368   1.900   1.708 -0.1410  0.8707  0.1010
   99MPD2    C1 1508   3.248   1.969   1.729 -0.3658 -1.1248  0.1425
   99MPD2    C2 1509   3.183   2.005   1.615 -0.0453  0.1129  0.3768
   99MPD2    C3 1510   3.244   1.987   1.487  0.1400 -0.3529 -0.4508
   99MPD2    C4 1511   3.370   1.931   1.476 -0.1571 -0.3692 -0.5140
   99MPD2    C5 1512   3.430   1.877   1.590  0.6109 -0.8819  0.6638
   99MPD2     H 1513   3.086   2.051   1.629  1.3742  3.5331 -0.8906
   99MPD2    H1 1514   3.417   1.926   1.378 -0.2091  1.1917 -0.6164
   99MPD2    H2 1515   3.412   1.865   1.800 -1.2882 -1.6133 -0.3115
   99MPD2    H3 1516   3.528   1.830   1.591  0.1567 -1.8397  0.3908
   99MPD2     N 1517   3.161   2.018   1.374  0.0214  0.4038 -0.3947
   99MPD2    H5 1518   3.062   2.028   1.396 -0.5363 -2.2421 -1.7463
   99MPD2    N1 1519   3.197   1.996   1.859  0.3746 -0.2719 -0.1302
   99MPD2    H7 1520   3.103   2.034   1.865  0.6456  0.4864 -0.6753
  100TCq2    C1 1521   3.251   1.989   1.982  0.1540  0.4079 -0.2032
  100TCq2    O2 1522   3.366   1.957   2.006  0.2759  0.2064 -0.4633
  100TCq2    C2 1523   3.161   2.038   2.084 -0.3246 -0.1525  0.4047
  100TCq2    C3 1524   3.228   2.115   2.182 -1.0514  0.2577 -0.2399
  100TCq2    C4 1525   3.155   2.166   2.276  0.1441 -0.2723 -0.3712
  100TCq2    C5 1526   3.021   2.174   2.272 -0.4490  0.1554 -0.5541
  100TCq2    C6 1527   2.961   2.089   2.176  0.2496  0.6034 -0.2292
  100TCq2    C7 1528   3.028   2.014   2.090  0.2489  0.4384 -0.6641
  100TCq2    C8 1529   2.816   2.076   2.185  0.7418  0.6847  0.2738
  100TCq2    O4 1530   2.765   2.142   2.274 -0.2908 -0.5585 -0.0917
  100TCq2    C9 1531   3.216   2.227   2.388 -0.4009  0.4599 -0.6558
  100TCq2    O5 1532   3.148   2.319   2.445 -0.5641  0.2689 -0.2429
  100TCq2    O6 1533   3.335   2.195   2.415 -0.0394 -0.3814  1.0635
  100TCq2    H2 1534   3.337   2.119   2.185 -1.0387  0.5842 -1.3585
  100TCq2    H3 1535   2.965   2.227   2.349  0.0779 -0.0710 -0.0145
  100TCq2    H4 1536   2.988   1.960   2.005  3.2240 -0.3876 -1.5586
  101MPD2     C 1537   4.182   3.331  13.103 -0.5075 -0.0424 -0.3972
  101MPD2    C1 1538   4.110   3.446  13.138  0.2030  0.5587 -0.5670
  101MPD2    C2 1539   3.989   3.435  13.215  0.0270 -0.1269 -0.0526
  101MPD2    C3 1540   3.941   3.305  13.247  0.6528 -0.1498 -0.7860
  101MPD2    C4 1541   4.018   3.192  13.205  0.9717 -0.4758 -0.8180
  101MPD2    C5 1542   4.140   3.206  13.139  0.1269 -0.0775 -0.0547
  101MPD2     H 1543   3.929   3.520  13.245 -2.9886 -1.6455 -1.8266
  101MPD2    H1 1544   3.982   3.092  13.228 -0.8896  0.6888  1.4627
  101MPD2    H2 1545   4.276   3.340  13.051  1.3248 -3.0219  2.3670
  101MPD2    H3 1546   4.207   3.127  13.108  1.1454  0.8543 -0.2382
  101MPD2     N 1547   3.828   3.290  13.330 -0.3419 -0.1404 -0.7766
  101MPD2    H5 1548   3.807   3.374  13.383  1.0645 -0.5735  0.4668
  101MPD2    N1 1549   4.149   3.562  13.071 -0.1026  0.0915 -0.1845
  101MPD2    H7 1550   4.230   3.559  13.009  0.0662 -1.2021  0.0989
  102TCq2    C1 1551   4.314   3.865  12.687  0.3519 -0.5017  0.2818
  102TCq2    O2 1552   4.299   3.757  12.641  0.5447  0.7625  0.7117
  102TCq2    C2 1553   4.259   3.887  12.823 -0.8319 -0.0031  0.1689
  102TCq2    C3 1554   4.207   4.010  12.854 -0.2922 -0.2257  0.4279
  102TCq2    C4 1555   4.105   4.012  12.946 -0.5404  0.3818  0.0390
  102TCq2    C5 1556   4.059   3.901  13.015  0.1978  0.2453 -0.0329
  102TCq2    C6 1557   4.122   3.784  12.987 -0.6283 -0.3196 -0.2315
  102TCq2    C7 1558   4.216   3.773  12.886  0.5761  0.4865  0.1094
  102TCq2    C8 1559   4.092   3.683  13.088  0.6345 -0.2285  0.1465
  102TCq2    O4 1560   4.016   3.723  13.175  0.2456 -0.3506  0.1758
  102TCq2    C9 1561   4.046   4.144  12.985 -0.3250 -0.3879  0.2519
  102TCq2    O5 1562   3.928   4.131  13.032  0.6575  0.3316 -0.2880
  102TCq2    O6 1563   4.071   4.234  12.903 -0.3200  0.8566  0.8140
  102TCq2    H2 1564   4.244   4.098  12.802  2.2097 -2.9910 -2.5450
  102TCq2    H3 1565   3.979   3.910  13.087  1.6740 -0.9957  1.7556
  102TCq2    H4 1566   4.248   3.674  12.853 -1.2334  0.0128 -0.2127
  103TMC2    C1 1567   2.410   3.466  12.484  0.0478  0.1654  0.1011
  103TMC2    C2 1568   2.544   3.480  12.499  0.5613  0.0111  0.2648
  103TMC2    C3 1569   2.586   3.461  12.628 -0.1753  0.2307  0.3713
  103TMC2    C4 1570   2.329   3.427  12.585  0.4781 -0.0448 -0.9024
  103TMC2    C5 1571   2.377   3.401  12.711 -0.1995 -0.3930  0.4600
  103TMC2    C6 1572   2.507   3.423  12.733 -0.7408 -0.7182  0.2090
  103TMC2     C 1573   2.350   3.464  12.348  0.1468 -0.0212  0.2223
  103TMC2     O 1574   2.232   3.483  12.350 -0.2823 -0.3452  0.1593
  103TMC2     H 1575   2.609   3.514  12.420  1.5483 -0.0008  1.0810
  103TMC2    H1 1576   2.226   3.404  12.559 -0.0101  1.7858 -0.6114
  103TMC2    H2 1577   2.555   3.415  12.830  0.1081  1.4325 -0.0335
  103TMC2    C7 1578   2.282   3.368  12.820 -0.0839  0.7947 -1.0029
  103TMC2    C8 1579   2.715   3.519  12.668  0.8741  0.1723  0.4202
  103TMC2    O1 1580   2.318   3.404  12.933 -0.3553 -0.4568  0.2955
  103TMC2    O2 1581   2.776   3.499  12.773 -0.4930  0.5707 -0.1207
  103TMC2    O5 1582   2.724   3.633  12.598  0.2863 -0.4885  0.3559
  103TMC2    H5 1583   2.641   3.631  12.545 -0.7293 -1.9945  1.9749
  104MPD2     C 1584   2.483   3.271  12.075 -0.1470  0.3610  0.0182
  104MPD2    C1 1585   2.399   3.364  12.131  0.8253  0.0858 -0.4251
  104MPD2    C2 1586   2.279   3.399  12.066  0.1713  0.1289  0.7440
  104MPD2    C3 1587   2.246   3.337  11.945  0.2843 -0.1604  0.1811
  104MPD2    C4 1588   2.334   3.247  11.889  0.6550 -0.5766 -0.4258
  104MPD2    C5 1589   2.451   3.212  11.956 -0.5763  0.0465  0.1621
  104MPD2     H 1590   2.203   3.468  12.102  0.5612 -0.0509  1.9236
  104MPD2    H1 1591   2.325   3.199  11.792 -0.2387  0.2780 -0.7607
  104MPD2    H2 1592   2.575   3.243  12.126 -0.4343 -1.2204 -0.3164
  104MPD2    H3 1593   2.513   3.136  11.911 -1.6328  0.6574 -2.3231
  104MPD2     N 1594   2.129   3.373  11.877 -0.1067 -0.7181 -0.1638
  104MPD2    H5 1595   2.060   3.431  11.925  0.9549 -0.7503  1.4059
  104MPD2    N1 1596   2.446   3.420  12.255 -0.0026  0.0329 -0.2998
  104MPD2    H7 1597   2.543   3.409  12.281  0.3472  0.0813 -1.5644
  105MPD2     C 1598   4.019   2.650   0.233  0.1313  0.5444  0.4453
  105MPD2    C1 1599   3.890   2.699   0.233 -0.1016 -0.2935  0.4655
  105MPD2    C2 1600   3.820   2.716   0.351  0.2872 -0.6820  0.3029
  105MPD2    C3 1601   3.883   2.695   0.473  0.1633 -0.2780  0.0840
  105MPD2    C4 1602   4.012   2.643   0.478 -1.1037 -0.2483 -0.0250
  105MPD2    C5 1603   4.073   2.616   0.355 -0.6106  0.3034 -0.3786
  105MPD2     H 1604   3.716   2.746   0.342  0.2964 -1.3340 -1.8985
  105MPD2    H1 1605   4.071   2.613   0.563  0.5283  1.6337 -0.4864
  105MPD2    H2 1606   4.075   2.617   0.146 -1.2714 -0.7021  0.0210
  105MPD2    H3 1607   4.174   2.576   0.359  0.1892  2.3149 -0.4517
  105MPD2     N 1608   3.809   2.729   0.588 -0.2527  0.1992  0.6236
  105MPD2    H5 1609   3.711   2.747   0.569  0.2170  0.3417 -1.7140
  105MPD2    N1 1610   3.818   2.718   0.110 -0.3459 -0.1491  0.0849
  105MPD2    H7 1611   3.727   2.762   0.114 -0.6326 -0.8343  0.9778
  106TCq2    C1 1612   3.872   2.764   0.706  0.0960 -0.4815 -0.0185
  106TCq2    O2 1613   3.989   2.760   0.735  0.3774  0.1280 -0.6442
  106TCq2    C2 1614   3.782   2.817   0.805 -0.7232 -0.6145  0.1190
  106TCq2    C3 1615   3.840   2.894   0.908 -0.1729 -0.0469 -0.1181
  106TCq2    C4 1616   3.766   2.915   1.020 -0.7984 -0.5337  0.5234
  106TCq2    C5 1617   3.643   2.857   1.035 -0.5738 -0.7472 -0.4311
  106TCq2    C6 1618   3.596   2.770   0.942 -0.5656  0.8756 -0.2204
  106TCq2    C7 1619   3.661   2.756   0.817 -0.9641 -0.1992  0.4516
  106TCq2    C8 1620   3.482   2.678   0.967  0.9999 -0.0327  0.3317
  106TCq2    O4 1621   3.459   2.586   0.890  0.1953  0.3847  0.2540
  106TCq2    C9 1622   3.816   3.024   1.113  0.1235  0.1547 -0.5982
  106TCq2    O5 1623   3.930   3.077   1.091  0.1023 -0.0908  0.4244
  106TCq2    O6 1624   3.742   3.059   1.209  0.4010 -0.8137  0.4936
  106TCq2    H2 1625   3.939   2.935   0.891 -0.7796  1.6641  0.4501
  106TCq2    H3 1626   3.584   2.881   1.123 -0.1212  1.4209 -0.7144
  106TCq2    H4 1627   3.638   2.674   0.750  2.4741  0.4521 -1.5038
  107TMC2    C1 1628   4.470   2.328  11.620  0.1757  0.4675  0.0103
  107TMC2    C2 1629   4.423   2.429  11.539 -0.3070  0.0390  0.3064
  107TMC2    C3 1630   4.461   2.433  11.403  0.3577  0.3174 -0.6386
  107TMC2    C4 1631   4.564   2.239  11.578 -0.0127 -0.5730  0.1055
  107TMC2    C5 1632   4.599   2.259  11.444  0.8022  0.1844 -0.9595
  107TMC2    C6 1633   4.560   2.358  11.355  0.2382 -0.6231 -0.4750
  107TMC2     C 1634   4.407   2.317  11.746 -0.1922 -0.1744  0.3663
  107TMC2     O 1635   4.375   2.413  11.812 -0.1735  0.4034 -0.3352
  107TMC2     H 1636   4.342   2.493  11.576  0.3930  0.9551  0.2576
  107TMC2    H1 1637   4.605   2.170  11.652  0.2804 -1.1070 -0.5526
  107TMC2    H2 1638   4.611   2.385  11.263 -1.6300  0.2749 -1.2448
  107TMC2    C7 1639   4.717   2.191  11.398  0.3647 -0.2245 -0.3845
  107TMC2    C8 1640   4.452   2.559  11.340 -0.5266  0.1133  0.4396
  107TMC2    O1 1641   0.068   2.257  11.326  0.3491 -0.0581  0.0132
  107TMC2    O2 1642   4.474   2.561  11.220 -0.1199  0.4259  0.2436
  107TMC2    O5 1643   4.471   2.664  11.418  0.1633  0.2456 -0.8647
  107TMC2    H5 1644   4.473   2.631  11.511 -0.1025 -0.0864 -0.9767
  108MPD2     C 1645   4.362   2.001  11.917  0.2803 -0.1779 -0.0476
  108MPD2    C1 1646   4.341   2.136  11.899 -0.5634 -0.4011  0.3341
  108MPD2    C2 1647   4.277   2.203  12.001  0.2874  0.5186 -0.5567
  108MPD2    C3 1648   4.240   2.141  12.118  0.3917 -0.7254  0.5316
  108MPD2    C4 1649   4.266   2.006  12.135 -0.0163  0.5318  0.3427
  108MPD2    C5 1650   4.327   1.939  12.034 -0.1416  0.9467 -0.8150
  108MPD2     H 1651   4.259   2.309  11.990 -1.1042  0.5160  1.5919
  108MPD2    H1 1652   4.254   1.956  12.231 -0.2340 -0.1570 -0.0455
  108MPD2    H2 1653   4.408   1.941  11.840  0.0231 -1.1691  0.5709
  108MPD2    H3 1654   4.342   1.832  12.040  0.4576  1.0916  0.1197
  108MPD2     N 1655   4.168   2.206  12.233 -0.5720 -0.6814 -0.3139
  108MPD2    H5 1656   4.142   2.152  12.315  1.5300 -1.6773 -0.3179
  108MPD2    N1 1657   4.389   2.184  11.777  0.1233 -0.7676 -0.5404
  108MPD2    H7 1658   4.413   2.114  11.708  0.9206 -0.9607 -0.0607
  109MPD2     C 1659   0.175   3.496   2.489  0.4375 -0.2319  0.1892
  109MPD2    C1 1660   0.082   3.525   2.392 -0.2313 -1.0594  0.0303
  109MPD2    C2 1661   0.034   3.659   2.389  0.3011 -0.2765 -0.9882
  109MPD2    C3 1662   0.074   3.751   2.484 -0.0457  0.4164 -0.5685
  109MPD2    C4 1663   0.178   3.720   2.571 -0.1508  0.4585 -0.4420
  109MPD2    C5 1664   0.236   3.594   2.569 -0.3355 -0.0988  0.0168
  109MPD2     H 1665   4.671   3.694   2.331  1.4257  1.5498 -1.4987
  109MPD2    H1 1666   0.226   3.792   2.637 -0.7334  0.4034  0.0397
  109MPD2    H2 1667   0.211   3.394   2.490  0.4223 -0.2140  2.7846
  109MPD2    H3 1668   0.317   3.561   2.633 -0.3414  2.0410  1.1068
  109MPD2     N 1669   4.721   3.865   2.507  0.4188 -0.6373 -0.4137
  109MPD2    H5 1670   4.639   3.873   2.447  1.0433  1.2121 -1.0184
  109MPD2    N1 1671   0.035   3.425   2.307  0.5033  0.9545  0.2015
  109MPD2    H7 1672   0.047   3.328   2.337 -0.4748  1.0923  1.0482
  110TCq2    C1 1673   0.035   3.974   2.584 -0.8413  0.6887 -0.2061
  110TCq2    O2 1674   0.150   3.999   2.612  0.1837 -0.3278 -0.1811
  110TCq2    C2 1675   4.661   4.081   2.586  0.2441 -0.7903  0.0907
  110TCq2    C3 1676   4.528   4.046   2.578 -0.9143 -0.2225  0.1432
  110TCq2    C4 1677   4.433   4.146   2.552  0.1058 -0.4121  0.4918
  110TCq2    C5 1678   4.470   4.277   2.544 -0.7937 -0.1287 -0.3251
  110TCq2    C6 1679   4.604   4.314   2.566 -0.6644  0.1000 -0.1217
  110TCq2    C7 1680   4.699   4.215   2.585 -0.3010  0.1864 -0.8103
  110TCq2    C8 1681   4.648   4.453   2.543  0.2139 -0.0424  0.1204
  110TCq2    O4 1682   0.037   4.474   2.491  0.7084  0.4640  0.1707
  110TCq2    C9 1683   4.290   4.129   2.545  0.8227 -0.5008  0.3868
  110TCq2    O5 1684   4.218   4.234   2.562  0.0994  0.0618  0.1285
  110TCq2    O6 1685   4.245   4.013   2.566 -0.1643  0.4332  0.0205
  110TCq2    H2 1686   4.499   3.942   2.589 -0.7362 -0.2209  0.6366
  110TCq2    H3 1687   4.404   4.359   2.517 -0.7442  0.4946  1.4043
  110TCq2    H4 1688   0.084   4.236   2.594 -0.5656  1.2585 -0.1881
  111TMC2    C1 1689   4.281   3.804  11.672 -0.0379  0.2412  0.0268
  111TMC2    C2 1690   4.211   3.759  11.779  0.8148  0.0514  0.1314
  111TMC2    C3 1691   4.276   3.756  11.897 -0.5042  0.0093  0.3578
  111TMC2    C4 1692   4.412   3.828  11.679 -0.0734  0.6675  0.2255
  111TMC2    C5 1693   4.480   3.812  11.797  0.0251 -0.5444  0.4081
  111TMC2    C6 1694   4.407   3.787  11.904  0.2931 -0.3942 -0.2215
  111TMC2     C 1695   4.215   3.840  11.548 -0.2938  0.3694 -0.0781
  111TMC2     O 1696   4.280   3.859  11.445  0.4918 -0.6574  0.4901
  111TMC2     H 1697   4.105   3.736  11.767  0.9400 -0.8416  0.7561
  111TMC2    H1 1698   4.465   3.873  11.595  1.4803 -1.9499 -0.2019
  111TMC2    H2 1699   4.459   3.785  12.000  0.4339 -2.0472 -0.3354
  111TMC2    C7 1700   4.588   3.906  11.821 -0.1816  0.1664  0.6022
  111TMC2    C8 1701   4.201   3.708  12.010 -0.3639 -0.5464  0.0989
  111TMC2    O1 1702   4.691   3.863  11.867 -0.2892  0.3301  0.9084
  111TMC2    O2 1703   4.084   3.729  12.036 -0.0384 -0.3145  0.2397
  111TMC2    O5 1704   4.266   3.591  12.041  0.0752 -0.1888  0.3783
  111TMC2    H5 1705   4.351   3.565  11.999  1.1710 -1.1805  3.2204
  112MPD2     C 1706   3.801   3.974  11.279 -0.9618 -0.1548  0.2373
  112MPD2    C1 1707   3.922   3.943  11.239  0.0033 -0.5981  0.3352
  112MPD2    C2 1708   4.017   3.918  11.335  0.0934 -0.2079 -0.7414
  112MPD2    C3 1709   3.987   3.909  11.469 -0.8598  0.1860 -0.9598
  112MPD2    C4 1710   3.857   3.939  11.511 -0.7903  0.6235  0.0263
  112MPD2    C5 1711   3.769   3.978  11.412  0.1533  0.6383  0.1338
  112MPD2     H 1712   4.112   3.889  11.291  1.0583 -2.8778  3.1366
  112MPD2    H1 1713   3.829   3.934  11.615 -1.2589 -0.9221 -0.1764
  112MPD2    H2 1714   3.718   4.001  11.214 -0.0907  3.2812  0.5973
  112MPD2    H3 1715   3.667   4.005  11.438 -0.7328 -0.5974 -2.1037
  112MPD2     N 1716   4.074   3.851  11.564 -0.1088  0.6370  0.4849
  112MPD2    H5 1717   4.041   3.855  11.660  0.9950  1.6082  0.8264
  112MPD2    N1 1718   3.953   3.929  11.103 -0.0445 -0.4936  0.3388
  112MPD2    H7 1719   4.041   3.888  11.074 -0.6888  0.3152 -2.7953
  113MPD2     C 1720   2.345   2.122   1.088 -0.4576 -0.1186 -0.5921
  113MPD2    C1 1721   2.242   2.205   1.091 -0.5047  0.3513  0.3923
  113MPD2    C2 1722   2.124   2.176   1.030  0.1006 -0.0359 -0.0744
  113MPD2    C3 1723   2.112   2.061   0.955  0.4670 -0.0109  0.3800
  113MPD2    C4 1724   2.224   1.977   0.944  0.0605 -0.2605  0.1610
  113MPD2    C5 1725   2.342   2.007   1.018 -0.2429  0.0147  0.0995
  113MPD2     H 1726   2.046   2.250   1.040 -1.2517 -1.5233  0.3236
  113MPD2    H1 1727   2.230   1.883   0.891  0.4114  0.2322 -0.6706
  113MPD2    H2 1728   2.439   2.137   1.139  1.0689 -2.6036 -2.6504
  113MPD2    H3 1729   2.424   1.937   1.021  1.3516  1.8681 -0.6955
  113MPD2     N 1730   1.996   2.022   0.887 -0.4907  0.1023  0.0863
  113MPD2    H5 1731   1.987   1.925   0.858 -1.2319  0.3224 -0.4095
  113MPD2    N1 1732   2.242   2.336   1.147  0.4196 -0.2309  0.3182
  113MPD2    H7 1733   2.151   2.381   1.149  1.3076  1.6063 -0.5733
  114TCq2    C1 1734   1.899   2.109   0.844  0.5659  0.1357  0.1535
  114TCq2    O2 1735   1.881   2.225   0.883 -0.1481 -0.5241 -0.0687
  114TCq2    C2 1736   1.772   2.059   0.791 -0.0265  0.1550 -0.5715
  114TCq2    C3 1737   1.686   2.141   0.731  0.1386 -0.1737 -0.4084
  114TCq2    C4 1738   1.565   2.094   0.684 -0.0721  0.3557  0.2606
  114TCq2    C5 1739   1.527   1.964   0.723 -0.3317 -0.0868  0.1807
  114TCq2    C6 1740   1.623   1.885   0.785 -0.2251  0.3066  1.0112
  114TCq2    C7 1741   1.745   1.928   0.825  0.0674  0.0986 -0.3423
  114TCq2    C8 1742   1.579   1.740   0.811 -0.0684  0.6085 -0.2758
  114TCq2    O4 1743   1.467   1.695   0.799  0.2047 -0.2183 -0.0751
  114TCq2    C9 1744   1.463   2.187   0.633  0.1313  0.6644 -0.7139
  114TCq2    O5 1745   1.482   2.315   0.642 -0.0360 -0.3271  0.4136
  114TCq2    O6 1746   1.368   2.133   0.575 -0.3665 -0.3257 -0.2996
  114TCq2    H2 1747   1.718   2.242   0.706 -0.0758 -0.0890 -0.3458
  114TCq2    H3 1748   1.432   1.922   0.691 -0.9077  0.5661  1.0507
  114TCq2    H4 1749   1.801   1.864   0.893 -1.1102  2.4458  2.8526
  115TMC2    C1 1750   3.213   0.015   0.375 -0.3292 -0.0464 -0.0659
  115TMC2    C2 1751   3.347   0.009   0.348  0.4118  0.1234 -0.6065
  115TMC2    C3 1752   3.416   0.130   0.327 -0.3435  0.0021  0.0757
  115TMC2    C4 1753   3.147   0.139   0.379 -0.4338  0.0216  0.0842
  115TMC2    C5 1754   3.220   0.254   0.358 -0.0501  0.7217 -0.0956
  115TMC2    C6 1755   3.354   0.252   0.332 -0.2426 -0.2163 -0.5314
  115TMC2     C 1756   3.130   4.614   0.389  0.2279  0.0265 -0.5460
  115TMC2     O 1757   3.167   4.513   0.331 -0.1839  0.4612  0.6306
  115TMC2     H 1758   3.391   4.633   0.332 -0.3392 -0.6919  2.3278
  115TMC2    H1 1759   3.039   0.151   0.387 -0.3537  1.6875 -1.2871
  115TMC2    H2 1760   3.404   0.349   0.325  1.1842 -0.6691  3.2110
  115TMC2    C7 1761   3.140   0.376   0.330 -0.3246 -0.6886  0.1799
  115TMC2    C8 1762   3.559   0.136   0.311  0.1956  0.1025  0.9518
  115TMC2    O1 1763   3.037   0.391   0.394 -0.3271 -0.2237 -0.1250
  115TMC2    O2 1764   3.630   0.232   0.295  0.1163 -0.0065 -0.0013
  115TMC2    O5 1765   3.609   0.013   0.355 -0.0720  0.0796  0.0693
  115TMC2    H5 1766   3.544   4.675   0.397 -1.0199  0.1930 -1.2533
  116MPD2     C 1767   2.687   4.380   0.505 -0.1916  0.9287 -0.1783
  116MPD2    C1 1768   2.779   4.352   0.408  0.3750 -0.0577 -0.8642
  116MPD2    C2 1769   2.897   4.427   0.401  0.8863  0.2206  0.2107
  116MPD2    C3 1770   2.906   4.543   0.472  0.0789 -0.4575 -0.1673
  116MPD2    C4 1771   2.805   4.571   0.559  0.2658  0.1311 -0.3707
  116MPD2    C5 1772   2.702   4.483   0.584 -0.0969 -0.9188 -0.5304
  116MPD2     H 1773   2.966   4.412   0.319 -0.6627 -0.7555 -0.9187
  116MPD2    H1 1774   2.820   4.660   0.618  1.2571  0.8408 -1.6856
  116MPD2    H2 1775   2.601   4.316   0.521  0.0479  0.8427  0.7850
  116MPD2    H3 1776   2.634   4.514   0.663 -0.3078  1.1630 -1.5437
  116MPD2     N 1777   3.014   4.638   0.460  0.1361 -0.0352  0.2119
  116MPD2    H5 1778   3.006   0.000   0.517 -0.8709 -0.5856  0.8829
  116MPD2    N1 1779   2.747   4.248   0.321 -0.1645 -0.0286 -1.2845
  116MPD2    H7 1780   2.652   4.210   0.326 -0.2120  0.3813  0.9718
  117TMC2    C1 1781   1.467   1.283  14.526 -0.2966 -0.0477 -0.2639
  117TMC2    C2 1782   1.449   1.307  14.655 -0.3987 -0.1090  0.1903
  117TMC2    C3 1783   1.534   1.385  14.730  0.0633  0.0542 -0.2982
  117TMC2    C4 1784   1.569   1.353  14.462 -0.3676 -0.0749  0.3693
  117TMC2    C5 1785   1.649   1.442  14.531 -0.0911  0.0450 -0.2839
  117TMC2    C6 1786   1.640   1.450  14.670  0.5472 -0.1652 -0.6692
  117TMC2     C 1787   1.345   1.256  14.461  0.0599  0.5678 -0.4651
  117TMC2     O 1788   1.285   1.156  14.489  0.2147 -0.2811  0.3130
  117TMC2     H 1789   1.371   1.259  14.712 -0.4946  0.7666  0.7922
  117TMC2    H1 1790   1.574   1.344  14.354  0.5533 -1.4246  0.5261
  117TMC2    H2 1791   1.705   1.515  14.727  1.2324  0.3349 -2.0183
  117TMC2    C7 1792   1.723   1.533  14.454  0.2365  0.1594 -0.4795
  117TMC2    C8 1793   1.515   1.377  14.876 -0.9123  0.4906 -0.1514
  117TMC2    O1 1794   1.690   1.556  14.341  0.5464  0.2118 -0.0824
  117TMC2    O2 1795   1.409   1.396  14.928  0.3028  0.2726 -0.1069
  117TMC2    O5 1796   1.629   1.430  14.935  0.5617 -0.2680 -0.4740
  117TMC2    H5 1797   1.705   1.378  14.901  0.9189  0.0396 -0.1433
  118MPD2     C 1798   2.042   1.680  14.545  0.4120 -0.1500  0.2063
  118MPD2    C1 1799   1.927   1.666  14.469  0.2448  0.2321  0.2674
  118MPD2    C2 1800   1.925   1.730  14.345  0.5905 -0.1821 -0.6138
  118MPD2    C3 1801   2.025   1.819  14.311  0.1579 -0.1855  0.0305
  118MPD2    C4 1802   2.141   1.831  14.391  0.4129  0.0327 -0.5003
  118MPD2    C5 1803   2.146   1.761  14.504  0.2984  0.5973  0.0169
  118MPD2     H 1804   1.847   1.706  14.274  0.0704  0.2864 -0.1957
  118MPD2    H1 1805   2.228   1.891  14.364  0.2619  0.3225 -0.3456
  118MPD2    H2 1806   2.061   1.622  14.634  0.6967 -2.5280 -1.4163
  118MPD2    H3 1807   2.236   1.749  14.564 -0.2323 -0.8282  0.5346
  118MPD2     N 1808   2.025   1.890  14.190  0.1438  0.2142  0.1392
  118MPD2    H5 1809   2.102   1.951  14.162 -0.7721  1.1443 -0.3658
  118MPD2    N1 1810   1.834   1.573  14.518 -0.2410  0.6543 -0.3834
  118MPD2    H7 1811   1.856   1.534  14.609 -3.2925 -2.3497 -0.9332
  119MPD2     C 1812   0.384   2.762  13.629 -0.0186 -0.1625  0.7619
  119MPD2    C1 1813   0.274   2.810  13.699 -0.7407  0.3322 -0.3827
  119MPD2    C2 1814   0.185   2.893  13.636 -0.2956  0.4096 -0.2194
  119MPD2    C3 1815   0.207   2.927  13.508  0.1321  0.3208 -0.2210
  119MPD2    C4 1816   0.314   2.875  13.433  0.5186 -0.3425 -0.0888
  119MPD2    C5 1817   0.406   2.798  13.496  0.2693 -0.1941 -0.1631
  119MPD2     H 1818   0.091   2.904  13.689 -0.9879 -0.9854 -1.1748
  119MPD2    H1 1819   0.325   2.888  13.326 -0.7857  0.7456 -0.0828
  119MPD2    H2 1820   0.451   2.685  13.666  0.0921 -0.6287 -0.4196
  119MPD2    H3 1821   0.494   2.758  13.446  0.5216  1.4480 -1.0161
  119MPD2     N 1822   0.102   2.988  13.432  0.3965  0.4842 -0.2265
  119MPD2    H5 1823   0.124   3.005  13.335  0.6934  1.7842  0.0709
  119MPD2    N1 1824   0.257   2.756  13.828 -0.4377  0.1450 -0.7850
  119MPD2    H7 1825   0.331   2.691  13.852  0.6713  1.2149 -1.3441
  120TCq2    C1 1826   4.710   3.030  13.481 -0.0890 -0.7055  0.1139
  120TCq2    O2 1827   4.671   3.028  13.597  0.0370  0.0424  1.0619
  120TCq2    C2 1828   4.613   3.067  13.382  0.7052  0.9369  0.2428
  120TCq2    C3 1829   4.645   3.086  13.251  0.7917 -0.6356 -0.2654
  120TCq2    C4 1830   4.553   3.065  13.158  0.1399  0.0504  0.1002
  120TCq2    C5 1831   4.433   3.015  13.192  0.1501 -1.0174  0.2077
  120TCq2    C6 1832   4.397   3.017  13.326 -0.3895  0.3912 -0.0561
  120TCq2    C7 1833   4.484   3.034  13.425  0.4774 -0.0935 -0.1194
  120TCq2    C8 1834   4.282   2.937  13.349 -0.4932  0.3617  0.3117
  120TCq2    O4 1835   4.208   2.915  13.259 -0.0218 -0.2501  0.3162
  120TCq2    C9 1836   4.578   3.088  13.020  0.2284  0.7006 -0.1973
  120TCq2    O5 1837   4.504   3.023  12.940  0.1725 -0.1041  0.1176
  120TCq2    O6 1838   4.677   3.148  12.979  0.0929  0.2117  0.1671
  120TCq2    H2 1839   0.024   3.111  13.219  0.7648 -0.0253  0.1307
  120TCq2    H3 1840   4.360   2.989  13.116  0.2209 -2.8134  0.7584
  120TCq2    H4 1841   4.459   3.030  13.531 -0.2739  0.1547 -0.2879
  121TMC2    C1 1842   1.826   4.489  14.345  0.8095 -0.8328 -0.7503
  121TMC2    C2 1843   1.775   4.494  14.470 -0.9609  0.0469  0.2260
  121TMC2    C3 1844   1.640   4.494  14.479 -0.1583 -0.1523 -0.1624
  121TMC2    C4 1845   1.755   4.463  14.229 -0.9765 -0.2562  0.1979
  121TMC2    C5 1846   1.622   4.484  14.247 -0.2388  0.0835  0.1897
  121TMC2    C6 1847   1.558   4.489  14.373 -0.1036 -1.0862  0.2022
  121TMC2     C 1848   1.953   4.554  14.329 -0.3851  0.5096 -0.0804
  121TMC2     O 1849   2.033   4.531  14.418 -0.6153 -0.4797  0.1201
  121TMC2     H 1850   1.847   4.508  14.550  0.8227 -0.8649 -1.1953
  121TMC2    H1 1851   1.809   4.470  14.135 -1.4664 -1.1706 -0.1428
  121TMC2    H2 1852   1.451   4.503  14.381 -0.0596  0.0408 -1.1624
  121TMC2    C7 1853   1.550   4.460  14.126  0.6153 -0.0475 -0.2439
  121TMC2    C8 1854   1.593   4.572  14.586 -0.1358  0.4608  0.0424
  121TMC2    O1 1855   1.608   4.410  14.030  0.5720 -0.1595 -0.1064
  121TMC2    O2 1856   1.661   4.662  14.634 -0.0619 -0.4601 -0.4310
  121TMC2    O5 1857   1.461   4.546  14.612  0.8034 -0.3645  0.6964
  121TMC2    H5 1858   1.439   4.451  14.599  0.0366  0.3121 -3.0067
  122MPD2     C 1859   2.210   4.599  14.183  0.1520 -0.3512 -0.6154
  122MPD2    C1 1860   2.088   4.650  14.137  0.1706 -0.4223 -0.0076
  122MPD2    C2 1861   2.083   4.717  14.018  0.2560 -0.0570 -0.0068
  122MPD2    C3 1862   2.204   0.009  13.943  0.8716  0.0461  0.2327
  122MPD2    C4 1863   2.313   4.664  13.981  0.3310  0.1127  0.6141
  122MPD2    C5 1864   2.320   4.625  14.110 -0.1616  0.5736 -0.0968
  122MPD2     H 1865   1.990   0.041  13.986  1.5275  1.8646 -0.9818
  122MPD2    H1 1866   2.406   4.684  13.929  0.1715  0.5376  0.4949
  122MPD2    H2 1867   2.222   4.548  14.278  0.7444  1.0883  0.0852
  122MPD2    H3 1868   2.415   4.587  14.148  0.1401 -0.8861 -2.3591
  122MPD2     N 1869   2.222   0.099  13.835  0.4373 -0.0616 -0.5291
  122MPD2    H5 1870   2.304   0.077  13.780  0.2583  1.4609 -1.4064
  122MPD2    N1 1871   1.968   4.632  14.209  0.9341  0.2448  0.4185
  122MPD2    H7 1872   1.881   4.657  14.164  2.2629  2.0359 -1.1575
  123MPD2     C 1873   3.980   2.081  10.175 -0.0433 -0.1081  0.2821
  123MPD2    C1 1874   3.997   2.127  10.048  0.6043 -0.3058 -0.9731
  123MPD2    C2 1875   3.907   2.087   9.946 -0.6116 -0.9801 -1.0297
  123MPD2    C3 1876   3.808   1.999   9.978  0.1455  0.6381 -0.5340
  123MPD2    C4 1877   3.796   1.945  10.105  0.6827 -0.4278 -0.9108
  123MPD2    C5 1878   3.885   1.988  10.201 -0.5792 -0.3295  0.3898
  123MPD2     H 1879   3.910   2.133   9.848  0.0203  0.3430 -0.3850
  123MPD2    H1 1880   3.714   1.877  10.127  1.3500 -1.0295 -0.2825
  123MPD2    H2 1881   4.052   2.105  10.253 -0.1929  2.0235 -0.2381
  123MPD2    H3 1882   3.889   1.946  10.301 -3.2726 -0.2019  0.5463
  123MPD2     N 1883   3.721   1.968   9.876  0.1265  0.2143  0.8603
  123MPD2    H5 1884   3.725   2.024   9.791 -3.2379 -1.3964 -0.3479
  123MPD2    N1 1885   4.104   2.214  10.025  0.1349  0.2644  0.3617
  123MPD2    H7 1886   4.161   2.246  10.102 -1.4389  0.6530  1.3724
  124TCq2    C1 1887   3.618   1.876   9.891  0.9332 -0.2467  0.0087
  124TCq2    O2 1888   3.625   1.774   9.962  0.0647  0.1928  0.0956
  124TCq2    C2 1889   3.530   1.876   9.774 -0.4261  0.0069  0.4147
  124TCq2    C3 1890   3.516   1.983   9.694 -0.1094  0.2788  1.4313
  124TCq2    C4 1891   3.452   1.961   9.580 -0.4663  0.4854 -0.2112
  124TCq2    C5 1892   3.383   1.845   9.547 -0.2961  0.3670 -0.9733
  124TCq2    C6 1893   3.415   1.738   9.628 -0.3969 -0.1474  0.9269
  124TCq2    C7 1894   3.483   1.752   9.741 -0.6342 -0.5090  0.9885
  124TCq2    C8 1895   3.351   1.607   9.600  0.0873 -0.1583  0.0574
  124TCq2    O4 1896   3.405   1.509   9.651 -0.0166  0.0715 -0.2586
  124TCq2    C9 1897   3.425   2.073   9.493  0.0441  0.0258  0.1886
  124TCq2    O5 1898   3.465   2.183   9.534  0.0454 -0.1205  0.4674
  124TCq2    O6 1899   3.357   2.053   9.385 -0.1472  0.8820 -0.5926
  124TCq2    H2 1900   3.557   2.083   9.702  0.1919  0.1695  1.2458
  124TCq2    H3 1901   3.351   1.836   9.443 -1.0275  2.8301 -0.9369
  124TCq2    H4 1902   3.506   1.662   9.797  1.2357 -1.0305 -0.6035
  125TMC2    C1 1903   3.237   3.971   8.813 -0.4324  0.2698  0.1577
  125TMC2    C2 1904   3.367   3.955   8.840 -0.2391  0.4389  0.0317
  125TMC2    C3 1905   3.453   4.062   8.829  0.2338 -0.1970  0.5996
  125TMC2    C4 1906   3.178   4.085   8.776 -0.0048 -0.2248  0.4208
  125TMC2    C5 1907   3.259   4.190   8.761 -0.3479 -0.9134  0.4174
  125TMC2    C6 1908   3.396   4.186   8.788 -0.1697 -0.2831  0.1596
  125TMC2     C 1909   3.153   3.859   8.855  0.5588 -0.2409  0.5763
  125TMC2     O 1910   3.205   3.747   8.845 -0.0667 -0.0569  0.3447
  125TMC2     H 1911   3.403   3.855   8.861 -0.3050 -0.0462 -2.1257
  125TMC2    H1 1912   3.083   4.078   8.723 -0.1567  1.9696  0.4036
  125TMC2    H2 1913   3.461   4.268   8.760  1.6488 -2.0788 -0.9037
  125TMC2    C7 1914   3.221   4.317   8.695 -0.4389  0.2989  0.6356
  125TMC2    C8 1915   3.594   4.026   8.795  0.5822  0.0586  0.1384
  125TMC2    O1 1916   3.306   4.398   8.668  0.3571 -1.0409  0.4786
  125TMC2    O2 1917   3.630   3.911   8.780  0.5087  0.2936 -0.4513
  125TMC2    O5 1918   3.673   4.126   8.843  0.3540  0.0052 -0.0516
  125TMC2    H5 1919   3.626   4.206   8.875  0.1772  0.7037 -2.0353
  126MPD1     C 1920   2.696   3.669   9.006  0.4566 -1.1193 -0.2960
  126MPD1    C1 1921   2.695   3.810   9.020  0.1366  0.6403  0.4890
  126MPD1    C2 1922   2.812   3.874   8.987 -0.7688  0.3460 -0.1220
  126MPD1    C3 1923   2.918   3.812   8.924 -0.4681 -0.9151 -0.3534
  126MPD1    C4 1924   2.917   3.676   8.913 -0.3113 -0.0008  0.0415
  126MPD1    C5 1925   2.802   3.601   8.947 -0.1775  0.3250 -0.0545
  126MPD1     H 1926   2.812   3.981   9.003  0.3432  0.7329 -2.8714
  126MPD1    H1 1927   2.992   3.627   8.851  1.3522  0.7688  1.4404
  126MPD1    H2 1928   2.612   3.607   9.033  0.6527 -1.0749  0.4260
  126MPD1    H3 1929   2.803   3.492   8.940 -0.4408  0.3442 -0.3538
  126MPD1     N 1930   3.024   3.898   8.892  1.0416  0.5999  0.0418
  126MPD1    H5 1931   3.006   3.997   8.898 -0.9822  0.2910 -1.1467
  126MPD1    N1 1932   2.598   3.874   9.102  0.5267 -0.2953  0.3324
  126MPD1    H6 1933   2.606   3.975   9.105  1.0594 -0.3277  0.0726
  126MPD1    H7 1934   2.505   3.833   9.107  0.9648 -1.0782  2.1148
  127MPD2     C 1935   1.643   3.499   9.284 -0.1268 -0.1367 -0.8404
  127MPD2    C1 1936   1.653   3.463   9.418  0.1035 -0.4261 -0.6096
  127MPD2    C2 1937   1.739   3.544   9.502  0.0946 -0.7026  0.0905
  127MPD2    C3 1938   1.809   3.651   9.451 -0.2712 -0.3477  0.1812
  127MPD2    C4 1939   1.788   3.681   9.316  0.1708  0.2977 -0.0425
  127MPD2    C5 1940   1.706   3.607   9.236 -0.7295  0.2443  0.0553
  127MPD2     H 1941   1.744   3.529   9.610  0.3776 -0.1737  0.1487
  127MPD2    H1 1942   1.843   3.763   9.272  0.0158  1.2850  1.6004
  127MPD2    H2 1943   1.582   3.436   9.220 -1.9428 -0.5255  1.2974
  127MPD2    H3 1944   1.690   3.640   9.134 -0.5856  0.9612  0.2594
  127MPD2     N 1945   1.891   3.723   9.537  0.3641  0.1356  0.9612
  127MPD2    H5 1946   1.888   3.697   9.636  3.5991 -1.5169  0.6302
  127MPD2    N1 1947   1.584   3.347   9.464 -1.0812 -0.0462 -0.3076
  127MPD2    H7 1948   1.524   3.291   9.404  1.9794 -1.3901 -2.0718
  128TCq2    C1 1949   1.622   3.284   9.584  0.3977 -0.3608  0.1385
  128TCq2    O2 1950   1.717   3.312   9.659 -0.1604 -0.1652  0.3040
  128TCq2    C2 1951   1.556   3.160   9.609 -0.7651 -0.2739 -0.2921
  128TCq2    C3 1952   1.574   3.100   9.732 -0.0555  0.5068 -0.9555
  128TCq2    C4 1953   1.498   2.995   9.769 -0.1017  0.6670 -0.2731
  128TCq2    C5 1954   1.414   2.941   9.676 -0.2815  0.9929  0.0057
  128TCq2    C6 1955   1.396   2.994   9.551 -0.0323  0.3311  0.5784
  128TCq2    C7 1956   1.468   3.101   9.521 -0.0794  0.0278  0.6276
  128TCq2    C8 1957   1.307   2.926   9.451  0.1012  0.1266  0.0008
  128TCq2    O4 1958   1.270   2.995   9.357  0.3148  0.0023 -0.3634
  128TCq2    C9 1959   1.503   2.929   9.897  0.4337  0.1359  0.5084
  128TCq2    O5 1960   1.565   2.993   9.985  0.3127 -0.0158  1.0506
  128TCq2    O6 1961   1.442   2.819   9.909  0.0977 -0.1001 -0.6911
  128TCq2    H2 1962   1.640   3.141   9.807  0.6666 -1.0261 -0.7561
  128TCq2    H3 1963   1.339   2.871   9.710 -0.2595  0.3397 -1.3287
  128TCq2    H4 1964   1.447   3.143   9.423 -1.5685  0.7201  1.2484
  129MPD2     C 1965   0.196   3.613   1.645  0.0026 -0.4824 -0.0601
  129MPD2    C1 1966   0.307   3.583   1.720  0.4190 -0.3087  0.2283
  129MPD2    C2 1967   0.426   3.657   1.697  0.3888  0.1994 -0.1720
  129MPD2    C3 1968   0.434   3.757   1.600 -0.1693 -0.3107 -0.4745
  129MPD2    C4 1969   0.330   3.771   1.512  0.4442 -0.5337 -0.2380
  129MPD2    C5 1970   0.213   3.704   1.539  0.6123 -0.1334  0.1237
  129MPD2     H 1971   0.505   3.633   1.767 -0.5871 -0.9374  0.5427
  129MPD2    H1 1972   0.317   3.842   1.432 -0.3105 -0.7549 -0.3084
  129MPD2    H2 1973   0.099   3.569   1.664 -0.6507  1.2261  0.6178
  129MPD2    H3 1974   0.135   3.726   1.467  0.1486 -0.7482  0.4333
  129MPD2     N 1975   0.545   3.844   1.598 -0.2342  0.5175 -0.5997
  129MPD2    H5 1976   0.620   3.835   1.667  0.8966  1.8532 -1.6542
  129MPD2    N1 1977   0.300   3.488   1.823 -0.0856 -0.3043  0.0718
  129MPD2    H7 1978   0.385   3.479   1.877 -0.6942  1.6777  1.3764
  130TCq2    C1 1979   0.196   3.403   1.852  0.2276  0.1468 -0.1054
  130TCq2    O2 1980   0.084   3.395   1.808  0.5982  0.1849  0.3716
  130TCq2    C2 1981   0.241   3.329   1.971  0.2158 -1.2876 -0.4156
  130TCq2    C3 1982   0.328   3.375   2.061  0.9490 -0.2419 -0.1642
  130TCq2    C4 1983   0.348   3.309   2.181 -0.0015  0.5128 -0.6333
  130TCq2    C5 1984   0.284   3.190   2.203  0.1870  0.1716  0.5870
  130TCq2    C6 1985   0.201   3.139   2.107 -0.0660 -0.3291  1.0314
  130TCq2    C7 1986   0.170   3.216   1.999 -0.3520  0.1784  0.3675
  130TCq2    C8 1987   0.127   3.017   2.120 -0.2071  0.8518 -0.0655
  130TCq2    O4 1988   0.025   3.007   2.050  0.0114  0.0002  0.4801
  130TCq2    C9 1989   0.430   3.370   2.278 -0.8993  0.3342  0.1328
  130TCq2    O5 1990   0.475   3.486   2.253  0.0805  0.1299 -0.3469
  130TCq2    O6 1991   0.449   3.305   2.383 -0.2088 -0.4692 -1.0995
  130TCq2    H2 1992   0.363   3.478   2.057 -1.7649  0.8149  2.7280
  130TCq2    H3 1993   0.298   3.137   2.297 -0.3127 -2.1845 -0.6818
  130TCq2    H4 1994   0.097   3.184   1.926  0.8977  1.4295 -1.4225
  131MPD2     C 1995   4.306   3.060   9.371 -0.0187  0.5127 -0.0106
  131MPD2    C1 1996   4.345   3.094   9.498 -0.4194  0.0273 -0.5240
  131MPD2    C2 1997   4.356   2.999   9.594 -0.1090  0.6232  0.1309
  131MPD2    C3 1998   4.313   2.867   9.566  0.0252  0.0046  0.0199
  131MPD2    C4 1999   4.260   2.833   9.439  0.8821 -0.0873  0.2834
  131MPD2    C5 2000   4.259   2.936   9.340 -0.0758  0.5771 -0.2495
  131MPD2     H 2001   4.391   3.015   9.696  0.1491  0.0618  0.1278
  131MPD2    H1 2002   4.237   2.731   9.409 -0.6169 -0.3702  2.4121
  131MPD2    H2 2003   4.293   3.137   9.296 -0.6537  1.2926  0.8894
  131MPD2    H3 2004   4.229   2.914   9.238  1.5396  1.4953 -0.9184
  131MPD2     N 2005   4.322   2.766   9.671  0.1243 -0.7924 -0.7805
  131MPD2    H5 2006   4.343   2.803   9.762  1.3860  0.1138 -1.4478
  131MPD2    N1 2007   4.389   3.227   9.515 -0.4382 -0.4832  0.7776
  131MPD2    H7 2008   4.375   3.294   9.440 -2.6116 -2.0773 -0.2631
  132TCq2    C1 2009   4.319   3.721   9.498  0.2476  0.3734 -0.0211
  132TCq2    O2 2010   4.233   3.673   9.425 -0.3460 -0.1905 -0.0270
  132TCq2    C2 2011   4.375   3.631   9.601  0.2906 -0.2969 -0.5904
  132TCq2    C3 2012   4.455   3.692   9.694  0.1024 -0.7214  0.2808
  132TCq2    C4 2013   4.534   3.611   9.769  1.1873  0.5446  0.0463
  132TCq2    C5 2014   4.537   3.476   9.747  0.5509 -0.0775 -0.7934
  132TCq2    C6 2015   4.467   3.420   9.642 -0.0535  0.3825 -0.1422
  132TCq2    C7 2016   4.386   3.498   9.569 -0.1052  0.0912 -0.3310
  132TCq2    C8 2017   4.445   3.279   9.629  0.7144 -0.1309  0.5417
  132TCq2    O4 2018   4.494   3.221   9.725  0.4172  0.4642  0.4350
  132TCq2    C9 2019   4.611   3.682   9.874 -0.1786  0.1327 -1.0201
  132TCq2    O5 2020   4.667   3.607   9.961 -0.2923 -0.1192  0.0074
  132TCq2    O6 2021   4.596   3.807   9.884  1.0193  0.6530  0.1119
  132TCq2    H2 2022   4.438   3.792   9.731  1.6030  0.5633 -2.5390
  132TCq2    H3 2023   4.608   3.419   9.806  1.6755  1.9088 -0.2265
  132TCq2    H4 2024   4.322   3.466   9.487  0.9562 -0.9725 -0.7433
  133MPD2     C 2025   2.643   4.314   9.347  0.1275  0.8167 -0.0621
  133MPD2    C1 2026   2.744   4.317   9.255 -0.4069 -0.3198 -0.1749
  133MPD2    C2 2027   2.829   4.211   9.240 -0.0662 -0.7272 -0.0788
  133MPD2    C3 2028   2.807   4.094   9.307  0.6652  0.1958 -0.7237
  133MPD2    C4 2029   2.702   4.087   9.394 -0.2472  0.2783  0.3439
  133MPD2    C5 2030   2.620   4.195   9.410 -0.4916  0.0407 -0.1966
  133MPD2     H 2031   2.915   4.222   9.175  0.7966  3.1834  1.7487
  133MPD2    H1 2032   2.673   3.996   9.445 -1.4649  0.3775 -0.1614
  133MPD2    H2 2033   2.571   4.393   9.366  0.6750  0.9154  1.6597
  133MPD2    H3 2034   2.532   4.195   9.474 -0.1247  1.9128  0.2955
  133MPD2     N 2035   2.887   3.976   9.292 -0.8370  0.2345 -0.2995
  133MPD2    H5 2036   2.845   3.890   9.327  1.8486 -0.7208  0.4956
  133MPD2    N1 2037   2.759   4.435   9.177  0.5309  0.0545 -0.1341
  133MPD2    H7 2038   2.697   4.509   9.206  1.9134  0.3298  2.0806
  134TCq2    C1 2039   2.841   4.448   9.066 -0.1735  0.3393 -1.1229
  134TCq2    O2 2040   2.940   4.386   9.030 -0.9111  0.2059  0.3375
  134TCq2    C2 2041   2.824   4.570   8.990 -0.5842 -0.3214  0.3966
  134TCq2    C3 2042   2.704   4.634   8.990 -0.9713 -0.3896 -0.3770
  134TCq2    C4 2043   2.695   0.028   8.918  0.5851 -0.1888  0.2978
  134TCq2    C5 2044   2.804   0.077   8.845 -0.5350  0.4516 -0.0361
  134TCq2    C6 2045   2.919   0.014   8.849 -0.4185 -0.5516 -0.2094
  134TCq2    C7 2046   2.932   4.620   8.919 -0.1691  0.1982  0.0700
  134TCq2    C8 2047   3.043   0.088   8.806 -0.0331  0.6913  1.2941
  134TCq2    O4 2048   3.023   0.200   8.760  0.6559  0.2166 -0.4704
  134TCq2    C9 2049   2.574   0.100   8.909 -0.4462 -0.1240 -0.0629
  134TCq2    O5 2050   2.479   0.064   8.987  0.2213  0.0100  0.3977
  134TCq2    O6 2051   2.571   0.187   8.815  0.1398  0.3786 -0.2255
  134TCq2    H2 2052   2.619   4.589   9.040  0.3365 -0.1049  2.1593
  134TCq2    H3 2053   2.787   0.168   8.788  2.2478  1.3088  0.5359
  134TCq2    H4 2054   3.022   4.561   8.927 -0.5883 -0.4866 -0.2923
  135MPD2     C 2055   1.805   0.246   9.289  0.7971 -0.0103  0.1305
  135MPD2    C1 2056   1.835   0.378   9.255 -0.3579  0.6814 -0.4170
  135MPD2    C2 2057   1.964   0.406   9.215 -0.1947  0.1759 -0.0138
  135MPD2    C3 2058   2.058   0.313   9.216  0.3355 -0.9025  0.4495
  135MPD2    C4 2059   2.019   0.186   9.253 -0.5320 -0.1903  0.4166
  135MPD2    C5 2060   1.895   0.149   9.282  0.5100 -0.2008  0.3927
  135MPD2     H 2061   1.987   0.508   9.187  2.3960  0.0234  1.5450
  135MPD2    H1 2062   2.094   0.109   9.265 -0.7587 -0.1663  2.0272
  135MPD2    H2 2063   1.705   0.220   9.322 -0.0695  0.9115 -1.8092
  135MPD2    H3 2064   1.871   0.047   9.307  3.2359 -1.7556 -3.4164
  135MPD2     N 2065   2.197   0.337   9.187 -0.1836 -0.8181  0.8013
  135MPD2    H5 2066   2.254   0.253   9.194  0.2756 -0.9872 -5.0405
  135MPD2    N1 2067   1.741   0.483   9.256 -0.4542 -1.1897  0.3937
  135MPD2    H7 2068   1.773   0.577   9.234  0.7817 -1.7099 -0.0163
  136TCq2    C1 2069   1.605   0.476   9.287  0.0007 -0.3195 -0.2544
  136TCq2    O2 2070   1.556   0.378   9.343 -0.1067 -0.1817  0.3125
  136TCq2    C2 2071   1.535   0.601   9.269 -0.0672  0.5804 -0.9654
  136TCq2    C3 2072   1.569   0.680   9.166 -0.0743 -0.3868  0.1371
  136TCq2    C4 2073   1.491   0.790   9.137  0.0038 -0.5883  0.3159
  136TCq2    C5 2074   1.381   0.820   9.210 -0.9059  0.0602 -0.0012
  136TCq2    C6 2075   1.346   0.740   9.307  0.3800  0.1925  0.6585
  136TCq2    C7 2076   1.418   0.625   9.342  0.3224  0.3143 -0.3414
  136TCq2    C8 2077   1.246   0.787   9.399 -0.4410 -1.0273  0.9935
  136TCq2    O4 2078   1.226   0.909   9.394 -0.2851  0.3071 -0.3368
  136TCq2    C9 2079   1.525   0.877   9.029  0.1872 -0.4451  0.5203
  136TCq2    O5 2080   1.443   0.972   9.014  0.4349 -0.3470  0.1296
  136TCq2    O6 2081   1.630   0.853   8.965  0.2367 -0.3307  0.0797
  136TCq2    H2 2082   1.646   0.658   9.093 -0.9111 -0.9532 -0.5827
  136TCq2    H3 2083   1.326   0.910   9.186  0.6786  0.9191 -0.3948
  136TCq2    H4 2084   1.388   0.560   9.423  3.0934  2.1984  2.2044
  137MPD2     C 2085   0.802   3.863   8.982 -0.0916 -0.1089 -0.1639
  137MPD2    C1 2086   0.820   4.002   8.994  0.3113 -1.0693 -0.6190
  137MPD2    C2 2087   0.894   4.053   9.096 -0.2748  0.0892 -0.5051
  137MPD2    C3 2088   0.940   3.966   9.196  0.4313  0.0472 -0.2084
  137MPD2    C4 2089   0.922   3.832   9.185  0.2483 -0.6319 -0.1087
  137MPD2    C5 2090   0.842   3.782   9.084  0.2789  0.2739 -0.2626
  137MPD2     H 2091   0.920   4.158   9.103 -0.7133  0.2106 -0.6880
  137MPD2    H1 2092   0.963   3.757   9.252  0.9216 -0.2024 -0.0363
  137MPD2    H2 2093   0.733   3.824   8.908 -1.2488  1.3496  0.1484
  137MPD2    H3 2094   0.817   3.676   9.083  0.3037  0.2364  2.4147
  137MPD2     N 2095   1.012   4.026   9.295  0.2678  0.2005  0.1886
  137MPD2    H5 2096   1.027   4.126   9.294  1.2864  0.0481 -0.6273
  137MPD2    N1 2097   0.759   4.079   8.900 -0.4986 -0.0529  0.8164
  137MPD2    H7 2098   0.717   4.032   8.820 -0.1093  0.4088  0.3338
  138TCq2    C1 2099   0.736   4.216   8.907  0.3360 -0.0943  0.2862
  138TCq2    O2 2100   0.722   4.283   9.006  0.3496  0.3837 -0.1245
  138TCq2    C2 2101   0.679   4.261   8.785  0.9128  0.2271 -0.2623
  138TCq2    C3 2102   0.713   4.203   8.666  0.0953 -0.1881 -0.5271
  138TCq2    C4 2103   0.660   4.258   8.555  0.1641 -0.2430  0.1092
  138TCq2    C5 2104   0.566   4.360   8.563  0.3749  0.2429  0.3133
  138TCq2    C6 2105   0.538   4.414   8.683  0.8357  0.5201  0.3539
  138TCq2    C7 2106   0.599   4.370   8.794 -0.0943 -0.2018  0.4210
  138TCq2    C8 2107   0.460   4.537   8.688  0.9819  0.2801  0.0784
  138TCq2    O4 2108   0.473   4.622   8.595 -0.5463  0.0339  0.3867
  138TCq2    C9 2109   0.671   4.185   8.436  0.5110 -0.1860  0.6839
  138TCq2    O5 2110   0.609   4.228   8.335  0.4407  0.1047 -0.0837
  138TCq2    O6 2111   0.775   4.116   8.429 -0.2767  0.1066 -0.4862
  138TCq2    H2 2112   0.784   4.122   8.655  2.0536  1.1872  2.0571
  138TCq2    H3 2113   0.522   4.390   8.468 -1.0108  2.4766  1.6871
  138TCq2    H4 2114   0.569   4.398   8.894  0.5550 -1.5370  0.9883
  139TMC2    C1 2115   1.212   2.335  13.183  0.8929  0.1469 -0.5633
  139TMC2    C2 2116   1.196   2.355  13.050 -0.3064 -0.3990  0.1275
  139TMC2    C3 2117   1.117   2.461  13.022  0.1757 -0.9314  0.7676
  139TMC2    C4 2118   1.155   2.407  13.283 -0.0381 -0.3551  0.3381
  139TMC2    C5 2119   1.083   2.511  13.246 -0.0241 -0.1686 -0.1307
  139TMC2    C6 2120   1.054   2.544  13.113 -0.9815 -0.5271 -0.0888
  139TMC2     C 2121   1.309   2.226  13.209  0.0050  0.3834 -0.1226
  139TMC2     O 2122   1.406   2.211  13.136 -0.0358  0.1523  0.3141
  139TMC2     H 2123   1.254   2.302  12.977 -0.9323 -0.8262 -0.0632
  139TMC2    H1 2124   1.191   2.392  13.384  2.0329 -0.4571 -0.4176
  139TMC2    H2 2125   0.970   2.610  13.092 -0.8224 -0.4208 -0.3992
  139TMC2    C7 2126   1.077   2.634  13.330  0.1766  0.3165  0.5261
  139TMC2    C8 2127   1.124   2.514  12.885 -0.2320 -0.6174 -0.3917
  139TMC2    O1 2128   1.080   2.743  13.268  0.2288  0.0631 -0.1582
  139TMC2    O2 2129   1.023   2.567  12.845  0.1346 -0.2714  0.3295
  139TMC2    O5 2130   1.244   2.561  12.872  0.0873 -0.0129 -0.2353
  139TMC2    H5 2131   1.306   2.536  12.944 -0.7544 -1.0787  0.1223
  140MPD2     C 2132   1.288   1.972  13.485 -0.2026 -0.4797 -0.2144
  140MPD2    C1 2133   1.326   2.023  13.363  0.3068 -0.5791 -0.2228
  140MPD2    C2 2134   1.418   1.954  13.286 -0.5151 -0.1938 -0.0680
  140MPD2    C3 2135   1.484   1.838  13.325  0.5890  0.5372  0.1970
  140MPD2    C4 2136   1.434   1.786  13.438  0.0807 -0.3212 -0.5585
  140MPD2    C5 2137   1.337   1.845  13.517 -0.5622  0.2127 -0.2062
  140MPD2     H 2138   1.453   1.997  13.193  2.1460 -1.7321  0.2348
  140MPD2    H1 2139   1.469   1.686  13.461  0.9604  0.1301  0.0584
  140MPD2    H2 2140   1.226   2.030  13.552 -0.0224  1.1490 -1.4679
  140MPD2    H3 2141   1.315   1.799  13.613  1.0186  0.0809  0.0977
  140MPD2     N 2142   1.581   1.771  13.248 -0.1520  0.2950  0.2931
  140MPD2    H5 2143   1.604   1.804  13.155 -0.8930 -1.6078 -0.5839
  140MPD2    N1 2144   1.267   2.144  13.315 -0.1271  0.2497 -0.1815
  140MPD2    H7 2145   1.187   2.179  13.367 -0.7986 -1.0902 -0.2962
  141TCq2    C1 2146   2.155   3.281  14.286  0.6270  0.4887  0.1003
  141TCq2    O2 2147   2.082   3.373  14.253  0.3139  0.1055  0.0467
  141TCq2    C2 2148   2.138   3.233  14.425 -0.2729 -0.0975 -0.0034
  141TCq2    C3 2149   2.218   3.135  14.475 -0.4499  0.2234  0.0457
  141TCq2    C4 2150   2.189   3.087  14.598  0.9633 -0.2011  0.4800
  141TCq2    C5 2151   2.096   3.154  14.675  0.4391  0.7251  0.6757
  141TCq2    C6 2152   2.035   3.266  14.628  0.2105 -0.1722  0.4103
  141TCq2    C7 2153   2.046   3.308  14.498 -0.1320  0.6113 -0.0055
  141TCq2    C8 2154   1.992   3.365  14.723 -0.2770  0.2521 -0.9131
  141TCq2    O4 2155   2.008   3.340  14.839 -0.2971 -0.5274 -0.8762
  141TCq2    C9 2156   2.251   2.967  14.647  0.4844 -0.1318 -0.6440
  141TCq2    O5 2157   2.182   2.899  14.729  0.1119 -0.2543 -0.5017
  141TCq2    O6 2158   2.366   2.932  14.611 -0.1890 -0.1129  0.5543
  141TCq2    H2 2159   2.293   3.078  14.420  0.3956  0.4156  1.0099
  141TCq2    H3 2160   2.075   3.122  14.777  1.1094  1.0966  0.9308
  141TCq2    H4 2161   1.982   3.389  14.465 -1.4397 -0.5958 -0.4199
  142MPD2     C 2162   3.995   0.818   9.445  0.4431 -0.5971  0.4519
  142MPD2    C1 2163   3.937   0.830   9.567  0.7320 -0.6461  0.3578
  142MPD2    C2 2164   3.803   0.793   9.583 -0.0649 -0.4365  0.1199
  142MPD2    C3 2165   3.726   0.768   9.476 -0.1104  0.9113 -0.0948
  142MPD2    C4 2166   3.787   0.760   9.352  0.1908 -0.0574  0.2229
  142MPD2    C5 2167   3.923   0.774   9.341 -0.6644  0.1787 -0.4678
  142MPD2     H 2168   3.749   0.800   9.677 -1.8203 -0.4622 -0.8796
  142MPD2    H1 2169   3.731   0.722   9.267  0.9699 -0.0943 -0.2731
  142MPD2    H2 2170   4.100   0.836   9.426  0.8580 -0.6037  2.8303
  142MPD2    H3 2171   3.972   0.767   9.245 -0.5993  1.8413 -0.5626
  142MPD2     N 2172   3.591   0.745   9.481 -0.2377  0.0520 -0.0794
  142MPD2    H5 2173   3.542   0.723   9.395  0.4528 -2.3209  0.1360
  142MPD2    N1 2174   4.012   0.869   9.679  0.6050 -0.6810 -0.3567
  142MPD2    H7 2175   4.106   0.902   9.660  0.1220  1.8217  1.5658
  143TCq2    C1 2176   3.520   0.738   9.597 -0.0284 -0.7180 -0.7774
  143TCq2    O2 2177   3.555   0.697   9.706  0.1204 -0.1350  1.1109
  143TCq2    C2 2178   3.380   0.774   9.573 -0.0456  0.7479  0.1509
  143TCq2    C3 2179   3.289   0.713   9.662  0.8970 -0.4026 -0.2011
  143TCq2    C4 2180   3.164   0.775   9.664 -0.2395 -0.8862 -0.6314
  143TCq2    C5 2181   3.136   0.890   9.592  0.0680 -0.2087 -0.2685
  143TCq2    C6 2182   3.230   0.938   9.505  0.1546  0.2100 -0.1412
  143TCq2    C7 2183   3.351   0.874   9.485  0.4445 -0.2647 -0.5887
  143TCq2    C8 2184   3.242   1.080   9.496 -0.2367  0.6133  0.3973
  143TCq2    O4 2185   3.352   1.130   9.473  0.6963  0.2037  0.4906
  143TCq2    C9 2186   3.069   0.720   9.750  0.3059 -0.5080  0.6385
  143TCq2    O5 2187   3.102   0.612   9.803 -0.5708  0.6026  0.1360
  143TCq2    O6 2188   2.960   0.778   9.763  0.4011 -0.0028  0.3171
  143TCq2    H2 2189   3.327   0.628   9.716 -1.9778 -1.5539  0.0156
  143TCq2    H3 2190   3.033   0.923   9.591 -0.1142 -0.7794  0.0602
  143TCq2    H4 2191   3.425   0.924   9.424  0.2405 -0.5621 -1.0802
  144MPD2     C 2192   2.038   0.807   0.944  0.0769  0.8298  0.0872
  144MPD2    C1 2193   2.128   0.776   0.847 -0.7008 -0.6995 -0.7214
  144MPD2    C2 2194   2.261   0.751   0.875 -0.9310 -0.0362  0.0945
  144MPD2    C3 2195   2.311   0.749   1.007 -0.3249  0.7068 -0.6521
  144MPD2    C4 2196   2.220   0.792   1.096 -0.0825 -0.4405  0.1995
  144MPD2    C5 2197   2.084   0.815   1.075 -0.8345  0.1160  0.5240
  144MPD2     H 2198   2.324   0.715   0.795 -1.2391 -0.6746  0.1357
  144MPD2    H1 2199   2.249   0.794   1.201  2.0340 -0.2090 -0.3830
  144MPD2    H2 2200   1.932   0.806   0.919  0.3533  0.7822 -1.0773
  144MPD2    H3 2201   2.017   0.827   1.160 -2.5985  1.5937 -1.0642
  144MPD2     N 2202   2.447   0.736   1.038  0.0150  0.1836 -0.0958
  144MPD2    H5 2203   2.472   0.753   1.135  1.8093 -1.0373 -0.3481
  144MPD2    N1 2204   2.097   0.784   0.711  0.3846  0.1417 -0.2226
  144MPD2    H7 2205   2.168   0.765   0.641  0.2397 -0.4514 -0.2041
  145TCq2    C1 2206   2.548   0.706   0.945  0.3271  0.1206 -0.1309
  145TCq2    O2 2207   2.535   0.654   0.835 -0.2471  0.3558 -0.4522
  145TCq2    C2 2208   2.686   0.717   0.985  0.5903  0.7560  0.0024
  145TCq2    C3 2209   2.779   0.670   0.890  0.2896 -0.0083  0.2707
  145TCq2    C4 2210   2.907   0.704   0.910 -0.5656  0.2625  0.0572
  145TCq2    C5 2211   2.941   0.795   1.006 -0.0622 -0.0200  0.3182
  145TCq2    C6 2212   2.849   0.839   1.097  0.5371  0.3461 -0.3886
  145TCq2    C7 2213   2.723   0.795   1.092 -0.2712 -0.6824  0.0521
  145TCq2    C8 2214   2.886   0.949   1.180  0.4668  0.0905 -0.1390
  145TCq2    O4 2215   2.996   0.996   1.173  0.0552  0.0695  0.2730
  145TCq2    C9 2216   3.005   0.670   0.808  0.1537 -1.1011 -0.2334
  145TCq2    O5 2217   3.112   0.731   0.803  0.1063  0.0849  0.3248
  145TCq2    O6 2218   2.982   0.566   0.738  0.1923 -0.1101 -0.3439
  145TCq2    H2 2219   2.750   0.616   0.801 -0.3380  0.0109  0.4637
  145TCq2    H3 2220   3.040   0.839   1.001 -1.0236  2.1969  0.3712
  145TCq2    H4 2221   2.649   0.839   1.158 -0.3379  0.3735 -0.7294
  146TMC2    C1 2222   3.878   4.178  12.193  0.1980 -0.5389 -0.5593
  146TMC2    C2 2223   3.835   4.084  12.095 -0.2062  0.4451  0.5730
  146TMC2    C3 2224   3.941   4.033  12.023 -0.0219 -0.4286 -0.0416
  146TMC2    C4 2225   4.012   4.190  12.222  0.3369 -0.3620  0.7630
  146TMC2    C5 2226   4.105   4.134  12.151 -0.3448  0.4774  0.0295
  146TMC2    C6 2227   4.071   4.062  12.047 -0.1135  0.3958  0.1123
  146TMC2     C 2228   3.781   4.228  12.287 -0.1191  0.5611  0.2348
  146TMC2     O 2229   3.661   4.230  12.251 -0.0626 -0.6131 -0.0133
  146TMC2     H 2230   3.737   4.038  12.091  0.1515 -0.3063  0.4193
  146TMC2    H1 2231   4.040   4.283  12.270  0.5836 -0.4042  0.6972
  146TMC2    H2 2232   4.145   4.016  11.983  1.8627  2.4714  0.9093
  146TMC2    C7 2233   4.232   4.201  12.138  0.3877 -0.1333 -0.4704
  146TMC2    C8 2234   3.909   3.947  11.912  0.3990 -0.7498 -0.0776
  146TMC2    O1 2235   4.294   4.195  12.034  0.4961 -0.1140  0.1437
  146TMC2    O2 2236   3.803   3.897  11.897 -0.5792 -0.4035  0.6799
  146TMC2    O5 2237   3.995   3.982  11.815 -0.5370  0.4258 -0.1931
  146TMC2    H5 2238   4.062   4.050  11.836 -2.2600  1.7526  1.0680
  147MPD2     C 2239   4.611   4.450  12.382  0.4579 -0.4815 -0.2051
  147MPD2    C1 2240   4.538   4.386  12.477  0.5061  0.9161  0.1585
  147MPD2    C2 2241   4.422   4.318  12.435 -0.7100  0.0783  0.1407
  147MPD2    C3 2242   4.393   4.302  12.301 -0.0321  0.0590 -0.6354
  147MPD2    C4 2243   4.475   4.360  12.206 -0.6349  0.0223 -0.4350
  147MPD2    C5 2244   4.585   4.434  12.248 -0.0818 -0.1560  0.2939
  147MPD2     H 2245   4.344   4.287  12.505  1.0692 -1.2808  1.5281
  147MPD2    H1 2246   4.453   4.350  12.100  0.7230  1.5089 -0.8550
  147MPD2    H2 2247   4.702   4.503  12.410 -0.4447  2.1197 -2.1961
  147MPD2    H3 2248   4.651   4.492  12.185 -1.6575 -0.0683 -1.2845
  147MPD2     N 2249   4.271   4.240  12.266 -0.2945  0.2522  0.0291
  147MPD2    H5 2250   4.212   4.209  12.342 -0.2780 -1.5481 -0.6877
  147MPD2    N1 2251   4.574   4.390  12.615  0.0476  0.2951  0.2491
  147MPD2    H7 2252   4.658   4.443  12.630 -0.2698  0.2168  2.3532
  148MPD2     C 2253   3.568   3.798   9.982 -0.4100  0.5036  0.2613
  148MPD2    C1 2254   3.654   3.696  10.005 -0.8843 -0.0051 -1.2693
  148MPD2    C2 2255   3.648   3.578   9.927  0.1077 -1.0777 -0.4257
  148MPD2    C3 2256   3.555   3.570   9.825  0.0869  1.2632 -0.4316
  148MPD2    C4 2257   3.462   3.669   9.805  0.1082  0.4166 -0.7715
  148MPD2    C5 2258   3.470   3.785   9.886  0.3219  0.1166 -0.2625
  148MPD2     H 2259   3.720   3.501   9.955 -1.9038 -2.3331  1.2755
  148MPD2    H1 2260   3.385   3.664   9.729  1.5750 -0.9189 -2.1746
  148MPD2    H2 2261   3.574   3.887  10.044 -0.4647  1.2256 -0.7619
  148MPD2    H3 2262   3.397   3.863   9.866 -0.1771 -0.3193 -0.1404
  148MPD2     N 2263   3.540   3.455   9.743 -0.5099 -0.7034 -0.7834
  148MPD2    H5 2264   3.447   3.443   9.706  1.2265 -1.9135 -4.7893
  148MPD2    N1 2265   3.753   3.703  10.111  0.2389  0.4574 -0.1029
  148MPD2    H7 2266   3.810   3.620  10.123 -4.0656 -2.2152  1.9942
  149TCq2    C1 2267   3.769   3.806  10.199 -0.5326  0.3635 -0.0160
  149TCq2    O2 2268   3.716   3.915  10.204  0.4348 -0.6518  0.0490
  149TCq2    C2 2269   3.862   3.774  10.302  0.6553  0.3318 -0.3459
  149TCq2    C3 2270   3.958   3.870  10.332  0.9198  0.5527  1.0701
  149TCq2    C4 2271   4.077   3.836  10.394  0.2707  0.7339  0.0166
  149TCq2    C5 2272   4.092   3.706  10.427  0.1306 -0.0896  0.7846
  149TCq2    C6 2273   3.990   3.614  10.404  0.5669 -0.4551  0.3592
  149TCq2    C7 2274   3.876   3.645  10.344  0.9708  0.2549  0.0758
  149TCq2    C8 2275   3.988   3.484  10.460 -0.1620  0.2514 -0.2991
  149TCq2    O4 2276   3.942   3.401  10.383 -0.4152  0.0945  0.0691
  149TCq2    C9 2277   4.190   3.926  10.382 -0.3984 -0.6731  0.0447
  149TCq2    O5 2278   4.301   3.878  10.393  0.0405 -0.0824 -0.4339
  149TCq2    O6 2279   4.164   4.041  10.344  0.4358 -0.2811 -0.1129
  149TCq2    H2 2280   3.939   3.969  10.291 -0.3548  1.3946  3.6881
  149TCq2    H3 2281   4.186   3.681  10.474  0.6677 -0.1718 -0.3286
  149TCq2    H4 2282   3.799   3.568  10.346 -0.9400  2.2295  1.9189
  150MPD2     C 2283   1.263   2.280  12.147  0.2342 -0.2054 -0.1508
  150MPD2    C1 2284   1.195   2.394  12.132 -0.1008 -0.2696  0.1878
  150MPD2    C2 2285   1.264   2.509  12.144 -0.2794  0.6507  0.2014
  150MPD2    C3 2286   1.402   2.512  12.166 -0.3215 -0.7083 -0.8238
  150MPD2    C4 2287   1.469   2.393  12.184 -0.4838 -0.5256  0.5516
  150MPD2    C5 2288   1.399   2.279  12.172  0.0953 -0.0593  0.3871
  150MPD2     H 2289   1.202   2.598  12.144 -3.1727 -1.3642 -0.4416
  150MPD2    H1 2290   1.572   2.375  12.213  0.1198  1.2210 -0.5111
  150MPD2    H2 2291   1.228   2.179  12.127 -0.5247 -0.2386  1.2734
  150MPD2    H3 2292   1.443   2.180  12.178  1.8828  0.6887 -0.4800
  150MPD2     N 2293   1.474   2.635  12.156 -0.0373  0.2975  0.4471
  150MPD2    H5 2294   1.431   2.721  12.124  2.0715  1.2680  0.2747
  150MPD2    N1 2295   1.057   2.385  12.094 -0.9500  0.9661 -0.0735
  150MPD2    H7 2296   1.028   2.288  12.088  2.0141  0.0543  0.5241
  151TCq2    C1 2297   1.606   2.654  12.186  0.1165 -0.8335  0.0606
  151TCq2    O2 2298   1.681   2.591  12.263  0.4837  0.0823  0.0230
  151TCq2    C2 2299   1.650   2.788  12.145 -0.2470  0.5293  0.8257
  151TCq2    C3 2300   1.559   2.870  12.077 -0.0965  0.3234  0.1101
  151TCq2    C4 2301   1.600   2.993  12.049  0.2141 -0.3125 -0.2949
  151TCq2    C5 2302   1.729   3.030  12.077  0.5151  0.3484  0.4282
  151TCq2    C6 2303   1.823   2.948  12.140 -0.1939  0.0320  0.1445
  151TCq2    C7 2304   1.780   2.824  12.179  0.4821  0.0884 -0.3236
  151TCq2    C8 2305   1.951   3.003  12.183  0.4855 -0.2013  0.5411
  151TCq2    O4 2306   1.972   3.120  12.151  0.0761 -0.5448  0.3073
  151TCq2    C9 2307   1.516   3.081  11.966 -0.1113  0.3133  0.6476
  151TCq2    O5 2308   1.400   3.042  11.956  0.3629 -0.3494  0.1737
  151TCq2    O6 2309   1.571   3.192  11.925  0.5780 -0.2344  0.2928
  151TCq2    H2 2310   1.475   2.842  12.015 -0.0781  0.5205 -0.0027
  151TCq2    H3 2311   1.765   3.126  12.040 -1.9865  1.4273  0.7790
  151TCq2    H4 2312   1.842   2.753  12.231 -1.4622  0.3624  2.3794
  152MPD2     C 2313   0.642   2.220  12.423 -0.4908 -0.1975  0.9202
  152MPD2    C1 2314   0.687   2.339  12.385  0.4275  0.1986 -0.4165
  152MPD2    C2 2315   0.615   2.429  12.309  0.0022  0.0249  0.3030
  152MPD2    C3 2316   0.485   2.396  12.288 -0.6598 -0.8563  0.2350
  152MPD2    C4 2317   0.431   2.278  12.326 -0.0781 -0.2729 -0.3192
  152MPD2    C5 2318   0.511   2.191  12.394  0.0044  0.4192  0.4651
  152MPD2     H 2319   0.652   2.521  12.266 -4.1653  2.6354  2.4146
  152MPD2    H1 2320   0.330   2.251  12.298 -0.3347  0.9804 -0.6394
  152MPD2    H2 2321   0.706   2.154  12.481 -0.1376 -1.1068 -0.5104
  152MPD2    H3 2322   0.473   2.097  12.433 -1.2708  1.0006  0.5888
  152MPD2     N 2323   0.404   2.489  12.217  0.1912 -0.8532  0.2768
  152MPD2    H5 2324   0.448   2.577  12.190 -0.5638  0.1177  2.1934
  152MPD2    N1 2325   0.814   2.364  12.430  0.4815 -0.3555  0.5705
  152MPD2    H7 2326   0.863   2.303  12.494  0.0879  0.9788  2.1578
  153TCq2    C1 2327   0.884   2.477  12.415 -0.2228  0.7969 -0.0186
  153TCq2    O2 2328   0.850   2.585  12.374  0.9472  0.0404  0.4424
  153TCq2    C2 2329   1.021   2.453  12.458  0.4145 -0.7676 -0.3532
  153TCq2    C3 2330   1.064   2.333  12.509 -0.0276 -0.9050  0.1922
  153TCq2    C4 2331   1.187   2.333  12.569 -0.0645  0.0022  0.3171
  153TCq2    C5 2332   1.269   2.440  12.583  0.3426 -0.0565  0.6259
  153TCq2    C6 2333   1.217   2.559  12.527 -0.7008  0.5102  0.3166
  153TCq2    C7 2334   1.098   2.562  12.468  0.2509  0.0139  0.2615
  153TCq2    C8 2335   1.313   2.659  12.497 -0.2157  1.2208 -0.7469
  153TCq2    O4 2336   1.287   2.730  12.401 -0.5725 -0.2943 -0.3551
  153TCq2    C9 2337   1.237   2.208  12.625  0.6336  0.1222 -0.8283
  153TCq2    O5 2338   1.342   2.198  12.698 -0.1439 -0.2561  0.5331
  153TCq2    O6 2339   1.157   2.111  12.628 -0.2602  0.0033  0.3640
  153TCq2    H2 2340   1.016   2.238  12.488 -3.0834  0.5391  0.6670
  153TCq2    H3 2341   1.358   2.435  12.645  0.4824 -0.1486  0.4168
  153TCq2    H4 2342   1.068   2.657  12.426  1.0152 -0.0742 -0.4884
  154MPD2     C 2343   2.220   2.408   0.130 -0.5329  0.1787  0.4689
  154MPD2    C1 2344   2.252   2.443   0.257  0.7655 -0.0494 -0.4344
  154MPD2    C2 2345   2.150   2.497   0.334  0.7811  0.8978 -0.1230
  154MPD2    C3 2346   2.022   2.518   0.278  0.6055  0.4205  0.1707
  154MPD2    C4 2347   1.997   2.482   0.151  0.0049 -0.0875  0.3626
  154MPD2    C5 2348   2.095   2.421   0.079 -0.6136 -0.0541  0.6437
  154MPD2     H 2349   2.171   2.540   0.431 -0.8170  1.6420 -0.0926
  154MPD2    H1 2350   1.906   2.503   0.095 -0.3390 -0.7919  0.6522
  154MPD2    H2 2351   2.285   2.360   0.058 -0.9024 -0.0503  0.2915
  154MPD2    H3 2352   2.077   2.386  17.667 -2.6269 -1.8264  1.6357
  154MPD2     N 2353   1.934   2.602   0.349  1.2342 -0.0051 -0.2513
  154MPD2    H5 2354   1.969   2.622   0.442  0.4523 -0.8095  0.2186
  154MPD2    N1 2355   2.386   2.437   0.301 -0.0143 -0.4760 -0.8507
  154MPD2    H7 2356   2.454   2.415   0.230 -2.7022  1.0704 -3.9163
  155TCq2    C1 2357   2.432   2.460   0.435  0.5056  0.2748  0.1801
  155TCq2    O2 2358   2.370   2.512   0.526  0.1484  0.7322  0.3902
  155TCq2    C2 2359   2.578   2.442   0.464  0.0700 -0.3843  0.5829
  155TCq2    C3 2360   2.632   2.504   0.578 -0.9526 -0.5075 -0.1380
  155TCq2    C4 2361   2.764   2.535   0.591 -0.1043  0.1228  0.7572
  155TCq2    C5 2362   2.845   2.481   0.496 -0.3532  0.6207  0.3351
  155TCq2    C6 2363   2.793   2.413   0.386 -0.2255 -0.3526 -0.7771
  155TCq2    C7 2364   2.656   2.399   0.367 -0.3888 -0.5446 -0.1500
  155TCq2    C8 2365   2.876   2.373   0.275  0.4526  0.4078  0.2562
  155TCq2    O4 2366   2.838   2.271   0.215 -0.7742 -0.3442 -0.5076
  155TCq2    C9 2367   2.819   2.608   0.709  0.7239  0.1502  1.1815
  155TCq2    O5 2368   2.734   2.647   0.794 -0.4921 -0.2560 -0.3499
  155TCq2    O6 2369   2.938   2.646   0.713  0.3361  0.4217 -0.0878
  155TCq2    H2 2370   2.566   2.534   0.658 -0.8562 -1.2465  0.2189
  155TCq2    H3 2371   2.951   2.499   0.511 -0.3117 -1.2671  2.1846
  155TCq2    H4 2372   2.619   2.370   0.269  0.7009 -0.3576 -0.6149
  156MPD2     C 2373   0.401   0.101  11.181 -0.0210  0.0196  0.7627
  156MPD2    C1 2374   0.535   0.120  11.165  0.5880 -0.4885 -0.0155
  156MPD2    C2 2375   0.621   0.013  11.160 -0.4917 -0.4010  0.8636
  156MPD2    C3 2376   0.579   4.600  11.186  0.0643  0.0007 -0.3459
  156MPD2    C4 2377   0.442   4.576  11.190 -0.3582  0.1425 -0.2125
  156MPD2    C5 2378   0.363   4.692  11.190  0.2668 -0.2844 -0.3702
  156MPD2     H 2379   0.728   0.026  11.147 -0.5283  0.4836  1.5141
  156MPD2    H1 2380   0.408   4.475  11.210 -0.5328 -0.2208 -2.2725
  156MPD2    H2 2381   0.329   0.182  11.186  1.0630  0.9131  1.9248
  156MPD2    H3 2382   0.257   4.670  11.202  0.1032  0.7382  0.0677
  156MPD2     N 2383   0.672   4.515  11.238 -0.0414  0.1574 -0.2762
  156MPD2    H5 2384   0.760   4.559  11.264 -0.1978  2.0731 -3.0555
  156MPD2    N1 2385   0.593   0.244  11.136  0.3616  0.0440 -0.1911
  156MPD2    H7 2386   0.688   0.237  11.101  1.2044  0.4851  1.9731
  157TCq2    C1 2387   0.539   0.371  11.129  0.3193 -0.0932  0.2267
  157TCq2    O2 2388   0.438   0.423  11.174 -0.1997  0.4754 -0.3136
  157TCq2    C2 2389   0.637   0.456  11.055  0.0620  0.0299 -0.2133
  157TCq2    C3 2390   0.714   0.391  10.965  0.8247  0.8814 -0.0831
  157TCq2    C4 2391   0.849   0.429  10.957  0.1131  0.2735 -0.4153
  157TCq2    C5 2392   0.898   0.539  11.018  0.3926 -0.4235 -0.3431
  157TCq2    C6 2393   0.811   0.606  11.100  0.5982  0.0695 -0.5516
  157TCq2    C7 2394   0.685   0.567  11.121 -0.0035 -0.0190 -1.0410
  157TCq2    C8 2395   0.856   0.740  11.131 -0.3805 -0.4237 -0.1074
  157TCq2    O4 2396   0.938   0.788  11.058 -0.1023 -0.4737 -0.1626
  157TCq2    C9 2397   0.940   0.363  10.876  0.2046  0.2178 -0.3489
  157TCq2    O5 2398   1.032   0.428  10.825  0.7775  0.6037  0.1604
  157TCq2    O6 2399   0.893   0.265  10.816 -0.0891 -0.1492  0.0217
  157TCq2    H2 2400   0.677   0.320  10.892 -0.1214  2.5424 -1.2255
  157TCq2    H3 2401   1.001   0.568  11.000 -0.4026  1.0008 -2.6852
  157TCq2    H4 2402   0.612   0.610  11.188  1.1664  0.7056 -0.2307
  158TMC2    C1 2403   1.684   3.907  13.019  0.8463 -0.1793 -0.4869
  158TMC2    C2 2404   1.745   3.982  12.931  0.2927  0.0092  0.2536
  158TMC2    C3 2405   1.678   4.009  12.816  0.4744  0.2130 -0.4036
  158TMC2    C4 2406   1.559   3.847  12.996 -0.0912 -0.4604 -0.0133
  158TMC2    C5 2407   1.504   3.868  12.870 -0.4525 -0.1309 -0.0650
  158TMC2    C6 2408   1.564   3.948  12.776  0.4770 -0.8851 -0.9416
  158TMC2     C 2409   1.755   3.894  13.142 -0.0328  0.6227  0.5151
  158TMC2     O 2410   1.873   3.918  13.141  0.3854 -0.1299 -0.4242
  158TMC2     H 2411   1.840   4.028  12.957  0.0477 -0.4090  1.9226
  158TMC2    H1 2412   1.531   3.762  13.058  0.0259  0.8303  1.8236
  158TMC2    H2 2413   1.523   3.989  12.685 -0.5966 -1.3842 -0.6778
  158TMC2    C7 2414   1.370   3.825  12.825  0.0000  0.2071 -0.5304
  158TMC2    C8 2415   1.735   4.086  12.707  0.1553 -0.5723  0.8386
  158TMC2    O1 2416   1.321   3.875  12.722 -0.0751 -0.7328 -0.6887
  158TMC2    O2 2417   1.754   4.032  12.601 -0.3204  0.5890  0.3147
  158TMC2    O5 2418   1.824   4.172  12.767 -0.3603 -0.8264  0.6833
  158TMC2    H5 2419   1.788   4.219  12.845 -1.3459  0.3953 -0.4953
  159MPD2     C 2420   1.756   3.795  13.649 -0.1289  0.1541  0.4911
  159MPD2    C1 2421   1.627   3.804  13.600 -0.1205  0.0032  0.1307
  159MPD2    C2 2422   1.598   3.828  13.468 -0.4513 -0.3546  0.0223
  159MPD2    C3 2423   1.697   3.844  13.383  0.3326 -0.1963 -0.2906
  159MPD2    C4 2424   1.831   3.842  13.425 -0.1512  0.4928 -0.1766
  159MPD2    C5 2425   1.861   3.808  13.558  0.3258  0.2276 -0.0491
  159MPD2     H 2426   1.495   3.838  13.434  0.7656  0.5616 -3.3445
  159MPD2    H1 2427   1.915   3.840  13.356 -1.0217  0.1793 -1.2244
  159MPD2    H2 2428   1.780   3.763  13.750  1.9831  0.5103  0.0956
  159MPD2    H3 2429   1.963   3.800  13.592 -0.2784 -0.8338  1.5278
  159MPD2     N 2430   1.667   3.869  13.247  0.2680 -0.1240 -0.2216
  159MPD2    H5 2431   1.568   3.877  13.226  0.3389  0.6451 -0.2480
  159MPD2    N1 2432   1.538   3.787  13.700  0.3013 -0.1023 -0.4326
  159MPD2    H7 2433   1.569   3.784  13.797 -0.3063  0.6500 -0.2159
  160TMC2    C1 2434   1.381   1.376   1.822  1.1076 -0.3490  0.3504
  160TMC2    C2 2435   1.512   1.378   1.855 -0.0294  0.3173 -0.0850
  160TMC2    C3 2436   1.599   1.407   1.759  0.6590  0.9089 -0.3431
  160TMC2    C4 2437   1.331   1.394   1.696 -0.0729 -0.2047 -0.1149
  160TMC2    C5 2438   1.427   1.412   1.602 -1.1480  1.1307  0.2220
  160TMC2    C6 2439   1.558   1.428   1.630 -0.5637 -0.1135  0.1125
  160TMC2     C 2440   1.281   1.352   1.929 -0.1851  0.4269  0.0643
  160TMC2     O 2441   1.332   1.313   2.032  0.9476  0.2413  0.3308
  160TMC2     H 2442   1.544   1.336   1.950 -0.2507  0.3435  0.0007
  160TMC2    H1 2443   1.230   1.369   1.668 -0.1548  0.3310 -0.3077
  160TMC2    H2 2444   1.636   1.447   1.558 -1.2924  0.3952 -0.5361
  160TMC2    C7 2445   1.368   1.476   1.482 -0.1346 -0.4742 -0.5955
  160TMC2    C8 2446   1.733   1.386   1.794 -0.3401  0.0043 -0.0740
  160TMC2    O1 2447   1.249   1.456   1.468 -0.2989  0.0346 -0.2440
  160TMC2    O2 2448   1.770   1.331   1.902  0.4241  0.0531 -0.6327
  160TMC2    O5 2449   1.828   1.462   1.716  0.1107  0.6497  0.2452
  160TMC2    H5 2450   1.784   1.539   1.675  2.1330  1.7958  0.2685
  161MPD2     C 2451   1.052   1.316   2.101  0.1902  0.1586 -0.1917
  161MPD2    C1 2452   1.048   1.372   1.980 -0.4237  0.6100  0.4987
  161MPD2    C2 2453   0.922   1.410   1.931  1.1853 -0.2355  0.5482
  161MPD2    C3 2454   0.810   1.394   2.006  0.1311  0.0713 -1.1315
  161MPD2    C4 2455   0.821   1.343   2.135  0.6482 -0.0957  0.0759
  161MPD2    C5 2456   0.944   1.295   2.177  0.1899  0.2089 -0.1739
  161MPD2     H 2457   0.927   1.444   1.828 -1.8031 -0.1225  0.4310
  161MPD2    H1 2458   0.735   1.322   2.197 -0.9113 -2.2989 -2.8127
  161MPD2    H2 2459   1.148   1.292   2.145  0.0777 -0.4074 -0.2544
  161MPD2    H3 2460   0.956   1.252   2.276 -1.6888 -0.0643 -0.0482
  161MPD2     N 2461   0.684   1.448   1.961 -0.6463 -0.0656 -0.2435
  161MPD2    H5 2462   0.617   1.478   2.030 -0.2337  0.0994  0.0865
  161MPD2    N1 2463   1.161   1.401   1.902  0.3954 -0.2605  0.1296
  161MPD2    H7 2464   1.149   1.455   1.817 -1.7092 -1.6955 -0.5104
  162TMC2    C1 2465   4.236   3.580   1.506 -0.2414 -0.5949  0.3944
  162TMC2    C2 2466   4.276   3.630   1.629  0.0690  0.0759  0.5759
  162TMC2    C3 2467   4.248   3.559   1.742 -0.4579  0.8933  0.0412
  162TMC2    C4 2468   4.151   3.470   1.492 -0.2791  0.2398  0.1749
  162TMC2    C5 2469   4.117   3.404   1.608 -0.0379  0.3168  0.0409
  162TMC2    C6 2470   4.157   3.449   1.735 -0.5928  0.0351  0.1172
  162TMC2     C 2471   4.297   3.608   1.376 -0.3807 -0.1406  0.2922
  162TMC2     O 2472   4.238   3.571   1.277 -0.1401 -0.1702 -0.2211
  162TMC2     H 2473   4.323   3.728   1.627  0.6222 -0.2179 -0.9597
  162TMC2    H1 2474   4.117   3.435   1.396 -0.2652  1.7113 -0.3715
  162TMC2    H2 2475   4.133   3.393   1.824  0.9545 -0.6818  0.0901
  162TMC2    C7 2476   4.043   3.289   1.592  0.6453 -1.1631 -0.1049
  162TMC2    C8 2477   4.311   3.590   1.866  0.2531 -0.0074  0.0224
  162TMC2    O1 2478   3.971   3.283   1.498 -0.0489  0.5079 -0.3714
  162TMC2    O2 2479   4.273   3.534   1.966  0.0717  0.1221 -0.0418
  162TMC2    O5 2480   4.441   3.606   1.829 -0.2130 -0.0159  0.0133
  162TMC2    H5 2481   4.461   3.653   1.745  1.0060 -3.2752 -1.5141
  163MPD2     C 2482   4.696   3.692   1.073 -0.0668 -0.0399  0.3552
  163MPD2    C1 2483   4.583   3.611   1.057  0.9578  0.1194 -0.4553
  163MPD2    C2 2484   4.496   3.608   1.164  0.2891  0.5754 -0.5815
  163MPD2    C3 2485   4.512   3.684   1.282 -0.1422 -0.1511 -0.3781
  163MPD2    C4 2486   4.631   3.754   1.294 -0.0540  0.2425 -0.5605
  163MPD2    C5 2487   4.718   3.760   1.187 -0.1113 -0.5429  0.2239
  163MPD2     H 2488   4.416   3.535   1.155  2.7670 -2.4943  2.1965
  163MPD2    H1 2489   4.660   3.809   1.382  1.2911 -0.8821 -0.2948
  163MPD2    H2 2490   0.042   3.708   0.990 -1.3223 -0.4647 -0.7426
  163MPD2    H3 2491   0.082   3.826   1.192 -0.0176 -0.8062  2.1369
  163MPD2     N 2492   4.422   3.660   1.390 -0.0412  0.2145 -0.7447
  163MPD2    H5 2493   4.450   3.689   1.483 -0.4399  0.6298 -0.7550
  163MPD2    N1 2494   4.564   3.538   0.937 -0.3851  0.3151  0.3732
  163MPD2    H7 2495   4.632   3.554   0.864 -1.5630  1.6775 -0.4216
  164TCq2    C1 2496   4.538   3.152  11.359  0.0855  0.5876  0.2514
  164TCq2    O2 2497   4.469   3.059  11.397  0.1567  0.0802 -0.2000
  164TCq2    C2 2498   4.561   3.257  11.454  0.5980  0.6948  0.6253
  164TCq2    C3 2499   4.660   3.351  11.430 -0.2043 -0.1589  0.5918
  164TCq2    C4 2500   4.672   3.456  11.517 -1.0421  0.6226  0.3866
  164TCq2    C5 2501   4.590   3.471  11.626 -0.0358 -0.2836 -0.1745
  164TCq2    C6 2502   4.494   3.371  11.640 -1.1232  0.1315  0.1191
  164TCq2    C7 2503   4.473   3.264  11.562 -0.3746 -0.0948 -0.0092
  164TCq2    C8 2504   4.376   3.422  11.709 -0.3461  0.5186  0.6982
  164TCq2    O4 2505   4.384   3.465  11.821  0.4072 -0.0510  0.0971
  164TCq2    C9 2506   0.046   3.557  11.486  0.5616 -0.4189 -0.0167
  164TCq2    O5 2507   0.087   3.633  11.578 -0.0796  0.3230  1.1129
  164TCq2    O6 2508   0.104   3.539  11.376  0.0179 -0.2568 -0.1014
  164TCq2    H2 2509   0.008   3.325  11.350  0.8172 -0.3398  1.5386
  164TCq2    H3 2510   4.605   3.554  11.694  0.1265 -0.2552 -0.2444
  164TCq2    H4 2511   4.385   3.202  11.573 -0.2314 -0.3091 -0.0657
  165MPD2     C 2512   0.180   0.513   2.392  0.1481 -0.2206 -0.4376
  165MPD2    C1 2513   0.288   0.522   2.301  0.0568  0.4723  0.2175
  165MPD2    C2 2514   0.290   0.632   2.216  0.6607 -0.0619  0.3188
  165MPD2    C3 2515   0.188   0.738   2.218 -0.8848 -0.4480 -0.2033
  165MPD2    C4 2516   0.081   0.718   2.304  0.5780 -0.1171  0.5204
  165MPD2    C5 2517   0.079   0.608   2.395  0.0271  0.0719  0.8209
  165MPD2     H 2518   0.374   0.634   2.148 -1.4746 -1.3964 -2.3349
  165MPD2    H1 2519   4.715   0.782   2.311  0.5600 -0.1064  0.1900
  165MPD2    H2 2520   0.169   0.435   2.467 -1.6874 -0.2064 -0.6948
  165MPD2    H3 2521   4.713   0.601   2.459  1.4832 -0.4847  2.7698
  165MPD2     N 2522   0.199   0.850   2.130  0.0354 -0.1751  0.2388
  165MPD2    H5 2523   0.137   0.931   2.141 -0.8307 -0.7358 -0.5009
  165MPD2    N1 2524   0.392   0.425   2.302 -0.4773  0.2514  0.0667
  165MPD2    H7 2525   0.383   0.356   2.376 -3.4850  0.4989 -0.0855
  166TCq2    C1 2526   0.295   0.869   2.033 -0.2648 -0.4184 -0.1839
  166TCq2    O2 2527   0.393   0.801   2.012 -0.1919 -0.7162 -0.2062
  166TCq2    C2 2528   0.277   0.992   1.951  0.2506  0.1859 -0.9891
  166TCq2    C3 2529   0.153   1.053   1.932 -0.3193  0.2747  0.1705
  166TCq2    C4 2530   0.133   1.138   1.828 -1.0261 -0.4571 -0.4680
  166TCq2    C5 2531   0.235   1.162   1.745  0.2475 -0.6256  0.3465
  166TCq2    C6 2532   0.354   1.101   1.761  0.4593 -0.7429  0.4017
  166TCq2    C7 2533   0.378   1.011   1.863  0.5346  0.5042  0.2054
  166TCq2    C8 2534   0.460   1.120   1.663 -0.6749 -0.0900 -0.6097
  166TCq2    O4 2535   0.564   1.064   1.689 -0.0010  0.2380  0.2943
  166TCq2    C9 2536   0.013   1.204   1.807  0.2947 -0.0697 -0.5485
  166TCq2    O5 2537   4.717   1.244   1.691 -0.0124  0.0750  0.4034
  166TCq2    O6 2538   4.643   1.194   1.897  0.9681  0.5540  0.1992
  166TCq2    H2 2539   0.073   1.040   2.003  0.0504  0.4466  0.6174
  166TCq2    H3 2540   0.227   1.239   1.669 -1.9063 -1.5847 -0.3891
  166TCq2    H4 2541   0.476   0.970   1.885  0.3513 -0.1088 -0.1388
  167TMC2    C1 2542   3.746   3.889  12.604  0.3340  0.1952  0.7159
  167TMC2    C2 2543   3.715   4.014  12.660  0.4229 -0.1218 -0.8802
  167TMC2    C3 2544   3.715   4.025  12.794 -1.2578  0.9274 -0.0515
  167TMC2    C4 2545   3.765   3.775  12.678 -0.0303 -0.4067 -0.3443
  167TMC2    C5 2546   3.779   3.796  12.809 -0.6253 -0.9326 -0.2876
  167TMC2    C6 2547   3.753   3.917  12.870 -0.6064 -0.1347  0.7398
  167TMC2     C 2548   3.710   3.874  12.460  0.9421 -0.3633 -0.3254
  167TMC2     O 2549   3.708   3.972  12.382 -0.0348 -0.3213 -0.4829
  167TMC2     H 2550   3.667   4.091  12.602  2.3907  1.7649  0.0106
  167TMC2    H1 2551   3.771   3.672  12.644  0.2655 -0.0669 -1.3337
  167TMC2    H2 2552   3.749   3.933  12.977 -2.1831 -0.7050  0.7759
  167TMC2    C7 2553   3.780   3.680  12.891 -0.4714  0.0055  0.1950
  167TMC2    C8 2554   3.618   4.114  12.857 -0.4826 -0.2021 -0.1100
  167TMC2    O1 2555   3.712   3.680  12.992  0.6860 -0.3948  0.4859
  167TMC2    O2 2556   3.505   4.127  12.817 -0.3032 -0.2918 -0.7179
  167TMC2    O5 2557   3.662   4.128  12.989 -0.1531 -0.2762 -0.2098
  167TMC2    H5 2558   3.760   4.121  12.984 -0.1997 -0.3362 -1.0643
  168MPD2     C 2559   3.673   3.730  12.203 -0.4848 -0.4834  0.0741
  168MPD2    C1 2560   3.654   3.674  12.325  0.0346 -0.5046  0.0121
  168MPD2    C2 2561   3.644   3.533  12.338  0.3141  0.2055  0.0701
  168MPD2    C3 2562   3.671   3.449  12.235  0.1833  0.5552 -0.4609
  168MPD2    C4 2563   3.674   3.504  12.108 -0.0150  0.7630  0.7822
  168MPD2    C5 2564   3.686   3.639  12.092  0.6280 -0.5531  0.3425
  168MPD2     H 2565   3.620   3.502  12.439  0.9156  0.4595  0.2924
  168MPD2    H1 2566   3.670   3.445  12.017  2.8989  1.3002  0.3098
  168MPD2    H2 2567   3.673   3.835  12.177 -0.3235 -1.0544 -2.2746
  168MPD2    H3 2568   3.693   3.689  11.996 -1.5938 -1.9378 -0.5430
  168MPD2     N 2569   3.674   3.305  12.246  0.0998 -0.4158  0.7123
  168MPD2    H5 2570   3.682   3.257  12.157  0.7341  1.9249 -0.4796
  168MPD2    N1 2571   3.657   3.750  12.444  0.2568  0.6300  0.2031
  168MPD2    H7 2572   3.632   3.702  12.530 -1.0605  1.3313  0.2108
  169MPD1     C 2573   1.386   2.217   8.306 -0.5776 -0.5069  0.1092
  169MPD1    C1 2574   1.426   2.122   8.394 -0.5153 -0.1560 -0.0932
  169MPD1    C2 2575   1.438   2.161   8.528 -0.2261 -0.2200  0.5325
  169MPD1    C3 2576   1.405   2.289   8.566 -0.1760  1.0395  0.6706
  169MPD1    C4 2577   1.365   2.381   8.470  0.2184 -0.5516  0.8360
  169MPD1    C5 2578   1.348   2.338   8.346  0.0973 -0.6310  0.3142
  169MPD1     H 2579   1.462   2.095   8.611 -1.8753 -0.4335  0.8416
  169MPD1    H1 2580   1.335   2.483   8.489 -0.3577 -1.0026  2.3312
  169MPD1    H2 2581   1.377   2.183   8.204 -1.0146  1.3965 -0.4765
  169MPD1    H3 2582   1.314   2.410   8.272 -0.6885 -1.1518  0.1754
  169MPD1     N 2583   1.414   2.320   8.700  0.0997 -0.3114 -1.0413
  169MPD1    H5 2584   1.450   2.246   8.759  0.0624  0.3338 -0.2239
  169MPD1    N1 2585   1.472   1.998   8.349  0.0089 -0.5386 -0.8105
  169MPD1    H6 2586   1.434   1.974   8.257  0.8974 -1.6538 -0.8827
  169MPD1    H7 2587   1.482   1.928   8.422 -1.9251 -1.2552 -1.2267
  170MPD1     C 2588   0.284   0.586  13.047  0.0470 -0.0897  0.4385
  170MPD1    C1 2589   0.325   0.701  13.100 -0.7573  0.4739  0.0831
  170MPD1    C2 2590   0.273   0.741  13.224 -0.0937 -0.5967  0.2817
  170MPD1    C3 2591   0.183   0.665  13.294  0.2777 -0.7514 -0.2213
  170MPD1    C4 2592   0.145   0.551  13.232  0.0802  0.5071 -0.1621
  170MPD1    C5 2593   0.191   0.510  13.111 -0.0669  0.4610  0.1394
  170MPD1     H 2594   0.327   0.826  13.264  1.4101 -0.5014 -1.9239
  170MPD1    H1 2595   0.074   0.491  13.288  3.2036 -2.8316  0.2338
  170MPD1    H2 2596   0.318   0.552  12.950  0.9902 -0.1453  0.7956
  170MPD1    H3 2597   0.145   0.426  13.061  2.2432 -0.8934  0.2913
  170MPD1     N 2598   0.143   0.712  13.422 -0.3010 -0.0212  0.2093
  170MPD1    H5 2599   0.176   0.804  13.448 -0.4589 -0.0169  0.3982
  170MPD1    N1 2600   0.444   0.758  13.050  0.9010  0.6061  0.6026
  170MPD1    H6 2601   0.458   0.857  13.069 -1.4270  0.4292  3.4538
  170MPD1    H7 2602   0.447   0.754  12.949  0.2694 -2.2910  0.6947
  171MPD1     C 2603   3.742   2.016  15.354 -0.0850  0.8051  0.2163
  171MPD1    C1 2604   3.801   2.063  15.467  0.2237 -0.2193 -0.0653
  171MPD1    C2 2605   3.817   1.966  15.568  0.2486  0.5087  0.2631
  171MPD1    C3 2606   3.785   1.834  15.553 -0.6143 -0.9057 -0.0825
  171MPD1    C4 2607   3.750   1.794  15.429  0.2439 -0.2216 -0.2112
  171MPD1    C5 2608   3.731   1.886  15.332 -0.8926  0.1710 -0.2388
  171MPD1     H 2609   3.847   2.006  15.664 -1.3087 -1.7602  1.6952
  171MPD1    H1 2610   3.718   1.692  15.416 -0.4874 -0.0946  0.5502
  171MPD1    H2 2611   3.714   2.075  15.268 -5.0925  1.7034  2.4973
  171MPD1    H3 2612   3.698   1.848  15.236 -0.5110 -1.0571  0.1239
  171MPD1     N 2613   3.769   1.747  15.665  0.4936  0.3156  0.1651
  171MPD1    H5 2614   3.752   1.649  15.647 -1.9385  0.8544 -0.4701
  171MPD1    N1 2615   3.809   2.202  15.487 -0.6122 -0.2220 -0.1147
  171MPD1    H6 2616   3.890   2.220  15.545 -0.0923 -0.1935 -0.8505
  171MPD1    H7 2617   3.823   2.263  15.406 -2.6974 -0.7254 -0.8638
  172MPD1     C 2618   2.585   0.995   0.718 -0.0020  0.0377  0.1120
  172MPD1    C1 2619   2.485   1.074   0.671 -0.0555  0.4417 -0.4768
  172MPD1    C2 2620   2.504   1.218   0.682 -0.3945 -0.0426 -0.7027
  172MPD1    C3 2621   2.626   1.264   0.721  0.7233  0.0854  0.1888
  172MPD1    C4 2622   2.732   1.180   0.748 -0.2693  0.2464 -0.3313
  172MPD1    C5 2623   2.709   1.049   0.740 -0.3231  0.1251  0.4129
  172MPD1     H 2624   2.412   1.275   0.675 -0.4506 -0.5140 -3.9303
  172MPD1    H1 2625   2.827   1.218   0.783 -0.5711  0.8810 -0.1847
  172MPD1    H2 2626   2.589   0.887   0.713 -0.6629  0.0351 -0.3140
  172MPD1    H3 2627   2.782   0.980   0.780  0.7244 -0.0386 -1.7755
  172MPD1     N 2628   2.658   1.404   0.734  0.1079 -0.2176 -0.8787
  172MPD1    H5 2629   2.756   1.430   0.729 -0.1079  0.8455  0.5028
  172MPD1    N1 2630   2.362   1.021   0.629  0.4391 -0.1718 -0.2213
  172MPD1    H6 2631   2.374   0.922   0.609  0.1342 -0.1366 -0.5804
  172MPD1    H7 2632   2.328   1.070   0.547 -0.7327 -0.9318 -0.1794
  173MPD1     C 2633   3.908   1.253  14.722 -0.0953  0.1658  0.3621
  173MPD1    C1 2634   3.925   1.128  14.655 -0.1574 -0.2967  0.1632
  173MPD1    C2 2635   3.842   1.032  14.697 -0.7137  0.6167  0.2118
  173MPD1    C3 2636   3.762   1.043  14.807 -0.1535 -0.5716  0.4987
  173MPD1    C4 2637   3.755   1.155  14.883  0.1724  0.0338  0.3357
  173MPD1    C5 2638   3.820   1.263  14.829 -0.2229 -0.6830 -0.7863
  173MPD1     H 2639   3.842   0.937  14.644  2.1273  0.0620  1.1756
  173MPD1    H1 2640   3.696   1.171  14.972  0.3546 -0.9579  0.6286
  173MPD1    H2 2641   3.970   1.336  14.692  0.2325  0.6999  2.5508
  173MPD1    H3 2642   3.810   1.362  14.871  1.1172 -0.2169 -1.5693
  173MPD1     N 2643   3.685   0.929  14.838  0.1094  0.2949  0.5160
  173MPD1    H5 2644   3.685   0.854  14.770 -1.1662 -0.0555  0.8983
  173MPD1    N1 2645   3.988   1.108  14.530 -0.2925  0.4233 -0.7691
  173MPD1    H6 2646   4.079   1.152  14.530 -0.3156  0.4515  1.4220
  173MPD1    H7 2647   4.007   1.008  14.522 -0.9818  0.0240  2.4033
  174MPD1     C 2648   3.666   0.404  14.258  0.9510 -0.6188 -0.2810
  174MPD1    C1 2649   3.623   0.330  14.359  0.3499 -0.5414 -0.0727
  174MPD1    C2 2650   3.551   0.381  14.467 -0.0620 -0.4761  0.4204
  174MPD1    C3 2651   3.536   0.519  14.479 -0.4764  0.0799 -0.1907
  174MPD1    C4 2652   3.578   0.601  14.370  0.3880 -0.3715  0.0052
  174MPD1    C5 2653   3.642   0.543  14.265 -0.0541 -0.3172  0.3387
  174MPD1     H 2654   3.517   0.305  14.537  0.7932 -1.2403  0.0024
  174MPD1    H1 2655   3.560   0.707  14.385 -0.3238 -0.2754 -1.5175
  174MPD1    H2 2656   3.724   0.358  14.179 -1.5168 -1.4569 -1.5953
  174MPD1    H3 2657   3.679   0.600  14.181 -3.8701  0.8171 -0.5720
  174MPD1     N 2658   3.494   0.579  14.598 -0.3856 -0.1020 -0.0712
  174MPD1    H5 2659   3.491   0.680  14.598  0.7074 -0.0687  0.5346
  174MPD1    N1 2660   3.621   0.192  14.337  0.1901  0.1171 -0.7441
  174MPD1    H6 2661   3.608   0.146  14.427 -0.9126 -0.4042 -1.1724
  174MPD1    H7 2662   3.705   0.172  14.284 -0.9313 -3.1146 -1.2468
  175MPD1     C 2663   2.157   1.916  15.679  0.1769  0.8609  0.2252
  175MPD1    C1 2664   2.279   1.861  15.705  0.3135 -0.5153  0.5039
  175MPD1    C2 2665   2.311   1.831  15.836 -0.1695  0.4919 -0.4313
  175MPD1    C3 2666   2.226   1.874  15.936  0.4313  0.6830 -0.1370
  175MPD1    C4 2667   2.109   1.937  15.907  0.1288 -0.4610  0.1048
  175MPD1    C5 2668   2.078   1.960  15.778  0.2917  0.8552 -0.8338
  175MPD1     H 2669   2.405   1.780  15.851  1.0174  2.5039 -0.8883
  175MPD1    H1 2670   2.026   1.951  15.975 -1.2832  0.6142 -1.8417
  175MPD1    H2 2671   2.128   1.935  15.576 -0.6584  0.5660  0.4038
  175MPD1    H3 2672   1.989   2.019  15.754  0.7813  1.2676 -1.6407
  175MPD1     N 2673   2.240   1.850  16.073 -0.2832 -0.6979 -0.6719
  175MPD1    H5 2674   2.163   1.874  16.134  0.1811 -0.0218 -0.3517
  175MPD1    N1 2675   2.374   1.844  15.599  0.5781 -0.0843  0.2394
  175MPD1    H6 2676   2.429   1.761  15.620 -0.3333 -0.3301  1.6779
  175MPD1    H7 2677   2.320   1.819  15.517  1.8368  1.1123 -0.9523
  176MPD1     C 2678   4.282   3.494  17.593  0.1229 -0.1093 -0.1390
  176MPD1    C1 2679   4.289   3.616  17.523 -0.2711 -0.2019  0.2108
  176MPD1    C2 2680   4.288   3.739  17.592 -0.1543  0.4010 -0.9021
  176MPD1    C3 2681   4.306   3.747   0.037  0.0500 -1.0266 -0.2374
  176MPD1    C4 2682   4.323   3.624   0.106  0.0537 -0.8731 -0.2818
  176MPD1    C5 2683   4.308   3.506   0.034  0.5641 -0.1456  0.5092
  176MPD1     H 2684   4.263   3.834  17.547  0.9954  2.3415  2.5361
  176MPD1    H1 2685   4.352   3.614   0.209 -0.2705  0.8380 -0.0199
  176MPD1    H2 2686   4.288   3.392  17.555  0.5280  0.0593 -0.5287
  176MPD1    H3 2687   4.312   3.411   0.086 -0.0940 -1.0984 -1.1783
  176MPD1     N 2688   4.307   3.870   0.105 -0.2707  0.5879  0.2079
  176MPD1    H5 2689   4.315   3.951   0.045  2.6909 -0.2434 -0.5077
  176MPD1    N1 2690   4.269   3.619  17.385 -0.0807  0.2308 -0.4892
  176MPD1    H6 2691   4.284   3.534  17.331 -0.2774  0.1391 -0.3982
  176MPD1    H7 2692   4.320   3.695  17.341 -0.0336  0.3996 -0.1477
  177MPD1     C 2693   2.085   3.432  10.277  0.2220  0.4462 -0.3453
  177MPD1    C1 2694   1.964   3.491  10.242  0.3520  0.2847  0.5315
  177MPD1    C2 2695   1.964   3.573  10.130 -0.5305  0.3617  0.4919
  177MPD1    C3 2696   2.081   3.613  10.070 -0.1362  0.1230 -0.0068
  177MPD1    C4 2697   2.201   3.563  10.108  0.3589 -0.3376  0.1567
  177MPD1    C5 2698   2.199   3.471  10.212 -0.4227  0.6352 -0.0455
  177MPD1     H 2699   1.871   3.626  10.112  0.3981  1.3720 -1.3105
  177MPD1    H1 2700   2.296   3.586  10.060  0.8001  1.8221  2.0796
  177MPD1    H2 2701   2.095   3.346  10.341 -1.5005 -0.2969 -1.0743
  177MPD1    H3 2702   2.297   3.441  10.247 -0.9466  0.1505  1.0160
  177MPD1     N 2703   2.075   3.709   9.969  0.2722 -0.2464  0.6634
  177MPD1    H5 2704   1.985   3.739   9.934 -0.0560 -0.6929  1.1185
  177MPD1    N1 2705   1.847   3.431  10.291  0.1709  1.1728  0.4230
  177MPD1    H6 2706   1.766   3.493  10.290 -1.4838 -1.0335 -1.3735
  177MPD1    H7 2707   1.868   3.399  10.386  0.2809  0.1633  0.0516
  178MPD1     C 2708   0.303   4.399   0.735 -0.4630  0.4149  0.4818
  178MPD1    C1 2709   0.404   4.348   0.659  0.1532 -0.4847 -0.1242
  178MPD1    C2 2710   0.433   4.407   0.536 -0.6256 -0.3660 -0.6252
  178MPD1    C3 2711   0.361   4.520   0.502  1.0490 -0.3128  0.3102
  178MPD1    C4 2712   0.260   4.577   0.586 -0.2917  0.2444  0.6479
  178MPD1    C5 2713   0.245   4.515   0.707 -0.0116  0.4001 -0.8479
  178MPD1     H 2714   0.505   4.361   0.468  0.3467 -1.8002  1.3761
  178MPD1    H1 2715   0.197   4.662   0.564 -1.0064 -0.1153  1.3129
  178MPD1    H2 2716   0.263   4.353   0.825 -2.8552  0.9354 -0.3049
  178MPD1    H3 2717   0.155   4.547   0.757  0.7348  0.9209  0.1624
  178MPD1     N 2718   0.365   4.587   0.373  0.5244  0.1651 -0.5811
  178MPD1    H5 2719   0.328   4.679   0.353  1.7389  0.3888 -1.8544
  178MPD1    N1 2720   0.461   4.226   0.694  0.2883 -0.2187 -0.7355
  178MPD1    H6 2721   0.453   4.214   0.795 -0.0689 -0.7507 -0.8290
  178MPD1    H7 2722   0.560   4.222   0.670  1.0006  2.6573  1.7530
  179MPD1     C 2723   4.344   3.607  16.080  0.5418  0.1956 -0.4158
  179MPD1    C1 2724   4.221   3.547  16.096 -1.5307 -1.2644 -0.3949
  179MPD1    C2 2725   4.206   3.414  16.053  1.0728  0.3790  0.0392
  179MPD1    C3 2726   4.308   3.347  15.983 -0.9021  0.3590  0.1052
  179MPD1    C4 2727   4.427   3.409  15.963  0.3627  0.1117  0.8492
  179MPD1    C5 2728   4.441   3.538  16.017 -0.5048  0.0950  0.8204
  179MPD1     H 2729   4.105   3.373  16.051  0.7507  1.2332 -1.3921
  179MPD1    H1 2730   4.505   3.372  15.898 -0.7445  0.0715 -0.4437
  179MPD1    H2 2731   4.356   3.706  16.123 -0.2180 -0.0353  0.3199
  179MPD1    H3 2732   4.539   3.582  16.002 -0.8715  0.0046 -1.8340
  179MPD1     N 2733   4.290   3.213  15.928  0.0337  0.1397  0.0350
  179MPD1    H5 2734   4.377   3.179  15.887  0.3988  0.2155  0.7470
  179MPD1    N1 2735   4.112   3.632  16.117 -0.1093  0.3829  0.1071
  179MPD1    H6 2736   4.125   3.710  16.182  2.3508  1.2179 -1.3729
  179MPD1    H7 2737   4.034   3.574  16.148  1.8947 -1.2101  2.0638
  180MPD1     C 2738   4.201   4.625  15.586 -0.0263 -0.3808  0.7429
  180MPD1    C1 2739   4.314   4.678  15.527  0.3399 -0.2234  0.1330
  180MPD1    C2 2740   4.318   4.680  15.393  0.6542 -0.5550  0.4321
  180MPD1    C3 2741   4.205   4.652  15.313 -0.2800 -0.5454  0.6457
  180MPD1    C4 2742   4.091   4.604  15.369 -0.0586 -0.0513 -0.7576
  180MPD1    C5 2743   4.092   4.583  15.508 -0.2131 -0.2967 -0.7012
  180MPD1     H 2744   4.410   4.720  15.351  1.9246 -1.0682  2.7592
  180MPD1    H1 2745   4.004   4.561  15.320 -0.4033  1.7828 -1.7408
  180MPD1    H2 2746   4.191   4.599  15.691 -0.7268 -0.3899  0.6758
  180MPD1    H3 2747   4.021   4.513  15.550  1.1079 -1.0963  0.2236
  180MPD1     N 2748   4.222   4.662  15.173  0.2457 -0.0664 -0.2266
  180MPD1    H5 2749   4.308   4.706  15.142  1.2619 -0.3470  2.1780
  180MPD1    N1 2750   4.424   4.715  15.608  0.4872  0.3726  0.0773
  180MPD1    H6 2751   4.398   0.022  15.702 -2.2092 -2.4490  0.1930
  180MPD1    H7 2752   4.489   0.061  15.568 -1.8106  1.1022 -2.3908
  181MPD1     C 2753   0.920   1.440   9.919  0.4362  0.1848  0.3867
  181MPD1    C1 2754   1.029   1.522   9.934 -0.6133  0.3816 -0.1928
  181MPD1    C2 2755   1.141   1.495   9.855  0.3679  0.1874 -0.9094
  181MPD1    C3 2756   1.151   1.380   9.777  0.0772  0.1636  0.1199
  181MPD1    C4 2757   1.043   1.292   9.778 -0.4106 -0.4242  0.1450
  181MPD1    C5 2758   0.931   1.322   9.848 -0.0292 -0.2607 -0.1513
  181MPD1     H 2759   1.225   1.564   9.865  1.3039 -1.2797  1.3690
  181MPD1    H1 2760   1.037   1.196   9.728 -1.8643  0.7272 -1.9150
  181MPD1    H2 2761   0.824   1.451   9.967 -0.5808 -1.6816 -1.2287
  181MPD1    H3 2762   0.849   1.251   9.845  0.1257 -0.3998 -1.0390
  181MPD1     N 2763   1.266   1.348   9.703  0.6731  0.4943 -0.8677
  181MPD1    H5 2764   1.263   1.261   9.651 -0.1896  0.9548 -1.5854
  181MPD1    N1 2765   1.024   1.640  10.004  0.1090 -0.1386 -0.5231
  181MPD1    H6 2766   1.113   1.653  10.052 -1.5735  1.8061  2.0962
  181MPD1    H7 2767   0.950   1.645  10.074  0.2021 -1.4050 -0.3332
  182MPD1     C 2768   1.672   0.611   2.012 -0.1506 -0.4531  0.3606
  182MPD1    C1 2769   1.775   0.556   1.936 -0.2637  0.1611 -0.4887
  182MPD1    C2 2770   1.768   0.561   1.796  0.2216 -0.2272  0.3546
  182MPD1    C3 2771   1.665   0.627   1.736  0.3326 -0.0255  0.0180
  182MPD1    C4 2772   1.565   0.689   1.815  0.7872 -0.5526  0.9256
  182MPD1    C5 2773   1.566   0.671   1.953  0.5248  0.0445 -0.0290
  182MPD1     H 2774   1.843   0.513   1.734  0.2640 -0.6578  0.7409
  182MPD1    H1 2775   1.482   0.733   1.762  0.8983  0.3822  1.5409
  182MPD1    H2 2776   1.668   0.611   2.120 -1.2999 -0.7956  0.3222
  182MPD1    H3 2777   1.495   0.720   2.018 -0.9976 -1.0219 -0.8788
  182MPD1     N 2778   1.666   0.649   1.596 -0.0403  0.1503 -0.3328
  182MPD1    H5 2779   1.594   0.703   1.551 -1.0080 -0.8034  0.0912
  182MPD1    N1 2780   1.888   0.508   1.999  0.0187  0.3459 -0.4120
  182MPD1    H6 2781   1.867   0.478   2.094  1.9850 -0.9089 -0.3575
  182MPD1    H7 2782   1.930   0.432   1.945  1.3915  0.3503  0.6453
  183MPD1     C 2783   2.012   1.164   9.272  0.6090  0.2357 -0.2594
  183MPD1    C1 2784   2.021   1.027   9.298 -0.4006  0.9293  0.1573
  183MPD1    C2 2785   2.141   0.985   9.352 -0.1922 -0.0894  0.4605
  183MPD1    C3 2786   2.240   1.071   9.390  0.1993  0.0341 -0.4065
  183MPD1    C4 2787   2.224   1.204   9.364  0.3575 -0.3009 -0.2707
  183MPD1    C5 2788   2.107   1.248   9.303 -0.0491  0.0919  0.5023
  183MPD1     H 2789   2.155   0.885   9.391 -0.9080 -1.0765 -1.7844
  183MPD1    H1 2790   2.297   1.279   9.394  0.3195 -0.3501 -0.0507
  183MPD1    H2 2791   1.922   1.205   9.228 -0.4277  1.3266  2.8978
  183MPD1    H3 2792   2.101   1.355   9.283  4.2844 -0.0130 -1.3759
  183MPD1     N 2793   2.337   1.019   9.476  0.0957 -0.0841  0.0960
  183MPD1    H5 2794   2.338   0.918   9.485 -0.1956  0.0246  1.3906
  183MPD1    N1 2795   1.927   0.931   9.261 -0.4171 -0.2442  0.1238
  183MPD1    H6 2796   1.929   0.852   9.325  0.3457 -1.5209 -1.4984
  183MPD1    H7 2797   1.834   0.972   9.254  0.7153  2.1487 -0.8228
  184MPD1     C 2798   1.171   3.157   9.817  0.1705  0.5170  0.4850
  184MPD1    C1 2799   1.265   3.221   9.890 -0.4533 -0.1443  0.4985
  184MPD1    C2 2800   1.316   3.338   9.838 -0.1828  0.1865 -0.2745
  184MPD1    C3 2801   1.266   3.382   9.714  0.2520  0.0929 -0.1938
  184MPD1    C4 2802   1.180   3.306   9.640 -0.1807  0.1310 -0.2762
  184MPD1    C5 2803   1.125   3.191   9.689  0.1718 -0.8625 -0.3972
  184MPD1     H 2804   1.384   3.400   9.895 -0.0465 -0.0012 -0.2313
  184MPD1    H1 2805   1.145   3.355   9.550  1.0243 -0.2905 -0.9763
  184MPD1    H2 2806   1.128   3.072   9.869 -2.3997  0.4795 -1.7081
  184MPD1    H3 2807   1.047   3.131   9.642  0.5178  0.4646 -2.6361
  184MPD1     N 2808   1.313   3.500   9.651  0.5248  0.1793  0.8761
  184MPD1    H5 2809   1.286   3.519   9.555  1.6822 -1.7878  0.1642
  184MPD1    N1 2810   1.307   3.173  10.015  0.1213 -0.6805  0.1051
  184MPD1    H6 2811   1.407   3.192  10.024  0.2209 -1.6346  0.9873
  184MPD1    H7 2812   1.303   3.072  10.025  1.9505 -0.8701 -0.9368
  185MPD1     C 2813   1.124   3.692   8.852  0.5726  0.0488 -0.6117
  185MPD1    C1 2814   1.149   3.814   8.911  0.2084  0.0232 -0.1810
  185MPD1    C2 2815   1.215   3.818   9.028 -0.6683 -0.4217 -1.2086
  185MPD1    C3 2816   1.258   3.700   9.093 -0.2267 -0.1936 -0.6385
  185MPD1    C4 2817   1.219   3.576   9.041 -0.3862 -0.4831 -0.6145
  185MPD1    C5 2818   1.153   3.574   8.917  0.1059 -0.0600 -0.9462
  185MPD1     H 2819   1.236   3.917   9.068 -0.0280 -0.9619 -0.1958
  185MPD1    H1 2820   1.242   3.487   9.099 -1.9892 -0.7569 -0.4108
  185MPD1    H2 2821   1.066   3.686   8.760 -0.3822 -0.1701  0.0123
  185MPD1    H3 2822   1.125   3.488   8.858 -3.6233  2.1431 -2.4256
  185MPD1     N 2823   1.326   3.694   9.214 -0.0642 -0.2424 -0.4373
  185MPD1    H5 2824   1.323   3.607   9.266  1.0810 -1.1025 -1.7731
  185MPD1    N1 2825   1.128   3.931   8.837 -0.1535 -0.2897 -0.1822
  185MPD1    H6 2826   1.109   4.011   8.898 -2.2278 -0.1886 -0.9537
  185MPD1    H7 2827   1.051   3.919   8.771  0.7284  0.4351 -1.3369
  186MPD1     C 2828   0.176   2.762  15.814  0.0578 -0.3111  0.9572
  186MPD1    C1 2829   0.262   2.861  15.781 -0.0776  0.8134  0.0770
  186MPD1    C2 2830   0.295   2.961  15.872 -0.3751  0.3872  0.1676
  186MPD1    C3 2831   0.248   2.958  16.008  0.5253  0.1872 -0.0673
  186MPD1    C4 2832   0.168   2.853  16.028 -0.0479  0.0847 -0.0553
  186MPD1    C5 2833   0.132   2.754  15.940 -0.5053  0.5540  0.5260
  186MPD1     H 2834   0.362   3.040  15.839 -1.1888  0.5012 -1.2432
  186MPD1    H1 2835   0.133   2.845  16.130  1.9857 -0.1346  0.6403
  186MPD1    H2 2836   0.139   2.696  15.736  0.3404  0.1695  0.4087
  186MPD1    H3 2837   0.073   2.670  15.974  0.4598 -0.5711 -0.6253
  186MPD1     N 2838   0.273   3.047  16.114 -0.3048 -0.1395 -0.0855
  186MPD1    H5 2839   0.249   3.020  16.209 -0.2121  1.6592  0.4556
  186MPD1    N1 2840   0.302   2.863  15.645  0.7330  0.0325 -0.1407
  186MPD1    H6 2841   0.368   2.937  15.623  0.4582 -0.0760 -1.3366
  186MPD1    H7 2842   0.326   2.768  15.620 -1.1347 -0.3902 -0.2780
  187MPD1     C 2843   4.493   0.327   0.534 -0.1631  0.6679  0.0975
  187MPD1    C1 2844   4.384   0.250   0.541 -0.5913 -0.3970  0.0730
  187MPD1    C2 2845   4.280   0.274   0.452 -0.2737  0.4207 -0.1494
  187MPD1    C3 2846   4.282   0.387   0.375 -0.6176 -0.2970 -0.4805
  187MPD1    C4 2847   4.390   0.469   0.387 -0.5120 -0.1718  0.4793
  187MPD1    C5 2848   4.503   0.442   0.461 -0.2663  0.1641  0.1550
  187MPD1     H 2849   4.197   0.204   0.451 -0.3465  0.5212 -2.0351
  187MPD1    H1 2850   4.396   0.553   0.318  0.3558 -0.6141  0.0257
  187MPD1    H2 2851   4.580   0.304   0.594 -0.7096 -1.3374  0.0973
  187MPD1    H3 2852   4.600   0.490   0.452 -1.2078  1.7814 -1.5068
  187MPD1     N 2853   4.176   0.416   0.283  0.2506 -1.0658  0.1380
  187MPD1    H5 2854   4.190   0.505   0.237 -0.2753 -0.9732  0.1641
  187MPD1    N1 2855   4.370   0.132   0.625 -0.2010 -0.2710 -0.0396
  187MPD1    H6 2856   4.434   0.135   0.704 -1.2135  1.0900  0.7325
  187MPD1    H7 2857   4.279   0.103   0.659  0.5086 -1.9879  0.4178
  188MPD1     C 2858   3.901   0.060   9.643 -0.5931  0.4525 -0.2944
  188MPD1    C1 2859   3.787   0.003   9.585 -0.2296  0.3932 -0.3523
  188MPD1    C2 2860   3.760   4.591   9.618 -0.1902  0.0090 -0.1141
  188MPD1    C3 2861   3.844   4.515   9.702 -0.3550 -0.0887  0.4423
  188MPD1    C4 2862   3.951   4.568   9.758  0.1031  0.2097  0.2504
  188MPD1    C5 2863   3.981   4.702   9.729  0.7462  0.2443  1.0042
  188MPD1     H 2864   3.671   4.548   9.575 -1.0031  0.9369  0.6223
  188MPD1    H1 2865   4.026   4.510   9.811 -1.1308  0.0858  1.8683
  188MPD1    H2 2866   3.936   0.157   9.610 -1.3233  0.0287 -2.3165
  188MPD1    H3 2867   4.067   0.034   9.768  1.5271  0.4815 -1.0190
  188MPD1     N 2868   3.831   4.380   9.720  0.3389 -0.6218  0.1799
  188MPD1    H5 2869   3.906   4.334   9.770  0.6358  0.7541  1.0189
  188MPD1    N1 2870   3.722   0.064   9.479 -0.3824  0.2277  0.7975
  188MPD1    H6 2871   3.628   0.025   9.465 -0.4343  0.9288 -0.8780
  188MPD1    H7 2872   3.718   0.165   9.483 -2.2661  0.1804  0.2431
  189MPD1     C 2873   1.335   0.467   1.042  0.0289 -0.1460 -0.1029
  189MPD1    C1 2874   1.206   0.474   1.095 -0.5582  0.3348  0.4632
  189MPD1    C2 2875   1.104   0.526   1.019  0.5101  0.9464  0.3755
  189MPD1    C3 2876   1.140   0.581   0.895  0.1581 -0.3028 -0.5416
  189MPD1    C4 2877   1.265   0.574   0.834  0.5927 -1.0624  0.0676
  189MPD1    C5 2878   1.355   0.527   0.921  0.7410 -0.2410  0.6335
  189MPD1     H 2879   1.000   0.526   1.049  0.9164  1.2868  1.7760
  189MPD1    H1 2880   1.291   0.619   0.739 -2.5292 -0.5192 -0.5147
  189MPD1    H2 2881   1.423   0.431   1.096 -1.0631 -0.4810  1.4654
  189MPD1    H3 2882   1.456   0.517   0.882  0.8017  0.3427  0.6335
  189MPD1     N 2883   1.041   0.654   0.831  0.5910 -0.2685 -0.0842
  189MPD1    H5 2884   0.947   0.660   0.868  0.0254  0.0379 -1.6029
  189MPD1    N1 2885   1.176   0.401   1.215 -0.0397 -0.3778  0.7293
  189MPD1    H6 2886   1.250   0.414   1.283 -1.0514 -0.1681  1.7928
  189MPD1    H7 2887   1.087   0.428   1.256  0.0468  0.1735  0.5598
  190MPD1     C 2888   3.920   4.656  16.410  0.3670 -0.6241 -0.1055
  190MPD1    C1 2889   3.996   4.590  16.502  0.1029 -0.0104  0.7912
  190MPD1    C2 2890   4.134   4.586  16.476 -0.8234 -0.0314  0.2038
  190MPD1    C3 2891   4.182   4.619  16.353  0.3022 -0.2802  0.2598
  190MPD1    C4 2892   4.096   4.666  16.255 -0.2960 -0.8147 -0.1421
  190MPD1    C5 2893   3.966   4.688  16.285 -0.1043  0.2691  0.4951
  190MPD1     H 2894   4.200   4.546  16.552 -0.4732  1.8672  0.9121
  190MPD1    H1 2895   4.117   4.683  16.151 -1.4938 -1.6883 -0.5314
  190MPD1    H2 2896   3.818   4.679  16.442  1.1219  0.0228  1.8285
  190MPD1    H3 2897   3.898   0.001  16.208  0.0263  0.5239  0.4929
  190MPD1     N 2898   4.316   4.581  16.320  0.0861  0.1617  0.0735
  190MPD1    H5 2899   4.352   4.542  16.407  0.9187  1.5930  0.3621
  190MPD1    N1 2900   3.946   4.568  16.626  0.8862 -0.0209 -0.0012
  190MPD1    H6 2901   3.845   4.554  16.629  0.3492  3.9063 -0.2970
  190MPD1    H7 2902   3.994   4.490  16.670  2.7056  2.0876  1.7513
  191MPD1     C 2903   3.789   1.151  13.205 -0.8184 -0.3476  0.3043
  191MPD1    C1 2904   3.829   1.121  13.078  0.7388  0.1695 -0.2452
  191MPD1    C2 2905   3.793   1.197  12.971 -0.1595  0.4747  0.1518
  191MPD1    C3 2906   3.731   1.320  12.991 -0.2759  0.9643 -0.3286
  191MPD1    C4 2907   3.684   1.345  13.118  0.6380 -0.0359 -0.4319
  191MPD1    C5 2908   3.706   1.256  13.222  0.6822  0.1714  0.3530
  191MPD1     H 2909   3.831   1.179  12.871 -0.1759 -1.8651  0.5731
  191MPD1    H1 2910   3.625   1.432  13.145  0.6983  0.2469 -1.2157
  191MPD1    H2 2911   3.830   1.095  13.288 -0.4398  0.0261  0.3707
  191MPD1    H3 2912   3.673   1.286  13.321  0.3937 -0.2330  0.3796
  191MPD1     N 2913   3.712   1.407  12.882 -0.1162 -0.6161 -0.5574
  191MPD1    H5 2914   3.750   1.370  12.795  4.0632  2.4078 -0.0234
  191MPD1    N1 2915   3.926   1.020  13.069 -0.0176  0.1919  0.0895
  191MPD1    H6 2916   3.897   0.940  13.125 -0.7848  1.2308  1.1726
  191MPD1    H7 2917   3.942   0.985  12.975  2.1372 -0.3664  0.6798
  192MPD1     C 2918   3.364   2.418  12.777 -0.3311 -0.1038  0.5238
  192MPD1    C1 2919   3.315   2.302  12.829 -0.3350 -0.4969 -1.0220
  192MPD1    C2 2920   3.360   2.180  12.783  0.5916 -0.1038  0.2963
  192MPD1    C3 2921   3.440   2.169  12.672 -0.1716 -0.4894 -0.0298
  192MPD1    C4 2922   3.481   2.289  12.610  0.4437 -0.1662  0.2110
  192MPD1    C5 2923   3.438   2.408  12.658  0.0169 -0.4924 -0.2224
  192MPD1     H 2924   3.323   2.088  12.826  2.2535 -1.2379 -0.6464
  192MPD1    H1 2925   3.556   2.289  12.531 -1.1664 -1.1882 -1.3235
  192MPD1    H2 2926   3.346   2.512  12.827  0.8330  1.2201 -1.5379
  192MPD1    H3 2927   3.477   2.499  12.613 -0.3403  0.1301  0.7377
  192MPD1     N 2928   3.486   2.042  12.636  0.2351  0.2869  0.1024
  192MPD1    H5 2929   3.568   2.053  12.577 -1.1071  0.3900 -1.7311
  192MPD1    N1 2930   3.230   2.318  12.941 -0.4898 -0.0047 -0.1584
  192MPD1    H6 2931   3.165   2.239  12.934 -0.0466 -0.5065  1.3342
  192MPD1    H7 2932   3.169   2.399  12.938 -0.7832 -0.1814  0.9024
  193MPD1     C 2933   3.247   1.394  16.523  0.5734 -0.0469 -0.0001
  193MPD1    C1 2934   3.193   1.488  16.605 -0.0406  0.2006  0.3758
  193MPD1    C2 2935   3.265   1.585  16.657  0.0013  0.7128  0.1117
  193MPD1    C3 2936   3.404   1.585  16.642 -0.3151  0.2700  0.2403
  193MPD1    C4 2937   3.460   1.499  16.558 -0.3440 -0.9664 -0.7967
  193MPD1    C5 2938   3.380   1.398  16.508  0.2050  0.6620  0.1512
  193MPD1     H 2939   3.222   1.670  16.708 -1.8430 -0.3074  0.2793
  193MPD1    H1 2940   3.566   1.499  16.536 -0.3235 -0.1189 -0.6954
  193MPD1    H2 2941   3.185   1.334  16.457 -0.2620 -1.5127  2.1198
  193MPD1    H3 2942   3.432   1.343  16.430 -0.3374 -0.5261  0.6279
  193MPD1     N 2943   3.493   1.677  16.702  0.2356  0.7119 -0.0519
  193MPD1    H5 2944   3.589   1.670  16.671  0.2235 -0.7747  0.2342
  193MPD1    N1 2945   3.053   1.499  16.617 -0.1681  0.0566  0.4273
  193MPD1    H6 2946   3.016   1.414  16.658 -0.5504  1.4062  2.8624
  193MPD1    H7 2947   3.014   1.583  16.659 -0.4430 -0.6648  1.6089
  194MPD1     C 2948   2.587   3.842  16.870  0.7751  0.8755 -0.4024
  194MPD1    C1 2949   2.615   3.708  16.844  1.0301  0.3978 -0.1843
  194MPD1    C2 2950   2.548   3.606  16.913  0.4520  0.0555 -0.2008
  194MPD1    C3 2951   2.470   3.639  17.026 -0.1990 -0.2234 -0.5909
  194MPD1    C4 2952   2.438   3.770  17.046  1.3701  0.1351  0.3740
  194MPD1    C5 2953   2.493   3.868  16.970 -0.1053  0.0289  0.7229
  194MPD1     H 2954   2.568   3.502  16.889 -0.0497  0.1460 -0.9906
  194MPD1    H1 2955   2.373   3.796  17.129  0.1348 -0.8468 -0.2887
  194MPD1    H2 2956   2.620   3.922  16.805  0.4503  0.0955 -1.5247
  194MPD1    H3 2957   2.463   3.971  16.954 -0.1331 -0.2336 -0.9428
  194MPD1     N 2958   2.401   3.540  17.104 -0.6542 -0.9353  0.6865
  194MPD1    H5 2959   2.375   3.569  17.197 -0.5751 -0.7735  0.6586
  194MPD1    N1 2960   2.686   3.680  16.723  0.5369 -0.6025  0.1716
  194MPD1    H6 2961   2.763   3.746  16.713 -1.1891  1.3420 -0.2499
  194MPD1    H7 2962   2.715   3.583  16.721  2.1507 -0.1229  0.3374
  195MPD1     C 2963   3.793   0.748   0.216  0.3125  0.1459 -0.3029
  195MPD1    C1 2964   3.884   0.753   0.320  0.1197  0.4764  0.6527
  195MPD1    C2 2965   3.880   0.648   0.411 -0.6883  0.4134  0.5789
  195MPD1    C3 2966   3.793   0.541   0.400 -0.4129  0.0906  0.2718
  195MPD1    C4 2967   3.703   0.539   0.292  1.0450  0.5702  0.7503
  195MPD1    C5 2968   3.705   0.640   0.200  0.0016  0.2595  0.1588
  195MPD1     H 2969   3.959   0.645   0.486 -1.2177  0.2417  1.1326
  195MPD1    H1 2970   3.624   0.465   0.281  0.7005  0.9929  0.3497
  195MPD1    H2 2971   3.778   0.833   0.151 -0.6603 -0.4630 -0.8887
  195MPD1    H3 2972   3.640   0.629   0.114 -1.2921 -0.0007  1.1705
  195MPD1     N 2973   3.785   0.426   0.483 -0.4014 -0.3152 -0.5502
  195MPD1    H5 2974   3.727   0.348   0.453 -1.3415 -0.4868  1.7212
  195MPD1    N1 2975   3.967   0.865   0.342 -0.1540 -0.1044  0.2737
  195MPD1    H6 2976   3.993   0.902   0.251 -1.1845 -0.5351 -0.1909
  195MPD1    H7 2977   4.046   0.844   0.403 -0.3135  1.8088  1.1310
  196MPD1     C 2978   2.225   4.282   0.772  0.1734  0.2081 -0.7152
  196MPD1    C1 2979   2.316   4.372   0.724 -0.3552 -0.5935 -0.3296
  196MPD1    C2 2980   2.401   4.425   0.821  0.3069 -0.3921  0.2585
  196MPD1    C3 2981   2.371   4.412   0.955 -0.0114 -0.3094 -0.3302
  196MPD1    C4 2982   2.271   4.327   1.001  0.2599 -0.6864  0.8963
  196MPD1    C5 2983   2.203   4.256   0.905 -0.7312 -0.4269  0.0086
  196MPD1     H 2984   2.495   4.473   0.797  0.0806 -1.3674 -2.6448
  196MPD1    H1 2985   2.245   4.307   1.104 -0.7416  0.6833  0.9039
  196MPD1    H2 2986   2.150   4.243   0.704  1.4249  0.9616 -2.5431
  196MPD1    H3 2987   2.126   4.184   0.929 -1.1752  0.4946  1.2981
  196MPD1     N 2988   2.442   4.479   1.058 -0.2479  0.5867  0.2109
  196MPD1    H5 2989   2.421   4.446   1.152 -1.0595 -0.8233 -0.4865
  196MPD1    N1 2990   2.350   4.388   0.589 -0.4681 -0.2234  0.2625
  196MPD1    H6 2991   2.267   4.367   0.534  0.0252 -3.2492  0.6811
  196MPD1    H7 2992   2.380   4.482   0.564 -0.3762  0.0679  1.4470
  197MPD1     C 2993   2.127   1.895  17.658  0.5889  0.0483  0.3628
  197MPD1    C1 2994   2.088   2.022  17.655  0.2953  0.5443 -0.2784
  197MPD1    C2 2995   2.156   2.109  17.569 -0.5747  0.4994 -0.1626
  197MPD1    C3 2996   2.249   2.063  17.472  0.0914  0.6591  0.0511
  197MPD1    C4 2997   2.278   1.930  17.476 -0.4530  0.1153 -0.0474
  197MPD1    C5 2998   2.218   1.843  17.564  0.8599 -0.0849 -0.1062
  197MPD1     H 2999   2.126   2.213  17.572  1.6829  1.1726 -0.5141
  197MPD1    H1 3000   2.338   1.890  17.395 -0.4740 -0.8773  0.4205
  197MPD1    H2 3001   2.090   1.838   0.054  0.0342 -0.4512 -0.2168
  197MPD1    H3 3002   2.238   1.737  17.565 -3.0705 -0.8371 -1.2777
  197MPD1     N 3003   2.321   2.148  17.393 -0.0069 -0.5305  0.6608
  197MPD1    H5 3004   2.383   2.105  17.324 -0.5427 -1.2729  0.6450
  197MPD1    N1 3005   2.002   2.066   0.071  0.1885 -0.1458  0.4437
  197MPD1    H6 3006   1.960   2.156   0.046  2.0719  0.8841  1.0482
  197MPD1    H7 3007   1.929   2.000   0.098  2.4533 -2.4849  0.8393
  198MPD1     C 3008   4.338   0.924  16.545 -0.4085  0.1702 -0.4612
  198MPD1    C1 3009   4.470   0.889  16.530 -0.1620  0.1418 -0.3596
  198MPD1    C2 3010   4.545   0.972  16.448 -0.0097 -0.1881 -0.1614
  198MPD1    C3 3011   4.493   1.085  16.385 -0.3576  0.0737  0.0283
  198MPD1    C4 3012   4.361   1.120  16.411  0.3043 -0.2705 -0.5766
  198MPD1    C5 3013   4.286   1.038  16.495  0.1219  0.0372 -0.2844
  198MPD1     H 3014   4.649   0.950  16.428  0.3511  1.0229  0.4167
  198MPD1    H1 3015   4.300   1.201  16.372 -0.7920 -1.1552 -0.6923
  198MPD1    H2 3016   4.266   0.867  16.602 -0.9704  1.3516 -0.0000
  198MPD1    H3 3017   4.181   1.063  16.508  0.2216  1.2702 -1.7548
  198MPD1     N 3018   4.575   1.154  16.292 -0.0032 -0.1917  0.1671
  198MPD1    H5 3019   4.668   1.115  16.282 -0.4893 -0.9669 -1.2061
  198MPD1    N1 3020   4.529   0.786  16.606 -0.3815  0.1408  0.3512
  198MPD1    H6 3021   4.605   0.735  16.561  0.8743  0.9060  1.5689
  198MPD1    H7 3022   4.460   0.715  16.627 -0.4518 -0.2723 -1.2843
  199MPD1     C 3023   2.603   2.133  10.286 -0.5447  0.5728  0.2686
  199MPD1    C1 3024   2.506   2.216  10.241  0.8537  0.0151 -1.0657
  199MPD1    C2 3025   2.405   2.164  10.162 -0.1950  1.1478  0.8521
  199MPD1    C3 3026   2.398   2.027  10.129  0.1363  0.4978  0.5957
  199MPD1    C4 3027   2.496   1.946  10.183 -0.0999 -0.2663 -0.2339
  199MPD1    C5 3028   2.595   1.998  10.257 -1.2069  0.4118 -0.2062
  199MPD1     H 3029   2.332   2.231  10.120  0.1337  0.4094 -0.9058
  199MPD1    H1 3030   2.490   1.839  10.164  0.1251 -0.2627 -0.3280
  199MPD1    H2 3031   2.694   2.171  10.332 -0.1239  0.1028 -0.1803
  199MPD1    H3 3032   2.668   1.925  10.290 -1.7445 -0.5374 -1.1067
  199MPD1     N 3033   2.287   1.965  10.061  0.1510 -0.1023 -0.2125
  199MPD1    H5 3034   2.270   1.865  10.070 -1.4017  0.1486 -0.3816
  199MPD1    N1 3035   2.523   2.355  10.243 -0.2156  0.2369 -0.2263
  199MPD1    H6 3036   2.576   2.381  10.326  1.7649 -1.7109 -0.8792
  199MPD1    H7 3037   2.434   2.403  10.236  0.4434  1.7553  2.0768
  200MPD1     C 3038   1.191   1.818  14.263  0.0152  0.1196 -0.0398
  200MPD1    C1 3039   1.070   1.850  14.209  0.0867  0.0977  0.8036
  200MPD1    C2 3040   1.028   1.986  14.212 -0.1071 -0.8557 -0.0661
  200MPD1    C3 3041   1.121   2.084  14.248 -0.3329 -0.2899  0.0803
  200MPD1    C4 3042   1.249   2.058  14.278  0.5718  0.4137 -0.9589
  200MPD1    C5 3043   1.281   1.922  14.281  0.1720  0.0415  0.3499
  200MPD1     H 3044   0.924   2.009  14.192  0.0601  0.7265  0.8828
  200MPD1    H1 3045   1.320   2.138  14.295 -0.3183  0.7655  1.1127
  200MPD1    H2 3046   1.222   1.715  14.258 -1.3014 -0.1329 -2.8012
  200MPD1    H3 3047   1.380   1.891  14.313  0.0967 -1.5269 -0.9508
  200MPD1     N 3048   1.066   2.213  14.246 -0.1674  0.5332 -0.1970
  200MPD1    H5 3049   0.970   2.219  14.214  0.3987 -1.4382 -2.2921
  200MPD1    N1 3050   0.979   1.745  14.186 -0.1961  0.1465 -0.3865
  200MPD1    H6 3051   0.899   1.771  14.128 -2.0552 -1.6695  1.3860
  200MPD1    H7 3052   1.021   1.657  14.157 -0.6260  0.3988 -1.8112
  201MPD1     C 3053   4.162   1.089  13.452  0.9333 -0.2398 -0.5036
  201MPD1    C1 3054   4.133   1.004  13.345  0.2928 -0.3562  0.2002
  201MPD1    C2 3055   4.055   0.892  13.374  0.3538  0.5051 -0.6326
  201MPD1    C3 3056   4.014   0.856  13.502 -0.7363  0.8396  0.6441
  201MPD1    C4 3057   4.051   0.942  13.601 -1.0295 -0.5297  0.1224
  201MPD1    C5 3058   4.118   1.057  13.572 -0.4059  0.6765 -0.7743
  201MPD1     H 3059   4.025   0.829  13.291  0.0991 -0.4727  0.2016
  201MPD1    H1 3060   4.014   0.931  13.703 -2.5197 -1.4197 -0.5096
  201MPD1    H2 3061   4.222   1.177  13.433 -1.7316  1.5062 -0.8435
  201MPD1    H3 3062   4.145   1.122  13.654  0.0901  0.7996 -1.0290
  201MPD1     N 3063   3.934   0.745  13.520  0.3629 -0.3151  0.6274
  201MPD1    H5 3064   3.914   0.695  13.434 -1.3719 -0.0201  0.8511
  201MPD1    N1 3065   4.195   1.034  13.220  0.6895  0.0544 -0.1584
  201MPD1    H6 3066   4.202   1.135  13.220 -0.0416  0.1133 -2.2822
  201MPD1    H7 3067   4.130   1.008  13.146 -0.5549  0.5078  0.7723
  202MPD1     C 3068   3.378   0.414   9.145 -0.4356  0.1667  0.4768
  202MPD1    C1 3069   3.439   0.291   9.165  0.0415  0.1196  0.4112
  202MPD1    C2 3070   3.437   0.231   9.292  0.0257  0.5673  0.6950
  202MPD1    C3 3071   3.337   0.274   9.380 -0.4124  0.1996 -0.0309
  202MPD1    C4 3072   3.282   0.399   9.360  0.1361  0.4299 -0.1149
  202MPD1    C5 3073   3.297   0.463   9.244  0.1020 -1.0666 -0.5020
  202MPD1     H 3074   3.488   0.136   9.299  0.1453  0.6747  1.2854
  202MPD1    H1 3075   3.222   0.440   9.440  0.2877 -0.0234  0.2320
  202MPD1    H2 3076   3.382   0.462   9.048  2.3079  0.2979  0.6423
  202MPD1    H3 3077   3.239   0.551   9.221 -0.1571 -1.3420 -0.9191
  202MPD1     N 3078   3.297   0.210   9.501 -0.2353 -0.4002  0.2882
  202MPD1    H5 3079   3.230   0.258   9.561  0.2231 -0.1065  0.5594
  202MPD1    N1 3080   3.545   0.256   9.084  0.7254  0.0285  0.2872
  202MPD1    H6 3081   3.565   0.156   9.080  0.2089 -0.0110 -1.3199
  202MPD1    H7 3082   3.542   0.290   8.988  1.6725  1.1350  0.6397
  203MPD1     C 3083   2.065   1.806  12.457 -0.1758  0.3500 -0.2651
  203MPD1    C1 3084   1.997   1.703  12.390  0.5967  0.1937 -0.0363
  203MPD1    C2 3085   1.983   1.585  12.445  0.2778  0.0816 -0.9916
  203MPD1    C3 3086   2.034   1.562  12.575  0.0500 -0.0332  0.4868
  203MPD1    C4 3087   2.116   1.657  12.631  0.9575 -0.1498  0.5094
  203MPD1    C5 3088   2.117   1.783  12.586 -0.3470 -0.1886 -0.5804
  203MPD1     H 3089   1.920   1.512  12.396 -1.2654 -0.5178  1.8979
  203MPD1    H1 3090   2.159   1.642  12.730 -2.4611 -0.6922  1.9350
  203MPD1    H2 3091   2.055   1.907  12.420  0.8377  1.2846  2.0137
  203MPD1    H3 3092   2.169   1.862  12.639 -2.4459  0.2515  0.8313
  203MPD1     N 3093   2.014   1.433  12.628 -0.0911 -0.0470  0.3677
  203MPD1    H5 3094   1.954   1.370  12.576 -0.4630 -0.3997  1.2272
  203MPD1    N1 3095   1.922   1.726  12.276  0.1632 -0.3245  0.3849
  203MPD1    H6 3096   1.900   1.646  12.216 -2.3030  2.4513 -2.4462
  203MPD1    H7 3097   1.957   1.798  12.214 -0.2045 -1.3890 -1.0840
  204MPD1     C 3098   0.710   2.395  17.560  0.6658  0.2699  0.1003
  204MPD1    C1 3099   0.718   2.390  17.426 -0.0697  0.4944 -0.2664
  204MPD1    C2 3100   0.699   2.270  17.365 -0.3080  0.0888  0.0331
  204MPD1    C3 3101   0.698   2.155  17.439 -0.1716  0.6402 -0.0386
  204MPD1    C4 3102   0.711   2.158  17.576  0.1007  0.2323 -0.1915
  204MPD1    C5 3103   0.719   2.281  17.634  0.3291  0.0503  0.1332
  204MPD1     H 3104   0.687   2.266  17.257 -3.2028  2.5700  0.2472
  204MPD1    H1 3105   0.713   2.071  17.641  1.4975 -0.6345 -1.3903
  204MPD1    H2 3106   0.706   2.495  17.602 -1.2038 -0.2352  1.1256
  204MPD1    H3 3107   0.706   2.285   0.053 -2.4867  2.5733 -0.3072
  204MPD1     N 3108   0.717   2.026  17.374 -0.3429 -0.1063 -0.0264
  204MPD1    H5 3109   0.739   2.033  17.275 -1.1174 -1.3022 -0.2829
  204MPD1    N1 3110   0.710   2.509  17.350 -0.0916  0.2818 -0.3618
  204MPD1    H6 3111   0.759   2.579  17.405  0.2869 -0.3156  0.0714
  204MPD1    H7 3112   0.747   2.508  17.255 -1.2588  0.1029 -0.8098
  205MPD1     C 3113   1.625   1.034  16.860 -0.3050 -0.0792  0.2181
  205MPD1    C1 3114   1.641   0.921  16.938  0.2696  0.2089  0.2057
  205MPD1    C2 3115   1.534   0.886  17.024  0.3169 -0.2809  0.1505
  205MPD1    C3 3116   1.416   0.961  17.023 -0.8513  0.2922 -0.0123
  205MPD1    C4 3117   1.402   1.072  16.945 -1.0773 -0.1018  0.5989
  205MPD1    C5 3118   1.510   1.108  16.865 -0.0542  0.4849  0.0860
  205MPD1     H 3119   1.539   0.800  17.090  3.6393 -1.4138 -1.5508
  205MPD1    H1 3120   1.309   1.123  16.921 -0.5347 -0.0398 -1.3745
  205MPD1    H2 3121   1.700   1.075  16.793 -0.0553  0.8498  1.0800
  205MPD1    H3 3122   1.505   1.205  16.817 -0.3528  0.7975  0.7541
  205MPD1     N 3123   1.309   0.932  17.108  0.5500  0.9193 -0.0076
  205MPD1    H5 3124   1.223   0.984  17.094  1.3852  2.7642  1.6371
  205MPD1    N1 3125   1.766   0.867  16.962 -0.1345  0.3016 -0.1691
  205MPD1    H6 3126   1.822   0.849  16.879  3.9303 -1.2967  2.9685
  205MPD1    H7 3127   1.767   0.772  17.000 -1.9653  0.8012  1.1211
  206MPD1     C 3128   1.939   3.588  16.703 -0.0517 -0.3174  0.5570
  206MPD1    C1 3129   1.955   3.551  16.573  0.1756  0.5266 -0.4204
  206MPD1    C2 3130   1.839   3.557  16.495  0.8293  0.0231 -0.2583
  206MPD1    C3 3131   1.723   3.625  16.539 -0.1521 -0.0514  0.5945
  206MPD1    C4 3132   1.714   3.675  16.668 -0.1529  0.3200  0.5175
  206MPD1    C5 3133   1.821   3.648  16.752  0.0276 -0.0910 -0.1450
  206MPD1     H 3134   1.838   3.526  16.391  0.0854  0.5586 -0.4085
  206MPD1    H1 3135   1.626   3.729  16.702 -0.2490 -0.5883  1.6938
  206MPD1    H2 3136   2.018   3.582  16.777 -1.0574  1.7213  1.7812
  206MPD1    H3 3137   1.831   3.683  16.854  1.1255  1.3143 -0.7296
  206MPD1     N 3138   1.605   3.634  16.462 -0.2142  0.1157 -0.2344
  206MPD1    H5 3139   1.524   3.682  16.501 -0.5767 -1.4140  0.8989
  206MPD1    N1 3140   2.076   3.488  16.535 -0.0475  0.0073  0.3778
  206MPD1    H6 3141   2.161   3.513  16.585  0.4682 -0.3257 -0.3296
  206MPD1    H7 3142   2.098   3.480  16.436  0.3245  0.8750  0.3971
  207MPD1     C 3143   4.502   1.503   9.479  0.7695 -0.3213  0.1514
  207MPD1    C1 3144   4.467   1.550   9.603  0.8193 -0.4860  0.5302
  207MPD1    C2 3145   4.397   1.465   9.688 -0.3607  0.4163  0.0450
  207MPD1    C3 3146   4.376   1.330   9.649 -0.1269 -0.0594  0.7733
  207MPD1    C4 3147   4.408   1.292   9.525 -0.0063  0.2944  0.0241
  207MPD1    C5 3148   4.470   1.382   9.438  0.6312 -0.0882  0.0499
  207MPD1     H 3149   4.353   1.508   9.777  1.0307  0.3624  0.7641
  207MPD1    H1 3150   4.405   1.189   9.489 -0.3274 -0.0465  1.0207
  207MPD1    H2 3151   4.557   1.564   9.408 -0.0962 -0.0322 -0.2625
  207MPD1    H3 3152   4.499   1.358   9.337  0.7518 -0.9908  0.2924
  207MPD1     N 3153   4.316   1.227   9.726  0.2556 -0.4857  0.5518
  207MPD1    H5 3154   4.294   1.139   9.679 -1.0778 -0.5646  1.3262
  207MPD1    N1 3155   4.491   1.686   9.633 -0.4088  0.1345 -0.3156
  207MPD1    H6 3156   4.504   1.708   9.731 -0.5143 -1.2086  0.0057
  207MPD1    H7 3157   4.565   1.731   9.581  2.7659 -1.2903  2.9566
  208MPD1     C 3158   2.370   0.596   0.069 -0.4022  0.3933 -0.3799
  208MPD1    C1 3159   2.390   0.534   0.193 -0.0906  0.8575 -0.0457
  208MPD1    C2 3160   2.294   0.441   0.235 -0.2149  0.0745  0.0507
  208MPD1    C3 3161   2.179   0.426   0.162  0.2765 -0.2458 -0.4735
  208MPD1    C4 3162   2.156   0.501   0.049  0.0099 -0.1547  0.8048
  208MPD1    C5 3163   2.253   0.584   0.005  0.4026  0.0234 -0.1079
  208MPD1     H 3164   2.301   0.391   0.331  1.2224  1.6126  0.7561
  208MPD1    H1 3165   2.071   0.490  17.671  0.7897  2.5333 -0.6253
  208MPD1    H2 3166   2.444   0.666   0.033  0.5937 -1.1620 -1.3656
  208MPD1    H3 3167   2.234   0.635  17.600  2.7308  1.7347  0.3511
  208MPD1     N 3168   2.080   0.334   0.212  0.4603 -0.4060  0.5537
  208MPD1    H5 3169   2.109   0.281   0.294 -1.1149 -0.0201  1.3712
  208MPD1    N1 3170   2.515   0.529   0.251  0.0837  0.3479  0.1599
  208MPD1    H6 3171   2.516   0.510   0.351  1.1204 -0.5812 -0.0332
  208MPD1    H7 3172   2.572   0.607   0.217  0.3608  1.6387  3.4928
  209MPD1     C 3173   4.071   4.686  10.430  0.3741 -0.0043  0.1262
  209MPD1    C1 3174   4.051   0.093  10.386  0.1315  0.5030  0.2632
  209MPD1    C2 3175   4.062   0.204  10.478  0.0543  0.1219  0.0134
  209MPD1    C3 3176   4.099   0.174  10.611  0.2791  0.0158  0.3304
  209MPD1    C4 3177   4.115   0.046  10.652  0.0405 -0.0186 -0.2423
  209MPD1    C5 3178   4.100   4.666  10.563  0.5415  0.2398 -0.7949
  209MPD1     H 3179   4.046   0.306  10.448  1.5540  0.5340  0.5937
  209MPD1    H1 3180   4.125   0.026  10.758  1.7051 -1.1688 -0.6122
  209MPD1    H2 3181   4.064   4.593  10.377  1.6088  0.7463 -1.3371
  209MPD1    H3 3182   4.111   4.565  10.599  1.3923  0.4601 -0.4443
  209MPD1     N 3183   4.088   0.282  10.702  0.4029  0.1659 -0.2121
  209MPD1    H5 3184   4.061   0.374  10.669  0.5019  0.5820  0.8675
  209MPD1    N1 3185   3.999   0.105  10.253  0.5033 -1.0367  0.2720
  209MPD1    H6 3186   4.017   0.027  10.190 -1.7595 -0.7335 -0.7219
  209MPD1    H7 3187   4.011   0.194  10.205 -1.2084 -0.9850 -0.0570
  210MPD1     C 3188   4.251   0.860  11.634 -0.2104 -0.3286 -0.5250
  210MPD1    C1 3189   4.174   0.744  11.617 -0.5559 -0.2600 -0.0260
  210MPD1    C2 3190   4.156   0.688  11.493 -0.1119 -0.3898  1.1951
  210MPD1    C3 3191   4.200   0.757  11.379  0.3684  0.2718  0.0895
  210MPD1    C4 3192   4.262   0.876  11.392 -0.0549  0.1138 -0.1993
  210MPD1    C5 3193   4.293   0.929  11.516  0.2394  0.2262 -0.0582
  210MPD1     H 3194   4.112   0.590  11.476 -1.1883 -0.0819  2.2779
  210MPD1    H1 3195   4.285   0.941  11.308 -1.1364  0.5659 -0.1518
  210MPD1    H2 3196   4.281   0.904  11.728 -0.2613  0.0139 -0.6703
  210MPD1    H3 3197   4.342   1.026  11.522  0.1963  0.1050  2.2011
  210MPD1     N 3198   4.181   0.709  11.249 -0.6454  0.1279  0.1467
  210MPD1    H5 3199   4.232   0.761  11.178 -0.2106  0.4116  0.6623
  210MPD1    N1 3200   4.150   0.661  11.724  0.7408  0.4588 -0.0425
  210MPD1    H6 3201   4.136   0.715  11.809 -0.5359 -0.5619  0.4052
  210MPD1    H7 3202   4.075   0.593  11.714  0.1447  0.8890  1.4815
  211MPD1     C 3203   2.113   0.494  16.128  0.0561 -0.2893 -1.2550
  211MPD1    C1 3204   2.136   0.618  16.184  0.4063  0.2592  0.0287
  211MPD1    C2 3205   2.050   0.658  16.288  0.0461 -1.0385  0.0697
  211MPD1    C3 3206   1.937   0.581  16.336 -0.4517  0.2083  0.1231
  211MPD1    C4 3207   1.917   0.459  16.279  0.6230 -0.2546  0.0659
  211MPD1    C5 3208   2.011   0.417  16.183  0.1828  0.3347 -0.7021
  211MPD1     H 3209   2.074   0.754  16.331  0.0846  0.1553 -2.6265
  211MPD1    H1 3210   1.829   0.395  16.281 -0.8129  1.7526  0.9314
  211MPD1    H2 3211   2.184   0.446  16.061  1.5820  1.0058 -0.5574
  211MPD1    H3 3212   1.992   0.322  16.133 -0.3804 -0.5832  1.2099
  211MPD1     N 3213   1.839   0.643  16.422  0.6939 -0.2425  0.4656
  211MPD1    H5 3214   1.866   0.730  16.468 -0.0517 -0.3332  1.0695
  211MPD1    N1 3215   2.254   0.691  16.152 -0.4132 -0.3807 -0.2647
  211MPD1    H6 3216   2.228   0.782  16.114  0.2300 -0.2123 -0.3030
  211MPD1    H7 3217   2.316   0.653  16.081  0.3426 -1.5414  1.0225
  212MPD1     C 3218   1.691   3.872  17.103  0.3604  0.1603 -0.0602
  212MPD1    C1 3219   1.602   3.818  17.189  0.8931 -0.0052  0.7616
  212MPD1    C2 3220   1.482   3.778  17.139 -0.1923 -0.2475  0.9911
  212MPD1    C3 3221   1.442   3.809  17.010  1.2456  0.8363 -0.2433
  212MPD1    C4 3222   1.523   3.882  16.930 -0.1203  0.6420  0.3338
  212MPD1    C5 3223   1.650   3.913  16.979  0.5115  0.3048  0.0509
  212MPD1     H 3224   1.427   3.711  17.204  0.0735 -0.1041  1.3607
  212MPD1    H1 3225   1.488   3.908  16.831 -1.8031  0.3954  0.8717
  212MPD1    H2 3226   1.785   3.902  17.147  1.2694 -0.8533 -1.3422
  212MPD1    H3 3227   1.728   3.962  16.922  1.3137 -0.7848  0.2168
  212MPD1     N 3228   1.315   3.778  16.959 -0.2571  0.2887  0.2333
  212MPD1    H5 3229   1.296   3.825  16.871 -1.9114 -0.6623  0.0900
  212MPD1    N1 3230   1.640   3.776  17.314  0.2514  0.0466  0.1091
  212MPD1    H6 3231   1.688   3.857  17.354 -0.8205  0.4190  0.6508
  212MPD1    H7 3232   1.555   3.755  17.366  1.1670 -1.3075  1.0519
  213MPD1     C 3233   3.688   0.214  16.043 -0.3190 -0.4088  1.0461
  213MPD1    C1 3234   3.775   0.184  15.938  0.1353 -1.5925  0.4947
  213MPD1    C2 3235   3.707   0.132  15.826 -0.4839 -1.1125 -0.9118
  213MPD1    C3 3236   3.569   0.147  15.804 -0.8255 -0.5240  0.3333
  213MPD1    C4 3237   3.490   0.212  15.902  0.2379  0.7118  0.6833
  213MPD1    C5 3238   3.553   0.251  16.022 -0.3067 -0.2977  1.0503
  213MPD1     H 3239   3.754   0.071  15.750  1.2458  0.7747 -1.3727
  213MPD1    H1 3240   3.384   0.229  15.892  0.0905  0.9861  2.6435
  213MPD1    H2 3241   3.734   0.259  16.130  1.6952  0.2081 -0.3295
  213MPD1    H3 3242   3.504   0.310  16.098  2.0803  1.0519  1.5492
  213MPD1     N 3243   3.519   0.090  15.695  0.1221 -0.1788 -0.4245
  213MPD1    H5 3244   3.584   0.044  15.633  0.7689 -0.2889  0.3427
  213MPD1    N1 3245   3.906   0.141  15.974  0.2161 -0.2123  0.7274
  213MPD1    H6 3246   3.979   0.157  15.904 -2.2310  1.3680 -1.4559
  213MPD1    H7 3247   3.943   0.196  16.051  0.6877 -1.0557  1.1013
  214MPD1     C 3248   2.784   4.208  15.702  0.3336 -0.1014 -0.7458
  214MPD1    C1 3249   2.842   4.178  15.579 -1.1983  0.1684 -0.0844
  214MPD1    C2 3250   2.939   4.268  15.529 -0.5063 -0.7606  0.9226
  214MPD1    C3 3251   2.968   4.384  15.597  0.1318  0.4532  0.5801
  214MPD1    C4 3252   2.916   4.408  15.719  0.3521 -0.2923  0.2988
  214MPD1    C5 3253   2.823   4.320  15.765 -1.1853  0.5005  0.4802
  214MPD1     H 3254   2.990   4.242  15.436 -0.2349  1.2485  0.5085
  214MPD1    H1 3255   2.953   4.493  15.776  0.6899 -0.8858  0.9652
  214MPD1    H2 3256   2.721   4.140  15.759  0.9337  0.2969  0.4037
  214MPD1    H3 3257   2.787   4.331  15.866 -2.4518  0.2221  0.0572
  214MPD1     N 3258   3.059   4.484  15.554 -0.8402  0.4252  0.0930
  214MPD1    H5 3259   3.063   4.574  15.599 -1.5060  1.1212 -1.2467
  214MPD1    N1 3260   2.820   4.054  15.519  0.0618  0.8292 -0.3257
  214MPD1    H6 3261   2.731   4.011  15.543 -0.1553 -0.5270 -3.4464
  214MPD1    H7 3262   2.823   4.073  15.419 -0.0643 -1.0861 -0.6940
  215MPD1     C 3263   3.761   0.334  10.731  1.0668 -0.1100 -0.1232
  215MPD1    C1 3264   3.764   0.465  10.691  0.5197 -0.3605  0.6332
  215MPD1    C2 3265   3.761   0.563  10.792 -0.2273 -0.2688  0.2953
  215MPD1    C3 3266   3.748   0.537  10.929 -0.0401 -0.2609  0.0472
  215MPD1    C4 3267   3.746   0.403  10.963 -0.6481 -0.5931  0.2541
  215MPD1    C5 3268   3.756   0.307  10.863 -0.6342 -0.0643 -0.0661
  215MPD1     H 3269   3.764   0.667  10.762 -2.6771 -1.0028 -2.4766
  215MPD1    H1 3270   3.751   0.370  11.066 -0.4764 -1.8182 -0.1468
  215MPD1    H2 3271   3.761   0.245  10.669 -0.2234  0.4108 -0.8626
  215MPD1    H3 3272   3.755   0.203  10.892 -1.4501  0.0049  0.1484
  215MPD1     N 3273   3.743   0.640  11.022 -0.5888 -0.0925  0.4774
  215MPD1    H5 3274   3.750   0.736  10.988  0.5827  0.4566  2.2929
  215MPD1    N1 3275   3.772   0.496  10.560 -0.2588  0.2564 -0.0043
  215MPD1    H6 3276   3.809   0.588  10.537 -0.0408 -0.3689 -2.1287
  215MPD1    H7 3277   3.839   0.435  10.514  2.5565  2.3774  1.3270
  216MPD1     C 3278   1.319   2.544  16.263  0.3725  0.2590 -0.0415
  216MPD1    C1 3279   1.379   2.582  16.378  0.1925  0.2460 -0.1921
  216MPD1    C2 3280   1.324   2.543  16.499 -0.0505  0.2312 -0.4718
  216MPD1    C3 3281   1.202   2.489  16.515 -0.1906 -0.2951  0.5013
  216MPD1    C4 3282   1.136   2.449  16.396 -0.0291  0.8943  1.0650
  216MPD1    C5 3283   1.193   2.476  16.273  0.0467  0.8821 -0.5052
  216MPD1     H 3284   1.381   2.580  16.583 -0.1831 -2.3259  0.7283
  216MPD1    H1 3285   1.047   2.388  16.399 -0.5764  1.6190 -0.4380
  216MPD1    H2 3286   1.357   2.570  16.164  1.2630 -1.1320 -0.0726
  216MPD1    H3 3287   1.131   2.446  16.189  1.0382 -0.7190 -0.6668
  216MPD1     N 3288   1.158   2.454  16.645  0.1340  0.4759  0.1631
  216MPD1    H5 3289   1.222   2.486  16.717  0.4822 -1.4059  0.6868
  216MPD1    N1 3290   1.508   2.630  16.371  0.6000 -0.2702 -1.1647
  216MPD1    H6 3291   1.519   2.700  16.298 -0.4632  1.0298 -0.0780
  216MPD1    H7 3292   1.519   2.689  16.453 -1.1454 -0.3105 -0.8998
  217MPD1     C 3293   2.720   1.193   9.130  0.8045  0.3630  0.6949
  217MPD1    C1 3294   2.796   1.113   9.039  0.3666 -0.5454 -0.0654
  217MPD1    C2 3295   2.750   0.980   9.033 -0.3383 -0.3427 -0.8297
  217MPD1    C3 3296   2.651   0.934   9.124 -0.3700 -0.4770 -0.0236
  217MPD1    C4 3297   2.583   1.016   9.211  0.5827  0.2795  0.1628
  217MPD1    C5 3298   2.618   1.144   9.212  0.3112  0.1837 -0.4373
  217MPD1     H 3299   2.794   0.917   8.956  1.6842 -1.3291  1.1396
  217MPD1    H1 3300   2.503   0.975   9.271 -0.5878  0.8429 -0.9855
  217MPD1    H2 3301   2.735   1.299   9.148  2.9563  0.2867 -0.6734
  217MPD1    H3 3302   2.568   1.217   9.274 -0.7312  1.2270 -2.4824
  217MPD1     N 3303   2.608   0.798   9.122  0.7507  0.7937 -0.0838
  217MPD1    H5 3304   2.532   0.768   9.182  0.9366  0.7313  0.1184
  217MPD1    N1 3305   2.887   1.162   8.948 -0.3677  0.5469 -0.4629
  217MPD1    H6 3306   2.899   1.263   8.947  1.4359  0.3267 -0.6418
  217MPD1    H7 3307   2.976   1.112   8.957 -0.1894  0.8710 -0.4453
  218MPD1     C 3308   3.080   1.520  13.020 -0.4686 -0.1552 -0.4109
  218MPD1    C1 3309   3.179   1.551  12.933 -0.1626 -0.2933  0.0569
  218MPD1    C2 3310   3.282   1.454  12.925 -0.5260 -0.0075 -0.3230
  218MPD1    C3 3311   3.273   1.334  12.991 -0.6234 -0.0536 -0.1804
  218MPD1    C4 3312   3.168   1.305  13.077  0.0085 -0.0964 -0.1498
  218MPD1    C5 3313   3.077   1.404  13.093  0.0573  0.3134  0.8316
  218MPD1     H 3314   3.360   1.473  12.852 -0.2196  0.5423  0.1422
  218MPD1    H1 3315   3.150   1.215  13.134 -0.0805  0.3443  0.5191
  218MPD1    H2 3316   2.985   1.572  13.023  0.2674  0.9744  3.0609
  218MPD1    H3 3317   2.993   1.391  13.161 -0.8944 -0.3844 -0.4774
  218MPD1     N 3318   3.384   1.243  12.974 -0.2731 -0.2705 -0.1591
  218MPD1    H5 3319   3.460   1.279  12.917 -2.0557  1.4365 -1.4746
  218MPD1    N1 3320   3.155   1.656  12.842  0.0191 -0.5068  0.5530
  218MPD1    H6 3321   3.233   1.710  12.805  1.3935 -2.3572  0.7855
  218MPD1    H7 3322   3.093   1.727  12.882  0.5897  0.4658 -0.2922
  219MPD1     C 3323   3.553   0.747  12.172  0.1127 -0.6582 -0.7889
  219MPD1    C1 3324   3.607   0.853  12.220 -0.6606  0.1621 -0.6066
  219MPD1    C2 3325   3.587   0.885  12.351  0.7957  0.4487 -0.3782
  219MPD1    C3 3326   3.539   0.789  12.437 -0.3505 -0.1291 -0.1781
  219MPD1    C4 3327   3.492   0.668  12.382  0.5711  0.7325  0.2550
  219MPD1    C5 3328   3.492   0.652  12.245 -0.9313 -0.4635  0.0975
  219MPD1     H 3329   3.625   0.978  12.391 -0.4411  0.4780  0.7495
  219MPD1    H1 3330   3.456   0.587  12.445  0.7813 -0.3050 -0.9697
  219MPD1    H2 3331   3.545   0.722  12.067  2.7105  1.4789 -1.4922
  219MPD1    H3 3332   3.446   0.565  12.200 -1.7116 -0.1865  0.3723
  219MPD1     N 3333   3.534   0.811  12.574 -0.3812  0.0069  0.5279
  219MPD1    H5 3334   3.491   0.738  12.629  0.5003 -1.5188 -0.7937
  219MPD1    N1 3335   3.645   0.954  12.134  0.1793  0.1319 -0.0138
  219MPD1    H6 3336   3.718   1.011  12.176 -1.3926  1.2955  1.0849
  219MPD1    H7 3337   3.690   0.922  12.048  0.7581 -0.9940  0.7084
  220MPD1     C 3338   3.951   1.319   9.486 -0.4170 -0.2189  0.0948
  220MPD1    C1 3339   3.841   1.241   9.528 -0.9554 -0.5824 -0.4544
  220MPD1    C2 3340   3.810   1.234   9.664 -0.0598  0.6267 -0.2227
  220MPD1    C3 3341   3.897   1.274   9.757 -0.4727 -0.0016  0.2150
  220MPD1    C4 3342   4.015   1.339   9.716 -0.2882 -0.2496  0.7619
  220MPD1    C5 3343   4.041   1.357   9.580 -0.6084  0.0921 -0.5678
  220MPD1     H 3344   3.718   1.186   9.694  0.7679 -0.4487  0.5793
  220MPD1    H1 3345   4.083   1.386   9.786  0.8789 -0.2935 -0.3349
  220MPD1    H2 3346   3.962   1.349   9.382  0.2044 -0.3188  0.1359
  220MPD1    H3 3347   4.129   1.413   9.550  1.3246 -2.3669  0.4774
  220MPD1     N 3348   3.860   1.258   9.899 -0.2473  0.1490 -0.2464
  220MPD1    H5 3349   3.770   1.214   9.911  0.2233 -0.8132 -0.2398
  220MPD1    N1 3350   3.751   1.215   9.431  0.3796  0.0814  0.3456
  220MPD1    H6 3351   3.799   1.201   9.342 -1.1434  2.1601 -0.7999
  220MPD1    H7 3352   3.685   1.139   9.445  2.5107 -2.2592 -2.3681
  221MPD1     C 3353   1.099   0.153  17.353 -0.4330 -0.4515 -0.1792
  221MPD1    C1 3354   1.072   0.126  17.216 -0.0274 -0.3449  1.1071
  221MPD1    C2 3355   1.178   0.101  17.131 -0.1142  0.2419  0.4304
  221MPD1    C3 3356   1.308   0.101  17.181 -0.1259  0.2350  0.0482
  221MPD1    C4 3357   1.334   0.132  17.314  0.2959  0.1611  0.4210
  221MPD1    C5 3358   1.224   0.151  17.400  0.7233 -0.4217 -0.1907
  221MPD1     H 3359   1.161   0.075  17.027 -0.1363 -1.4685  0.8549
  221MPD1    H1 3360   1.430   0.107  17.357  0.6261 -0.6319 -0.7466
  221MPD1    H2 3361   1.014   0.158  17.420 -0.0529  2.3662  0.1008
  221MPD1    H3 3362   1.236   0.167  17.506  1.7003 -1.4515 -0.1465
  221MPD1     N 3363   1.422   0.071  17.100 -0.0700  0.1024 -0.1866
  221MPD1    H5 3364   1.511   0.082  17.147 -0.0896 -0.2609 -0.0675
  221MPD1    N1 3365   0.940   0.106  17.179 -0.1920 -0.4586  0.1201
  221MPD1    H6 3366   0.921   0.149  17.089  2.7812  0.8151  0.0873
  221MPD1    H7 3367   0.877   0.141  17.250 -1.9305 -2.9911 -0.1675
  222MPD1     C 3368   0.522   3.170   0.367  0.8416  0.3621 -0.1692
  222MPD1    C1 3369   0.522   3.182   0.227  0.2592  0.7752 -0.0619
  222MPD1    C2 3370   0.571   3.297   0.175 -0.0385  0.8464 -0.4076
  222MPD1    C3 3371   0.598   3.404   0.253  0.3703 -0.0999  0.6171
  222MPD1    C4 3372   0.580   3.400   0.390  0.4932 -0.9340 -0.0789
  222MPD1    C5 3373   0.539   3.283   0.440  0.2972  0.1249  0.6180
  222MPD1     H 3374   0.579   3.311   0.068  0.4243 -1.3582 -0.6420
  222MPD1    H1 3375   0.608   3.487   0.448 -0.0326 -1.2117  0.5762
  222MPD1    H2 3376   0.488   3.075   0.407  2.1234 -0.2107 -0.4278
  222MPD1    H3 3377   0.523   3.270   0.547  0.2220 -0.1956  0.5672
  222MPD1     N 3378   0.641   3.529   0.205 -0.3874  0.4694 -0.5591
  222MPD1    H5 3379   0.671   3.594   0.277 -1.4430 -1.7694  1.9213
  222MPD1    N1 3380   0.509   3.067   0.152  0.0895 -0.7508 -0.4588
  222MPD1    H6 3381   0.464   2.992   0.204  1.3457 -0.6224  0.8244
  222MPD1    H7 3382   0.472   3.069   0.057  1.0371 -2.8428 -0.8709
  223MPD1     C 3383   1.355   4.069  17.317 -0.3618 -0.1073 -0.8045
  223MPD1    C1 3384   1.357   4.089  17.453 -0.1159 -0.2448 -0.2896
  223MPD1    C2 3385   1.250   4.054  17.524 -0.2563 -0.1385 -1.0483
  223MPD1    C3 3386   1.142   3.989  17.464 -0.0744  0.2446 -0.1663
  223MPD1    C4 3387   1.135   3.983  17.331 -0.0044  0.3584  0.2170
  223MPD1    C5 3388   1.239   4.024  17.256  0.1089  0.7225 -0.3861
  223MPD1     H 3389   1.256   4.068  17.631 -0.1072 -1.4273 -0.8853
  223MPD1    H1 3390   1.048   3.948  17.276 -0.9104  0.8733  1.3209
  223MPD1    H2 3391   1.448   4.094  17.266 -0.0282  1.3867  0.5354
  223MPD1    H3 3392   1.243   4.012  17.149 -0.3844 -1.0488 -0.2131
  223MPD1     N 3393   1.029   3.958  17.544  0.2085 -0.4571  0.0603
  223MPD1    H5 3394   1.047   3.977  17.642 -0.8393  1.6105 -0.1527
  223MPD1    N1 3395   1.476   4.139  17.521  0.0849 -0.7298 -0.0881
  223MPD1    H6 3396   1.530   4.209  17.472 -0.3694  0.4406  1.0559
  223MPD1    H7 3397   1.456   4.175  17.615 -0.0005 -0.3706 -0.2424
  224MPD1     C 3398   2.954   0.656   9.389 -0.1287 -0.4523 -0.1417
  224MPD1    C1 3399   2.858   0.755   9.376  0.5738  0.0736  0.1489
  224MPD1    C2 3400   2.728   0.717   9.399  0.6612 -1.0522 -0.4019
  224MPD1    C3 3401   2.690   0.597   9.448  0.5058  0.4695  0.2476
  224MPD1    C4 3402   2.786   0.499   9.457 -0.0744 -0.7522 -0.2645
  224MPD1    C5 3403   2.911   0.533   9.426 -0.7240  0.2689 -0.2895
  224MPD1     H 3404   2.653   0.795   9.394 -0.1433 -1.7751  0.5750
  224MPD1    H1 3405   2.761   0.396   9.480  3.8551 -2.1628 -2.3967
  224MPD1    H2 3406   3.060   0.674   9.382  0.1220 -1.4342  0.9813
  224MPD1    H3 3407   2.988   0.457   9.434  0.9889  2.0167 -0.3794
  224MPD1     N 3408   2.551   0.558   9.479 -0.6396 -0.6961 -0.3207
  224MPD1    H5 3409   2.538   0.460   9.504 -2.1559 -0.6348 -0.8754
  224MPD1    N1 3410   2.897   0.883   9.344 -0.0590  0.0062  0.0967
  224MPD1    H6 3411   2.826   0.933   9.291  0.7815 -0.0042 -1.0361
  224MPD1    H7 3412   2.978   0.891   9.283 -2.8971 -1.2758 -3.8623
  225MPD1     C 3413   3.639   1.746  11.831 -0.6946 -0.1768  0.1435
  225MPD1    C1 3414   3.676   1.828  11.941  1.0852  0.4387 -0.3884
  225MPD1    C2 3415   3.592   1.832  12.050  0.4213  0.3791 -0.1128
  225MPD1    C3 3416   3.487   1.739  12.046  0.2438 -0.2713 -0.0617
  225MPD1    C4 3417   3.466   1.647  11.944 -0.0890  0.4642 -0.4624
  225MPD1    C5 3418   3.538   1.661  11.833  0.0079 -0.7526  0.6453
  225MPD1     H 3419   3.604   1.906  12.128 -1.0399  0.8793 -0.3602
  225MPD1    H1 3420   3.392   1.568  11.947  0.9792 -0.6313 -2.7632
  225MPD1    H2 3421   3.700   1.756  11.742  0.7156 -0.1803  1.1053
  225MPD1    H3 3422   3.508   1.616  11.739 -0.2610 -0.9135  0.8102
  225MPD1     N 3423   3.401   1.730  12.153 -0.1225  0.5896  0.2201
  225MPD1    H5 3424   3.337   1.651  12.154  0.6569 -0.0415  0.9308
  225MPD1    N1 3425   3.777   1.921  11.920 -0.3350 -0.1897  0.5407
  225MPD1    H6 3426   3.854   1.884  11.864 -0.2501 -1.7792  1.6790
  225MPD1    H7 3427   3.810   1.948  12.013  3.3996 -0.5141 -0.6745
  226MPD1     C 3428   2.640   1.947   9.447  0.9262  0.0896 -0.8181
  226MPD1    C1 3429   2.637   1.824   9.506  0.1254  0.1458  0.0135
  226MPD1    C2 3430   2.740   1.798   9.591  0.0494  0.5192  0.5876
  226MPD1    C3 3431   2.842   1.890   9.617 -0.1858  0.1503  0.3906
  226MPD1    C4 3432   2.837   2.012   9.559  0.0558  0.1357  0.2400
  226MPD1    C5 3433   2.732   2.038   9.475  0.8016 -0.1935 -0.6334
  226MPD1     H 3434   2.738   1.698   9.632  0.0787  0.3220  0.1000
  226MPD1    H1 3435   2.907   2.093   9.576 -1.6273  1.7974 -0.7544
  226MPD1    H2 3436   2.556   1.981   9.388  0.5752  0.5096 -0.0721
  226MPD1    H3 3437   2.723   2.137   9.432  0.5858 -0.9863 -2.3862
  226MPD1     N 3438   2.954   1.840   9.697  0.4018  0.2055  0.3092
  226MPD1    H5 3439   2.949   1.745   9.732 -1.4839 -0.1039 -0.8294
  226MPD1    N1 3440   2.522   1.750   9.500 -0.2340  0.9590 -0.2162
  226MPD1    H6 3441   2.474   1.766   9.411  0.2054 -0.1689 -0.6566
  226MPD1    H7 3442   2.529   1.649   9.513  0.2873  0.8580 -1.2439
  227MPD1     C 3443   3.665   2.067  10.490  0.8699 -0.0223  0.1847
  227MPD1    C1 3444   3.612   1.943  10.507  0.0280 -0.0363  0.1621
  227MPD1    C2 3445   3.510   1.910  10.420  0.5162 -0.7158 -0.4993
  227MPD1    C3 3446   3.482   1.990  10.312  1.5992 -0.6967  0.1162
  227MPD1    C4 3447   3.547   2.109  10.289  0.4076  0.1672 -0.5860
  227MPD1    C5 3448   3.635   2.148  10.383 -0.0735 -0.2521  0.0693
  227MPD1     H 3449   3.468   1.812  10.439 -1.1003 -0.2118 -1.5227
  227MPD1    H1 3450   3.532   2.174  10.203 -1.2313 -0.2041 -0.5792
  227MPD1    H2 3451   3.736   2.114  10.557  0.8933 -1.1151  0.9154
  227MPD1    H3 3452   3.669   2.251  10.383 -1.4735  0.2136 -0.1027
  227MPD1     N 3453   3.382   1.942  10.224 -0.2688 -0.2310  0.1968
  227MPD1    H5 3454   3.343   1.850  10.237 -2.7207  1.1619  2.7118
  227MPD1    N1 3455   3.630   1.874  10.628 -0.1270 -0.3193 -0.2892
  227MPD1    H6 3456   3.615   1.774  10.617  1.3360 -0.5738  0.0810
  227MPD1    H7 3457   3.728   1.887  10.652  0.2561 -0.6041 -1.6642
  228MPD1     C 3458   0.553   0.013  12.782 -0.1691 -0.3583 -0.3146
  228MPD1    C1 3459   0.443   0.021  12.699 -0.1663 -0.0152 -0.1638
  228MPD1    C2 3460   0.326   4.681  12.739  0.2916 -0.1393  0.3686
  228MPD1    C3 3461   0.320   4.615  12.864 -0.0131 -0.4999 -0.3698
  228MPD1    C4 3462   0.431   4.603  12.949  0.1523 -0.3157 -0.3379
  228MPD1    C5 3463   0.547   4.653  12.897  0.4412 -1.3649  0.4019
  228MPD1     H 3464   0.236   4.693  12.680  0.0320  0.3387  0.8670
  228MPD1    H1 3465   0.422   4.559  13.048  1.5583 -0.7895 -0.4345
  228MPD1    H2 3466   0.643   0.072  12.764 -0.0270 -1.6730 -3.8231
  228MPD1    H3 3467   0.634   4.651  12.962 -0.4361  0.5302  1.6487
  228MPD1     N 3468   0.189   4.559  12.882 -0.7023 -0.0589  0.7810
  228MPD1    H5 3469   0.138   4.530  12.800  0.0339  2.2569 -0.4870
  228MPD1    N1 3470   0.442   0.118  12.596  0.5279 -0.0522 -0.4109
  228MPD1    H6 3471   0.361   0.101  12.536  0.7115  1.7044 -1.1561
  228MPD1    H7 3472   0.527   0.122  12.540 -0.3791 -0.7553 -1.8278
  229MPD1     C 3473   4.208   3.358  14.905  0.0575  0.2592  0.1261
  229MPD1    C1 3474   4.241   3.332  15.037 -0.1462 -0.4437  0.1926
  229MPD1    C2 3475   4.343   3.251  15.068  0.6157 -0.0682 -0.1343
  229MPD1    C3 3476   4.420   3.196  14.970 -0.2209 -0.5811  0.5226
  229MPD1    C4 3477   4.381   3.219  14.837  0.1660 -0.7866  0.1071
  229MPD1    C5 3478   4.277   3.297  14.806 -0.0882 -0.8045 -0.0010
  229MPD1     H 3479   4.374   3.227  15.169  0.6736  3.0441  0.6063
  229MPD1    H1 3480   4.437   3.167  14.760  1.0420 -0.8166  0.7605
  229MPD1    H2 3481   4.128   3.425  14.876  1.0932  1.6909  0.5800
  229MPD1    H3 3482   4.263   3.324  14.702  0.8725  1.6704  0.4980
  229MPD1     N 3483   4.533   3.111  14.993 -0.1571 -0.4116  0.2483
  229MPD1    H5 3484   4.568   3.074  14.906  2.4915  1.3281  0.5828
  229MPD1    N1 3485   4.194   3.412  15.140 -0.0024  0.7688  0.9845
  229MPD1    H6 3486   4.197   3.359  15.226  0.0158 -1.6971 -0.5297
  229MPD1    H7 3487   4.103   3.451  15.114  0.7924  2.4666  0.7273
  230MPD1     C 3488   4.217   2.387  15.423 -0.1045 -0.4522 -0.4231
  230MPD1    C1 3489   4.180   2.518  15.395 -0.4504  0.5303 -0.6916
  230MPD1    C2 3490   4.284   2.608  15.363  0.1801  0.4154  0.1276
  230MPD1    C3 3491   4.416   2.562  15.359 -0.7906 -0.3313 -0.6332
  230MPD1    C4 3492   4.445   2.435  15.394 -0.0154 -0.2897  0.9600
  230MPD1    C5 3493   4.342   2.350  15.423  0.5730  0.3453 -0.0141
  230MPD1     H 3494   4.262   2.713  15.348 -1.5097  0.2039  1.1264
  230MPD1    H1 3495   4.543   2.393  15.413  0.5673  1.0792  0.9813
  230MPD1    H2 3496   4.144   2.309  15.444 -0.6129  0.2999  0.6118
  230MPD1    H3 3497   4.366   2.247  15.447 -0.0190  0.0104 -0.8822
  230MPD1     N 3498   4.512   2.655  15.311  0.2630  0.4841 -0.0382
  230MPD1    H5 3499   4.473   2.744  15.281  0.1062  0.9680  1.6256
  230MPD1    N1 3500   4.048   2.556  15.401  0.0407 -0.2891  0.5063
  230MPD1    H6 3501   4.037   2.650  15.363  0.1782 -0.5541 -0.1967
  230MPD1    H7 3502   3.990   2.491  15.348 -1.2444  0.6225  0.8009
  231MPD1     C 3503   2.228   4.529  15.905  0.6969 -0.0310  1.1681
  231MPD1    C1 3504   2.318   4.636  15.889 -0.7324 -0.1589  0.3071
  231MPD1    C2 3505   2.394   4.647  15.773 -0.0599  0.1639 -0.0911
  231MPD1    C3 3506   2.411   4.534  15.694  0.0869 -0.7957 -0.2047
  231MPD1    C4 3507   2.334   4.422  15.716  0.3926 -0.2833  0.0871
  231MPD1    C5 3508   2.243   4.423  15.824  0.0299 -0.0885 -0.8676
  231MPD1     H 3509   2.457   0.010  15.750 -0.0964 -0.1523 -1.3486
  231MPD1    H1 3510   2.342   4.330  15.660 -0.5201 -0.2780 -0.0570
  231MPD1    H2 3511   2.145   4.527  15.974 -1.2543  0.1549 -1.1838
  231MPD1    H3 3512   2.179   4.337  15.839 -0.9780  0.5814 -1.3117
  231MPD1     N 3513   2.513   4.546  15.595 -0.8828  0.0489  0.2292
  231MPD1    H5 3514   2.568   4.632  15.593  0.3013 -0.7322 -1.0494
  231MPD1    N1 3515   2.297   0.032  15.957 -0.1832 -0.1628  0.2071
  231MPD1    H6 3516   2.385   0.078  15.981 -0.1787 -0.2449  0.3540
  231MPD1    H7 3517   2.261   0.024  16.052 -1.5070  0.7344 -0.2187
  232MPD1     C 3518   0.293   2.139  17.355 -0.6259  1.0904 -0.5978
  232MPD1    C1 3519   0.279   2.121  17.494 -0.0754 -0.3148  0.3619
  232MPD1    C2 3520   0.150   2.097  17.544 -0.5145 -0.5692 -0.0980
  232MPD1    C3 3521   0.038   2.101  17.459 -0.1341  0.6238  0.5875
  232MPD1    C4 3522   0.053   2.113  17.324 -0.0161  0.3927 -0.2242
  232MPD1    C5 3523   0.179   2.137  17.279 -0.1478  0.6396 -1.1340
  232MPD1     H 3524   0.127   2.086  17.649 -1.8688  1.0594 -0.2368
  232MPD1    H1 3525   4.691   2.108  17.256 -0.0333  1.5692 -0.2893
  232MPD1    H2 3526   0.388   2.165  17.310 -0.6526  2.6665  0.2733
  232MPD1    H3 3527   0.185   2.173  17.176  0.4388  0.9826 -0.9837
  232MPD1     N 3528   4.635   2.097  17.530  0.7085  0.0084 -0.0414
  232MPD1    H5 3529   4.640   2.083  17.630 -1.6486 -1.1787 -0.0739
  232MPD1    N1 3530   0.396   2.129  17.575 -0.6212 -0.8957  0.0951
  232MPD1    H6 3531   0.386   2.067  17.656 -2.2000 -0.2307  0.4072
  232MPD1    H7 3532   0.485   2.109  17.529  0.2339  0.8800  0.9708
  233MPD1     C 3533   0.166   0.886   1.034 -0.7842  0.0150  0.3994
  233MPD1    C1 3534   0.143   0.849   1.161  0.5004 -0.1023  0.1743
  233MPD1    C2 3535   0.248   0.836   1.251 -0.1040 -0.3583 -0.3134
  233MPD1    C3 3536   0.375   0.864   1.206 -0.5823  0.1430  0.5878
  233MPD1    C4 3537   0.395   0.919   1.083  0.4947 -0.7139  0.0909
  233MPD1    C5 3538   0.289   0.929   0.994  0.4303  0.1546  0.3477
  233MPD1     H 3539   0.225   0.815   1.354 -1.5997  0.5955 -0.4635
  233MPD1    H1 3540   0.494   0.949   1.048  0.7886 -0.4008  1.1746
  233MPD1    H2 3541   0.085   0.908   0.965  0.9849 -1.7092 -2.1951
  233MPD1    H3 3542   0.301   0.963   0.892 -0.2332  0.4036  0.3493
  233MPD1     N 3543   0.487   0.860   1.278  0.7692 -0.1333 -0.4606
  233MPD1    H5 3544   0.569   0.899   1.233  0.8614  0.4093  0.1748
  233MPD1    N1 3545   0.008   0.834   1.202 -0.1742  0.1729  0.2333
  233MPD1    H6 3546   4.683   0.799   1.118  1.3841 -0.8378 -0.1940
  233MPD1    H7 3547   0.003   0.763   1.274  2.8124  0.2962  0.5608
  234MPD1     C 3548   2.670   3.648   9.670 -0.1042 -0.3283 -0.4522
  234MPD1    C1 3549   2.586   3.738   9.735 -0.2171  0.5601  0.5262
  234MPD1    C2 3550   2.614   3.871   9.739 -0.4249 -0.2827  0.0559
  234MPD1    C3 3551   2.735   3.919   9.707 -0.2845 -0.5795  0.3683
  234MPD1    C4 3552   2.825   3.831   9.657 -0.1472  0.1187  0.1951
  234MPD1    C5 3553   2.791   3.697   9.637 -0.3891 -0.7376  0.0617
  234MPD1     H 3554   2.537   3.939   9.773 -0.4169 -0.1919 -0.1053
  234MPD1    H1 3555   2.922   3.863   9.622 -1.4956  1.6441 -2.1410
  234MPD1    H2 3556   2.635   3.547   9.652 -1.3317  0.2695 -1.4286
  234MPD1    H3 3557   2.864   3.638   9.584  0.7328  0.4159  0.3122
  234MPD1     N 3558   2.768   4.056   9.742 -0.0084 -0.2965 -0.7255
  234MPD1    H5 3559   2.689   4.100   9.788  0.2970 -0.3977 -0.1096
  234MPD1    N1 3560   2.462   3.695   9.764  0.1101  0.0151  0.6796
  234MPD1    H6 3561   2.456   3.598   9.795 -0.1328  0.0902  0.8728
  234MPD1    H7 3562   2.404   3.751   9.827 -0.8463 -0.9547  0.6702
  235MPD1     C 3563   0.006   2.914  10.380 -0.4754 -0.4804 -0.6665
  235MPD1    C1 3564   4.647   2.981  10.294  1.1317  0.3264 -0.2511
  235MPD1    C2 3565   4.569   2.904  10.211  0.0675 -0.2053 -0.6726
  235MPD1    C3 3566   4.562   2.766  10.218  0.5369  0.5440 -0.1493
  235MPD1    C4 3567   4.651   2.701  10.297  0.6600  0.1728 -0.1047
  235MPD1    C5 3568   0.012   2.778  10.366 -0.1823 -0.3441 -0.6778
  235MPD1     H 3569   4.506   2.945  10.132  0.3442  1.1856 -0.1820
  235MPD1    H1 3570   4.660   2.595  10.314  0.9840  0.4070  1.1813
  235MPD1    H2 3571   0.070   2.962  10.453 -2.2358  0.3837  0.3262
  235MPD1    H3 3572   0.080   2.734  10.438 -1.4684  0.5945  1.0864
  235MPD1     N 3573   4.484   2.708  10.119 -0.0439  0.4750 -0.3279
  235MPD1    H5 3574   4.437   2.779  10.064 -0.6298  0.9517  0.7640
  235MPD1    N1 3575   4.655   3.119  10.282  0.1133 -0.1109 -0.2046
  235MPD1    H6 3576   4.669   3.171  10.368 -1.0227 -1.6430  0.9076
  235MPD1    H7 3577   4.574   3.152  10.230  1.0245  1.5625 -0.5731
  236MPD1     C 3578   2.903   2.824   9.481 -0.2728 -0.3766 -0.1746
  236MPD1    C1 3579   2.946   2.939   9.422  0.1526 -0.1404 -0.3589
  236MPD1    C2 3580   3.072   2.981   9.463 -0.1232  0.0416  0.4514
  236MPD1    C3 3581   3.127   2.932   9.575  0.0103  0.7989  0.2389
  236MPD1    C4 3582   3.072   2.831   9.652 -0.0481 -0.7000 -0.4263
  236MPD1    C5 3583   2.962   2.772   9.593  0.1566 -0.8755  0.4961
  236MPD1     H 3584   3.120   3.062   9.410  0.5989 -0.3673  0.4769
  236MPD1    H1 3585   3.106   2.794   9.749  0.1007  0.5647  0.0034
  236MPD1    H2 3586   2.819   2.771   9.438 -1.6933  1.7903 -0.0672
  236MPD1    H3 3587   2.915   2.685   9.636  0.3740 -1.1311  0.2175
  236MPD1     N 3588   3.246   2.984   9.630 -0.4295 -0.2171 -0.3273
  236MPD1    H5 3589   3.268   2.958   9.726  2.4969  0.0776 -0.9449
  236MPD1    N1 3590   2.890   2.989   9.302 -0.3054 -0.4698 -0.1132
  236MPD1    H6 3591   2.788   2.988   9.304 -0.2485 -2.0927  2.3984
  236MPD1    H7 3592   2.908   3.087   9.283 -1.4200 -0.1627  0.4270
  237MPD1     C 3593   3.338   1.695  14.906  0.3244  0.0922  0.1854
  237MPD1    C1 3594   3.324   1.707  15.045 -0.1822 -0.5331  0.4434
  237MPD1    C2 3595   3.232   1.631  15.113 -0.7412  0.4014  0.0640
  237MPD1    C3 3596   3.141   1.551  15.043 -0.1695  0.3051  0.1574
  237MPD1    C4 3597   3.158   1.526  14.914 -0.5535  0.3537 -0.5223
  237MPD1    C5 3598   3.262   1.594  14.847  0.4240  0.1669  0.0828
  237MPD1     H 3599   3.222   1.631  15.221  0.6459  1.5408  0.1932
  237MPD1    H1 3600   3.092   1.468  14.850  0.3681 -0.1843 -0.9880
  237MPD1    H2 3601   3.424   1.737  14.856 -0.9424  3.3032  0.7234
  237MPD1    H3 3602   3.288   1.553  14.750  0.1846 -0.0657  0.1165
  237MPD1     N 3603   3.032   1.485  15.100 -0.1330  0.2975 -0.1734
  237MPD1    H5 3604   2.965   1.437  15.041 -0.4687 -0.7244  1.0346
  237MPD1    N1 3605   3.425   1.778  15.109  0.9899 -0.2053  0.0487
  237MPD1    H6 3606   3.396   1.825  15.195  1.0558 -0.3824  0.1691
  237MPD1    H7 3607   3.452   1.847  15.040  0.1042  0.7308  0.6302
  238MPD1     C 3608   4.026   0.713  15.862  0.1845 -0.5807 -0.3335
  238MPD1    C1 3609   4.029   0.785  15.744  0.1238 -0.0525  0.6343
  238MPD1    C2 3610   3.986   0.717  15.627  0.0936 -0.4093 -0.9485
  238MPD1    C3 3611   3.955   0.579  15.628 -0.3412  0.5199  0.1114
  238MPD1    C4 3612   3.970   0.515  15.746 -0.3817  0.5643 -0.2277
  238MPD1    C5 3613   3.988   0.581  15.862 -0.2061 -0.4452 -0.1305
  238MPD1     H 3614   3.980   0.770  15.532  0.5692  0.9139 -0.2496
  238MPD1    H1 3615   3.960   0.407  15.749 -0.0693  0.5381 -0.2093
  238MPD1    H2 3616   4.054   0.756  15.957  0.0664 -0.7781 -0.2097
  238MPD1    H3 3617   4.001   0.524  15.954  4.2337 -2.0925 -1.7812
  238MPD1     N 3618   3.947   0.503  15.511 -0.7002  0.3241 -0.7960
  238MPD1    H5 3619   3.921   0.405  15.519  0.3866  0.1919  1.3151
  238MPD1    N1 3620   4.045   0.927  15.744 -0.3167 -0.2686  0.3054
  238MPD1    H6 3621   4.044   0.968  15.651 -1.4808  1.7778  1.2115
  238MPD1    H7 3622   4.112   0.963  15.811 -0.3389  1.2354 -0.4845
  239MPD1     C 3623   0.193   0.736  15.210 -0.5217  0.0264 -0.1613
  239MPD1    C1 3624   0.310   0.751  15.146  0.2278 -0.3393  0.2767
  239MPD1    C2 3625   0.311   0.797  15.018 -0.4488  0.5234  0.3499
  239MPD1    C3 3626   0.194   0.836  14.960  0.5361 -0.1845 -0.1438
  239MPD1    C4 3627   0.084   0.845  15.029  0.1066 -0.0936  0.0053
  239MPD1    C5 3628   0.083   0.791  15.151  0.0513 -0.3498 -0.4409
  239MPD1     H 3629   0.405   0.790  14.965 -0.4484  1.9021  0.1737
  239MPD1    H1 3630   4.715   0.878  14.979  1.4530  1.2555 -1.5048
  239MPD1    H2 3631   0.180   0.697  15.311  2.1369 -0.4335  0.0222
  239MPD1    H3 3632   4.703   0.786  15.189  0.1018 -1.4878 -0.4716
  239MPD1     N 3633   0.183   0.880  14.822  0.4478  0.2857  0.6491
  239MPD1    H5 3634   0.086   0.899  14.800  0.3450 -1.1028 -0.1122
  239MPD1    N1 3635   0.422   0.695  15.196  0.3605  0.0319 -0.0415
  239MPD1    H6 3636   0.513   0.737  15.179 -0.6749  2.2332 -0.2487
  239MPD1    H7 3637   0.414   0.698  15.298  0.9741  1.9074 -0.0530
  240MPD1     C 3638   4.312   4.668  13.578 -0.2698 -0.0487  0.1641
  240MPD1    C1 3639   4.405   0.053  13.610  0.5880  0.1382  0.0570
  240MPD1    C2 3640   4.389   0.103  13.739 -0.4031  0.3994  0.1383
  240MPD1    C3 3641   4.309   0.037  13.831 -0.4027  0.0180 -0.1224
  240MPD1    C4 3642   4.238   4.643  13.801  0.3228  0.0108 -0.1975
  240MPD1    C5 3643   4.234   4.607  13.670  0.0345 -0.2931 -0.3952
  240MPD1     H 3644   4.431   0.199  13.769 -1.7487  1.0302  0.0042
  240MPD1    H1 3645   4.157   4.600  13.859  0.3948 -1.1967 -0.9902
  240MPD1    H2 3646   4.309   4.635  13.475  0.1724  1.1909 -0.2520
  240MPD1    H3 3647   4.179   4.524  13.627 -0.4218 -0.2566  0.1266
  240MPD1     N 3648   4.308   0.090  13.959  0.3180 -0.3846 -0.9265
  240MPD1    H5 3649   4.366   0.172  13.972 -1.2075  0.4099  0.9477
  240MPD1    N1 3650   4.460   0.132  13.507 -0.0058  0.1466 -0.1231
  240MPD1    H6 3651   4.532   0.197  13.539 -0.4026  1.1924 -1.3328
  240MPD1    H7 3652   4.503   0.079  13.431 -0.8538  0.6930 -0.9767
  241MPD1     C 3653   3.807   0.925  14.193 -0.1606  0.7562  0.3636
  241MPD1    C1 3654   3.868   0.868  14.080  0.7426 -0.5912 -0.1149
  241MPD1    C2 3655   3.944   0.753  14.104 -0.7348 -1.2346 -0.1846
  241MPD1    C3 3656   3.945   0.691  14.226  0.2469 -0.5332  0.3130
  241MPD1    C4 3657   3.880   0.745  14.339 -0.4495 -0.6487  0.4868
  241MPD1    C5 3658   3.808   0.860  14.317  0.1738 -0.2193 -0.4402
  241MPD1     H 3659   3.994   0.709  14.018 -0.7465 -0.7519 -0.4399
  241MPD1    H1 3660   3.889   0.699  14.437  0.1387 -0.1658  0.6559
  241MPD1    H2 3661   3.744   1.009  14.168 -0.7367  0.4916  0.9333
  241MPD1    H3 3662   3.765   0.901  14.408  1.6526  1.1292 -0.3584
  241MPD1     N 3663   3.998   0.567  14.244 -0.1874  0.4589 -0.3150
  241MPD1    H5 3664   3.996   0.539  14.342  2.2181  2.1114  0.2114
  241MPD1    N1 3665   3.865   0.930  13.957 -0.0386  0.2562 -0.1922
  241MPD1    H6 3666   3.881   0.859  13.886  1.1208  0.8600 -0.5420
  241MPD1    H7 3667   3.772   0.967  13.939  0.0827  0.3077 -0.7346
  242MPD1     C 3668   4.236   4.383  15.892  0.6267  0.4588  0.4930
  242MPD1    C1 3669   4.126   4.316  15.857 -0.1297  0.3880  0.3147
  242MPD1    C2 3670   4.138   4.236  15.744  0.1182  0.3308  0.7884
  242MPD1    C3 3671   4.263   4.206  15.691  0.3717  0.6771  0.2019
  242MPD1    C4 3672   4.373   4.263  15.740 -0.8671 -0.2441  0.2392
  242MPD1    C5 3673   4.361   4.357  15.838 -0.1499 -0.4304 -0.3794
  242MPD1     H 3674   4.050   4.194  15.695  0.7671 -2.4343  1.9925
  242MPD1    H1 3675   4.471   4.252  15.695 -1.3174  0.9124 -1.0086
  242MPD1    H2 3676   4.240   4.472  15.954 -1.1835  0.7630  0.1828
  242MPD1    H3 3677   4.447   4.415  15.871  0.4879  0.4668 -3.6528
  242MPD1     N 3678   4.284   4.124  15.569 -0.2693 -0.2420 -0.2348
  242MPD1    H5 3679   4.375   4.133  15.525  0.1297 -0.2419  0.5695
  242MPD1    N1 3680   4.004   4.349  15.910 -0.2382 -0.8079  0.0035
  242MPD1    H6 3681   3.929   4.281  15.913 -2.2118  1.4494  1.3492
  242MPD1    H7 3682   4.009   4.379  16.007  1.3364  3.7953 -1.5216
  243MPD1     C 3683   1.478   1.938  17.186 -0.3326  0.7515  0.8173
  243MPD1    C1 3684   1.345   1.891  17.193 -0.2196 -0.1192  0.2545
  243MPD1    C2 3685   1.274   1.885  17.079 -0.6500 -0.0086 -0.3084
  243MPD1    C3 3686   1.311   1.948  16.966  0.9640  0.0697 -0.2890
  243MPD1    C4 3687   1.440   1.997  16.956  0.0028 -0.3447  0.1230
  243MPD1    C5 3688   1.525   1.988  17.068 -0.0186 -0.0165  0.3293
  243MPD1     H 3689   1.175   1.840  17.081  0.0296 -1.5262 -0.5864
  243MPD1    H1 3690   1.487   2.021  16.862 -0.8692 -2.0949 -0.7677
  243MPD1    H2 3691   1.555   1.923  17.260 -0.2300  0.4233  0.6464
  243MPD1    H3 3692   1.631   2.006  17.057 -0.1250  0.2478 -0.2447
  243MPD1     N 3693   1.219   1.949  16.853  0.3329 -0.1041 -0.0100
  243MPD1    H5 3694   1.141   1.884  16.855  0.7202 -0.5852 -0.5724
  243MPD1    N1 3695   1.305   1.823  17.308  0.3496  0.0903  0.1228
  243MPD1    H6 3696   1.358   1.861  17.387  2.3556 -2.4252 -0.0179
  243MPD1    H7 3697   1.205   1.839  17.318  0.4494 -0.1196  1.4481
  244MPD1     C 3698   0.271   2.080  16.594  0.0122  0.2457  0.3308
  244MPD1    C1 3699   0.334   2.194  16.553 -0.7741  0.5019  0.4224
  244MPD1    C2 3700   0.472   2.197  16.555  0.0759  0.5217  0.0716
  244MPD1    C3 3701   0.544   2.084  16.586  0.0479  0.7383 -0.0505
  244MPD1    C4 3702   0.477   1.962  16.618  0.5184 -1.0050 -0.9458
  244MPD1    C5 3703   0.343   1.968  16.628  0.6838 -0.5184 -0.4894
  244MPD1     H 3704   0.522   2.292  16.538  0.5995 -0.1088 -1.9154
  244MPD1    H1 3705   0.520   1.863  16.628  1.2498 -0.5772  0.0405
  244MPD1    H2 3706   0.165   2.073  16.615  0.2586 -1.6084  0.9410
  244MPD1    H3 3707   0.289   1.878  16.655 -0.3473  0.2108 -0.1502
  244MPD1     N 3708   0.689   2.084  16.576  0.0833 -0.1456  0.2316
  244MPD1    H5 3709   0.730   2.167  16.534  3.6892 -1.6811  0.6909
  244MPD1    N1 3710   0.268   2.313  16.525 -0.4259  0.0920  0.2012
  244MPD1    H6 3711   0.180   2.292  16.480 -1.9844  1.5507  2.5835
  244MPD1    H7 3712   0.318   2.371  16.458  2.4048 -3.2783 -0.5908
  245MPD1     C 3713   2.640   2.531  12.973 -0.0137 -0.4596  0.1592
  245MPD1    C1 3714   2.623   2.657  12.958 -0.1996  0.8215  0.0954
  245MPD1    C2 3715   2.687   2.747  13.039 -0.5974  0.0467 -0.1688
  245MPD1    C3 3716   2.751   2.707  13.155 -0.1092  0.0520 -0.9472
  245MPD1    C4 3717   2.781   2.571  13.161 -0.7093 -0.6632  1.0815
  245MPD1    C5 3718   2.724   2.484  13.071  0.0615 -0.7067  0.2622
  245MPD1     H 3719   2.668   2.851  13.017 -0.5320 -0.1808 -1.3184
  245MPD1    H1 3720   2.846   2.528  13.236  0.1970 -1.7247 -0.3169
  245MPD1    H2 3721   2.593   2.458  12.908  1.2788 -0.0653 -1.2219
  245MPD1    H3 3722   2.736   2.378  13.091  0.2168 -1.0247 -1.5898
  245MPD1     N 3723   2.796   2.807  13.245  0.4694 -0.1301 -0.4456
  245MPD1    H5 3724   2.790   2.905  13.218  1.1392 -0.0721 -0.3707
  245MPD1    N1 3725   2.547   2.701  12.852  0.1053 -0.5687  0.2051
  245MPD1    H6 3726   2.542   2.802  12.859  1.0260 -0.3891 -2.0326
  245MPD1    H7 3727   2.592   2.681  12.763 -0.1359 -0.7059  0.1115
  246MPD1     C 3728   3.537   0.069   8.648  1.2485  0.7205  0.2532
  246MPD1    C1 3729   3.517   4.712   8.762 -0.0535 -0.4980  0.0783
  246MPD1    C2 3730   3.390   4.705   8.813 -0.8628  0.1228 -0.4191
  246MPD1    C3 3731   3.285   0.054   8.763  0.4382 -0.2816  0.5047
  246MPD1    C4 3732   3.308   0.151   8.669 -0.5367  0.6494 -0.3963
  246MPD1    C5 3733   3.430   0.150   8.607 -0.4821 -0.3540 -0.3900
  246MPD1     H 3734   3.371   4.633   8.892 -0.4359  1.2928  0.7371
  246MPD1    H1 3735   3.237   0.216   8.621 -1.7161  0.7400  1.4704
  246MPD1    H2 3736   3.636   0.088   8.608  0.6032  1.4335 -1.0027
  246MPD1    H3 3737   3.447   0.219   8.525  1.5725 -0.1822  0.1987
  246MPD1     N 3738   3.159   0.023   8.822 -0.8277  0.1575  0.3632
  246MPD1    H5 3739   3.150   4.650   8.859  1.2790 -0.6330 -1.1250
  246MPD1    N1 3740   3.612   4.614   8.796  0.2704  0.2850 -0.2766
  246MPD1    H6 3741   3.631   4.612   8.896 -1.7412 -0.9431  0.0852
  246MPD1    H7 3742   3.703   4.631   8.755  0.7093 -0.9194  0.1948
  247MPD1     C 3743   1.696   2.626  16.814 -0.2548  0.2815 -0.5213
  247MPD1    C1 3744   1.808   2.700  16.834  0.0334 -0.0877  0.0166
  247MPD1    C2 3745   1.928   2.671  16.761 -0.7240 -1.0448  0.2285
  247MPD1    C3 3746   1.926   2.564  16.668  0.0566 -0.6493  0.1990
  247MPD1    C4 3747   1.805   2.497  16.649  0.0227  0.4486  0.4467
  247MPD1    C5 3748   1.695   2.533  16.716 -0.4709 -0.1948  0.3082
  247MPD1     H 3749   2.015   2.736  16.771 -2.7244  1.7517 -0.7279
  247MPD1    H1 3750   1.792   2.418  16.577 -2.3258  0.5749  0.7352
  247MPD1    H2 3751   1.604   2.645  16.869 -0.4638 -0.3663 -0.6461
  247MPD1    H3 3752   1.604   2.478  16.695 -0.9767  1.3062 -1.5087
  247MPD1     N 3753   2.031   2.525  16.587  0.3924  0.2453  0.2841
  247MPD1    H5 3754   2.022   2.444  16.527  0.7468  2.2744 -2.4924
  247MPD1    N1 3755   1.799   2.807  16.925 -0.0597  0.6990  0.2882
  247MPD1    H6 3756   1.888   2.837  16.964 -0.0715 -1.2553  1.8258
  247MPD1    H7 3757   1.741   2.783  17.006  0.6973 -0.5035  0.4653
  248MPD1     C 3758   3.245   2.439  17.628 -0.2252  0.1569  0.1922
  248MPD1    C1 3759   3.207   2.566  17.678 -0.3154  0.0052 -0.6246
  248MPD1    C2 3760   3.137   2.568   0.109  0.1268  0.3412  0.0604
  248MPD1    C3 3761   3.083   2.450   0.161  0.0274 -0.0544  0.3478
  248MPD1    C4 3762   3.098   2.333   0.096  0.8312  0.5786  0.0511
  248MPD1    C5 3763   3.181   2.322  17.679  0.0999  0.2274  0.1482
  248MPD1     H 3764   3.119   2.663   0.158 -0.2244  2.3060 -3.8038
  248MPD1    H1 3765   3.045   2.241   0.120  1.1952  0.9394  2.2358
  248MPD1    H2 3766   3.315   2.426  17.547 -0.0863  2.6855 -0.0821
  248MPD1    H3 3767   3.190   2.231  17.621 -0.5227 -1.1401  2.2196
  248MPD1     N 3768   2.983   2.467   0.259  0.0344 -0.3185 -0.7090
  248MPD1    H5 3769   2.984   2.549   0.319 -0.1440 -0.8246 -0.0180
  248MPD1    N1 3770   3.273   2.679  17.634  0.3527 -0.1035  0.0105
  248MPD1    H6 3771   3.237   2.773  17.651  0.7572  0.2079 -0.8624
  248MPD1    H7 3772   3.287   2.666  17.534 -0.5649  1.0640 -0.2726
  249MPD1     C 3773   4.470   0.717   9.848 -0.0600  0.4672 -0.1776
  249MPD1    C1 3774   4.547   0.824   9.812  0.2342 -0.2484  0.2868
  249MPD1    C2 3775   4.586   0.911   9.909  0.4012 -0.5615  0.0026
  249MPD1    C3 3776   4.558   0.890  10.046 -0.2000 -0.6808  0.2483
  249MPD1    C4 3777   4.498   0.770  10.080  1.1779  0.4645 -0.3824
  249MPD1    C5 3778   4.446   0.691   9.977  0.2037  0.1690 -0.1934
  249MPD1     H 3779   4.638   1.004   9.890 -1.1538  0.2900 -0.1068
  249MPD1    H1 3780   4.469   0.741  10.180  0.3302  1.2128 -0.4137
  249MPD1    H2 3781   4.417   0.651   9.780 -0.8864  0.7736  0.1737
  249MPD1    H3 3782   4.384   0.605   9.999  0.3231  0.2196  0.3396
  249MPD1     N 3783   4.604   0.989  10.144 -0.3721  0.3317  0.8517
  249MPD1    H5 3784   4.626   1.077  10.099 -2.5480 -0.4486 -1.7822
  249MPD1    N1 3785   4.541   0.867   9.678  0.4278 -0.5549  0.3788
  249MPD1    H6 3786   4.618   0.931   9.663  0.4221 -0.5252  0.4725
  249MPD1    H7 3787   4.550   0.786   9.618  1.0231  2.1565 -3.1336
  250MPD2     C 3788   0.555   1.095  12.358  0.2634 -0.7901  0.8001
  250MPD2    C1 3789   0.664   1.026  12.403 -0.6884  0.6420  0.6444
  250MPD2    C2 3790   0.698   0.907  12.334  0.0709 -0.2168  0.0521
  250MPD2    C3 3791   0.627   0.867  12.220  0.4158  0.2066  0.2991
  250MPD2    C4 3792   0.517   0.934  12.179  0.0866 -0.0838 -0.1267
  250MPD2    C5 3793   0.481   1.046  12.251  0.1744 -0.5449 -0.0106
  250MPD2     H 3794   0.773   0.840  12.375  1.3280  0.9127 -0.3959
  250MPD2    H1 3795   0.454   0.897  12.099 -0.0129  0.3605 -0.2511
  250MPD2    H2 3796   0.510   1.184  12.399  0.3697 -0.3846  0.0284
  250MPD2    H3 3797   0.398   1.100  12.207 -0.4234 -2.4703 -1.2529
  250MPD2     N 3798   0.671   0.763  12.133 -0.3411 -0.4584  0.4991
  250MPD2    H5 3799   0.621   0.771  12.045  0.8930  2.8677  0.0986
  250MPD2    N1 3800   0.722   1.081  12.520  0.1113  0.0719  0.4724
  250MPD2    H7 3801   0.664   1.142  12.576  0.8485  1.1782  0.0236
  251TMC3    C1 3802   0.910   1.133  12.669 -0.2752  0.0815 -0.0424
  251TMC3    C2 3803   0.835   1.224  12.734 -0.0843  0.7775 -0.4065
  251TMC3    C3 3804   0.898   1.322  12.799  0.2988  0.0282 -0.6622
  251TMC3    C4 3805   1.044   1.128  12.686 -0.4305 -0.4874  0.1234
  251TMC3    C5 3806   1.103   1.233  12.749 -0.3560 -0.6437 -0.0695
  251TMC3    C6 3807   1.034   1.337  12.791 -0.7666 -0.8370  0.4613
  251TMC3     C 3808   0.856   1.053  12.561  0.6123  0.2857  0.4745
  251TMC3     O 3809   0.931   0.990  12.493  0.2056  0.6559 -0.6503
  251TMC3     H 3810   0.730   1.200  12.750  0.3065 -0.7748 -0.1823
  251TMC3    H1 3811   1.105   1.051  12.640 -2.8844 -2.5409  0.3173
  251TMC3    H2 3812   1.088   1.404  12.856 -1.7399  1.9448 -1.6104
  251TMC3    C7 3813   1.251   1.241  12.760  0.1213  0.7170  0.0460
  251TMC3    C8 3814   0.832   1.425  12.864  0.5479 -0.5358 -0.9924
  251TMC3    O1 3815   1.289   1.356  12.763 -0.2958  0.0381  0.0522
  251TMC3    O2 3816   0.901   1.507  12.920  0.2734 -0.2495 -0.6617
  252TMC3    C1 3817   1.399   2.428   8.906  0.0089 -0.3436  0.1746
  252TMC3    C2 3818   1.424   2.545   8.976 -0.2859 -0.3317 -0.5619
  252TMC3    C3 3819   1.449   2.539   9.103 -0.4508  0.3039 -0.1069
  252TMC3    C4 3820   1.416   2.306   8.975 -0.5395 -0.0276 -0.7776
  252TMC3    C5 3821   1.459   2.302   9.108  0.1940  0.1524  0.2362
  252TMC3    C6 3822   1.463   2.418   9.179 -0.7471 -0.3554 -0.3544
  252TMC3     C 3823   1.378   2.435   8.761  0.3694  0.6276 -0.6837
  252TMC3     O 3824   1.347   2.550   8.725 -0.2578  0.1986 -0.4557
  252TMC3     H 3825   1.407   2.641   8.927 -0.5786 -0.1541 -0.1156
  252TMC3    H1 3826   1.411   2.208   8.929 -2.3163 -0.8858  1.1858
  252TMC3    H2 3827   1.472   2.424   9.287  0.8175 -0.0475 -0.4997
  252TMC3    C7 3828   1.436   2.172   9.179 -0.9142  1.2603  0.0553
  252TMC3    C8 3829   1.525   2.661   9.151  0.5191 -0.3201  1.0115
  252TMC3    O1 3830   1.376   2.084   9.120  0.0786 -0.2300 -0.4503
  252TMC3    O2 3831   1.521   2.752   9.067  0.0532  0.4052 -0.1101
  253MPD2     C 3832   2.591   1.607  15.333 -0.4773 -0.8585  0.0604
  253MPD2    C1 3833   2.467   1.540  15.350 -0.3379  0.2943  0.2662
  253MPD2    C2 3834   2.427   1.505  15.474 -0.4886 -0.0128 -0.5349
  253MPD2    C3 3835   2.488   1.539  15.596 -1.3229 -0.3959  0.2318
  253MPD2    C4 3836   2.607   1.609  15.577 -0.2270 -0.3488 -0.5424
  253MPD2    C5 3837   2.662   1.635  15.451  0.6354 -0.1771  0.0967
  253MPD2     H 3838   2.334   1.450  15.484  0.7566 -1.9693  0.3293
  253MPD2    H1 3839   2.662   1.637  15.666 -1.2958 -0.1273  0.0509
  253MPD2    H2 3840   2.625   1.631  15.233  0.7811 -0.9088  0.4798
  253MPD2    H3 3841   2.758   1.685  15.445 -0.0328  1.0444 -0.4096
  253MPD2     N 3842   2.434   1.517  15.721 -0.1685 -0.4364 -0.6341
  253MPD2    H5 3843   2.493   1.538  15.801 -1.9877  0.3892  0.5003
  253MPD2    N1 3844   2.380   1.501  15.243  0.5044 -0.2778 -0.0439
  253MPD2    H7 3845   2.294   1.460  15.279 -0.2495 -1.3965 -3.1307
  254TMC3    C1 3846   2.265   1.452  15.880  0.5093 -0.1390  0.0467
  254TMC3    C2 3847   2.145   1.486  15.940 -0.3156 -0.3768  0.1141
  254TMC3    C3 3848   2.129   1.464  16.075  0.4952 -0.8162 -0.1538
  254TMC3    C4 3849   2.368   1.400  15.956 -0.2360 -0.8535  0.8022
  254TMC3    C5 3850   2.345   1.385  16.083 -0.3248  0.0870  0.2025
  254TMC3    C6 3851   2.222   1.398  16.142 -0.7362  0.0810  0.5283
  254TMC3     C 3852   2.300   1.488  15.741  0.3775 -0.2196  0.3458
  254TMC3     O 3853   2.208   1.490  15.658 -0.0969  0.1176 -0.4888
  254TMC3     H 3854   2.070   1.523  15.871 -0.4468 -0.9173 -0.0358
  254TMC3    H1 3855   2.459   1.367  15.908  1.1780  2.1944  1.3390
  254TMC3    H2 3856   2.202   1.371  16.245 -0.5467 -1.6108  0.1244
  254TMC3    C7 3857   2.444   1.333  16.174 -0.4237  0.0955  0.5540
  254TMC3    C8 3858   2.020   1.527  16.144  0.4763  0.2367 -0.2285
  254TMC3    O1 3859   2.415   1.340  16.293 -0.3529 -0.3410 -0.0943
  254TMC3    O2 3860   2.056   1.577  16.249 -0.0719  0.0405  0.3276
  255MPD2     C 3861   0.889   4.540  10.169  0.2464 -0.0964  0.2595
  255MPD2    C1 3862   0.884   4.603  10.045 -0.1452 -0.2105 -0.1897
  255MPD2    C2 3863   0.935   4.537   9.935  0.2425 -1.1379  0.4299
  255MPD2    C3 3864   1.000   4.416   9.958  0.5075  0.2530  0.0197
  255MPD2    C4 3865   1.013   4.361  10.076  0.5770 -0.0666  0.2026
  255MPD2    C5 3866   0.959   4.422  10.187 -0.4933 -0.1324 -0.2662
  255MPD2     H 3867   0.922   4.568   9.832  0.1066  1.2449  1.1843
  255MPD2    H1 3868   1.067   4.268  10.091  2.5807  1.3450  1.7069
  255MPD2    H2 3869   0.853   4.588  10.259  0.9189 -0.2094  0.5930
  255MPD2    H3 3870   0.953   4.368  10.281  3.8673 -2.1627 -1.1468
  255MPD2     N 3871   1.053   4.355   9.841 -0.1295  0.7456  0.0392
  255MPD2    H5 3872   1.060   4.421   9.764 -2.1905  1.2983  0.3139
  255MPD2    N1 3873   0.795   4.718  10.033 -0.0464  0.0042 -0.3136
  255MPD2    H7 3874   0.749   0.022  10.120  2.6945  0.5105  0.9909
  256TMC3    C1 3875   0.702   0.198   9.933 -0.1345  0.5305  0.0057
  256TMC3    C2 3876   0.743   0.306   9.876  0.1234 -0.2646 -0.0122
  256TMC3    C3 3877   0.663   0.421   9.882  0.4148 -0.2177  0.2976
  256TMC3    C4 3878   0.582   0.191  10.000  0.3373  0.2247 -0.3055
  256TMC3    C5 3879   0.503   0.297   9.998 -0.2835 -0.1373  0.1328
  256TMC3    C6 3880   0.541   0.420   9.950  0.2215  0.7871  0.2248
  256TMC3     C 3881   0.784   0.079   9.920  0.0744 -0.0474  0.1319
  256TMC3     O 3882   0.861   0.081   9.821 -0.5657  0.3820  0.5466
  256TMC3     H 3883   0.834   0.300   9.817 -0.0118  0.5328 -0.3038
  256TMC3    H1 3884   0.540   0.098  10.038 -0.3830  0.7323  0.1242
  256TMC3    H2 3885   0.475   0.505   9.963 -0.8944  0.1005 -1.0464
  256TMC3    C7 3886   0.367   0.262   9.962 -0.7430 -0.1708 -0.5525
  256TMC3    C8 3887   0.714   0.547   9.839  0.2837 -0.3167 -0.2903
  256TMC3    O1 3888   0.314   0.318   9.865 -0.2724  0.0891 -1.1910
  256TMC3    O2 3889   0.646   0.647   9.863  0.0176 -0.0550  0.1431
  257MPD2     C 3890   4.625   1.458  13.235 -0.5795 -0.0142 -0.2201
  257MPD2    C1 3891   4.629   1.341  13.166 -0.3464 -0.0399 -0.0780
  257MPD2    C2 3892   4.630   1.219  13.240  0.3185 -0.8073  0.0071
  257MPD2    C3 3893   4.618   1.222  13.381 -0.6402  0.3246  0.0308
  257MPD2    C4 3894   4.604   1.348  13.446  0.7316  0.2294 -0.4273
  257MPD2    C5 3895   4.616   1.458  13.371 -0.0798 -0.2110  0.5119
  257MPD2     H 3896   4.657   1.125  13.193  0.7724  0.0942 -1.5328
  257MPD2    H1 3897   4.580   1.360  13.551  0.3483  1.1558 -0.6210
  257MPD2    H2 3898   4.640   1.551  13.180 -1.8822 -0.3080 -1.0805
  257MPD2    H3 3899   4.617   1.556  13.417  2.3487  1.4172 -2.9959
  257MPD2     N 3900   4.626   1.099  13.448 -0.5773 -0.6614  0.5270
  257MPD2    H5 3901   4.641   1.018  13.389  1.4997 -0.5521  0.9192
  257MPD2    N1 3902   4.658   1.343  13.030  0.4493  0.4012  0.6222
  257MPD2    H7 3903   4.691   1.432  12.994 -0.3994  0.5827  0.2958
  258TMC3    C1 3904   4.651   0.955  13.629 -0.4506  0.0144 -0.0742
  258TMC3    C2 3905   4.690   0.861  13.541 -0.3886  0.1663  0.3229
  258TMC3    C3 3906   4.719   0.735  13.600 -0.5489 -0.3269 -0.1878
  258TMC3    C4 3907   4.646   0.931  13.764  0.2498 -0.7710  0.5468
  258TMC3    C5 3908   4.690   0.810  13.816  0.2940  0.5264  1.0712
  258TMC3    C6 3909   4.717   0.706  13.732  0.5598  0.0249 -0.1239
  258TMC3     C 3910   4.607   1.079  13.579  0.5559  0.0533  0.4266
  258TMC3     O 3911   4.544   1.152  13.659  0.2547  0.6668 -0.0141
  258TMC3     H 3912   4.687   0.870  13.433  1.1288 -0.3487  0.2345
  258TMC3    H1 3913   4.619   1.009  13.835 -1.6806 -0.5244 -0.4564
  258TMC3    H2 3914   0.012   0.603  13.764 -0.1931  0.0634  0.3740
  258TMC3    C7 3915   4.688   0.788  13.954  0.2427  0.4162  0.1756
  258TMC3    C8 3916   0.066   0.639  13.513 -0.0588  0.2418 -0.2701
  258TMC3    O1 3917   4.651   0.879  14.024 -0.3180  0.1107 -0.0639
  258TMC3    O2 3918   0.031   0.523  13.517  0.2161  0.0122 -0.4063
  259MPD2     C 3919   3.640   2.694   1.396  0.1931 -0.5084  0.8437
  259MPD2    C1 3920   3.596   2.579   1.330  0.0283  0.4353  0.0830
  259MPD2    C2 3921   3.664   2.524   1.227 -0.0971 -0.6410  0.0170
  259MPD2    C3 3922   3.783   2.578   1.186 -0.4294 -0.5171  0.9402
  259MPD2    C4 3923   3.825   2.690   1.254  0.1249  0.0544  0.1714
  259MPD2    C5 3924   3.755   2.755   1.351 -0.0421 -0.3370  0.0936
  259MPD2     H 3925   3.618   2.453   1.160 -0.1275 -0.2326 -0.3962
  259MPD2    H1 3926   3.911   2.748   1.223  0.0447 -0.2463 -0.6075
  259MPD2    H2 3927   3.592   2.750   1.475  1.5504  1.2518  0.4331
  259MPD2    H3 3928   3.785   2.851   1.391  0.7492 -0.2142 -0.7675
  259MPD2     N 3929   3.858   2.530   1.073 -0.3763  0.5894 -0.0759
  259MPD2    H5 3930   3.801   2.467   1.018 -1.0238  0.3301  0.8846
  259MPD2    N1 3931   3.499   2.503   1.395 -0.2211  1.1813  0.1576
  259MPD2    H7 3932   3.472   2.538   1.486  0.8500 -0.1281  0.9745
  260TMC3    C1 3933   4.041   2.481   0.928 -0.3979 -0.0135  0.7250
  260TMC3    C2 3934   4.165   2.426   0.953  0.6505  0.3637 -0.9531
  260TMC3    C3 3935   4.199   2.324   0.865  0.9108  0.3296 -0.3524
  260TMC3    C4 3936   3.956   2.444   0.827 -0.8919  0.4444 -0.0333
  260TMC3    C5 3937   3.997   2.342   0.749 -0.6305  0.0855 -0.5296
  260TMC3    C6 3938   4.117   2.285   0.757 -0.5145 -0.2036  0.1073
  260TMC3     C 3939   3.991   2.563   1.031  1.1412  1.2796  0.3006
  260TMC3     O 3940   4.073   2.622   1.103  0.2271 -0.0579  0.0395
  260TMC3     H 3941   4.237   2.473   1.019  0.1526  1.4607 -1.1932
  260TMC3    H1 3942   3.866   2.501   0.806 -1.9657  0.1618  3.8629
  260TMC3    H2 3943   4.140   2.208   0.685  1.8846  1.1253 -0.5706
  260TMC3    C7 3944   3.913   2.318   0.630  0.8571 -0.5137 -0.2819
  260TMC3    C8 3945   4.332   2.269   0.871  0.3360  0.0145 -0.4357
  260TMC3    O1 3946   3.971   2.271   0.530 -0.0483 -0.2575  1.1387
  260TMC3    O2 3947   4.383   2.209   0.962  0.2292 -0.1912  0.0831
  261MPD2     C 3948   1.170   0.765  11.636  0.2055 -0.4938  0.4355
  261MPD2    C1 3949   1.062   0.806  11.714 -0.4818 -0.2671 -0.8228
  261MPD2    C2 3950   1.056   0.943  11.742 -0.4140 -0.0437  0.3000
  261MPD2    C3 3951   1.164   1.031  11.716  1.1373 -0.1692 -0.1940
  261MPD2    C4 3952   1.263   0.994  11.633  0.7589 -0.6925 -0.1969
  261MPD2    C5 3953   1.266   0.863  11.593  0.3979  0.7863  0.1491
  261MPD2     H 3954   0.970   0.986  11.792 -0.8160 -1.8965  1.2112
  261MPD2    H1 3955   1.338   1.069  11.610 -0.2093  0.2309 -0.2938
  261MPD2    H2 3956   1.190   0.663  11.606 -0.5481 -1.1330  2.1325
  261MPD2    H3 3957   1.352   0.831  11.535  0.4378 -1.3695  1.4100
  261MPD2     N 3958   1.178   1.156  11.773 -0.1174 -0.2566  0.2133
  261MPD2    H5 3959   1.258   1.212  11.747 -0.8929 -0.1368 -1.9216
  261MPD2    N1 3960   0.956   0.725  11.759 -0.7127 -0.2702 -0.1500
  261MPD2    H7 3961   0.884   0.770  11.815  1.4359  1.8709  0.8804
  262TMC3    C1 3962   1.163   1.344  11.907  0.6372 -0.0495 -0.0959
  262TMC3    C2 3963   1.092   1.427  11.982 -0.5617 -0.0407  0.0531
  262TMC3    C3 3964   1.146   1.552  12.020  0.6829 -0.3174 -0.3627
  262TMC3    C4 3965   1.292   1.377  11.880 -0.6538 -0.2182  0.2973
  262TMC3    C5 3966   1.345   1.493  11.926  0.6767 -0.5541  0.0738
  262TMC3    C6 3967   1.277   1.588  11.998  0.0766  0.3315  0.1453
  262TMC3     C 3968   1.101   1.217  11.863  0.3065 -0.5729 -1.1395
  262TMC3     O 3969   0.992   1.186  11.899  0.0642 -0.1173  0.4838
  262TMC3     H 3970   0.994   1.390  12.009 -0.6596  0.3264  0.1980
  262TMC3    H1 3971   1.355   1.315  11.818 -1.0556  0.3080 -0.6278
  262TMC3    H2 3972   1.311   1.684  12.032 -2.6916  1.1054  0.7342
  262TMC3    C7 3973   1.478   1.529  11.876 -0.3462  0.2503  0.4419
  262TMC3    C8 3974   1.052   1.669  12.032  0.6802 -0.3414 -0.0988
  262TMC3    O1 3975   1.555   1.443  11.840  0.5099  0.0467 -0.2903
  262TMC3    O2 3976   1.099   1.781  12.042 -0.6190 -0.3675 -0.2362
  263MPD2     C 3977   1.639   1.028  11.466  0.5749 -0.4220  0.1297
  263MPD2    C1 3978   1.766   1.006  11.424  0.4649  0.9222 -0.0351
  263MPD2    C2 3979   1.803   1.032  11.296  0.4418 -0.0384  0.4986
  263MPD2    C3 3980   1.703   1.060  11.205  0.2082 -0.8146 -0.2866
  263MPD2    C4 3981   1.575   1.068  11.244  0.4376 -0.1345  0.3240
  263MPD2    C5 3982   1.542   1.072  11.375 -0.3238  0.3411 -0.0303
  263MPD2     H 3983   1.905   1.021  11.262  0.4268 -2.2021  1.1652
  263MPD2    H1 3984   1.492   1.100  11.181 -0.6647 -2.4025  0.6131
  263MPD2    H2 3985   1.609   1.017  11.570 -2.6003  0.5434 -0.6757
  263MPD2    H3 3986   1.439   1.095  11.395 -0.6305 -0.8037 -0.2772
  263MPD2     N 3987   1.732   1.096  11.074 -0.3171 -0.2380  0.1354
  263MPD2    H5 3988   1.654   1.138  11.026 -1.7400 -1.6049  1.2394
  263MPD2    N1 3989   1.860   0.949  11.512 -0.0142 -0.0880 -0.7256
  263MPD2    H7 3990   1.940   0.918  11.458 -0.1846  0.7556 -1.4734
  264TMC3    C1 3991   1.843   1.134  10.879  0.2542  0.2776  0.0395
  264TMC3    C2 3992   1.797   1.266  10.879 -0.2476  0.0245  0.4044
  264TMC3    C3 3993   1.849   1.348  10.777 -0.2813 -0.0221  0.2586
  264TMC3    C4 3994   1.939   1.095  10.784 -0.2598  0.1263 -0.0773
  264TMC3    C5 3995   1.975   1.182  10.675 -0.0027 -0.3111 -0.5658
  264TMC3    C6 3996   1.929   1.304  10.676 -0.1600  0.4649 -0.1074
  264TMC3     C 3997   1.847   1.072  11.006 -0.0556 -0.7483 -0.6059
  264TMC3     O 3998   1.948   1.005  11.027 -0.2129  0.9540  0.0431
  264TMC3     H 3999   1.736   1.304  10.959  1.2189 -1.1848  2.0878
  264TMC3    H1 4000   1.984   0.997  10.792 -0.2435  0.1848  0.6031
  264TMC3    H2 4001   1.959   1.355  10.585  0.4743 -0.9184 -0.6696
  264TMC3    C7 4002   2.104   1.152  10.622 -0.0014 -0.2623 -0.9197
  264TMC3    C8 4003   1.889   1.485  10.804  0.5559  0.2249 -0.4609
  264TMC3    O1 4004   2.135   1.037  10.596 -0.4134  0.2777  0.4987
  264TMC3    O2 4005   1.957   1.544  10.720 -0.5907  0.3335  0.4729
  265MPD2     C 4006   3.595   1.056  15.733  0.0049  0.4979  0.3999
  265MPD2    C1 4007   3.680   1.151  15.686  0.8031  1.0086 -0.0533
  265MPD2    C2 4008   3.744   1.125  15.569  0.5412  0.1092  0.4638
  265MPD2    C3 4009   3.729   0.999  15.502 -0.2401  0.4870  0.2439
  265MPD2    C4 4010   3.655   0.903  15.565  0.3922 -0.7085 -0.1641
  265MPD2    C5 4011   3.583   0.931  15.674 -0.0792 -0.1192  1.0018
  265MPD2     H 4012   3.807   1.205  15.532  0.0746 -0.3194 -1.2724
  265MPD2    H1 4013   3.638   0.803  15.526  0.3561 -0.8782  0.2923
  265MPD2    H2 4014   3.525   1.077  15.813  1.4146 -0.0221  1.7887
  265MPD2    H3 4015   3.512   0.859  15.712  0.1125  0.4765  2.4958
  265MPD2     N 4016   3.787   0.951  15.374  0.5384  0.4772  0.1372
  265MPD2    H5 4017   3.778   0.852  15.350  0.6170  0.2937  0.8873
  265MPD2    N1 4018   3.696   1.279  15.738 -0.1587  0.7293  0.1822
  265MPD2    H7 4019   3.760   1.335  15.683 -1.0665  1.5304 -0.0549
  266TMC3    C1 4020   3.701   1.438  15.917 -0.1711  0.1334 -0.0752
  266TMC3    C2 4021   3.634   1.469  16.030  0.1026 -0.7697 -0.6028
  266TMC3    C3 4022   3.643   1.597  16.078  0.2253  0.3882  0.1286
  266TMC3    C4 4023   3.762   1.536  15.830  0.4628 -0.4408  0.7163
  266TMC3    C5 4024   3.750   1.664  15.875  0.4607 -0.0307 -0.2912
  266TMC3    C6 4025   3.700   1.694  15.999 -0.2635  0.3298  0.1552
  266TMC3     C 4026   3.644   1.319  15.857 -0.6887 -0.0923 -0.5849
  266TMC3     O 4027   3.571   1.262  15.938  0.1564 -0.3217 -0.0077
  266TMC3     H 4028   3.588   1.396  16.095 -0.8333  1.4654  1.2318
  266TMC3    H1 4029   3.791   1.505  15.730  0.9724  1.6633  0.2094
  266TMC3    H2 4030   3.677   1.799  16.016 -1.5144 -0.2893  2.2936
  266TMC3    C7 4031   3.780   1.781  15.796 -0.0621 -0.2366 -0.0736
  266TMC3    C8 4032   3.551   1.645  16.183 -0.4718  0.0340 -0.4751
  266TMC3    O1 4033   3.803   1.887  15.845  0.6591  0.0214 -0.7319
  266TMC3    O2 4034   3.464   1.569  16.221  0.0318  0.6758 -0.0577
  267MPD2     C 4035   1.657   2.560  17.274 -0.4964 -0.4770  0.5264
  267MPD2    C1 4036   1.543   2.527  17.354 -0.5947 -0.0678  0.2185
  267MPD2    C2 4037   1.436   2.465  17.289  0.2951 -0.1791  0.6834
  267MPD2    C3 4038   1.438   2.436  17.158  1.5726 -0.5656  0.2547
  267MPD2    C4 4039   1.551   2.459  17.089  0.1846  0.5944  0.1091
  267MPD2    C5 4040   1.662   2.516  17.138 -0.2808 -0.4030 -0.3011
  267MPD2     H 4041   1.356   2.435  17.356 -1.1676  0.3532 -0.8161
  267MPD2    H1 4042   1.560   2.426  16.986  1.1966  3.1060 -0.5884
  267MPD2    H2 4043   1.745   2.614  17.305  0.8766 -0.7577 -2.9182
  267MPD2    H3 4044   1.745   2.547  17.075 -0.0851  0.2801  0.2939
  267MPD2     N 4045   1.326   2.381  17.089 -0.2357 -0.2547 -0.2157
  267MPD2    H5 4046   1.344   2.382  16.989  0.2987  0.5188 -0.1099
  267MPD2    N1 4047   1.528   2.568  17.494  0.0014 -0.3517  0.3652
  267MPD2    H7 4048   1.607   2.618  17.533  0.0222 -0.3556  0.3285
  268TMC3    C1 4049   1.451   2.669   0.004  0.3276 -0.0619 -0.7569
  268TMC3    C2 4050   1.496   2.796  17.673 -0.4149  0.3753 -1.2512
  268TMC3    C3 4051   1.479   2.890   0.079  0.1368  0.3841  0.2398
  268TMC3    C4 4052   1.394   2.633   0.124  0.2270  0.1501 -0.3375
  268TMC3    C5 4053   1.370   2.728   0.208 -0.1661  0.0547  0.1377
  268TMC3    C6 4054   1.404   2.861   0.188  0.1445 -0.7902  0.5273
  268TMC3     C 4055   1.423   2.595  17.570 -0.4861  0.5492 -0.6041
  268TMC3     O 4056   1.309   2.548  17.563 -0.2138  0.0368 -0.2490
  268TMC3     H 4057   1.514   2.832  17.572  1.0006  0.2383 -1.0454
  268TMC3    H1 4058   1.360   2.531   0.137 -0.4558  0.4497  0.2104
  268TMC3    H2 4059   1.382   2.933   0.265  1.5527  1.2295 -0.9470
  268TMC3    C7 4060   1.367   2.686   0.352  0.3480  0.3629  0.1526
  268TMC3    C8 4061   1.490   3.030   0.036  0.4853  0.1098  1.0031
  268TMC3    O1 4062   1.409   2.571   0.368 -0.1812  0.1568 -0.4652
  268TMC3    O2 4063   1.412   3.114   0.077  0.0078  0.2213 -0.3614
  269MPD2     C 4064   1.578   1.641  15.620 -0.8085 -0.3952  0.1495
  269MPD2    C1 4065   1.468   1.683  15.694  0.6947 -0.0863  0.9472
  269MPD2    C2 4066   1.422   1.815  15.677  0.0204  0.4554 -0.5670
  269MPD2    C3 4067   1.486   1.902  15.588  0.2030  0.3656  0.0232
  269MPD2    C4 4068   1.599   1.855  15.516 -0.8123 -0.2359  0.2230
  269MPD2    C5 4069   1.639   1.726  15.531  0.6957 -0.6834 -0.5857
  269MPD2     H 4070   1.331   1.847  15.728  0.2681  2.2652 -1.2469
  269MPD2    H1 4071   1.656   1.913  15.445 -3.0796  0.4199 -1.0622
  269MPD2    H2 4072   1.616   1.539  15.623 -1.7059 -0.6583  3.7104
  269MPD2    H3 4073   1.722   1.684  15.475  0.9980  0.8085 -1.2714
  269MPD2     N 4074   1.447   2.038  15.578  0.4353  0.7857 -0.3104
  269MPD2    H5 4075   1.377   2.067  15.645 -2.3167 -3.3376 -1.4079
  269MPD2    N1 4076   1.411   1.592  15.791  0.0256  0.4883 -0.0756
  269MPD2    H7 4077   1.442   1.495  15.791 -0.5780  0.2869 -1.5223
  270TMC3    C1 4078   1.255   1.516  15.959 -0.0291 -0.1417 -0.0388
  270TMC3    C2 4079   1.131   1.475  15.918 -0.4844 -0.5746 -0.2088
  270TMC3    C3 4080   1.099   1.340  15.937  0.4804 -0.1096 -0.4833
  270TMC3    C4 4081   1.345   1.428  16.005 -0.5265  0.2521 -0.0078
  270TMC3    C5 4082   1.302   1.310  16.047 -0.7567  0.6016 -0.0231
  270TMC3    C6 4083   1.183   1.259  16.011 -0.0001  0.0661 -1.3292
  270TMC3     C 4084   1.307   1.623  15.875 -0.3427  0.5729 -0.1369
  270TMC3     O 4085   1.248   1.731  15.886  0.4739 -0.6110  0.4817
  270TMC3     H 4086   1.073   1.550  15.864  0.2761  0.4297  0.3855
  270TMC3    H1 4087   1.445   1.459  16.032  0.0874 -1.6655 -0.0849
  270TMC3    H2 4088   1.157   1.154  16.015  2.5160 -0.4622  0.6700
  270TMC3    C7 4089   1.400   1.210  16.084 -0.5119 -0.0664  0.0746
  270TMC3    C8 4090   1.009   1.268  15.848 -0.2776  0.4958  0.2625
  270TMC3    O1 4091   1.513   1.238  16.058  0.0327  0.0906 -0.3263
  270TMC3    O2 4092   1.017   1.146  15.846 -0.8408  0.0940 -0.6039
  271MPD2     C 4093   0.541   1.342  13.946 -0.7136 -0.2821 -0.6814
  271MPD2    C1 4094   0.459   1.355  14.059 -0.5365 -0.2564 -0.4120
  271MPD2    C2 4095   0.343   1.420  14.046  0.0403 -0.5042 -0.2852
  271MPD2    C3 4096   0.303   1.480  13.929  0.0125 -0.0736  0.3837
  271MPD2    C4 4097   0.385   1.464  13.816  0.7451  0.5640  0.4770
  271MPD2    C5 4098   0.498   1.390  13.828 -0.2533 -0.2314 -0.2659
  271MPD2     H 4099   0.273   1.421  14.129  0.4556  0.9840  0.0424
  271MPD2    H1 4100   0.353   1.501  13.720  0.4350 -1.5007 -0.2148
  271MPD2    H2 4101   0.638   1.295  13.952  1.5201  4.4306  0.5917
  271MPD2    H3 4102   0.560   1.372  13.741  0.3771  0.8223 -0.0267
  271MPD2     N 4103   0.179   1.553  13.904  0.0886  0.6989  0.3334
  271MPD2    H5 4104   0.165   1.586  13.809 -2.5334 -1.1511  0.0863
  271MPD2    N1 4105   0.492   1.302  14.187 -0.3080 -0.3855  0.5461
  271MPD2    H7 4106   0.416   1.298  14.254 -0.7239  0.4904  0.1209
  272TMC3    C1 4107   0.602   1.147  14.330  0.1211 -0.6413 -0.3007
  272TMC3    C2 4108   0.698   1.054  14.332  1.0952  0.4755 -0.7747
  272TMC3    C3 4109   0.734   1.000  14.454  0.0922  0.2492  0.6497
  272TMC3    C4 4110   0.545   1.194  14.445  0.6770  0.4607  0.5113
  272TMC3    C5 4111   0.584   1.146  14.566 -0.8429 -0.1061  0.6376
  272TMC3    C6 4112   0.685   1.054  14.574  0.1920  0.0474 -0.0280
  272TMC3     C 4113   0.608   1.236  14.213  0.4575 -0.3249 -0.7441
  272TMC3     O 4114   0.709   1.229  14.147 -1.0319 -0.1995  0.0935
  272TMC3     H 4115   0.747   1.020  14.241 -2.4411 -3.1721 -1.3188
  272TMC3    H1 4116   0.471   1.273  14.444  0.1158 -0.0794 -0.1760
  272TMC3    H2 4117   0.703   1.018  14.675  2.1213  1.3723  0.1090
  272TMC3    C7 4118   0.537   1.222  14.676  0.0207  0.4689  0.1314
  272TMC3    C8 4119   0.865   0.931  14.449 -0.1148  0.1673  0.2824
  272TMC3    O1 4120   0.419   1.232  14.698  0.0301 -0.2210 -0.2698
  272TMC3    O2 4121   0.922   0.934  14.341 -0.2245 -0.5405  0.1449
  273MPD2     C 4122   2.156   4.345  12.025 -0.6934  0.3012  0.3218
  273MPD2    C1 4123   2.281   4.388  11.991  0.1259 -0.0232 -0.1494
  273MPD2    C2 4124   2.312   4.413  11.859 -0.6195 -1.0353 -0.3230
  273MPD2    C3 4125   2.209   4.399  11.762 -0.5114  0.2087 -0.0473
  273MPD2    C4 4126   2.087   4.353  11.800  0.4844  0.4064  0.8784
  273MPD2    C5 4127   2.058   4.329  11.933  0.5664  0.0077  0.1651
  273MPD2     H 4128   2.400   4.462  11.818 -0.3036 -1.6671 -0.3947
  273MPD2    H1 4129   1.999   4.342  11.737  1.1020  0.3148  0.0379
  273MPD2    H2 4130   2.132   4.343  12.130  2.8379 -1.7531  1.1151
  273MPD2    H3 4131   1.958   4.303  11.965 -0.2009  1.8250 -0.7331
  273MPD2     N 4132   2.221   4.444  11.625  0.2928 -0.2178  0.1003
  273MPD2    H5 4133   2.135   4.440  11.570  0.9683 -1.5409 -0.8528
  273MPD2    N1 4134   2.369   4.411  12.097 -0.2310 -0.1702  0.7627
  273MPD2    H7 4135   2.335   4.397  12.192 -0.7088  0.4219  0.6784
  274TMC3    C1 4136   2.308   4.544  11.435  0.0073 -0.0524 -0.1585
  274TMC3    C2 4137   2.201   4.490  11.360 -0.0212 -0.0766 -0.5841
  274TMC3    C3 4138   2.158   4.553  11.248 -0.4565 -0.2983  0.8093
  274TMC3    C4 4139   2.357   4.665  11.401 -0.0010 -0.0879  0.3394
  274TMC3    C5 4140   2.301   0.012  11.304  0.6271 -0.7827  0.6367
  274TMC3    C6 4141   2.195   4.683  11.227  0.2403  1.1878 -0.2960
  274TMC3     C 4142   2.335   4.489  11.568 -0.4715  0.6950 -0.0369
  274TMC3     O 4143   2.449   4.521  11.605 -0.4279  0.3233 -0.1368
  274TMC3     H 4144   2.171   4.390  11.389  1.8077 -0.2378  0.7197
  274TMC3    H1 4145   2.434   4.707  11.465  0.8557  1.8362 -1.9653
  274TMC3    H2 4146   2.167   0.009  11.134 -1.3197 -3.6971 -2.3258
  274TMC3    C7 4147   2.298   0.153  11.336  0.2531 -0.0404  0.5972
  274TMC3    C8 4148   2.058   4.498  11.166 -0.4342 -0.7914  0.1505
  274TMC3    O1 4149   2.201   0.224  11.309  0.2169 -0.2666  0.2662
  274TMC3    O2 4150   1.977   4.428  11.226 -0.4420 -0.5507 -0.1437
  275MPD2     C 4151   1.963   2.309  14.576  0.5906 -0.2086 -0.5235
  275MPD2    C1 4152   1.856   2.354  14.654 -0.1125 -0.3623  0.0820
  275MPD2    C2 4153   1.732   2.298  14.646 -0.1460 -0.0455  0.3546
  275MPD2    C3 4154   1.715   2.178  14.577 -0.0380 -0.6007 -0.0691
  275MPD2    C4 4155   1.824   2.126  14.512 -0.0863 -0.1504  0.2346
  275MPD2    C5 4156   1.944   2.193  14.504 -0.2740 -0.2223 -0.0377
  275MPD2     H 4157   1.650   2.342  14.702  0.3815 -1.1903  2.0433
  275MPD2    H1 4158   1.812   2.033  14.457 -1.0886 -0.6407  1.2618
  275MPD2    H2 4159   2.064   2.349  14.583 -0.2488  1.8234  0.0185
  275MPD2    H3 4160   2.021   2.142  14.449  0.8243 -0.9529  2.1704
  275MPD2     N 4161   1.588   2.104  14.569  0.0077  0.1738 -0.1989
  275MPD2    H5 4162   1.581   2.018  14.515 -3.1681  1.7739 -2.3869
  275MPD2    N1 4163   1.867   2.457  14.754 -0.2598 -0.0013  0.6207
  275MPD2    H7 4164   1.788   2.461  14.818  0.3848 -1.1572  1.4898
  276TMC3    C1 4165   1.983   2.582  14.922  0.3582  0.0971  0.7256
  276TMC3    C2 4166   1.924   2.503  15.012 -0.2159  0.1024 -1.0617
  276TMC3    C3 4167   1.943   2.532  15.140  0.3076  0.7487 -0.6323
  276TMC3    C4 4168   2.075   2.679  14.952 -0.4117  0.2781 -0.5824
  276TMC3    C5 4169   2.091   2.710  15.085  0.0463  0.2423 -0.1005
  276TMC3    C6 4170   2.026   2.634  15.182  0.1829  0.0534 -0.0203
  276TMC3     C 4171   1.969   2.537  14.783 -0.6418 -0.4042  0.6787
  276TMC3     O 4172   2.061   2.569  14.705 -0.3014 -0.1984 -0.0506
  276TMC3     H 4173   1.870   2.411  14.992  2.0417 -1.8982  1.9306
  276TMC3    H1 4174   2.116   2.734  14.868 -0.2941  0.1246 -0.6253
  276TMC3    H2 4175   2.050   2.646  15.287  2.0509 -2.3267 -0.1607
  276TMC3    C7 4176   2.221   2.766  15.121  0.4124  0.3103  0.0246
  276TMC3    C8 4177   1.913   2.429  15.239 -0.0949 -0.5181  0.0480
  276TMC3    O1 4178   2.263   2.725  15.230  0.0282 -0.6679  0.2686
  276TMC3    O2 4179   1.885   2.466  15.352 -0.6419 -0.9286  0.2090
  277MPD2     C 4180   3.845   1.501  13.537  0.9221  0.7121 -0.4553
  277MPD2    C1 4181   3.711   1.521  13.525 -0.4900 -0.5269 -0.4940
  277MPD2    C2 4182   3.627   1.490  13.637  0.4698  0.2322 -0.1208
  277MPD2    C3 4183   3.674   1.442  13.753 -0.7540 -0.6747 -0.1155
  277MPD2    C4 4184   3.809   1.407  13.759  0.1963 -0.1954 -0.1113
  277MPD2    C5 4185   3.891   1.442  13.653  0.3976 -0.0807  0.0132
  277MPD2     H 4186   3.519   1.497  13.636  0.4359 -0.2293  0.4513
  277MPD2    H1 4187   3.851   1.348  13.840  0.2652 -1.8609 -1.3670
  277MPD2    H2 4188   3.912   1.534  13.458  2.0044  2.5875  1.2574
  277MPD2    H3 4189   3.995   1.417  13.673  0.1097 -0.3177  1.2091
  277MPD2     N 4190   3.582   1.417  13.851  0.4550 -0.1425 -0.0801
  277MPD2    H5 4191   3.483   1.424  13.830  0.1516  1.3122  1.7547
  277MPD2    N1 4192   3.662   1.577  13.405 -0.3767  0.1598 -0.2059
  277MPD2    H7 4193   3.733   1.605  13.339 -0.3994  1.0950  0.1672
  278TMC3    C1 4194   3.489   1.305  14.034 -0.4606  0.0586  0.6242
  278TMC3    C2 4195   3.499   1.199  14.117  0.5442 -0.1416  0.6229
  278TMC3    C3 4196   3.385   1.153  14.180  0.1525 -0.2599  0.3257
  278TMC3    C4 4197   3.374   1.382  14.024  0.0560 -1.1417 -0.0908
  278TMC3    C5 4198   3.275   1.351  14.115  0.6924  0.1676 -0.0045
  278TMC3    C6 4199   3.277   1.226  14.173  1.0231 -0.2618 -0.0694
  278TMC3     C 4200   3.611   1.344  13.969  0.0285  0.4036 -0.7212
  278TMC3     O 4201   3.715   1.303  14.010  0.0164  0.1299  0.0965
  278TMC3     H 4202   3.590   1.142  14.127  0.0170 -1.1524 -0.2410
  278TMC3    H1 4203   3.378   1.484  13.989 -1.5611 -0.8786  0.5099
  278TMC3    H2 4204   3.187   1.198  14.228  0.2737  2.7414  0.2474
  278TMC3    C7 4205   3.147   1.415  14.088  0.2094  0.3659 -0.2159
  278TMC3    C8 4206   3.351   1.013  14.191 -0.4775  0.6693  0.2797
  278TMC3    O1 4207   3.144   1.471  13.978  0.0400 -0.8130  0.2494
  278TMC3    O2 4208   3.249   0.981  14.249 -0.6767  0.1614 -0.4351
  279MPD2     C 4209   3.163   2.020   0.474 -0.2226 -0.3825 -0.3378
  279MPD2    C1 4210   3.078   1.910   0.458 -0.0637 -0.8075  0.0271
  279MPD2    C2 4211   3.070   1.840   0.336 -0.7943  0.5006 -1.3815
  279MPD2    C3 4212   3.140   1.883   0.223 -1.1201 -0.0487 -0.1622
  279MPD2    C4 4213   3.228   1.991   0.239  0.0998  0.3492  0.6548
  279MPD2    C5 4214   3.238   2.054   0.362  0.1037  0.2134 -0.1012
  279MPD2     H 4215   3.008   1.752   0.331 -0.6382  0.2852  0.4638
  279MPD2    H1 4216   3.296   2.027   0.163 -1.9609 -0.3035 -1.4662
  279MPD2    H2 4217   3.182   2.069   0.568  3.5473  0.9387 -1.7556
  279MPD2    H3 4218   3.299   2.143   0.372  2.3965 -1.3383 -0.3170
  279MPD2     N 4219   3.137   1.822   0.094  0.1434  0.0858 -0.1907
  279MPD2    H5 4220   3.207   1.862   0.033  0.8852  0.4988  0.9332
  279MPD2    N1 4221   2.998   1.875   0.572 -0.1010 -0.2613 -0.3938
  279MPD2    H7 4222   2.988   1.944   0.645 -0.9001  0.1237 -0.8675
  280TMC3    C1 4223   2.799   1.770   0.681  0.0050 -0.0902  0.2392
  280TMC3    C2 4224   2.761   1.646   0.712  0.2714 -0.7170 -0.0148
  280TMC3    C3 4225   2.624   1.636   0.734 -0.0798 -0.1222  0.1658
  280TMC3    C4 4226   2.712   1.874   0.667  0.0886  0.5528  0.7840
  280TMC3    C5 4227   2.581   1.862   0.700 -0.2428 -0.0662 -0.3688
  280TMC3    C6 4228   2.534   1.740   0.726  0.0731  0.0013  0.0730
  280TMC3     C 4229   2.912   1.767   0.582  0.1110 -0.9030 -0.2969
  280TMC3     O 4230   2.921   1.661   0.522  0.1708  0.1327  0.1873
  280TMC3     H 4231   2.842   1.574   0.704  0.0918 -1.0197  0.9436
  280TMC3    H1 4232   2.749   1.964   0.620  1.1696 -0.9919 -1.3231
  280TMC3    H2 4233   2.436   1.735   0.772 -0.1753  0.6549 -0.3969
  280TMC3    C7 4234   2.490   1.970   0.669 -0.0480 -0.0976 -0.7452
  280TMC3    C8 4235   2.567   1.506   0.736  0.5230 -0.1476  0.7462
  280TMC3    O1 4236   2.552   2.071   0.635  0.4302  0.6097 -0.2784
  280TMC3    O2 4237   2.448   1.499   0.731 -0.0225 -0.2310 -0.3489
  281TMC3    C1 4238   1.776   1.659  13.197  0.1782 -0.8184  0.4376
  281TMC3    C2 4239   1.768   1.566  13.100  0.4492  0.4957 -0.3467
  281TMC3    C3 4240   1.869   1.481  13.074 -1.3478  0.0538 -0.0832
  281TMC3    C4 4241   1.890   1.654  13.278  0.4943 -0.2797 -0.3880
  281TMC3    C5 4242   1.990   1.558  13.251 -0.4586 -0.2284 -0.4971
  281TMC3    C6 4243   1.987   1.480  13.146 -0.0720  0.2209  0.0150
  281TMC3     C 4244   1.661   1.665  13.283  0.0281 -0.0955  0.5422
  281TMC3     O 4245   1.675   1.610  13.394 -0.1994 -0.2292 -0.2396
  281TMC3     H 4246   1.674   1.564  13.046  1.2331  1.0933 -1.7246
  281TMC3    H1 4247   1.899   1.712  13.369  1.9545  0.1467 -0.8068
  281TMC3    H2 4248   2.057   1.398  13.139 -0.4042 -0.0061 -0.6650
  281TMC3    C7 4249   2.021   1.483  13.364 -0.0098  1.0914  0.9422
  281TMC3    C8 4250   1.833   1.341  13.045  0.1788 -0.1065 -0.0593
  281TMC3    O1 4251   2.125   1.423  13.361 -0.6940 -0.0327  0.1202
  281TMC3    O2 4252   1.892   1.248  13.096  0.7159 -0.3516  0.9563
  282MPD2     C 4253   3.753   2.913  15.045 -0.3592  0.2331 -0.6249
  282MPD2    C1 4254   3.644   2.998  15.070 -0.1005  0.7244  0.2184
  282MPD2    C2 4255   3.559   3.032  14.962 -0.2946 -0.2625  0.1252
  282MPD2    C3 4256   3.577   2.981  14.836  0.4996 -0.2812  0.1285
  282MPD2    C4 4257   3.681   2.890  14.820 -0.2156  0.4488 -0.4009
  282MPD2    C5 4258   3.772   2.861  14.922 -0.3817 -0.1810 -0.0870
  282MPD2     H 4259   3.476   3.098  14.985 -0.8952 -0.4282 -1.5893
  282MPD2    H1 4260   3.693   2.841  14.724  1.8970 -0.2175  0.1901
  282MPD2    H2 4261   3.819   2.883  15.126  0.4187  1.2228 -0.8941
  282MPD2    H3 4262   3.851   2.787  14.919  0.1462  0.3977 -0.5308
  282MPD2     N 4263   3.483   3.014  14.726 -0.6660  0.0141 -0.1210
  282MPD2    H5 4264   3.406   3.079  14.738 -0.2773  0.3397  0.5968
  282MPD2    N1 4265   3.626   3.055  15.195  0.7713 -0.4569 -0.2097
  282MPD2    H7 4266   3.539   3.105  15.211  0.4997 -0.9768 -0.0605
  283TMC3    C1 4267   3.641   3.068  15.431  0.2647 -0.4923 -0.5560
  283TMC3    C2 4268   3.722   3.131  15.522 -0.3595 -0.3915  0.3029
  283TMC3    C3 4269   3.658   3.174  15.636 -0.2410  0.3644 -0.2128
  283TMC3    C4 4270   3.511   3.032  15.450  0.5210 -0.0909  0.3203
  283TMC3    C5 4271   3.462   3.065  15.568  0.7551 -0.3357  0.5036
  283TMC3    C6 4272   3.521   3.155  15.647 -0.4784 -1.0081 -0.3003
  283TMC3     C 4273   3.711   3.048  15.303 -0.5487 -0.0613 -0.3674
  283TMC3     O 4274   3.834   3.033  15.309  0.3237 -0.4366 -0.3608
  283TMC3     H 4275   3.828   3.151  15.515  0.0089 -2.3446  0.4156
  283TMC3    H1 4276   3.469   2.959  15.383  0.6444 -0.6593  0.8612
  283TMC3    H2 4277   3.470   3.192  15.735  0.5391  0.5823 -0.3940
  283TMC3    C7 4278   3.358   2.982  15.626  0.1953 -0.0701 -0.4267
  283TMC3    C8 4279   3.715   3.288  15.691  0.3972 -0.1467  0.0559
  283TMC3    O1 4280   3.352   2.991  15.750 -0.1170  0.6619  0.2260
  283TMC3    O2 4281   3.803   3.259  15.770 -0.0089 -0.2076  0.2096
  284MPD2     C 4282   1.949   2.625  11.888 -0.3989 -0.4003  0.4198
  284MPD2    C1 4283   2.080   2.586  11.895 -0.1905  0.0783  0.3016
  284MPD2    C2 4284   2.113   2.467  11.961  0.0231 -0.5024 -0.0777
  284MPD2    C3 4285   2.011   2.384  12.002 -0.5426  0.8711 -0.1542
  284MPD2    C4 4286   1.877   2.428  12.003  0.1916 -0.0056 -0.0434
  284MPD2    C5 4287   1.858   2.545  11.947  0.4042 -0.3091  0.0855
  284MPD2     H 4288   2.214   2.429  11.968  0.8336  1.8956  1.2010
  284MPD2    H1 4289   1.796   2.359  12.025 -0.2812  0.6078  0.1256
  284MPD2    H2 4290   1.909   2.721  11.856 -1.9708 -0.9988  0.6022
  284MPD2    H3 4291   1.760   2.591  11.960 -0.0764 -0.3274 -3.4149
  284MPD2     N 4292   2.033   2.251  12.039 -0.5896 -0.6581 -0.2917
  284MPD2    H5 4293   1.947   2.200  12.057 -2.0114  1.7237 -0.3203
  284MPD2    N1 4294   2.179   2.658  11.819 -0.5992  0.6445 -0.5412
  284MPD2    H7 4295   2.271   2.621  11.839 -1.4025 -1.5709 -0.9459
  285TMC3    C1 4296   2.283   2.780  11.653  0.3302  0.7079 -0.3084
  285TMC3    C2 4297   2.364   2.672  11.626 -0.5092 -0.2323  0.2192
  285TMC3    C3 4298   2.467   2.703  11.539  0.5307 -0.3565  0.2211
  285TMC3    C4 4299   2.287   2.906  11.590  0.2949 -0.8254  0.3704
  285TMC3    C5 4300   2.395   2.923  11.506 -0.9807  0.0914  0.0625
  285TMC3    C6 4301   2.480   2.823  11.476 -0.2385  0.2992  0.7370
  285TMC3     C 4302   2.164   2.761  11.736  0.3371 -0.2228  0.4397
  285TMC3     O 4303   2.062   2.823  11.716 -0.1825 -0.0235 -0.0321
  285TMC3     H 4304   2.345   2.575  11.671  0.5860 -0.0733  1.0148
  285TMC3    H1 4305   2.224   2.984  11.631  0.1372 -0.5094 -0.4723
  285TMC3    H2 4306   2.546   2.838  11.392  1.6113  1.7698  2.4507
  285TMC3    C7 4307   2.415   3.044  11.429 -0.1161 -0.1259  0.2656
  285TMC3    C8 4308   2.527   2.581  11.479 -0.4297  0.0331  0.5013
  285TMC3    O1 4309   2.528   3.079  11.400  0.1248 -0.0908 -0.4314
  285TMC3    O2 4310   2.457   2.479  11.488 -0.1832  0.5300  0.1058
  286MPD2     C 4311   1.493   1.043   1.744 -0.1871  0.0883  0.3439
  286MPD2    C1 4312   1.532   1.048   1.613 -0.6703 -1.3668 -0.6369
  286MPD2    C2 4313   1.662   1.010   1.584 -0.0433  0.2666 -0.5440
  286MPD2    C3 4314   1.757   0.990   1.688 -0.3580 -0.5257  0.4498
  286MPD2    C4 4315   1.714   0.991   1.816  0.0664  0.4024  0.2075
  286MPD2    C5 4316   1.585   1.021   1.841  0.1333 -0.7333 -0.1876
  286MPD2     H 4317   1.688   1.002   1.479  0.1748  2.5706 -0.6727
  286MPD2    H1 4318   1.781   0.968   1.898  0.3557  0.4951 -0.0030
  286MPD2    H2 4319   1.392   1.065   1.775 -0.8385 -0.6301 -1.2811
  286MPD2    H3 4320   1.561   1.021   1.947  1.5125  0.7461  0.1110
  286MPD2     N 4321   1.889   0.943   1.666 -0.2011  0.2962  0.4051
  286MPD2    H5 4322   1.945   0.927   1.749  0.1505 -0.1527  0.0841
  286MPD2    N1 4323   1.448   1.089   1.504 -0.1952 -0.1621  0.0574
  286MPD2    H7 4324   1.486   1.093   1.410 -0.4795 -0.9832 -0.0869
  287TMC3    C1 4325   2.073   0.843   1.561  0.3748 -0.0812 -0.4014
  287TMC3    C2 4326   2.093   0.744   1.466 -0.2214  0.4303  0.7880
  287TMC3    C3 4327   2.207   0.669   1.487  0.0599 -0.8966  0.2684
  287TMC3    C4 4328   2.145   0.862   1.676  0.4626  0.3682 -0.4896
  287TMC3    C5 4329   2.247   0.777   1.688 -0.1676 -0.3855 -0.3021
  287TMC3    C6 4330   2.279   0.680   1.602 -0.4521  0.4909 -0.4846
  287TMC3     C 4331   1.944   0.909   1.546 -0.4249  0.1457 -0.2599
  287TMC3     O 4332   1.903   0.919   1.431  0.9359 -0.5610  0.6002
  287TMC3     H 4333   2.023   0.727   1.385 -1.0322  1.1654  1.3179
  287TMC3    H1 4334   2.131   0.954   1.731  2.2955  1.9569 -2.6317
  287TMC3    H2 4335   2.352   0.601   1.618 -2.9816 -1.9718 -1.0931
  287TMC3    C7 4336   2.329   0.805   1.801  0.0040  0.6007 -0.0667
  287TMC3    C8 4337   2.230   0.553   1.401  0.4692 -0.9935  0.1093
  287TMC3    O1 4338   2.284   0.883   1.885 -0.8550  0.2491  0.0660
  287TMC3    O2 4339   2.134   0.522   1.328  0.1810 -0.2203 -0.1289
  288TMC3    C1 4340   3.434   0.606  14.829 -0.2061  0.6788  0.5349
  288TMC3    C2 4341   3.354   0.564  14.936 -0.3503  0.5140 -0.2373
  288TMC3    C3 4342   3.361   0.648  15.048  0.3713  0.3278 -0.0926
  288TMC3    C4 4343   3.518   0.706  14.829  0.4380 -0.0034  1.1125
  288TMC3    C5 4344   3.520   0.789  14.943  0.1246 -0.2680 -0.2979
  288TMC3    C6 4345   3.445   0.759  15.053  0.2572 -0.3249  0.1454
  288TMC3     C 4346   3.440   0.522  14.707 -0.0609 -0.1473  0.1315
  288TMC3     O 4347   3.389   0.409  14.707 -0.6409 -0.9415  0.3466
  288TMC3     H 4348   3.305   0.469  14.952 -1.1439  0.6191 -1.9774
  288TMC3    H1 4349   3.588   0.718  14.747  0.8860 -1.5978  1.2563
  288TMC3    H2 4350   3.436   0.826  15.138  1.0748  0.6666 -0.5419
  288TMC3    C7 4351   3.600   0.912  14.951 -0.0232  0.4801  0.0895
  288TMC3    C8 4352   3.327   0.602  15.181  0.4970 -0.1489  0.4517
  288TMC3    O1 4353   3.580   0.985  15.045 -0.5896  0.4494 -0.1414
  288TMC3    O2 4354   3.369   0.658  15.282 -0.2452 -0.3406 -0.2575
  289MPD2     C 4355   3.885   4.464  14.367  0.1268  0.1021 -0.0974
  289MPD2    C1 4356   3.879   4.588  14.420 -0.6811  0.1834 -0.1414
  289MPD2    C2 4357   3.765   4.611  14.503 -0.7881  0.3557  0.1712
  289MPD2    C3 4358   3.655   4.527  14.501  0.2211  0.0989 -0.1373
  289MPD2    C4 4359   3.671   4.405  14.432 -0.7959  0.2427  0.8005
  289MPD2    C5 4360   3.787   4.373  14.372 -0.2907 -0.6314  0.0067
  289MPD2     H 4361   3.754   4.702  14.561 -1.9831 -0.3905  1.1222
  289MPD2    H1 4362   3.591   4.335  14.408 -1.0367  0.8298 -0.1014
  289MPD2    H2 4363   3.979   4.436  14.320 -1.4329 -1.6197 -2.2211
  289MPD2    H3 4364   3.801   4.278  14.322 -0.2544 -0.0699 -1.0479
  289MPD2     N 4365   3.529   4.567  14.549 -0.3096 -0.0054 -0.3224
  289MPD2    H5 4366   3.461   4.494  14.533 -1.3386  1.4197 -2.3703
  289MPD2    N1 4367   3.978   4.681  14.391 -0.2351 -0.5094 -0.3383
  289MPD2    H7 4368   4.042   4.655  14.317 -0.1898  0.7273 -0.7341
  290TMC3    C1 4369   3.346   4.698  14.614  0.3655 -0.6287 -0.4569
  290TMC3    C2 4370   3.289   0.093  14.569 -0.5335  0.2418  0.0752
  290TMC3    C3 4371   3.152   0.092  14.550  1.1197  0.1034  0.0863
  290TMC3    C4 4372   3.282   4.582  14.642  0.4473  0.5476 -0.3871
  290TMC3    C5 4373   3.148   4.583  14.619 -0.1729  0.2503 -0.3590
  290TMC3    C6 4374   3.083   4.702  14.573 -0.1300  0.2973  0.7495
  290TMC3     C 4375   3.486   4.696  14.584  1.1905 -0.3515  1.0292
  290TMC3     O 4376   3.544   0.081  14.586 -0.8592 -0.8912 -0.5280
  290TMC3     H 4377   3.341   0.185  14.545 -0.0649 -0.4944 -1.7818
  290TMC3    H1 4378   3.328   4.493  14.683  0.5695  1.5357  1.6257
  290TMC3    H2 4379   2.975   4.711  14.571 -0.4119 -3.3802 -0.4651
  290TMC3    C7 4380   3.071   4.461  14.633 -0.7919  0.5434  0.2549
  290TMC3    C8 4381   3.089   0.201  14.489  0.3801  0.0366 -0.5385
  290TMC3    O1 4382   2.952   4.468  14.661  0.1393  0.3133  0.4577
  290TMC3    O2 4383   2.984   0.162  14.434 -0.5900 -0.7108 -0.3120
  291MPD2     C 4384   3.059   0.095   0.747 -0.3161  0.2723  0.2817
  291MPD2    C1 4385   3.137   4.705   0.764  0.1204 -0.2530 -0.1367
  291MPD2    C2 4386   3.273   4.707   0.732 -0.0905 -0.1548  0.5068
  291MPD2    C3 4387   3.327   0.102   0.703  0.0707 -0.1291 -0.0748
  291MPD2    C4 4388   3.256   0.218   0.693 -0.2027 -0.3301 -0.6408
  291MPD2    C5 4389   3.122   0.216   0.712 -0.0007  0.0193 -0.0746
  291MPD2     H 4390   3.322   4.611   0.745 -1.4845 -0.7941  1.0699
  291MPD2    H1 4391   3.295   0.316   0.668 -1.0212  0.1798  0.0907
  291MPD2    H2 4392   2.953   0.093   0.767 -0.3097  1.0043  0.4119
  291MPD2    H3 4393   3.068   0.309   0.700  1.6150  0.7991 -1.2922
  291MPD2     N 4394   3.465   0.123   0.678  0.5907 -0.3499 -0.3433
  291MPD2    H5 4395   3.483   0.221   0.658  1.8458 -1.0409 -2.6218
  291MPD2    N1 4396   3.074   4.587   0.805 -0.5041 -0.0547  0.3184
  291MPD2    H7 4397   3.130   4.503   0.793 -0.1078  0.3759 -0.8509
  292TMC3    C1 4398   2.936   4.447   0.940 -0.3194  0.8303 -0.5151
  292TMC3    C2 4399   2.857   4.418   1.045  0.5417  0.3322  0.1761
  292TMC3    C3 4400   2.798   4.297   1.053  0.0989 -0.0500  0.0123
  292TMC3    C4 4401   2.968   4.350   0.845 -0.3475 -0.1314 -0.1527
  292TMC3    C5 4402   2.903   4.222   0.867  0.1496 -0.2608 -0.6966
  292TMC3    C6 4403   2.810   4.199   0.959 -0.1303  0.3731 -0.0059
  292TMC3     C 4404   2.981   4.588   0.914 -0.3354  0.1882  0.0217
  292TMC3     O 4405   2.946   4.682   0.988 -0.0997 -0.0683  0.1957
  292TMC3     H 4406   2.850   4.494   1.122  0.6051  0.4569  0.0614
  292TMC3    H1 4407   3.028   4.362   0.755  1.3963  1.8135  1.2839
  292TMC3    H2 4408   2.778   4.095   0.966 -0.9326  0.6964  1.2665
  292TMC3    C7 4409   2.892   4.134   0.752  0.5255  0.3980  0.6692
  292TMC3    C8 4410   2.704   4.282   1.158 -0.9917 -0.0291 -0.5253
  292TMC3    O1 4411   2.995   4.126   0.684 -0.2351  0.1985  0.3545
  292TMC3    O2 4412   2.726   4.359   1.252  0.7066  0.4111  0.3382
  293MPD2     C 4413   0.133   0.951  12.642  0.4278  0.1711  0.0577
  293MPD2    C1 4414   0.055   0.909  12.747  0.3145 -0.2416  0.5835
  293MPD2    C2 4415   0.080   0.954  12.877  0.3005 -0.2847  0.2815
  293MPD2    C3 4416   0.185   1.043  12.901  0.0023  0.7646  0.4902
  293MPD2    C4 4417   0.266   1.075  12.796 -0.4149  0.3998 -0.0362
  293MPD2    C5 4418   0.244   1.025  12.672  0.1304  0.3119  0.0081
  293MPD2     H 4419   0.025   0.922  12.965 -0.5534  1.2988  0.3236
  293MPD2    H1 4420   0.354   1.138  12.796  0.0771 -0.2723 -1.5826
  293MPD2    H2 4421   0.125   0.904  12.544 -2.4773  1.3513 -0.2881
  293MPD2    H3 4422   0.319   1.030  12.594 -0.3675 -2.9983 -0.6707
  293MPD2     N 4423   0.202   1.101  13.030 -0.0257  0.3912 -0.4334
  293MPD2    H5 4424   0.140   1.066  13.103  0.7824  0.1901  0.1594
  293MPD2    N1 4425   4.662   0.834  12.713  0.0894 -0.6316  0.2686
  293MPD2    H7 4426   4.643   0.817  12.615  1.3870 -1.8099  0.2214
  294TMC3    C1 4427   4.480   0.702  12.718  0.0451 -0.1544  0.6943
  294TMC3    C2 4428   4.427   0.582  12.760  0.2693  0.3008  0.0909
  294TMC3    C3 4429   4.323   0.538  12.687 -0.3439 -0.3984 -0.3784
  294TMC3    C4 4430   4.437   0.763  12.604  0.5602 -0.3902 -0.3558
  294TMC3    C5 4431   4.324   0.717  12.542 -0.4336 -0.2730  0.3340
  294TMC3    C6 4432   4.257   0.608  12.586  0.6887 -0.3369  0.0323
  294TMC3     C 4433   4.579   0.765  12.797 -0.3630  0.4064 -0.2101
  294TMC3     O 4434   4.586   0.732  12.916  0.1057  0.2081 -0.8409
  294TMC3     H 4435   4.473   0.527  12.841  1.4442 -0.2671 -0.9537
  294TMC3    H1 4436   4.476   0.862  12.584 -1.6132  0.7271  0.9348
  294TMC3    H2 4437   4.174   0.567  12.529 -0.5362  0.6525  1.0968
  294TMC3    C7 4438   4.304   0.738  12.394 -0.3596  0.5527  1.0087
  294TMC3    C8 4439   4.244   0.431  12.737 -0.4977 -0.4980  0.0576
  294TMC3    O1 4440   4.252   0.642  12.341  0.2574  0.0104  0.0431
  294TMC3    O2 4441   4.241   0.409  12.859  0.0224  0.4468  0.4226
  295MPD2     C 4442   0.972   0.069   1.201 -0.4884  0.5554  0.0459
  295MPD2    C1 4443   0.927   4.679   1.137  0.2793 -0.0154 -0.4522
  295MPD2    C2 4444   0.896   4.566   1.210  0.2232 -1.2861  0.4599
  295MPD2    C3 4445   0.902   4.562   1.340 -0.2598 -0.0524 -0.4365
  295MPD2    C4 4446   0.951   4.673   1.404 -0.4356  0.0209  0.1738
  295MPD2    C5 4447   0.984   0.066   1.338  0.2908  0.6408 -0.0606
  295MPD2     H 4448   0.859   4.481   1.155  0.8826 -0.5511 -1.1062
  295MPD2    H1 4449   0.962   4.672   1.512 -0.8101  1.6251  0.2271
  295MPD2    H2 4450   1.006   0.159   1.151  2.4552 -0.6485 -0.1429
  295MPD2    H3 4451   1.022   0.155   1.386  2.1644 -0.5122  0.5881
  295MPD2     N 4452   0.863   4.454   1.428  0.3569 -0.5878 -0.2009
  295MPD2    H5 4453   0.863   4.463   1.529  1.9719  0.9998 -0.3329
  295MPD2    N1 4454   0.900   4.671   1.001  0.1105  0.1702  0.5476
  295MPD2    H7 4455   0.856   4.584   0.976  0.2965 -0.6835  3.1756
  296TMC3    C1 4456   0.769   4.237   1.482 -0.5616  1.2504  0.6337
  296TMC3    C2 4457   0.817   4.248   1.611 -0.8010 -0.0354  0.6033
  296TMC3    C3 4458   0.807   4.141   1.697 -0.4707 -0.3462 -1.1285
  296TMC3    C4 4459   0.713   4.118   1.441 -0.2646 -1.0918 -0.0001
  296TMC3    C5 4460   0.692   4.017   1.536 -0.6160 -0.0386 -0.2646
  296TMC3    C6 4461   0.732   4.033   1.666 -0.2681  0.5087  0.2876
  296TMC3     C 4462   0.802   4.339   1.375  0.0935 -0.1443  0.5354
  296TMC3     O 4463   0.770   4.317   1.260  0.6295 -0.7112  0.1910
  296TMC3     H 4464   0.877   4.335   1.637  1.7100 -1.9198  1.1229
  296TMC3    H1 4465   0.668   4.110   1.343  0.7811  1.3945 -0.6883
  296TMC3    H2 4466   0.697   3.973   1.750 -0.4980  0.8473  0.4361
  296TMC3    C7 4467   0.571   3.946   1.510 -0.0256 -1.7747 -0.2027
  296TMC3    C8 4468   0.845   4.154   1.840  0.5317 -0.1072  0.1802
  296TMC3    O1 4469   0.498   3.997   1.423  0.0829  0.0852  0.2254
  296TMC3    O2 4470   0.842   4.057   1.914  0.9450  0.5877  0.6157
  297MPD2     C 4471   2.792   1.728  16.695 -0.8105  0.2053  0.2110
  297MPD2    C1 4472   2.752   1.775  16.567 -0.1674 -0.5032  0.3794
  297MPD2    C2 4473   2.820   1.878  16.512 -0.0539  0.4626 -0.1290
  297MPD2    C3 4474   2.912   1.947  16.585 -0.0490  0.2680 -0.6244
  297MPD2    C4 4475   2.933   1.903  16.716  0.0519  0.5927 -0.1141
  297MPD2    C5 4476   2.877   1.796  16.769  0.4688 -0.7002 -0.3472
  297MPD2     H 4477   2.791   1.916  16.414  0.0119  0.1452 -0.2732
  297MPD2    H1 4478   3.007   1.954  16.777 -0.1135 -0.6127  1.0946
  297MPD2    H2 4479   2.749   1.644  16.748  3.2377 -0.2434  2.7532
  297MPD2    H3 4480   2.893   1.767  16.872 -1.0248 -1.3196 -0.2944
  297MPD2     N 4481   2.966   2.066  16.527 -0.4717 -0.2056  0.1334
  297MPD2    H5 4482   2.951   2.089  16.430  2.0648 -0.0746 -0.2231
  297MPD2    N1 4483   2.643   1.728  16.484  0.1085  0.0794  0.3966
  297MPD2    H7 4484   2.623   1.774  16.396  0.5432  0.6965  0.6234
  298TMC3    C1 4485   2.433   1.644  16.451 -0.4608 -0.0166 -0.0499
  298TMC3    C2 4486   2.450   1.688  16.323 -0.9354  0.0170  0.9017
  298TMC3    C3 4487   2.344   1.762  16.267 -0.7188 -0.2996  0.7354
  298TMC3    C4 4488   2.340   1.703  16.535 -0.4641 -0.1411 -0.2137
  298TMC3    C5 4489   2.249   1.793  16.486 -0.2611  0.1655  0.2065
  298TMC3    C6 4490   2.252   1.820  16.354  0.2612 -0.8661  0.7407
  298TMC3     C 4491   2.554   1.623  16.516 -0.1213  0.1312  0.3086
  298TMC3     O 4492   2.556   1.556  16.622  0.0742  0.0851  0.2015
  298TMC3     H 4493   2.532   1.652  16.262 -1.6601 -0.8438  0.4288
  298TMC3    H1 4494   2.323   1.681  16.640 -1.6087 -0.0988 -0.3861
  298TMC3    H2 4495   2.197   1.904  16.312  0.4223 -1.0296  0.2116
  298TMC3    C7 4496   2.170   1.868  16.572  0.0570  0.3474  0.0201
  298TMC3    C8 4497   2.350   1.786  16.125  1.1652 -0.6992 -0.3913
  298TMC3    O1 4498   2.212   1.891  16.686  0.2320  0.4616 -0.1924
  298TMC3    O2 4499   2.459   1.758  16.070  0.5114  0.4976  0.4986
  299MPD2     C 4500   3.932   1.688  10.582  0.6115  0.5458 -0.0798
  299MPD2    C1 4501   3.835   1.649  10.676  0.3744 -0.6442 -0.8241
  299MPD2    C2 4502   3.722   1.578  10.636 -0.4939 -0.5478 -0.7404
  299MPD2    C3 4503   3.706   1.552  10.498 -0.7147 -0.1476  0.1147
  299MPD2    C4 4504   3.799   1.608  10.410  0.0692  0.2453 -0.8367
  299MPD2    C5 4505   3.914   1.668  10.447  0.3625  0.0234 -0.0494
  299MPD2     H 4506   3.645   1.538  10.701 -0.6953 -0.7811 -1.1190
  299MPD2    H1 4507   3.781   1.581  10.306  0.1209  0.4428 -0.8973
  299MPD2    H2 4508   4.021   1.740  10.616  1.4051  0.9859 -2.7473
  299MPD2    H3 4509   3.981   1.708  10.372  0.4149 -0.7363 -0.4118
  299MPD2     N 4510   3.599   1.470  10.456 -0.1041  0.2760 -0.3112
  299MPD2    H5 4511   3.595   1.469  10.354  1.2583  2.2270 -0.3920
  299MPD2    N1 4512   3.842   1.705  10.808  0.3817 -0.4859 -0.2142
  299MPD2    H7 4513   3.926   1.757  10.831  1.3366 -2.5631  1.0315
  300TMC3    C1 4514   3.409   1.335  10.463 -0.1293 -0.8078 -0.3949
  300TMC3    C2 4515   3.352   1.409  10.368 -0.4901 -0.2595 -0.2171
  300TMC3    C3 4516   3.220   1.423  10.358  0.1821  0.8446  0.0251
  300TMC3    C4 4517   3.330   1.271  10.555  0.0867  0.1565 -0.4822
  300TMC3    C5 4518   3.195   1.296  10.551 -0.0475  0.3064  0.4948
  300TMC3    C6 4519   3.134   1.364  10.452  0.3165 -0.4550 -0.5449
  300TMC3     C 4520   3.532   1.372  10.526 -0.0563 -0.9452  0.8915
  300TMC3     O 4521   3.543   1.353  10.647  0.2572 -0.2789  0.2705
  300TMC3     H 4522   3.412   1.470  10.301  0.6195  1.0521  1.9901
  300TMC3    H1 4523   3.354   1.238  10.655 -0.5995  0.9789 -0.0478
  300TMC3    H2 4524   3.031   1.399  10.449  0.5132  0.1234 -0.5852
  300TMC3    C7 4525   3.100   1.271  10.660  0.2090 -0.5241 -0.8975
  300TMC3    C8 4526   3.186   1.558  10.307 -0.3290  0.0457 -0.3996
  300TMC3    O1 4527   3.119   1.171  10.719  0.3819  0.3715 -0.0177
  300TMC3    O2 4528   3.271   1.644  10.313  0.1577  0.1255 -0.0371
  301MPD2     C 4529   0.683   2.320   2.023 -0.1825 -0.6736  0.2045
  301MPD2    C1 4530   0.549   2.290   2.033  0.5742  0.2284  0.4656
  301MPD2    C2 4531   0.516   2.157   2.006  0.2217 -0.6342  0.4016
  301MPD2    C3 4532   0.612   2.063   1.967 -0.3017  0.6447 -0.0885
  301MPD2    C4 4533   0.747   2.105   1.971 -0.5165  0.2871  0.1896
  301MPD2    C5 4534   0.779   2.232   1.996 -0.0654  0.6523 -0.7449
  301MPD2     H 4535   0.413   2.134   2.032  0.7554 -2.2058  1.1320
  301MPD2    H1 4536   0.828   2.037   1.945 -0.1316  0.7269  0.2376
  301MPD2    H2 4537   0.716   2.421   2.044  0.7809 -1.3472  1.8781
  301MPD2    H3 4538   0.882   2.261   1.981 -0.0872  2.4088  2.5517
  301MPD2     N 4539   0.571   1.925   1.938  0.0871  0.1921 -0.6285
  301MPD2    H5 4540   0.644   1.857   1.918  1.0179  0.8455  0.5518
  301MPD2    N1 4541   0.448   2.384   2.066 -0.1598  0.3961  0.1624
  301MPD2    H7 4542   0.359   2.338   2.081 -0.9889  1.5894 -1.1285
  302TMC3    C1 4543   0.423   1.752   1.870  0.2569 -0.1008 -0.7751
  302TMC3    C2 4544   0.515   1.653   1.899 -0.2481 -0.1293 -0.4560
  302TMC3    C3 4545   0.524   1.544   1.825 -0.1187  0.2764 -0.5601
  302TMC3    C4 4546   0.340   1.738   1.767  0.9088  0.5085 -0.4859
  302TMC3    C5 4547   0.359   1.629   1.685  0.2112  0.6215  0.5817
  302TMC3    C6 4548   0.458   1.531   1.707 -0.0505 -0.0103  0.1829
  302TMC3     C 4549   0.440   1.882   1.916 -0.3899 -0.0080 -0.5272
  302TMC3     O 4550   0.340   1.953   1.914  0.4638 -0.1826  0.1189
  302TMC3     H 4551   0.588   1.666   1.978 -0.5163  0.8374 -0.3770
  302TMC3    H1 4552   0.280   1.821   1.732 -1.3013 -0.9681 -0.2030
  302TMC3    H2 4553   0.472   1.451   1.636  1.6818  0.4414  0.0256
  302TMC3    C7 4554   0.293   1.621   1.562  0.3570  0.4224  0.1798
  302TMC3    C8 4555   0.651   1.470   1.831 -0.1101 -0.0378  0.0579
  302TMC3    O1 4556   0.290   1.505   1.517 -0.9549  0.2349 -0.4191
  302TMC3    O2 4557   0.713   1.440   1.727  0.2037  0.0208 -0.2883
  303MPD2     C 4558   1.032   1.571  10.562 -0.1982 -0.0760 -0.5138
  303MPD2    C1 4559   0.927   1.503  10.497 -0.5903 -0.2417  0.5082
  303MPD2    C2 4560   0.949   1.424  10.385  0.0884 -0.4822  0.0405
  303MPD2    C3 4561   1.077   1.400  10.352  1.2709  0.4614 -0.2362
  303MPD2    C4 4562   1.178   1.459  10.417 -0.0756 -0.3883 -0.2892
  303MPD2    C5 4563   1.157   1.557  10.503 -0.0690 -0.0727 -0.2038
  303MPD2     H 4564   0.868   1.375  10.331  0.1488 -0.0226 -0.4658
  303MPD2    H1 4565   1.277   1.426  10.389  0.7063  0.5331  1.3837
  303MPD2    H2 4566   1.031   1.636  10.649  1.5125  1.2183 -1.4573
  303MPD2    H3 4567   1.237   1.603  10.560 -1.2437  2.2429 -0.4053
  303MPD2     N 4568   1.112   1.294  10.258 -0.3704 -0.2209  0.1200
  303MPD2    H5 4569   1.209   1.266  10.248 -0.0653  1.0336 -0.5230
  303MPD2    N1 4570   0.797   1.529  10.544 -0.7988 -0.1927 -0.3720
  303MPD2    H7 4571   0.794   1.596  10.621  1.7665 -1.5204  0.8712
  304TMC3    C1 4572   0.569   1.493  10.583 -0.5932 -0.6154 -0.2640
  304TMC3    C2 4573   0.454   1.473  10.512  0.5214  1.0052  0.5385
  304TMC3    C3 4574   0.355   1.406  10.563 -0.1750 -0.1485  0.0211
  304TMC3    C4 4575   0.579   1.468  10.715 -0.4173  0.2437  0.0166
  304TMC3    C5 4576   0.463   1.416  10.773  0.0125 -0.0425  0.3977
  304TMC3    C6 4577   0.352   1.389  10.703 -0.0679 -0.3207  0.1461
  304TMC3     C 4578   0.683   1.479  10.501  0.1704 -0.4435  0.1760
  304TMC3     O 4579   0.658   1.428  10.388 -0.3109 -0.3916  0.2190
  304TMC3     H 4580   0.452   1.502  10.407 -3.2182 -1.5248 -0.1102
  304TMC3    H1 4581   0.677   1.463  10.762  0.5149 -0.6242 -1.9907
  304TMC3    H2 4582   0.268   1.346  10.756 -0.2702 -1.1862 -0.8653
  304TMC3    C7 4583   0.494   1.307  10.861 -0.1570 -0.1843  0.3759
  304TMC3    C8 4584   0.317   1.287  10.491 -0.3805  0.1524  0.0405
  304TMC3    O1 4585   0.587   1.308  10.942 -0.1613 -0.4546 -0.2250
  304TMC3    O2 4586   0.316   1.189  10.565 -0.0338  0.7649 -0.1336
  305MPD2     C 4587   4.003   3.315  14.118  0.2948  0.0455  0.2691
  305MPD2    C1 4588   3.877   3.272  14.157  0.1492  0.6008  0.7909
  305MPD2    C2 4589   3.785   3.259  14.057 -0.2056 -0.1211 -0.0502
  305MPD2    C3 4590   3.808   3.304  13.928  0.4070  0.4315  0.2039
  305MPD2    C4 4591   3.921   3.370  13.899  0.8773  0.5537  0.0695
  305MPD2    C5 4592   4.020   3.372  13.996  0.4795  0.4599 -1.2211
  305MPD2     H 4593   3.684   3.225  14.077 -0.2533  0.3748  0.5531
  305MPD2    H1 4594   3.934   3.418  13.803  0.4323  1.1396  0.3027
  305MPD2    H2 4595   4.089   3.327  14.183  0.2065  0.2616  0.3458
  305MPD2    H3 4596   4.106   3.430  13.964  2.4216 -0.3528  2.5236
  305MPD2     N 4597   3.722   3.279  13.818  0.3204  0.0548 -0.2509
  305MPD2    H5 4598   3.744   3.326  13.731  2.2171 -0.9078 -0.3044
  305MPD2    N1 4599   3.862   3.255  14.294 -0.6924 -0.7985 -0.8119
  305MPD2    H7 4600   3.944   3.274  14.351 -0.0355 -5.2011 -0.2780
  306TMC3    C1 4601   3.758   3.205  14.495 -0.2416 -0.5874  0.3292
  306TMC3    C2 4602   3.864   3.120  14.528 -0.2254 -0.1951  0.2013
  306TMC3    C3 4603   3.905   3.113  14.660 -0.1806  0.2609 -0.6074
  306TMC3    C4 4604   3.692   3.273  14.592  0.4979  0.1403  0.5457
  306TMC3    C5 4605   3.739   3.267  14.718  0.1106  0.1751 -0.1623
  306TMC3    C6 4606   3.846   3.188  14.752 -0.1197  0.1624 -0.1475
  306TMC3     C 4607   3.741   3.237  14.356  0.3730  0.7718  0.2762
  306TMC3     O 4608   3.629   3.250  14.310  0.0658  0.1428 -0.0288
  306TMC3     H 4609   3.911   3.065  14.447  0.4008  0.5837  0.0311
  306TMC3    H1 4610   3.617   3.339  14.550  1.0632 -0.7699 -1.8920
  306TMC3    H2 4611   3.874   3.186  14.857 -0.7242  0.8722  0.0275
  306TMC3    C7 4612   3.697   3.365  14.817  0.3039 -1.2131  0.5055
  306TMC3    C8 4613   4.034   3.056  14.698  0.1946  0.5625  0.4835
  306TMC3    O1 4614   3.583   3.351  14.856  0.0362  1.3905 -0.0135
  306TMC3    O2 4615   4.097   3.019  14.599 -0.5750 -0.2371  0.0229
  307MPD2     C 4616   1.542   1.098   0.624  0.1006 -0.0164  0.5296
  307MPD2    C1 4617   1.429   1.056   0.561  0.5253  0.3337  0.2911
  307MPD2    C2 4618   1.318   1.135   0.557 -0.3311  0.3622  0.0807
  307MPD2    C3 4619   1.317   1.262   0.615  0.3641  0.5828  0.1356
  307MPD2    C4 4620   1.430   1.303   0.674 -0.0736  0.4417  0.3675
  307MPD2    C5 4621   1.539   1.219   0.689  1.1795  0.1983 -0.2323
  307MPD2     H 4622   1.231   1.090   0.512  0.0417 -1.3471  1.0469
  307MPD2    H1 4623   1.438   1.396   0.729 -0.2703 -0.1727  1.4350
  307MPD2    H2 4624   1.635   1.043   0.624  0.7331  1.0821 -0.9255
  307MPD2    H3 4625   1.629   1.250   0.740  0.7587 -1.3535  1.4547
  307MPD2     N 4626   1.211   1.354   0.602  0.1166  0.2054  0.0635
  307MPD2    H5 4627   1.230   1.440   0.651 -0.7517  2.0332 -2.8090
  307MPD2    N1 4628   1.407   0.929   0.516 -0.1478 -0.0058 -0.5122
  307MPD2    H7 4629   1.324   0.922   0.457  0.5687 -1.2615 -1.3678
  308TMC3    C1 4630   0.762   1.441   0.670 -0.5078  0.6524 -0.1865
  308TMC3    C2 4631   0.763   1.573   0.632 -0.3763  0.4213  0.0972
  308TMC3    C3 4632   0.882   1.621   0.583  0.2512 -0.6111 -0.0705
  308TMC3    C4 4633   0.868   1.356   0.643  0.5132  0.2465  0.0049
  308TMC3    C5 4634   0.986   1.414   0.609  0.6010 -0.0746  0.2924
  308TMC3    C6 4635   0.996   1.547   0.571  0.5640 -0.4613 -0.2593
  308TMC3     C 4636   0.648   1.379   0.734  0.5793 -0.0372 -1.0590
  308TMC3     O 4637   0.668   1.275   0.790 -0.0542  0.3574 -0.6619
  308TMC3     H 4638   0.686   1.646   0.653  0.1968  1.1407 -0.2985
  308TMC3    H1 4639   0.868   1.253   0.674  2.5997 -0.0810 -1.1077
  308TMC3    H2 4640   1.087   1.595   0.539  0.9343 -0.0981  1.3389
  308TMC3    C7 4641   1.085   1.327   0.561 -0.1742 -0.7164  0.0165
  308TMC3    C8 4642   0.878   1.759   0.526 -0.0287 -0.3599  0.1869
  308TMC3    O1 4643   1.035   1.242   0.485  0.3260 -0.1922  0.2179
  308TMC3    O2 4644   0.772   1.824   0.542 -0.1194 -0.3777 -0.6622
  309MPD2     C 4645   0.372   1.260  17.241  0.5998  0.2133  0.2930
  309MPD2    C1 4646   0.365   1.362  17.154  0.1892 -0.3102 -0.5547
  309MPD2    C2 4647   0.296   1.476  17.193  0.4207  0.7142 -0.0262
  309MPD2    C3 4648   0.210   1.478  17.305 -0.6882 -0.3645  0.2376
  309MPD2    C4 4649   0.217   1.377  17.394 -0.7922  0.3025  0.4048
  309MPD2    C5 4650   0.297   1.269  17.359  0.6346 -0.5755 -0.7270
  309MPD2     H 4651   0.297   1.564  17.129  0.6949  1.0387  0.4259
  309MPD2    H1 4652   0.167   1.363  17.489 -0.4556 -3.2719  0.0598
  309MPD2    H2 4653   0.436   1.176  17.218  0.2617 -0.1005  0.5060
  309MPD2    H3 4654   0.317   1.202  17.442 -0.0670  0.6071  0.3924
  309MPD2     N 4655   0.115   1.583  17.323 -0.2463 -0.8219 -0.1866
  309MPD2    H5 4656   0.059   1.579  17.407  2.6384  0.4134  1.7971
  309MPD2    N1 4657   0.427   1.365  17.023 -0.5694 -0.2011 -0.4678
  309MPD2    H7 4658   0.400   1.451  16.977  1.7225  0.9759  0.4050
  310TMC3    C1 4659   0.608   1.345  16.862  0.1047 -0.0404  0.4537
  310TMC3    C2 4660   0.539   1.392  16.755  0.3556  0.3675  0.4609
  310TMC3    C3 4661   0.610   1.442  16.656  0.5444 -0.8412  0.0344
  310TMC3    C4 4662   0.749   1.329  16.856  0.1117  0.2550  0.3437
  310TMC3    C5 4663   0.819   1.375  16.749  0.3811 -0.0651  0.2668
  310TMC3    C6 4664   0.747   1.436  16.647 -0.4814 -0.7202  0.8784
  310TMC3     C 4665   0.531   1.286  16.975 -0.2951  0.4689 -0.3662
  310TMC3     O 4666   0.587   1.186  17.026  0.3632  0.1984 -0.0222
  310TMC3     H 4667   0.431   1.385  16.751  0.5610 -2.2744 -0.6172
  310TMC3    H1 4668   0.800   1.295  16.945 -0.4548 -2.8786 -0.5038
  310TMC3    H2 4669   0.800   1.454  16.554 -1.7452 -1.3921  0.0120
  310TMC3    C7 4670   0.945   1.318  16.722  0.6345  0.9339  0.0349
  310TMC3    C8 4671   0.547   1.531  16.553  0.1053  0.5305 -0.1498
  310TMC3    O1 4672   0.987   1.239  16.805 -0.0544 -0.0897  0.5044
  310TMC3    O2 4673   0.615   1.568  16.456 -0.1302 -0.2717 -0.0739
  311MPD2     C 4674   2.715   3.172  12.676 -0.3597 -0.2633 -0.8477
  311MPD2    C1 4675   2.717   3.161  12.815 -0.8252  0.4198  0.4648
  311MPD2    C2 4676   2.621   3.099  12.885  0.0362  0.5910 -0.3851
  311MPD2    C3 4677   2.505   3.064  12.820 -0.0492 -0.2856 -0.5894
  311MPD2    C4 4678   2.498   3.084  12.683  0.4286 -0.2161  0.1081
  311MPD2    C5 4679   2.605   3.135  12.613 -0.1242 -0.0511 -0.1092
  311MPD2     H 4680   2.624   3.081  12.992  1.1101  3.4913  0.0832
  311MPD2    H1 4681   2.409   3.075  12.622  0.5173  1.2431 -0.2240
  311MPD2    H2 4682   2.794   3.197  12.605  0.7524 -0.1303  0.4258
  311MPD2    H3 4683   2.594   3.142  12.506 -0.0549  0.1836 -0.1010
  311MPD2     N 4684   2.401   2.999  12.896 -0.0655  0.1818  0.0831
  311MPD2    H5 4685   2.425   2.987  12.993 -0.5925  1.3872  0.3745
  311MPD2    N1 4686   2.829   3.218  12.881 -0.6476  0.4309  0.2846
  311MPD2    H7 4687   2.861   3.303  12.835  0.0484 -0.8420 -1.5509
  312TMC3    C1 4688   2.202   2.890  12.936 -0.1133 -0.8456  0.2227
  312TMC3    C2 4689   2.096   2.832  12.866  0.3938 -0.2075 -0.0484
  312TMC3    C3 4690   1.984   2.799  12.938  0.2063  0.6478 -0.3379
  312TMC3    C4 4691   2.200   2.930  13.065  0.6217  0.8035  1.3550
  312TMC3    C5 4692   2.085   2.889  13.135 -0.5936 -0.0623 -0.2337
  312TMC3    C6 4693   1.977   2.830  13.075 -0.0730  0.2650 -0.6427
  312TMC3     C 4694   2.285   2.957  12.835  0.4160  0.6276  0.4417
  312TMC3     O 4695   2.247   2.957  12.716  0.1459  0.0738  0.3208
  312TMC3     H 4696   2.093   2.798  12.763 -0.4416  0.9019 -0.3913
  312TMC3    H1 4697   2.271   2.997  13.113  1.4738  1.4682 -0.8615
  312TMC3    H2 4698   1.883   2.803  13.120  0.7446 -1.1467  0.2344
  312TMC3    C7 4699   2.083   2.908  13.280 -0.1829  0.1987  0.1437
  312TMC3    C8 4700   1.860   2.767  12.859  0.2801  0.0507  0.3639
  312TMC3    O1 4701   2.177   2.966  13.339 -0.1098  0.2518 -0.1229
  312TMC3    O2 4702   1.781   2.692  12.919 -0.2016  0.4757  0.6100
  313MPD2     C 4703   2.740   1.706  10.531  0.1943 -0.2232 -0.1017
  313MPD2    C1 4704   2.607   1.719  10.506 -0.0322  0.4426 -0.1154
  313MPD2    C2 4705   2.542   1.643  10.421  0.4296 -0.5495  0.9810
  313MPD2    C3 4706   2.611   1.548  10.356  0.0913 -0.0187 -0.2214
  313MPD2    C4 4707   2.744   1.523  10.377  0.1755 -0.3523 -0.2252
  313MPD2    C5 4708   2.808   1.605  10.471  0.2683 -0.0440  0.7602
  313MPD2     H 4709   2.440   1.668  10.394  1.4746  1.0464 -1.5977
  313MPD2    H1 4710   2.801   1.442  10.335 -0.2195  0.4786 -2.3474
  313MPD2    H2 4711   2.798   1.764  10.602  0.6784 -1.4630  0.5222
  313MPD2    H3 4712   2.912   1.594  10.499  0.3443 -1.0057  0.1113
  313MPD2     N 4713   2.533   1.470  10.266  0.2671  0.1057 -0.2719
  313MPD2    H5 4714   2.433   1.490  10.265  0.7041  2.4456  1.9502
  313MPD2    N1 4715   2.540   1.835  10.556 -0.5826  0.3777  0.1856
  313MPD2    H7 4716   2.439   1.834  10.546 -0.6493 -1.1840  1.0522
  314TMC3    C1 4717   2.500   2.047  10.647  0.5038  0.1963  0.3317
  314TMC3    C2 4718   2.546   2.130  10.745  0.4874  0.6356  0.0987
  314TMC3    C3 4719   2.463   2.242  10.781 -0.3966 -0.4775 -0.3010
  314TMC3    C4 4720   2.378   2.061  10.585 -0.5617 -1.2089 -0.0919
  314TMC3    C5 4721   2.307   2.176  10.624 -0.3731 -0.5710 -0.4820
  314TMC3    C6 4722   2.351   2.271  10.710 -0.0989 -0.3417  1.3042
  314TMC3     C 4723   2.594   1.941  10.627  0.5415  0.2438  0.2671
  314TMC3     O 4724   2.707   1.956  10.669  0.5185 -0.1845  0.1106
  314TMC3     H 4725   2.633   2.104  10.804  1.3467  1.7561 -0.6782
  314TMC3    H1 4726   2.360   1.998  10.499 -1.4429 -0.2300 -0.6364
  314TMC3    H2 4727   2.291   2.358  10.735 -0.6092 -0.3698  0.1839
  314TMC3    C7 4728   2.196   2.230  10.542  0.3986 -0.3949 -0.3198
  314TMC3    C8 4729   2.527   2.357  10.843  0.1121  0.6378  0.9779
  314TMC3    O1 4730   2.169   2.348  10.545  0.0974  0.0131 -0.1007
  314TMC3    O2 4731   2.456   2.438  10.901  0.6563  0.7212  0.0979
  315MPD2     C 4732   1.520   1.108   0.238  0.7119  0.1387  0.0471
  315MPD2    C1 4733   1.631   1.131   0.314 -0.9041  0.4492 -0.0816
  315MPD2    C2 4734   1.645   1.255   0.371 -0.7533 -0.6109  0.2181
  315MPD2    C3 4735   1.547   1.354   0.353  0.2180 -0.8630  0.3399
  315MPD2    C4 4736   1.440   1.322   0.275 -0.1765  0.3278  0.8039
  315MPD2    C5 4737   1.427   1.203   0.213  0.2508  0.8861  0.1740
  315MPD2     H 4738   1.732   1.273   0.433  1.3612  0.8078 -3.1935
  315MPD2    H1 4739   1.375   1.400   0.238 -1.4095 -0.3417  1.5255
  315MPD2    H2 4740   1.493   1.014   0.189  0.8932 -0.0184  0.2474
  315MPD2    H3 4741   1.350   1.181   0.141 -1.7623  2.6797  1.7787
  315MPD2     N 4742   1.569   1.484   0.407 -0.2711  0.5257  0.0523
  315MPD2    H5 4743   1.667   1.497   0.432  0.6582 -5.8234 -0.1798
  315MPD2    N1 4744   1.725   1.026   0.340  0.5763  0.1524 -0.1517
  315MPD2    H7 4745   1.806   1.046   0.399 -0.3380  0.6869  0.9288
  316TMC3    C1 4746   1.521   1.700   0.478 -0.0526 -0.6711  0.2291
  316TMC3    C2 4747   1.654   1.707   0.500 -0.6329  0.4246  0.1078
  316TMC3    C3 4748   1.711   1.826   0.466 -0.4626  0.2817 -0.5872
  316TMC3    C4 4749   1.452   1.801   0.430 -0.3316  0.0917  0.6105
  316TMC3    C5 4750   1.515   1.912   0.375  0.0006  0.1869 -0.0130
  316TMC3    C6 4751   1.648   1.923   0.395 -0.3806  0.2500 -0.3038
  316TMC3     C 4752   1.468   1.572   0.429  0.0679 -0.0314 -0.4131
  316TMC3     O 4753   1.350   1.569   0.399 -0.2923 -0.6296  0.0325
  316TMC3     H 4754   1.719   1.628   0.537  0.4393  2.3708  2.3290
  316TMC3    H1 4755   1.344   1.798   0.424 -0.2880  1.1841 -0.7366
  316TMC3    H2 4756   1.708   2.003   0.352  2.5986 -2.1643 -0.6681
  316TMC3    C7 4757   1.437   1.969   0.265  0.3157 -0.4411 -0.5468
  316TMC3    C8 4758   1.858   1.840   0.499  0.2175 -0.9690  0.3674
  316TMC3    O1 4759   1.322   1.956   0.258 -0.3177  0.1691 -0.3043
  316TMC3    O2 4760   1.924   1.746   0.542 -0.5991  0.2089 -0.6592
  317MPD2     C 4761   3.652   4.366  12.507  0.2211  0.6405  0.3807
  317MPD2    C1 4762   3.774   4.317  12.516  0.5740 -0.3663 -0.4716
  317MPD2    C2 4763   3.845   4.339  12.636  0.5924  0.7864  0.2363
  317MPD2    C3 4764   3.791   4.393  12.747  0.4004  0.1950  0.2313
  317MPD2    C4 4765   3.663   4.442  12.735 -0.1616  0.1448 -0.3962
  317MPD2    C5 4766   3.591   4.421  12.618  0.4310 -0.1806  0.7061
  317MPD2     H 4767   3.942   4.291  12.634 -0.0781 -0.4064 -3.2755
  317MPD2    H1 4768   3.616   4.496  12.817 -0.7211  1.2288 -1.4354
  317MPD2    H2 4769   3.591   4.344  12.420  0.9679 -2.8724  0.7501
  317MPD2    H3 4770   3.496   4.469  12.597  0.5676 -0.5124 -0.6328
  317MPD2     N 4771   3.865   4.406  12.870  0.7780 -0.6677  0.1864
  317MPD2    H5 4772   3.946   4.345  12.875  0.7911 -0.8208 -2.3035
  317MPD2    N1 4773   3.844   4.259  12.407  0.0625  0.2250 -0.4658
  317MPD2    H7 4774   3.938   4.226  12.424  0.9930  2.7116 -0.7565
  318TMC3    C1 4775   3.915   4.442  13.099  0.9524  0.3273  0.5300
  318TMC3    C2 4776   3.854   4.446  13.220 -0.7914  0.4643  0.0386
  318TMC3    C3 4777   3.933   4.445  13.333  0.1040 -0.4689 -0.0190
  318TMC3    C4 4778   4.051   4.467  13.090  0.1528 -0.0760 -0.1033
  318TMC3    C5 4779   4.118   4.482  13.213  0.0176 -0.9546  0.3791
  318TMC3    C6 4780   4.067   4.467  13.339 -0.5846  0.5314  0.1389
  318TMC3     C 4781   3.819   4.456  12.982  0.2982  0.5466  0.2309
  318TMC3     O 4782   3.706   4.496  13.017  0.9465 -0.1049  0.1102
  318TMC3     H 4783   3.753   4.407  13.221 -0.5100 -0.2466  0.8842
  318TMC3    H1 4784   4.096   4.486  12.993 -1.6179  2.6443 -0.3800
  318TMC3    H2 4785   4.127   4.485  13.428 -1.4071 -1.2727  1.0599
  318TMC3    C7 4786   4.244   4.547  13.195  0.6556 -0.0368 -0.2907
  318TMC3    C8 4787   3.865   4.425  13.459  0.8236 -0.2170  0.4653
  318TMC3    O1 4788   4.265   4.598  13.084  0.2530  0.3577  0.5849
  318TMC3    O2 4789   3.928   4.388  13.557 -0.2055  0.1188  0.2927
  319MPD2     C 4790   4.427   1.163  16.854  0.4411 -0.1444 -0.2634
  319MPD2    C1 4791   4.306   1.202  16.912  0.7355 -0.1528  0.1313
  319MPD2    C2 4792   4.223   1.295  16.847 -1.1812  0.6506 -0.9109
  319MPD2    C3 4793   4.269   1.341  16.723 -0.1028 -0.2381  0.1376
  319MPD2    C4 4794   4.396   1.314  16.673 -0.2628  0.2909  0.3593
  319MPD2    C5 4795   4.474   1.218  16.735  0.0396  0.1607 -0.1327
  319MPD2     H 4796   4.131   1.323  16.896 -0.2048 -0.0761  1.3543
  319MPD2    H1 4797   4.442   1.349  16.581  1.7455 -0.9198  0.9138
  319MPD2    H2 4798   4.497   1.094  16.900  1.3049 -0.3281 -1.8443
  319MPD2    H3 4799   4.570   1.192  16.691  0.8146  1.8239  0.5478
  319MPD2     N 4800   4.175   1.395  16.636 -0.0956 -0.0871  0.3977
  319MPD2    H5 4801   4.214   1.415  16.545 -0.7229 -0.6279  0.0097
  319MPD2    N1 4802   4.278   1.156  17.043 -0.2600 -0.1842  0.2954
  319MPD2    H7 4803   4.191   1.193  17.079 -0.0985 -1.9167  2.4486
  320TMC3    C1 4804   3.975   1.416  16.525 -1.0437  0.5825  0.3714
  320TMC3    C2 4805   3.988   1.525  16.436 -0.2494 -0.4239  0.4515
  320TMC3    C3 4806   3.993   1.498  16.300  0.6256  0.3398 -0.2198
  320TMC3    C4 4807   3.961   1.290  16.476 -0.8700 -0.8936 -0.4694
  320TMC3    C5 4808   3.954   1.270  16.339 -0.0286 -0.0468 -0.3329
  320TMC3    C6 4809   3.976   1.371  16.250  0.0982  0.2405 -0.3532
  320TMC3     C 4810   4.039   1.418  16.657  0.4841  0.7375  0.4337
  320TMC3     O 4811   3.967   1.396  16.752  0.1384 -0.0025 -0.0612
  320TMC3     H 4812   4.014   1.620  16.482 -3.4588  0.4453  0.4686
  320TMC3    H1 4813   3.967   1.206  16.543  0.5021 -0.7600 -0.4311
  320TMC3    H2 4814   3.978   1.357  16.143  1.6482 -1.0783 -0.1525
  320TMC3    C7 4815   3.998   1.141  16.295 -0.4750 -0.2164 -0.9062
  320TMC3    C8 4816   4.002   1.605  16.205  0.2784  0.9622  0.6626
  320TMC3    O1 4817   4.070   1.142  16.195 -0.9540  0.2277 -0.2040
  320TMC3    O2 4818   3.964   1.713  16.243  0.0085  0.0066  0.5037
  321TMC3    C1 4819   4.320   1.085  17.253 -0.3175 -0.3423  0.5720
  321TMC3    C2 4820   4.301   0.978  17.329 -0.7843  0.2615  0.4056
  321TMC3    C3 4821   4.276   1.002  17.460 -0.0520 -0.1568 -0.3641
  321TMC3    C4 4822   4.338   1.213  17.297 -0.2576  0.6161  0.6476
  321TMC3    C5 4823   4.299   1.239  17.426 -0.5706  0.0838  0.4049
  321TMC3    C6 4824   4.275   1.135  17.510 -0.6986 -0.4342  0.5315
  321TMC3     C 4825   4.343   1.059  17.114 -0.3690  0.4018  0.0862
  321TMC3     O 4826   4.440   0.990  17.079  0.1641  0.3124  0.6847
  321TMC3     H 4827   4.316   0.879  17.285  2.3542  0.8128  0.2440
  321TMC3    H1 4828   4.375   1.290  17.231  2.0233 -1.6264 -0.6925
  321TMC3    H2 4829   4.235   1.161  17.607 -1.1301 -1.8003  0.7228
  321TMC3    C7 4830   4.387   1.334  17.488 -0.0807  0.1708  0.3520
  321TMC3    C8 4831   4.347   0.931  17.561 -0.3042  0.1577  0.1634
  321TMC3    O1 4832   4.407   1.438  17.425 -0.2071 -0.4409  0.1044
  321TMC3    O2 4833   4.389   0.997  17.652 -0.0195  0.2359  0.4503
  322MPD2     C 4834   3.677   2.805  13.581  0.1114  0.2785  0.5826
  322MPD2    C1 4835   3.657   2.729  13.690 -0.2195 -0.8057  0.1905
  322MPD2    C2 4836   3.633   2.596  13.669  0.6132 -0.7036  0.0626
  322MPD2    C3 4837   3.621   2.544  13.541  0.2381  0.4051  0.4662
  322MPD2    C4 4838   3.618   2.629  13.434 -0.4684 -0.0962  0.3495
  322MPD2    C5 4839   3.656   2.754  13.450 -0.3721  0.4444  0.0259
  322MPD2     H 4840   3.622   2.527  13.752  1.0622 -0.3106  0.4465
  322MPD2    H1 4841   3.616   2.602  13.329 -0.9118  0.0058  0.3317
  322MPD2    H2 4842   3.707   2.908  13.595  1.9100 -0.3965  1.6699
  322MPD2    H3 4843   3.668   2.811  13.358 -1.0946 -0.9577 -0.9331
  322MPD2     N 4844   3.606   2.402  13.531  0.1574  0.2704  0.1596
  322MPD2    H5 4845   3.615   2.361  13.623 -2.0750  1.4192  0.8883
  322MPD2    N1 4846   3.672   2.784  13.820  0.4141 -0.0943  0.1746
  322MPD2    H7 4847   3.693   2.883  13.823  0.5968 -0.1276 -0.0387
  323TMC3    C1 4848   3.695   2.811  14.052 -0.7697 -0.5303  0.0188
  323TMC3    C2 4849   3.801   2.895  14.037 -0.0994  0.7491  0.8410
  323TMC3    C3 4850   3.869   2.928  14.151 -0.4747 -0.7388  0.6775
  323TMC3    C4 4851   3.659   2.754  14.177  0.1595  0.3686 -0.5315
  323TMC3    C5 4852   3.729   2.786  14.285 -0.3215 -0.6191  0.2829
  323TMC3    C6 4853   3.834   2.872  14.274  0.2124 -0.6394  0.7377
  323TMC3     C 4854   3.647   2.729  13.941  0.0736 -0.8974  0.3442
  323TMC3     O 4855   3.592   2.620  13.965  0.1167  0.8172 -0.0247
  323TMC3     H 4856   3.832   2.930  13.940  0.9331 -0.1070  0.8507
  323TMC3    H1 4857   3.583   2.677  14.184  0.8310 -0.0128  2.7023
  323TMC3    H2 4858   3.904   2.883  14.355  1.4913  1.6770 -0.7189
  323TMC3    C7 4859   3.747   2.677  14.374 -0.4388 -0.0733  0.0215
  323TMC3    C8 4860   4.013   2.952  14.130 -0.8956  0.0418  0.5995
  323TMC3    O1 4861   3.702   2.572  14.332 -0.2354  0.0215 -0.0996
  323TMC3    O2 4862   4.085   2.930  14.224  0.0482 -0.1564 -0.1905
  324MPD2     C 4863   0.975   4.088  13.927  0.6276  0.2750  0.8277
  324MPD2    C1 4864   0.989   4.160  14.047 -1.0741  0.0163  0.4936
  324MPD2    C2 4865   0.890   4.239  14.086 -0.4631  0.0056 -0.1557
  324MPD2    C3 4866   0.767   4.237  14.019  0.1776  0.0165 -0.0105
  324MPD2    C4 4867   0.748   4.171  13.899 -0.1584 -0.0416  0.2112
  324MPD2    C5 4868   0.860   4.101  13.853 -0.6500 -0.3991  0.1672
  324MPD2     H 4869   0.900   4.299  14.176  1.9226  0.7477 -0.9305
  324MPD2    H1 4870   0.658   4.176  13.838  0.3649 -0.5846 -0.6114
  324MPD2    H2 4871   1.060   4.031  13.893 -1.3952 -1.8820 -0.5993
  324MPD2    H3 4872   0.853   4.056  13.754 -2.6727 -0.1286  0.1874
  324MPD2     N 4873   0.652   4.292  14.084  0.1285  0.1009  1.0406
  324MPD2    H5 4874   0.564   4.255  14.049  1.4756 -0.8900 -1.2901
  324MPD2    N1 4875   1.101   4.154  14.133 -0.2288  0.5248  0.0098
  324MPD2    H7 4876   1.094   4.208  14.218 -0.1003  2.0193 -0.9295
  325TMC3    C1 4877   0.503   4.395  14.239  0.0428 -0.2330  0.4268
  325TMC3    C2 4878   0.414   4.299  14.202  0.6984  0.0054 -0.6645
  325TMC3    C3 4879   0.292   4.290  14.261 -0.5641 -0.4044 -0.2527
  325TMC3    C4 4880   0.472   4.497  14.319  0.2353  0.5268  0.2452
  325TMC3    C5 4881   0.345   4.500  14.367  0.0047  0.3325  0.0751
  325TMC3    C6 4882   0.255   4.398  14.347 -0.4215  0.0748  0.4088
  325TMC3     C 4883   0.640   4.379  14.187 -0.0664 -0.0131 -0.0385
  325TMC3     O 4884   0.724   4.446  14.249 -0.2613  0.3828 -0.3411
  325TMC3     H 4885   0.436   4.215  14.138 -1.4794 -0.6624 -0.5387
  325TMC3    H1 4886   0.538   4.577  14.351 -0.1528  0.7528  0.4779
  325TMC3    H2 4887   0.162   4.391  14.402 -1.6308  0.9700 -1.5223
  325TMC3    C7 4888   0.329   4.568  14.489  0.2565  0.4221 -1.1798
  325TMC3    C8 4889   0.225   4.156  14.267 -0.0735 -0.6831 -0.4699
  325TMC3    O1 4890   0.422   4.568  14.568 -0.4387  0.6480 -0.2627
  325TMC3    O2 4891   0.260   4.075  14.181 -0.3156  0.0829 -0.1471
  326MPD2     C 4892   1.461   0.153  11.068 -0.2781 -0.4143  1.1112
  326MPD2    C1 4893   1.512   0.072  10.968  0.4520 -0.0638 -0.0775
  326MPD2    C2 4894   1.640   0.088  10.920 -0.0570 -0.7788 -0.1516
  326MPD2    C3 4895   1.719   0.185  10.980  0.1133  0.0615 -0.3068
  326MPD2    C4 4896   1.673   0.268  11.077 -0.2104  0.1049 -0.6645
  326MPD2    C5 4897   1.544   0.249  11.119 -0.8509  0.2474 -0.0039
  326MPD2     H 4898   1.673   0.017  10.846 -2.7251 -2.8273  0.6467
  326MPD2    H1 4899   1.742   0.335  11.127 -0.6833  0.7732 -0.8957
  326MPD2    H2 4900   1.361   0.137  11.107 -0.3888 -2.1522  0.1361
  326MPD2    H3 4901   1.506   0.310  11.200  1.8087 -1.3617  2.4287
  326MPD2     N 4902   1.853   0.208  10.927  0.6129  0.8901  0.0343
  326MPD2    H5 4903   1.909   0.275  10.978  0.4107  0.6721  0.5412
  326MPD2    N1 4904   1.447   4.683  10.912 -0.4057  0.0600  0.7035
  326MPD2    H7 4905   1.503   4.625  10.850 -1.7717  0.8195 -1.2074
  327TMC3    C1 4906   1.297   4.511  10.906 -0.6435 -0.3057  0.9595
  327TMC3    C2 4907   1.227   4.520  10.790 -0.4296 -0.4035 -0.2415
  327TMC3    C3 4908   1.254   4.428  10.691  0.0160  0.0871 -0.0095
  327TMC3    C4 4909   1.405   4.426  10.919  0.0066 -0.1626  0.1763
  327TMC3    C5 4910   1.431   4.334  10.818 -0.5460 -0.9317  0.3684
  327TMC3    C6 4911   1.345   4.324  10.715  0.1061 -0.5331  0.5060
  327TMC3     C 4912   1.320   4.644  10.956 -0.3944  0.0215 -0.1706
  327TMC3     O 4913   1.229   4.718  10.991  0.2223 -0.1331  0.5689
  327TMC3     H 4914   1.145   4.590  10.779  0.3042  0.1626 -2.1959
  327TMC3    H1 4915   1.443   4.414  11.020  1.5051  1.3499 -0.2083
  327TMC3    H2 4916   1.366   4.256  10.633  2.1549 -0.7724  1.2264
  327TMC3    C7 4917   1.570   4.321  10.769  0.1064  0.0274  0.3813
  327TMC3    C8 4918   1.227   4.461  10.549  0.6334 -0.2546  0.0868
  327TMC3    O1 4919   1.585   4.299  10.653 -0.2154 -0.0973  0.3407
  327TMC3    O2 4920   1.244   4.375  10.464 -0.5781  0.1563  0.6813
  328MPD2     C 4921   4.422   4.716   0.179 -0.3162  0.4248 -0.7797
  328MPD2    C1 4922   4.359   4.604   0.129  0.6172 -1.2855 -0.4172
  328MPD2    C2 4923   4.277   4.622   0.018 -0.0926  0.2054 -0.9793
  328MPD2    C3 4924   4.255   0.022  17.648  0.1763  0.4411 -0.3561
  328MPD2    C4 4925   4.331   0.133   0.003  0.5001  0.5169 -0.1156
  328MPD2    C5 4926   4.408   0.121   0.117  0.1557  0.3520 -0.1548
  328MPD2     H 4927   4.227   4.535  17.667 -0.6851 -0.9302  2.2658
  328MPD2    H1 4928   4.323   0.234  17.652 -2.4183 -1.1210 -3.7892
  328MPD2    H2 4929   4.474   4.712   0.274  0.2440 -0.8225 -1.1418
  328MPD2    H3 4930   4.453   0.212   0.156  1.8349  1.2923 -4.1875
  328MPD2     N 4931   4.167   0.043  17.540 -0.3299 -0.2191 -0.2195
  328MPD2    H5 4932   4.153   0.133  17.496  0.0198  0.1460  0.4007
  328MPD2    N1 4933   4.381   4.479   0.190  0.1401 -0.9903  0.8773
  328MPD2    H7 4934   4.443   4.474   0.271  2.2618 -0.4379 -0.7057
  329TMC3    C1 4935   4.368   4.248   0.245 -0.1827 -0.1611  0.0773
  329TMC3    C2 4936   4.395   4.278   0.374  0.0228  0.8474 -0.1514
  329TMC3    C3 4937   4.400   4.162   0.456 -0.3069 -0.7522 -0.0708
  329TMC3    C4 4938   4.343   4.123   0.189  0.9477 -0.6453  0.3757
  329TMC3    C5 4939   4.344   4.021   0.282  0.2584  0.3170  0.1226
  329TMC3    C6 4940   4.379   4.036   0.416  0.5065  0.9847  0.3632
  329TMC3     C 4941   4.333   4.355   0.161  0.0344 -0.4404  0.1448
  329TMC3     O 4942   4.280   4.311   0.060  0.0021  0.2522 -0.0620
  329TMC3     H 4943   4.409   4.379   0.413  1.7585  0.8639 -0.7841
  329TMC3    H1 4944   4.335   4.104   0.083  0.8969  2.3956 -0.1719
  329TMC3    H2 4945   4.404   3.955   0.483 -1.2949  0.2490  0.1226
  329TMC3    C7 4946   4.321   3.884   0.242 -0.4263  0.1971  0.2187
  329TMC3    C8 4947   4.380   4.185   0.590 -0.0658  1.1499  0.4611
  329TMC3    O1 4948   4.331   3.803   0.335  0.0277 -0.6654  0.3502
  329TMC3    O2 4949   4.397   4.092   0.666  0.0665  0.2174  0.1605
  330TMC3    C1 4950   2.213   4.032   9.673  0.0673 -0.1935 -0.2758
  330TMC3    C2 4951   2.123   3.993   9.577 -0.1923 -0.0149  0.8375
  330TMC3    C3 4952   2.046   3.884   9.609 -0.3498 -0.9030  0.7574
  330TMC3    C4 4953   2.224   3.976   9.791  0.6352 -0.0361  0.2518
  330TMC3    C5 4954   2.145   3.869   9.816  0.5867 -0.6201  0.2917
  330TMC3    C6 4955   2.048   3.827   9.732 -0.7751 -0.1442  0.5450
  330TMC3     C 4956   2.276   4.160   9.658  0.4203 -0.7149 -0.9151
  330TMC3     O 4957   2.271   4.231   9.759 -1.2520  0.2969  0.6377
  330TMC3     H 4958   2.123   4.035   9.477 -0.6886 -2.0689 -0.0238
  330TMC3    H1 4959   2.302   3.991   9.865  1.4032 -1.3765 -0.2894
  330TMC3    H2 4960   1.993   3.735   9.747  0.7499 -1.0495  0.5652
  330TMC3    C7 4961   2.184   3.777   9.923 -0.3101 -0.1096 -0.8630
  330TMC3    C8 4962   1.978   3.822   9.498 -0.0820  0.0017 -0.6595
  330TMC3    O1 4963   2.288   3.811   9.984 -0.1359 -0.3964  0.1639
  330TMC3    O2 4964   2.003   3.863   9.385  0.0550  0.1017  0.6093
  331MPD2     C 4965   4.504   3.249  12.499  0.6682 -0.0764 -0.0390
  331MPD2    C1 4966   4.628   3.277  12.446  0.0939 -0.6724  0.0497
  331MPD2    C2 4967   4.697   3.182  12.380 -0.9428 -0.6023  0.4385
  331MPD2    C3 4968   4.639   3.059  12.358  0.4579  0.6665 -0.0760
  331MPD2    C4 4969   4.512   3.024  12.401 -0.1207 -0.4919 -0.2264
  331MPD2    C5 4970   4.448   3.131  12.467  0.4168 -0.0798 -0.3411
  331MPD2     H 4971   0.071   3.211  12.338 -0.8044 -0.7258  0.6687
  331MPD2    H1 4972   4.463   2.930  12.381 -0.8444 -0.1914  0.1535
  331MPD2    H2 4973   4.445   3.312  12.565  1.1684 -0.7517  1.0510
  331MPD2    H3 4974   4.354   3.099  12.510 -0.5729  0.0841 -2.4029
  331MPD2     N 4975   0.008   2.981  12.282  0.3129  0.6578  0.0995
  331MPD2    H5 4976   0.096   3.023  12.256  1.3063 -1.3601  0.2259
  331MPD2    N1 4977   4.677   3.408  12.466  0.0859  0.0239  0.2821
  331MPD2    H7 4978   4.614   3.473  12.510  0.7249 -1.0253  2.7406
  332TMC3    C1 4979   0.108   2.789  12.200  0.2097 -0.6781  0.4791
  332TMC3    C2 4980   0.190   2.869  12.127  0.0435 -0.5377 -0.5148
  332TMC3    C3 4981   0.287   2.805  12.058 -0.1280  0.0948 -0.0024
  332TMC3    C4 4982   0.105   2.653  12.196  0.1203 -0.0830  0.3186
  332TMC3    C5 4983   0.209   2.594  12.129 -0.6543  0.4864 -0.2277
  332TMC3    C6 4984   0.299   2.669  12.053 -0.4327 -1.3088  0.4773
  332TMC3     C 4985   0.003   2.845  12.281  0.2604 -0.4420 -0.6525
  332TMC3     O 4986   4.638   2.776  12.336 -0.5824  0.4835 -0.7148
  332TMC3     H 4987   0.194   2.977  12.138  0.7617 -0.4333 -1.7513
  332TMC3    H1 4988   0.049   2.604  12.275  1.0563 -0.4096  0.7688
  332TMC3    H2 4989   0.375   2.630  11.986  0.1839  0.4726  0.1405
  332TMC3    C7 4990   0.266   2.484  12.208 -0.0622 -0.4204  0.0951
  332TMC3    C8 4991   0.373   2.883  11.965  0.2941 -0.0703 -0.1137
  332TMC3    O1 4992   0.183   2.410  12.260  0.4775  0.1342  0.1772
  332TMC3    O2 4993   0.437   2.972  12.015 -0.4766 -0.0711 -0.4393
  333MPD2     C 4994   0.143   2.724  11.322  1.1725 -0.2809 -0.7487
  333MPD2    C1 4995   0.265   2.654  11.321  0.3221  0.1713 -0.2006
  333MPD2    C2 4996   0.281   2.554  11.415 -0.8807  0.1454  0.3712
  333MPD2    C3 4997   0.191   2.551  11.519 -0.0926  0.1613 -0.4190
  333MPD2    C4 4998   0.081   2.638  11.535  0.1093 -0.6258  1.2922
  333MPD2    C5 4999   0.057   2.719  11.430  0.1218 -0.9834  0.6524
  333MPD2     H 5000   0.354   2.474  11.410 -2.2173 -1.0470 -0.0639
  333MPD2    H1 5001   0.000   2.626  11.606 -1.2169 -0.7198 -0.2032
  333MPD2    H2 5002   0.115   2.791  11.242 -0.1135  0.5665  0.4041
  333MPD2    H3 5003   4.696   2.788  11.437  0.0675 -1.1856  1.9113
  333MPD2     N 5004   0.202   2.450  11.617 -0.6592 -0.1391  0.8318
  333MPD2    H5 5005   0.262   2.370  11.599  0.6531  0.2928  3.3527
  333MPD2    N1 5006   0.352   2.681  11.211  0.5772 -0.3050 -0.2475
  333MPD2    H7 5007   0.345   2.773  11.169 -0.9709 -0.0102  0.6511
  334TMC3    C1 5008   0.564   2.679  11.101 -0.3684  0.1247 -0.2617
  334TMC3    C2 5009   0.633   2.605  11.009  0.4147 -0.0940 -0.7035
  334TMC3    C3 5010   0.703   2.685  10.929  0.0045 -0.3192 -0.1042
  334TMC3    C4 5011   0.553   2.816  11.109  0.1282 -0.0610  0.7035
  334TMC3    C5 5012   0.617   2.891  11.015 -0.0160 -0.1898 -1.0054
  334TMC3    C6 5013   0.701   2.822  10.932 -0.1729 -0.1640  0.2124
  334TMC3     C 5014   0.463   2.606  11.180  0.1738 -0.4987  0.6092
  334TMC3     O 5015   0.482   2.490  11.209 -0.3192 -0.2854  0.1838
  334TMC3     H 5016   0.643   2.498  10.994 -1.1824 -0.0863 -1.8201
  334TMC3    H1 5017   0.490   2.873  11.176  2.2776 -0.2299  2.8674
  334TMC3    H2 5018   0.749   2.871  10.847 -0.6952 -1.2878 -0.7390
  334TMC3    C7 5019   0.595   3.038  11.011 -0.3237  0.6117  0.1858
  334TMC3    C8 5020   0.811   2.631  10.843 -0.0761 -0.5142 -0.1252
  334TMC3    O1 5021   0.552   3.098  11.108 -0.1531 -0.5544 -0.0287
  334TMC3    O2 5022   0.786   2.522  10.788  0.3698  0.2777 -0.1228
  335TMC3    C1 5023   0.428   4.605   0.156  0.1124 -0.0285  0.6705
  335TMC3    C2 5024   0.369   4.569   0.039 -0.7050 -0.2781  0.4364
  335TMC3    C3 5025   0.384   4.659  17.626  0.0254  0.2219 -0.3774
  335TMC3    C4 5026   0.482   0.007   0.186  0.3297 -0.6796 -0.2753
  335TMC3    C5 5027   0.495   0.091   0.075  0.0595 -0.1253  0.3564
  335TMC3    C6 5028   0.436   0.056  17.645 -0.2415 -0.5171 -0.1133
  335TMC3     C 5029   0.404   4.514   0.263  0.2510 -0.1827 -0.3228
  335TMC3     O 5030   0.417   4.397   0.244  0.5941  0.2757  0.5272
  335TMC3     H 5031   0.312   4.478   0.031  1.7570 -1.7951 -0.0827
  335TMC3    H1 5032   0.527   0.038   0.280 -2.5417  1.4535  0.3904
  335TMC3    H2 5033   0.447   0.122  17.560 -0.6286  0.3150  0.4761
  335TMC3    C7 5034   0.637   0.099   0.045 -0.1715 -0.0981  0.1217
  335TMC3    C8 5035   0.360   4.618  17.488 -0.2588  0.3792  0.4257
  335TMC3    O1 5036   0.661   0.149  17.622  0.1278  0.1915 -0.2959
  335TMC3    O2 5037   0.366   4.701  17.398  0.1040  0.4731 -0.3725
  336MPD2     C 5038   4.617   2.569  15.663 -0.1972  0.5395  0.2689
  336MPD2    C1 5039   4.492   2.546  15.716  0.3930 -0.0087  0.1275
  336MPD2    C2 5040   4.468   2.418  15.756  0.1983 -0.4619  0.2257
  336MPD2    C3 5041   4.562   2.316  15.759  0.4199  0.6775 -0.4085
  336MPD2    C4 5042   4.682   2.336  15.701  0.6780 -0.5179 -0.0782
  336MPD2    C5 5043   4.711   2.466  15.658 -0.0896  0.2416 -0.5516
  336MPD2     H 5044   4.371   2.389  15.794 -1.0502  0.7628 -2.0525
  336MPD2    H1 5045   0.031   2.255  15.686  0.3319 -1.2252  2.0397
  336MPD2    H2 5046   4.643   2.661  15.611  4.5222  0.2834  2.1749
  336MPD2    H3 5047   0.080   2.479  15.600 -0.0290 -0.1936 -0.5588
  336MPD2     N 5048   4.554   2.192  15.829 -0.3947  0.0023 -0.2268
  336MPD2    H5 5049   4.615   2.111  15.816 -1.2033 -0.5198 -0.7576
  336MPD2    N1 5050   4.385   2.647  15.710  0.3988  0.2690  0.8010
  336MPD2    H7 5051   4.298   2.621  15.754 -0.0328  0.7199  0.1976
  337TMC3    C1 5052   4.283   2.861  15.723  0.1250  0.6871 -0.0396
  337TMC3    C2 5053   4.162   2.823  15.664 -0.2625  0.3203  0.2895
  337TMC3    C3 5054   4.050   2.881  15.718  0.1262  0.5082  0.5448
  337TMC3    C4 5055   4.293   2.957  15.820 -0.0623 -0.2607 -0.3004
  337TMC3    C5 5056   4.177   3.014  15.867  0.1712  0.2973 -0.0618
  337TMC3    C6 5057   4.061   2.976  15.816 -0.0116 -0.4744  0.3416
  337TMC3     C 5058   4.405   2.782  15.697  0.0069 -0.6099  0.3795
  337TMC3     O 5059   4.510   2.841  15.667  0.0992  0.1284  0.6660
  337TMC3     H 5060   4.147   2.737  15.599  0.5706  0.3179  0.1097
  337TMC3    H1 5061   4.390   2.981  15.863  0.4374 -2.4795 -0.1823
  337TMC3    H2 5062   3.971   3.032  15.842 -0.0743  1.1320 -3.3178
  337TMC3    C7 5063   4.176   3.134  15.947  0.1150 -0.0272  0.3258
  337TMC3    C8 5064   3.918   2.831  15.702 -0.0012  0.5475  0.0739
  337TMC3    O1 5065   4.073   3.163  16.008  0.7367 -0.3404 -0.1662
  337TMC3    O2 5066   3.844   2.848  15.796  0.6234  0.0232  0.2041
  338MPD2     C 5067   4.074   1.999   0.991 -0.1095  0.5546 -0.1516
  338MPD2    C1 5068   4.071   1.947   0.863 -0.5776 -0.5380  0.0570
  338MPD2    C2 5069   3.957   1.968   0.787 -0.1825 -0.4420  0.4924
  338MPD2    C3 5070   3.846   2.028   0.838 -0.6884  0.7569 -0.3767
  338MPD2    C4 5071   3.853   2.083   0.966  0.3807  0.0760  0.6133
  338MPD2    C5 5072   3.965   2.066   1.036 -0.1737  0.2951  0.3519
  338MPD2     H 5073   3.948   1.917   0.691  1.2127 -0.3324  0.2936
  338MPD2    H1 5074   3.762   2.122   1.012 -1.5483  0.6442 -3.7296
  338MPD2    H2 5075   4.160   1.999   1.058 -0.7404 -1.0261  0.6600
  338MPD2    H3 5076   3.957   2.114   1.133  2.6537  1.2624  0.1041
  338MPD2     N 5077   3.719   2.019   0.763 -0.4313 -0.3076  0.1006
  338MPD2    H5 5078   3.730   1.999   0.664  2.7031  0.7021  0.2539
  338MPD2    N1 5079   4.179   1.889   0.807 -0.8798 -0.4144  0.1221
  338MPD2    H7 5080   4.175   1.865   0.708  1.0955 -0.2335  0.0034
  339TMC3    C1 5081   3.499   1.981   0.717  0.1136 -0.8158 -0.2728
  339TMC3    C2 5082   3.425   1.874   0.762  0.3090 -0.0695 -0.1291
  339TMC3    C3 5083   3.422   1.759   0.689  0.6955 -0.2699  0.6695
  339TMC3    C4 5084   3.559   1.972   0.591  0.4184 -0.0103 -0.6155
  339TMC3    C5 5085   3.540   1.862   0.513  0.2643  0.1648 -0.0777
  339TMC3    C6 5086   3.481   1.753   0.566 -0.0182  0.0932  0.3644
  339TMC3     C 5087   3.590   2.036   0.808  0.1567 -0.1791 -0.3040
  339TMC3     O 5088   3.558   2.050   0.922  0.2200  0.0897 -0.6828
  339TMC3     H 5089   3.373   1.891   0.856  2.7500  0.2066  1.1899
  339TMC3    H1 5090   3.598   2.057   0.536 -0.3336 -0.3214 -1.6504
  339TMC3    H2 5091   3.476   1.659   0.513  0.5555 -0.0537  0.5708
  339TMC3    C7 5092   3.642   1.848   0.412 -0.1182 -0.0713  0.7456
  339TMC3    C8 5093   3.448   1.640   0.770  0.1745 -0.2786 -0.0604
  339TMC3    O1 5094   3.741   1.918   0.445  0.0384 -0.6085 -0.7452
  339TMC3    O2 5095   3.538   1.571   0.723  0.2343 -0.2732 -0.0244
  340MPD2     C 5096   4.685   4.653   9.973 -0.1550  0.0256  0.8174
  340MPD2    C1 5097   0.025   4.708   9.869 -0.0585  0.0107  0.0249
  340MPD2    C2 5098   0.128   0.075   9.894  0.5467 -0.4955 -0.2682
  340MPD2    C3 5099   0.183   0.094  10.021 -0.5155  0.2878  0.2623
  340MPD2    C4 5100   0.118   0.026  10.129  0.4725  0.5850 -0.4427
  340MPD2    C5 5101   0.003   4.673  10.102 -0.3983 -1.4984 -0.4339
  340MPD2     H 5102   0.181   0.131   9.817 -1.1401  0.4199 -0.7795
  340MPD2    H1 5103   0.144   0.031  10.234 -0.2035 -0.6207 -0.2245
  340MPD2    H2 5104   4.592   4.601   9.955 -0.0400 -0.3064  1.1784
  340MPD2    H3 5105   4.665   4.633  10.183  2.5441 -2.8639  1.0522
  340MPD2     N 5106   0.297   0.175  10.050 -0.1109  0.2751  0.1603
  340MPD2    H5 5107   0.342   0.161  10.140 -0.4738 -0.4765  0.2319
  340MPD2    N1 5108   4.695   4.677   9.745  0.0846 -0.1586 -0.1488
  340MPD2    H7 5109   4.624   4.605   9.749  1.6676 -1.7632 -1.2599
  341TMC3    C1 5110   4.679   4.660   9.514  0.3072  0.2872  0.5580
  341TMC3    C2 5111   4.587   4.558   9.542 -0.4854 -0.3502  0.0514
  341TMC3    C3 5112   4.549   4.483   9.434  0.4655  0.3124  0.3056
  341TMC3    C4 5113   0.005   4.685   9.386  0.2537  0.0587 -0.6336
  341TMC3    C5 5114   4.680   4.606   9.282 -0.9173 -0.6498 -0.4475
  341TMC3    C6 5115   4.596   4.500   9.310 -0.0326 -0.1641 -0.9916
  341TMC3     C 5116   0.011   0.019   9.630 -0.0332 -0.3501 -0.2770
  341TMC3     O 5117   0.094   0.108   9.611 -0.3940  0.1792  0.3425
  341TMC3     H 5118   4.547   4.540   9.641 -1.0071 -0.2303 -0.1338
  341TMC3    H1 5119   0.084   0.036   9.368 -0.0741  1.2222  2.4900
  341TMC3    H2 5120   4.583   4.429   9.229 -1.2957 -0.6738 -0.3410
  341TMC3    C7 5121   0.049   4.591   9.176  0.7976  0.2914  0.3537
  341TMC3    C8 5122   4.499   4.349   9.460  0.1223  0.0980  0.0480
  341TMC3    O1 5123   0.082   4.478   9.145  0.1800  0.2909  0.6934
  341TMC3    O2 5124   4.526   4.289   9.563 -0.1048 -0.1581 -0.1393
  342MPD2     C 5125   2.668   2.744   0.259  0.3039 -0.0660  0.0361
  342MPD2    C1 5126   2.754   2.778   0.161 -0.0147  0.6713  0.3157
  342MPD2    C2 5127   2.823   2.895   0.177  0.4942  0.0635  0.6273
  342MPD2    C3 5128   2.807   2.979   0.290  0.1994  0.0185 -0.1587
  342MPD2    C4 5129   2.718   2.941   0.388 -0.0337 -0.5088  0.6326
  342MPD2    C5 5130   2.659   2.821   0.374 -0.3000  0.0494  0.2065
  342MPD2     H 5131   2.880   2.940   0.096 -0.0453  0.7917  0.6476
  342MPD2    H1 5132   2.696   3.006   0.472  1.5169  0.7126  0.1101
  342MPD2    H2 5133   2.611   2.654   0.276 -0.0635 -0.0749 -1.2315
  342MPD2    H3 5134   2.582   2.790   0.443 -0.6973  1.7314  0.5310
  342MPD2     N 5135   2.859   3.110   0.313 -0.6010 -0.4199  0.0552
  342MPD2    H5 5136   2.836   3.154   0.401 -0.3871  0.3319 -0.2617
  342MPD2    N1 5137   2.787   2.689   0.050 -0.0129 -0.3968 -0.8785
  342MPD2    H7 5138   2.872   2.709  17.688  0.3012  1.1336  0.2580
  343TMC3    C1 5139   2.796   2.484  17.612  0.5141 -0.2238 -0.4585
  343TMC3    C2 5140   2.875   2.533  17.510  0.5825 -0.0948 -0.0008
  343TMC3    C3 5141   2.928   2.438  17.422 -0.6036 -0.0008  0.2290
  343TMC3    C4 5142   2.765   2.355  17.622 -0.1331  0.1945  0.5953
  343TMC3    C5 5143   2.822   2.265  17.539  0.8954 -0.5061 -0.4939
  343TMC3    C6 5144   2.909   2.303  17.444  0.0346  0.1345 -0.4858
  343TMC3     C 5145   2.723   2.578   0.015 -0.1692 -0.7397  0.5003
  343TMC3     O 5146   2.618   2.538   0.060 -0.4372  0.4791  0.0620
  343TMC3     H 5147   2.887   2.641  17.510  0.5083 -0.0870  1.3379
  343TMC3    H1 5148   2.703   2.319   0.015  0.9782 -0.8957  0.9678
  343TMC3    H2 5149   2.969   2.237  17.382  1.3847  1.1587 -0.2707
  343TMC3    C7 5150   2.812   2.121  17.567 -0.0616 -0.2344  0.0532
  343TMC3    C8 5151   3.044   2.485  17.346  0.1022  0.0998 -0.2194
  343TMC3    O1 5152   2.816   2.046  17.473 -0.0438  0.2360  0.0884
  343TMC3    O2 5153   3.067   2.606  17.356  0.2471 -0.3407  0.2014
  344MPD2     C 5154   4.130   2.298  11.120  0.5159 -0.5394 -0.8087
  344MPD2    C1 5155   4.029   2.258  11.038  0.2392 -0.0981  0.1494
  344MPD2    C2 5156   3.999   2.327  10.922  0.2621  0.0615  0.1168
  344MPD2    C3 5157   4.066   2.441  10.892  0.3592  1.0094  0.4523
  344MPD2    C4 5158   4.162   2.489  10.977 -0.7227 -0.6631 -0.5870
  344MPD2    C5 5159   4.203   2.413  11.087 -0.3945  0.7311  0.0099
  344MPD2     H 5160   3.910   2.292  10.869  0.9431 -1.4541 -0.0244
  344MPD2    H1 5161   4.204   2.587  10.957 -1.9409  0.2660  1.3200
  344MPD2    H2 5162   4.177   2.245  11.202  1.1137  1.6986  0.3022
  344MPD2    H3 5163   4.283   2.445  11.152 -1.6991  2.5114  0.7405
  344MPD2     N 5164   4.039   2.528  10.779  0.2064 -0.1548 -0.7306
  344MPD2    H5 5165   4.095   2.612  10.768  0.5646 -0.3319 -0.2353
  344MPD2    N1 5166   3.951   2.143  11.067  0.1581 -0.5176 -0.5037
  344MPD2    H7 5167   3.878   2.129  10.998 -0.7131 -0.6890  0.4462
  345TMC3    C1 5168   3.984   2.599  10.571  0.7660 -0.0421 -0.3559
  345TMC3    C2 5169   4.025   2.727  10.608 -0.2762 -0.5328 -0.4623
  345TMC3    C3 5170   4.084   2.808  10.512 -0.2555  0.3109 -0.3277
  345TMC3    C4 5171   4.010   2.550  10.439 -0.2950 -0.2463 -0.3626
  345TMC3    C5 5172   4.070   2.635  10.347  0.3015 -0.2034 -0.3634
  345TMC3    C6 5173   4.099   2.767  10.381  0.1617  0.6435  0.2918
  345TMC3     C 5174   3.968   2.495  10.666 -0.0286  0.2916 -0.0445
  345TMC3     O 5175   3.895   2.400  10.635 -0.3572 -0.2162 -0.3861
  345TMC3     H 5176   3.992   2.767  10.704 -1.8494  1.4723 -1.8556
  345TMC3    H1 5177   3.996   2.444  10.419 -1.6316 -0.2858  0.7326
  345TMC3    H2 5178   4.133   2.834  10.304 -0.4157 -0.5943 -1.0358
  345TMC3    C7 5179   4.075   2.606  10.205 -0.0202 -0.6346 -0.3753
  345TMC3    C8 5180   4.068   2.946  10.529  0.4032  0.4468  0.5862
  345TMC3    O1 5181   4.158   2.667  10.140 -0.0593  0.6008 -0.6939
  345TMC3    O2 5182   4.061   3.016  10.429  0.3265  0.5757 -0.0293
  346MPD2     C 5183   4.138   4.042  14.332 -0.4394  0.7312 -0.3204
  346MPD2    C1 5184   4.262   4.097  14.351  0.0360 -0.2045  0.3473
  346MPD2    C2 5185   4.270   4.209  14.437 -0.6394 -0.5297 -0.3805
  346MPD2    C3 5186   4.158   4.243  14.517  0.4494 -0.2586  0.3800
  346MPD2    C4 5187   4.042   4.177  14.493  0.0431 -0.2601 -0.3856
  346MPD2    C5 5188   4.031   4.073  14.404 -0.5867  0.1157  0.0948
  346MPD2     H 5189   4.364   4.263  14.442 -0.6363 -0.5170 -0.5680
  346MPD2    H1 5190   3.955   4.212  14.548 -0.4756 -0.2831 -1.1854
  346MPD2    H2 5191   4.125   3.975  14.247  0.8085 -1.5614  1.3149
  346MPD2    H3 5192   3.935   4.027  14.385  0.0106 -0.8243 -0.6748
  346MPD2     N 5193   4.176   4.352  14.595  0.0947  0.8792  0.5224
  346MPD2    H5 5194   4.270   4.386  14.611  0.1561  0.0595  1.9100
  346MPD2    N1 5195   4.383   4.062  14.271  0.2672  0.3181 -0.0105
  346MPD2    H7 5196   4.464   4.122  14.266  1.8077 -1.7767 -0.1709
  347TMC3    C1 5197   4.129   4.528  14.729  0.1646  0.1351  0.2403
  347TMC3    C2 5198   4.247   4.587  14.685 -0.1519 -0.6638  0.0657
  347TMC3    C3 5199   4.315   4.672  14.764 -0.3244 -0.2723  0.6612
  347TMC3    C4 5200   4.093   4.550  14.850  0.0816 -0.0949 -0.3874
  347TMC3    C5 5201   4.174   4.617  14.938 -0.5740 -0.7309 -0.6450
  347TMC3    C6 5202   4.279   4.693  14.896 -1.0321  0.0764 -0.5016
  347TMC3     C 5203   4.078   4.411  14.673  0.5491 -0.0067  0.4130
  347TMC3     O 5204   3.968   4.366  14.698 -0.1192  0.7262  0.2296
  347TMC3     H 5205   4.260   4.590  14.578  0.5439 -0.5616  0.1557
  347TMC3    H1 5206   3.994   4.513  14.876 -0.1713  0.0547 -1.1351
  347TMC3    H2 5207   4.327   0.046  14.959  1.2234 -1.7180 -0.0808
  347TMC3    C7 5208   4.139   4.605  15.078 -0.4655  0.1124 -0.1425
  347TMC3    C8 5209   4.437   4.708  14.712  0.2449 -0.1138 -0.1918
  347TMC3    O1 5210   4.051   4.522  15.102 -0.3354  0.7188  0.0025
  347TMC3    O2 5211   4.450   4.710  14.591 -0.7931 -0.1064  0.2603
  348MPD2     C 5212   2.437   4.060  12.074  0.5163  0.4361  0.1868
  348MPD2    C1 5213   2.556   4.059  12.003  0.0265 -0.4274  0.1076
  348MPD2    C2 5214   2.544   4.083  11.863 -0.5282 -0.1130 -0.5020
  348MPD2    C3 5215   2.423   4.095  11.800 -0.6121 -0.0573 -0.4008
  348MPD2    C4 5216   2.309   4.095  11.872 -0.1787 -0.2672 -0.1323
  348MPD2    C5 5217   2.317   4.075  12.010 -0.4787 -0.3549 -0.0096
  348MPD2     H 5218   2.634   4.079  11.802  0.3663 -2.2945  0.9840
  348MPD2    H1 5219   2.206   4.101  11.840 -0.0790 -1.3262 -0.6674
  348MPD2    H2 5220   2.448   4.045  12.181 -1.7126 -0.4847  0.2954
  348MPD2    H3 5221   2.222   4.074  12.063 -0.3424 -1.4752  0.2175
  348MPD2     N 5222   2.424   4.088  11.660 -0.5138 -0.3695  0.5296
  348MPD2    H5 5223   2.515   4.088  11.617 -1.3981 -0.0944 -1.3582
  348MPD2    N1 5224   2.681   4.033  12.054 -0.1497 -0.4274 -1.1433
  348MPD2    H7 5225   2.752   4.032  11.982 -0.1578  1.3320 -1.1698
  349TMC3    C1 5226   2.851   3.935  12.177 -1.0756  0.1341  0.4666
  349TMC3    C2 5227   2.855   3.815  12.253  0.2882  0.5943 -0.5787
  349TMC3    C3 5228   2.917   3.712  12.195  0.0029  0.1239  1.2226
  349TMC3    C4 5229   2.912   3.940  12.054  0.3080 -0.7074 -0.5146
  349TMC3    C5 5230   2.970   3.828  12.005  0.2377  0.5162  0.4540
  349TMC3    C6 5231   2.967   3.706  12.066  0.1650 -0.2340  0.5361
  349TMC3     C 5232   2.719   3.994  12.179  0.4772  0.0321 -0.1574
  349TMC3     O 5233   2.664   4.000  12.290 -0.1278  0.0280  0.0814
  349TMC3     H 5234   2.820   3.811  12.356 -0.2720  0.5188 -0.7671
  349TMC3    H1 5235   2.909   4.033  11.998 -1.9000 -0.2216  0.3840
  349TMC3    H2 5236   3.013   3.622  12.016 -0.2951  1.3937 -2.5536
  349TMC3    C7 5237   2.988   3.827  11.862  0.4187 -0.1322  0.3761
  349TMC3    C8 5238   2.936   3.594  12.276  0.2294  0.0733 -0.5403
  349TMC3    O1 5239   2.940   3.733  11.804 -0.3519 -0.6902 -0.3088
  349TMC3    O2 5240   2.966   3.490  12.217  0.1060  0.3016 -0.4344
  350MPD2     C 5241   2.107   1.566   9.579 -0.1621  0.3603  0.2397
  350MPD2    C1 5242   2.067   1.443   9.615  0.5529  0.1565 -0.6818
  350MPD2    C2 5243   2.142   1.357   9.691  0.7306  0.6701 -0.1595
  350MPD2    C3 5244   2.271   1.393   9.730  0.6103 -0.6964 -0.3051
  350MPD2    C4 5245   2.317   1.524   9.687 -0.3039 -0.2542 -0.4017
  350MPD2    C5 5246   2.241   1.606   9.614  0.9327  0.6558 -0.2659
  350MPD2     H 5247   2.105   1.256   9.704  0.1555  0.9476  0.4077
  350MPD2    H1 5248   2.421   1.551   9.702 -0.8457  1.3113  0.5097
  350MPD2    H2 5249   2.048   1.624   9.509  0.5081 -0.9969 -1.4453
  350MPD2    H3 5250   2.282   1.695   9.567 -0.0927  0.2130 -2.0240
  350MPD2     N 5251   2.358   1.303   9.807 -0.3599 -0.9626 -0.7724
  350MPD2    H5 5252   2.436   1.350   9.852 -1.4117  1.2400 -1.2546
  350MPD2    N1 5253   1.944   1.389   9.584  0.0378 -0.0175  0.2197
  350MPD2    H7 5254   1.926   1.292   9.606 -0.2088 -0.7747 -3.2253
  351TMC3    C1 5255   1.714   1.391   9.519 -0.3401  0.9838  1.1628
  351TMC3    C2 5256   1.715   1.257   9.485 -0.1822  0.4622  0.1321
  351TMC3    C3 5257   1.609   1.179   9.525  0.3709 -0.7623  0.0398
  351TMC3    C4 5258   1.602   1.445   9.585  0.0750  0.0490  0.2786
  351TMC3    C5 5259   1.495   1.361   9.616 -0.1097 -0.2604  0.4259
  351TMC3    C6 5260   1.504   1.226   9.595 -0.5292 -0.2389 -0.4998
  351TMC3     C 5261   1.838   1.466   9.547  0.4966  0.2791  0.2077
  351TMC3     O 5262   1.817   1.590   9.551 -0.0481  0.0346  0.1505
  351TMC3     H 5263   1.794   1.208   9.431 -1.4745 -0.2706 -1.0748
  351TMC3    H1 5264   1.589   1.553   9.593 -1.0025 -0.0632  0.0470
  351TMC3    H2 5265   1.429   1.158   9.635 -1.2829  0.7515 -0.2157
  351TMC3    C7 5266   1.386   1.421   9.696  0.0708  0.3429  0.0083
  351TMC3    C8 5267   1.625   1.046   9.495 -0.9218 -0.2458 -0.1020
  351TMC3    O1 5268   1.409   1.534   9.745  0.6505  0.1311 -0.0797
  351TMC3    O2 5269   1.675   1.015   9.389  0.6924 -0.4769 -0.2160
  352MPD2     C 5270   0.614   3.334   1.729  0.7507 -0.5903 -0.1357
  352MPD2    C1 5271   0.515   3.268   1.649 -0.4423 -0.1915  0.7212
  352MPD2    C2 5272   0.445   3.163   1.711 -0.2868 -0.4646  0.3656
  352MPD2    C3 5273   0.477   3.114   1.837 -0.4928  0.8336  0.5328
  352MPD2    C4 5274   0.579   3.173   1.907 -0.3968  0.0013 -0.1021
  352MPD2    C5 5275   0.645   3.285   1.856  0.6311 -0.5478 -0.1150
  352MPD2     H 5276   0.379   3.108   1.645 -1.0199  1.7367 -0.7243
  352MPD2    H1 5277   0.605   3.136   2.006 -0.9514  2.7699  1.0852
  352MPD2    H2 5278   0.676   3.415   1.692 -1.5059  0.9433 -0.5866
  352MPD2    H3 5279   0.735   3.319   1.906 -0.7620  1.5427  0.9770
  352MPD2     N 5280   0.417   2.990   1.894  0.1771 -0.1360  0.1353
  352MPD2    H5 5281   0.453   2.947   1.979  0.8104 -0.1863 -0.1550
  352MPD2    N1 5282   0.481   3.300   1.515  0.1093 -0.1964 -0.3807
  352MPD2    H7 5283   0.400   3.249   1.482 -0.5216 -0.9783  2.3465
  353TMC3    C1 5284   0.272   2.795   1.906  0.0169  0.4475 -0.1320
  353TMC3    C2 5285   0.371   2.729   1.973 -0.0332  0.0870 -0.5337
  353TMC3    C3 5286   0.347   2.594   2.003  0.5491 -0.2322  0.1064
  353TMC3    C4 5287   0.146   2.744   1.874  0.1577 -0.2477  0.1924
  353TMC3    C5 5288   0.120   2.613   1.912  0.7111  0.1904  1.5481
  353TMC3    C6 5289   0.222   2.537   1.971 -0.4610 -0.6942  0.5403
  353TMC3     C 5290   0.305   2.923   1.841  0.4243  0.4016  0.2032
  353TMC3     O 5291   0.235   2.959   1.745 -0.4611  0.7782 -0.5806
  353TMC3     H 5292   0.467   2.771   1.999  0.3779 -2.0037  1.2809
  353TMC3    H1 5293   0.069   2.798   1.820  0.2145 -0.9329 -0.5654
  353TMC3    H2 5294   0.195   2.434   1.989  0.8412 -1.0412  0.4942
  353TMC3    C7 5295   0.030   2.544   1.819 -0.7077 -0.3296  0.7736
  353TMC3    C8 5296   0.469   2.520   2.051 -0.7872 -0.3720 -0.1436
  353TMC3    O1 5297   0.070   2.438   1.776  0.1760 -0.2806 -0.0642
  353TMC3    O2 5298   0.569   2.590   2.065 -1.0330  0.8568 -0.6028
  354TMC3    C1 5299   2.174   0.269  13.675  0.1633  0.2249  0.4616
  354TMC3    C2 5300   2.172   0.407  13.672  0.9283  0.1070 -0.1111
  354TMC3    C3 5301   2.177   0.473  13.553  0.7645  0.2932 -0.6891
  354TMC3    C4 5302   2.192   0.198  13.561  0.0627 -0.7094  0.1594
  354TMC3    C5 5303   2.198   0.272  13.447  0.2370  0.2222  0.1887
  354TMC3    C6 5304   2.201   0.407  13.439 -0.3483  0.2005  0.7565
  354TMC3     C 5305   2.136   0.201  13.798  0.2185 -0.1071 -0.3218
  354TMC3     O 5306   2.036   0.239  13.859 -0.3313 -0.0159  0.2610
  354TMC3     H 5307   2.148   0.468  13.759  1.2595  1.2617 -0.8307
  354TMC3    H1 5308   2.154   0.097  13.564 -1.6507 -0.0688  0.3372
  354TMC3    H2 5309   2.174   0.460  13.348 -1.0418 -2.5213 -0.6219
  354TMC3    C7 5310   2.188   0.195  13.332  0.1682 -0.0919 -0.3907
  354TMC3    C8 5311   2.121   0.606  13.544  0.3784  0.2154 -0.9382
  354TMC3    O1 5312   2.115   0.097  13.322 -0.5762 -0.0307 -0.1047
  354TMC3    O2 5313   2.057   0.641  13.644  0.2638  0.1869 -0.0020
  355MPD2     C 5314   2.257   1.125  11.814  0.6503 -0.5513  0.2154
  355MPD2    C1 5315   2.345   1.047  11.748  0.1940  0.4704 -0.8135
  355MPD2    C2 5316   2.425   0.959  11.825  0.0841 -0.0614  0.0849
  355MPD2    C3 5317   2.404   0.948  11.964  0.1515 -0.4554 -0.3849
  355MPD2    C4 5318   2.308   1.025  12.025  0.3709  0.0385  0.5589
  355MPD2    C5 5319   2.240   1.116  11.952  0.0940  0.5446  0.7591
  355MPD2     H 5320   2.509   0.903  11.787 -1.2135  0.0142 -2.8856
  355MPD2    H1 5321   2.278   1.010  12.128 -1.9514 -0.1988 -0.1535
  355MPD2    H2 5322   2.196   1.196  11.760  1.4765 -0.8462 -1.0988
  355MPD2    H3 5323   2.164   1.175  12.003  1.7199  0.1982  3.5405
  355MPD2     N 5324   2.484   0.866  12.040  0.0023  0.0904 -0.1817
  355MPD2    H5 5325   2.496   0.889  12.138 -0.1390  0.9740 -0.3713
  355MPD2    N1 5326   2.373   1.063  11.610  0.1795 -0.2210 -0.5086
  355MPD2    H7 5327   2.326   1.134  11.555  1.3870  0.8848 -0.1074
  356TMC3    C1 5328   2.686   0.743  12.069 -0.5567  0.1004  0.6315
  356TMC3    C2 5329   2.783   0.777  11.980  0.1968  0.1710  0.0198
  356TMC3    C3 5330   2.875   0.869  12.013 -0.0325  0.3623  0.1458
  356TMC3    C4 5331   2.676   0.805  12.193 -0.0338  0.4004 -0.6895
  356TMC3    C5 5332   2.778   0.894  12.229 -1.0914 -0.8273  0.6357
  356TMC3    C6 5333   2.874   0.927  12.140 -0.1180  0.0199 -0.5761
  356TMC3     C 5334   2.567   0.771  11.987 -0.6732 -0.2259 -0.7472
  356TMC3     O 5335   2.560   0.708  11.884  0.2397 -0.1112  0.0722
  356TMC3     H 5336   2.775   0.747  11.876  0.2232  0.1450  0.0251
  356TMC3    H1 5337   2.600   0.779  12.265  1.4117  1.7632  1.3084
  356TMC3    H2 5338   2.943   1.004  12.172  0.4532  0.2094 -2.2530
  356TMC3    C7 5339   2.783   0.937  12.368  0.2166 -0.0528  0.7584
  356TMC3    C8 5340   2.957   0.913  11.907 -0.2994  0.3052  0.4915
  356TMC3    O1 5341   2.731   0.862  12.453  0.2334 -0.4146 -0.3593
  356TMC3    O2 5342   2.977   0.847  11.809 -0.0384  0.5493  0.3173
  357MPD2     C 5343   1.273   0.951   0.942 -0.0101  0.1670 -0.1648
  357MPD2    C1 5344   1.309   0.889   1.060  0.0549  0.1115  0.1779
  357MPD2    C2 5345   1.207   0.866   1.150  0.3606  0.1426 -1.0387
  357MPD2    C3 5346   1.077   0.900   1.117  0.4170  0.6433 -0.5595
  357MPD2    C4 5347   1.042   0.958   1.000  0.0461 -0.4250 -0.4826
  357MPD2    C5 5348   1.144   0.981   0.913 -0.5917 -0.0025 -0.1284
  357MPD2     H 5349   1.222   0.799   1.234 -1.7502 -0.1592 -0.9089
  357MPD2    H1 5350   0.943   0.991   0.973  0.3556 -0.6191 -1.9099
  357MPD2    H2 5351   1.351   0.983   0.874 -0.7492 -1.5874 -1.8580
  357MPD2    H3 5352   1.125   1.019   0.813  0.2369  0.1826 -0.2209
  357MPD2     N 5353   0.965   0.879   1.206 -0.0199 -0.2850  0.3883
  357MPD2    H5 5354   0.872   0.907   1.177  0.3924  1.8453  1.1102
  357MPD2    N1 5355   1.439   0.842   1.076  0.2120  0.6295 -0.8546
  357MPD2    H7 5356   1.501   0.844   0.996  0.4291 -0.9006 -0.7281
  358TMC3    C1 5357   1.630   0.757   1.199 -1.0503  0.3168 -0.2089
  358TMC3    C2 5358   1.658   0.666   1.106 -0.3516  0.2193  0.5220
  358TMC3    C3 5359   1.711   0.553   1.138 -0.6503 -0.1562 -0.2780
  358TMC3    C4 5360   1.671   0.741   1.330 -0.3520  0.4881 -0.0522
  358TMC3    C5 5361   1.741   0.625   1.360  0.6360  0.1293 -0.2071
  358TMC3    C6 5362   1.763   0.530   1.264  0.5684  0.4190 -0.8817
  358TMC3     C 5363   1.495   0.817   1.199 -0.4492 -0.7261  0.0360
  358TMC3     O 5364   1.445   0.857   1.305 -0.0620 -0.5290 -0.3585
  358TMC3     H 5365   1.622   0.683   1.005  0.1974 -0.0269  0.2808
  358TMC3    H1 5366   1.651   0.808   1.413  0.6982  0.0566  0.5420
  358TMC3    H2 5367   1.820   0.439   1.278  1.2629  1.0054  0.1531
  358TMC3    C7 5368   1.755   0.590   1.507  1.1603 -0.3636  0.2949
  358TMC3    C8 5369   1.727   0.456   1.033  0.7384  0.2594 -0.3764
  358TMC3    O1 5370   1.816   0.486   1.526  0.1757  0.1087  0.0251
  358TMC3    O2 5371   1.724   0.498   0.917 -0.2120  0.3522 -0.2994
  359MPD2     C 5372   2.398   4.441  12.822  0.2076  0.4499 -0.0068
  359MPD2    C1 5373   2.386   4.382  12.696 -0.1897 -0.3427  0.0763
  359MPD2    C2 5374   2.298   4.275  12.685 -0.1401 -0.2149  0.0381
  359MPD2    C3 5375   2.242   4.220  12.807 -0.7350 -0.8793 -0.1690
  359MPD2    C4 5376   2.262   4.279  12.925  0.5078 -0.5597  0.3056
  359MPD2    C5 5377   2.333   4.392  12.935 -0.2998 -0.1050  0.1123
  359MPD2     H 5378   2.284   4.228  12.588 -0.9279 -1.5696  0.8099
  359MPD2    H1 5379   2.226   4.246  13.023 -0.3839 -0.7949 -0.1019
  359MPD2    H2 5380   2.462   4.527  12.835 -0.2088  1.1714 -2.7213
  359MPD2    H3 5381   2.344   4.440  13.031 -2.3405 -0.8557  0.7110
  359MPD2     N 5382   2.163   4.100  12.813  0.2810 -0.1982  0.4880
  359MPD2    H5 5383   2.151   4.078  12.911 -2.1711  1.7304  0.5986
  359MPD2    N1 5384   2.461   4.413  12.581  0.2118  0.4208 -0.3653
  359MPD2    H7 5385   2.452   4.351  12.501 -2.4124 -2.2915  2.0525
  360TMC3    C1 5386   2.580   4.542  12.423 -0.2662  0.1703  0.1345
  360TMC3    C2 5387   2.652   4.659  12.401 -0.1076  0.0514  0.7883
  360TMC3    C3 5388   2.709   4.666  12.279 -0.4456 -0.6307  0.1566
  360TMC3    C4 5389   2.538   4.454  12.321 -0.6648  0.3135  1.0957
  360TMC3    C5 5390   2.576   4.488  12.196  0.6734 -0.4180 -0.1171
  360TMC3    C6 5391   2.656   4.599  12.168  1.1718 -0.1566 -0.5317
  360TMC3     C 5392   2.545   4.524  12.565 -0.3150  0.1450  0.3546
  360TMC3     O 5393   2.572   4.619  12.637  0.6739 -0.4033  0.2546
  360TMC3     H 5394   2.704   4.712  12.479 -0.5967 -2.8090  3.0625
  360TMC3    H1 5395   2.469   4.372  12.335 -0.3246 -0.0470  0.6682
  360TMC3    H2 5396   2.682   4.630  12.068 -0.0967  3.0456  0.1231
  360TMC3    C7 5397   2.504   4.437  12.078  0.2977 -0.0993  0.0965
  360TMC3    C8 5398   2.830   0.028  12.254 -0.1998 -0.4532 -0.4952
  360TMC3    O1 5399   2.563   4.464  11.971 -0.2102  0.1329  0.3062
  360TMC3    O2 5400   2.847   0.141  12.302  0.4567  0.2673 -0.5876
  361MPD2     C 5401   4.001   3.523  17.082  0.1071 -0.8252 -0.0520
  361MPD2    C1 5402   3.915   3.414  17.098 -0.4776 -0.4674  0.3618
  361MPD2    C2 5403   3.964   3.283  17.091 -0.2311 -0.1847 -0.0444
  361MPD2    C3 5404   4.099   3.261  17.079  0.2213 -0.3129  0.7864
  361MPD2    C4 5405   4.182   3.373  17.066 -0.0516 -0.2020  0.4099
  361MPD2    C5 5406   4.133   3.498  17.080 -0.0067  0.1458  0.0724
  361MPD2     H 5407   3.905   3.193  17.106 -0.3308  0.2854  2.5099
  361MPD2    H1 5408   4.290   3.372  17.052 -0.1290 -0.9353 -0.1037
  361MPD2    H2 5409   3.964   3.625  17.089 -0.3346 -0.9198 -0.9985
  361MPD2    H3 5410   4.205   3.577  17.096  0.9626 -0.8775  0.6711
  361MPD2     N 5411   4.144   3.130  17.089  0.7801 -0.4033  0.1467
  361MPD2    H5 5412   4.082   3.053  17.111  1.5272 -0.7872  0.9377
  361MPD2    N1 5413   3.776   3.441  17.111 -0.4769 -0.3081  0.1295
  361MPD2    H7 5414   3.744   3.535  17.088 -1.3655 -0.5321  0.4612
  362TMC3    C1 5415   3.545   3.418  17.167  0.2871  1.1973 -0.0481
  362TMC3    C2 5416   3.463   3.376  17.268  0.9802  0.0242 -0.1993
  362TMC3    C3 5417   3.339   3.431  17.280 -0.1654 -0.1301 -0.5681
  362TMC3    C4 5418   3.504   3.513  17.077  0.7907 -0.5699  0.1619
  362TMC3    C5 5419   3.373   3.563  17.089  0.3943  0.4731 -0.1298
  362TMC3    C6 5420   3.292   3.515  17.183 -0.5847 -0.0758 -0.2836
  362TMC3     C 5421   3.677   3.350  17.147  0.0973 -0.7511  0.0632
  362TMC3     O 5422   3.698   3.240  17.196 -0.3621  0.5045 -0.5122
  362TMC3     H 5423   3.492   3.295  17.334  0.8770  1.3252  1.4261
  362TMC3    H1 5424   3.558   3.534  16.985  0.5387 -0.3287  0.0706
  362TMC3    H2 5425   3.190   3.551  17.187  0.0278  1.5695  0.4050
  362TMC3    C7 5426   3.318   3.642  16.983  0.3141 -0.6131 -0.9104
  362TMC3    C8 5427   3.243   3.363  17.367 -0.2266 -0.1171  0.3492
  362TMC3    O1 5428   3.219   3.706  17.008  0.1697 -0.0918  0.6273
  362TMC3    O2 5429   3.254   3.247  17.397  0.6103  0.7309  0.1574
  363TMC3    C1 5430   2.543   1.005   9.587 -0.1429  0.5241  0.4473
  363TMC3    C2 5431   2.506   0.894   9.663  0.1371 -0.2672  0.0026
  363TMC3    C3 5432   2.596   0.849   9.757 -0.2087  0.0385  0.1365
  363TMC3    C4 5433   2.663   1.062   9.613 -0.5736  0.6096  0.5366
  363TMC3    C5 5434   2.734   1.021   9.712 -0.0643 -0.0617 -0.2242
  363TMC3    C6 5435   2.709   0.909   9.787 -0.5080 -0.4267  0.3539
  363TMC3     C 5436   2.449   1.087   9.517  0.0456 -0.1509 -0.7998
  363TMC3     O 5437   2.476   1.202   9.502  0.0540 -0.3783  0.5525
  363TMC3     H 5438   2.405   0.854   9.660  0.5776 -1.3105 -0.6918
  363TMC3    H1 5439   2.705   1.137   9.548 -0.1056  0.0303  0.1795
  363TMC3    H2 5440   2.778   0.862   9.856  0.4129  0.4922  0.0653
  363TMC3    C7 5441   2.840   1.115   9.748 -0.2846  0.4087 -0.1991
  363TMC3    C8 5442   2.570   0.711   9.801 -0.3335  0.2495  0.1117
  363TMC3    O1 5443   2.814   1.234   9.731  0.9617  0.3226  0.3540
  363TMC3    O2 5444   2.456   0.663   9.790  0.3086  0.4116 -0.2095
  364MPD2     C 5445   1.232   0.109  10.189  0.1653  0.5041 -0.8152
  364MPD2    C1 5446   1.235   0.172  10.310 -0.0507  0.5912 -0.6500
  364MPD2    C2 5447   1.226   0.090  10.421 -0.6219 -0.1999 -0.1919
  364MPD2    C3 5448   1.220   4.673  10.417  0.2098  0.3698  0.2794
  364MPD2    C4 5449   1.209   4.616  10.293 -0.5435 -0.5199 -0.3610
  364MPD2    C5 5450   1.210   4.695  10.178  0.4504  0.4450  0.0674
  364MPD2     H 5451   1.236   0.134  10.520  0.6935 -0.6604 -0.1091
  364MPD2    H1 5452   1.177   4.512  10.284 -0.4109 -0.3812 -2.3097
  364MPD2    H2 5453   1.238   0.152  10.090 -0.2392  1.8194 -0.2657
  364MPD2    H3 5454   1.200   4.657  10.077  0.9942 -1.3193  0.6779
  364MPD2     N 5455   1.218   4.598  10.536 -0.1919  0.4149  0.1598
  364MPD2    H5 5456   1.221   4.657  10.619 -1.2063  0.2907  0.2975
  364MPD2    N1 5457   1.236   0.314  10.308  0.0570 -0.3746  0.1797
  364MPD2    H7 5458   1.259   0.358  10.220 -0.6663 -0.2687  0.0511
  365TMC3    C1 5459   1.235   0.536  10.386 -0.4293  0.0418  0.0465
  365TMC3    C2 5460   1.353   0.577  10.332  1.0165  0.0480 -0.0695
  365TMC3    C3 5461   1.374   0.711  10.313  0.6219  0.6605  0.5869
  365TMC3    C4 5462   1.125   0.617  10.420  0.1754  0.2793 -0.6683
  365TMC3    C5 5463   1.152   0.750  10.402 -0.4659  0.1183 -0.9125
  365TMC3    C6 5464   1.277   0.800  10.344  0.2433  0.1994  0.9176
  365TMC3     C 5465   1.225   0.399  10.418 -0.2729  0.0620  0.4764
  365TMC3     O 5466   1.172   0.361  10.520  0.0519  0.1594 -0.1024
  365TMC3     H 5467   1.422   0.498  10.307 -0.1180 -0.5566 -1.2355
  365TMC3    H1 5468   1.045   0.586  10.486 -0.4794  0.3379 -1.4400
  365TMC3    H2 5469   1.282   0.903  10.309  1.8967 -0.2072 -0.0295
  365TMC3    C7 5470   1.036   0.828  10.433  0.5462  0.0388  0.0366
  365TMC3    C8 5471   1.479   0.766  10.226 -0.1199  0.3307  0.1703
  365TMC3    O1 5472   0.931   0.767  10.448 -0.0501 -0.1111  0.3541
  365TMC3    O2 5473   1.475   0.884  10.193 -0.3345 -0.0026  0.6394
  366MPD2     C 5474   4.295   1.233  15.225 -0.4912  0.2933  0.2186
  366MPD2    C1 5475   4.375   1.329  15.290  0.0624  0.0687 -0.0866
  366MPD2    C2 5476   4.509   1.338  15.265 -0.4670  0.1567  0.2574
  366MPD2    C3 5477   4.574   1.250  15.179 -0.0343  0.3829  0.7032
  366MPD2    C4 5478   4.501   1.148  15.122  0.6625  0.0451 -0.2438
  366MPD2    C5 5479   4.364   1.138  15.152 -0.1010  0.3630  0.2120
  366MPD2     H 5480   4.569   1.417  15.309  2.0039  0.3439 -3.5126
  366MPD2    H1 5481   4.543   1.080  15.049  1.2055 -0.2678  0.3567
  366MPD2    H2 5482   4.189   1.227  15.246 -0.0332 -1.0071  2.1626
  366MPD2    H3 5483   4.321   1.048  15.110  1.4458 -0.9871  1.4818
  366MPD2     N 5484   4.707   1.288  15.135  0.5229 -0.6240  0.1042
  366MPD2    H5 5485   0.040   1.359  15.182 -0.6247  1.4076 -1.6396
  366MPD2    N1 5486   4.318   1.435  15.360  0.1354 -0.5453 -0.1319
  366MPD2    H7 5487   4.393   1.495  15.394  0.1582 -2.2587  2.8912
  367TMC3    C1 5488   4.190   1.615  15.371  0.1606 -0.1447  0.0576
  367TMC3    C2 5489   4.293   1.683  15.434  0.0926  0.8552  0.5515
  367TMC3    C3 5490   4.305   1.816  15.424  0.9569  0.0346 -0.0518
  367TMC3    C4 5491   4.113   1.681  15.285 -0.1741 -0.8987  0.7449
  367TMC3    C5 5492   4.124   1.816  15.284 -0.3536  0.0322  0.3403
  367TMC3    C6 5493   4.216   1.886  15.351 -0.7356 -0.0402  0.2517
  367TMC3     C 5494   4.187   1.476  15.373  0.1014 -0.7194  0.6750
  367TMC3     O 5495   4.082   1.419  15.340 -0.9672 -0.1064 -0.3747
  367TMC3     H 5496   4.362   1.633  15.500  0.1292  0.9460  0.5811
  367TMC3    H1 5497   4.035   1.627  15.233  0.5791 -0.1713 -1.1486
  367TMC3    H2 5498   4.209   1.994  15.350  0.6746  0.0357 -0.5436
  367TMC3    C7 5499   4.035   1.886  15.191  0.1049  0.0189 -0.0268
  367TMC3    C8 5500   4.428   1.876  15.472  0.5476  0.1777 -0.0465
  367TMC3    O1 5501   4.042   2.007  15.184  0.0570  0.5563  0.0075
  367TMC3    O2 5502   4.490   1.813  15.554 -0.0986  0.2140  0.2695
  368MPD2     C 5503   0.592   3.038  13.194 -1.1593  0.5937 -0.0917
  368MPD2    C1 5504   0.582   3.135  13.099 -0.5822 -0.1333  0.6311
  368MPD2    C2 5505   0.679   3.146  13.004  0.7963  0.3888  0.4515
  368MPD2    C3 5506   0.799   3.073  13.016 -0.1617  0.1290 -0.5576
  368MPD2    C4 5507   0.811   2.981  13.115  0.0028 -0.5485  0.4064
  368MPD2    C5 5508   0.707   2.959  13.203  0.4141 -0.2109  0.3644
  368MPD2     H 5509   0.669   3.227  12.932  0.1227 -0.5128 -0.4701
  368MPD2    H1 5510   0.897   2.916  13.116  1.2146  1.0681  2.5614
  368MPD2    H2 5511   0.516   3.016  13.269 -1.5808  4.8088  0.6924
  368MPD2    H3 5512   0.720   2.883  13.279  0.0052  0.3491  1.0036
  368MPD2     N 5513   0.909   3.086  12.943  0.2706 -0.0805 -0.8080
  368MPD2    H5 5514   0.995   3.054  12.988 -0.0777  0.2652  0.0935
  368MPD2    N1 5515   0.471   3.229  13.106 -0.3148  0.2212  0.0856
  368MPD2    H7 5516   0.414   3.238  13.189 -0.4619  1.3437 -0.1429
  369TMC3    C1 5517   0.333   3.404  13.048  0.1158 -0.2005  0.3380
  369TMC3    C2 5518   0.350   3.538  13.028 -0.7110 -0.4907  0.0258
  369TMC3    C3 5519   0.271   3.631  13.088  0.1453 -0.2318  0.2947
  369TMC3    C4 5520   0.232   3.358  13.128  0.8573 -0.3514 -0.0017
  369TMC3    C5 5521   0.147   3.459  13.180 -1.1023  0.2890  0.1621
  369TMC3    C6 5522   0.159   3.591  13.163 -0.3357 -0.0535  0.4011
  369TMC3     C 5523   0.442   3.323  13.011  0.1592  0.1977 -0.2420
  369TMC3     O 5524   0.496   3.348  12.906 -0.1824  0.3276 -0.4500
  369TMC3     H 5525   0.436   3.559  12.966  0.4909 -3.2486  0.7418
  369TMC3    H1 5526   0.209   3.253  13.138  1.9058 -0.6978 -1.2862
  369TMC3    H2 5527   0.097   3.653  13.227 -0.2617 -0.4977  0.9075
  369TMC3    C7 5528   0.066   3.411  13.290 -1.3973  0.2317  0.0348
  369TMC3    C8 5529   0.328   3.760  13.101  0.3028 -0.0903 -0.2648
  369TMC3    O1 5530   0.117   3.336  13.374 -0.3469 -0.0459 -0.7064
  369TMC3    O2 5531   0.442   3.758  13.066  0.2883  0.2122  0.3708
  370TMC3    C1 5532   0.569   4.279  16.474 -0.9515  0.4091 -0.0569
  370TMC3    C2 5533   0.506   4.197  16.562 -0.5873  1.2043 -0.0414
  370TMC3    C3 5534   0.413   4.109  16.515 -0.2636  0.0892  0.5370
  370TMC3    C4 5535   0.550   4.267  16.337 -0.4995  0.6063 -0.2931
  370TMC3    C5 5536   0.470   4.161  16.295  0.6892  0.2911 -0.5878
  370TMC3    C6 5537   0.406   4.075  16.380  0.2890  0.0634  0.6116
  370TMC3     C 5538   0.696   4.325  16.534  0.2680  0.0911  0.1307
  370TMC3     O 5539   0.736   4.254  16.627  0.2007  0.3650  0.2979
  370TMC3     H 5540   0.526   4.216  16.667  1.9549 -3.5311  0.3125
  370TMC3    H1 5541   0.607   4.323  16.264  0.3015  0.9994  0.6347
  370TMC3    H2 5542   0.325   4.014  16.342  1.0181 -0.2377 -0.4813
  370TMC3    C7 5543   0.503   4.104  16.166 -0.7944 -0.4837  0.3695
  370TMC3    C8 5544   0.376   4.001  16.599  0.1484 -0.9694 -0.0867
  370TMC3    O1 5545   0.554   4.177  16.083  0.8652  0.2341  0.2629
  370TMC3    O2 5546   0.366   3.893  16.548 -0.1428 -0.0584  0.2157
  371TMC3    C1 5547   1.473   2.262  15.509  0.0377  0.2983 -0.0676
  371TMC3    C2 5548   1.353   2.300  15.563  0.2853 -0.2629  0.1277
  371TMC3    C3 5549   1.318   2.434  15.558 -0.0196 -0.2400  0.5389
  371TMC3    C4 5550   1.560   2.349  15.456 -0.2202  0.2543 -0.0700
  371TMC3    C5 5551   1.523   2.476  15.443  0.2434 -0.1201  0.3262
  371TMC3    C6 5552   1.403   2.523  15.496  0.5234 -0.0392 -0.1161
  371TMC3     C 5553   1.515   2.124  15.501  0.1949  0.1981 -0.1271
  371TMC3     O 5554   1.595   2.114  15.409 -0.3182 -0.5240  0.7513
  371TMC3     H 5555   1.286   2.223  15.598  0.3738 -1.4379 -2.2865
  371TMC3    H1 5556   1.661   2.320  15.429 -1.1037 -2.1592 -0.8047
  371TMC3    H2 5557   1.387   2.628  15.476  2.2756 -0.5924 -4.4272
  371TMC3    C7 5558   1.595   2.566  15.349 -0.3912  0.7928 -0.5747
  371TMC3    C8 5559   1.178   2.460  15.577  0.2588  0.7326 -0.0543
  371TMC3    O1 5560   1.593   2.682  15.386  0.6093  0.0463 -0.6274
  371TMC3    O2 5561   1.107   2.361  15.560  0.0052  0.0628 -0.1379
  372MPD2     C 5562   1.093   3.717  12.786  0.8369  0.2238  0.2495
  372MPD2    C1 5563   1.169   3.707  12.909  0.4339 -0.7225 -0.1859
  372MPD2    C2 5564   1.109   3.636  13.014  0.1250 -0.7697 -0.4676
  372MPD2    C3 5565   0.986   3.578  13.006  0.0609  0.5441 -0.6099
  372MPD2    C4 5566   0.909   3.601  12.889 -0.0056 -0.2367  0.6727
  372MPD2    C5 5567   0.961   3.666  12.784 -0.1006  0.9387  0.8487
  372MPD2     H 5568   1.169   3.624  13.104 -1.4743 -0.6096  0.6236
  372MPD2    H1 5569   0.803   3.580  12.885 -0.1384  0.5382 -0.0038
  372MPD2    H2 5570   1.127   3.777  12.703  0.0997  0.4977  0.1461
  372MPD2    H3 5571   0.898   3.674  12.697  0.3718  0.4239  0.4588
  372MPD2     N 5572   0.935   3.506  13.117  0.0136  0.3844 -0.0030
  372MPD2    H5 5573   0.999   3.498  13.195 -0.6231  2.2052  0.7116
  372MPD2    N1 5574   1.302   3.747  12.920  0.3696 -0.1821  1.0885
  372MPD2    H7 5575   1.352   3.714  13.001  0.1387 -2.3026  0.3672
  373TMC3    C1 5576   0.784   3.402  13.256 -1.1293 -0.0061  0.3191
  373TMC3    C2 5577   0.666   3.432  13.326  0.6883 -0.3136  0.5460
  373TMC3    C3 5578   0.648   3.364  13.438 -0.4401 -0.1970  0.1656
  373TMC3    C4 5579   0.865   3.295  13.281 -0.0594 -0.6454  0.0830
  373TMC3    C5 5580   0.837   3.225  13.398  0.0787 -0.3004 -0.0950
  373TMC3    C6 5581   0.725   3.254  13.473 -0.6414 -0.2967 -0.0827
  373TMC3     C 5582   0.804   3.471  13.131 -0.0083  0.9981 -0.0799
  373TMC3     O 5583   0.702   3.509  13.068  0.1203 -0.3121 -0.0751
  373TMC3     H 5584   0.607   3.521  13.309  2.0518  0.1584 -1.7388
  373TMC3    H1 5585   0.941   3.257  13.214  0.7282 -1.5389  1.4643
  373TMC3    H2 5586   0.726   3.214  13.574 -0.7936 -1.8637 -0.6938
  373TMC3    C7 5587   0.914   3.107  13.423 -0.2896 -0.0466  0.7776
  373TMC3    C8 5588   0.660   3.458  13.545 -0.3116 -0.0594 -0.5706
  373TMC3    O1 5589   0.991   3.070  13.333  0.4759  0.1511 -0.3018
  373TMC3    O2 5590   0.722   3.559  13.523 -0.2187  0.8637  0.4347
  374TMC3    C1 5591   1.442   3.704   9.615  0.7849 -0.1568  0.6072
  374TMC3    C2 5592   1.502   3.812   9.662 -0.2998  0.1252  0.1290
  374TMC3    C3 5593   1.532   3.914   9.574  0.3127 -1.2360  0.7052
  374TMC3    C4 5594   1.408   3.694   9.481  0.2710 -0.2988 -0.1110
  374TMC3    C5 5595   1.449   3.791   9.394 -0.6003 -0.0839  0.3380
  374TMC3    C6 5596   1.507   3.908   9.437 -0.7735  0.4252  0.0958
  374TMC3     C 5597   1.396   3.598   9.707 -0.4666  0.3201 -0.7388
  374TMC3     O 5598   1.423   3.624   9.824  0.6779 -0.1687 -0.4715
  374TMC3     H 5599   1.515   3.824   9.769  1.9403 -2.1684  0.1068
  374TMC3    H1 5600   1.383   3.599   9.436 -0.2767  0.4385 -1.3559
  374TMC3    H2 5601   1.540   3.987   9.371 -0.2605 -0.3063 -0.5253
  374TMC3    C7 5602   1.411   3.796   9.251 -0.3616 -0.5007  0.2500
  374TMC3    C8 5603   1.616   4.025   9.623  0.4181 -0.1060  0.7043
  374TMC3    O1 5604   1.444   3.896   9.187 -0.6549  0.3938 -0.1881
  374TMC3    O2 5605   1.639   4.112   9.541  0.3644  0.1220 -0.7059
  375MPD2     C 5606   1.727   4.352  17.038  0.1572 -0.2469  0.6290
  375MPD2    C1 5607   1.603   4.309  16.990  0.1000 -0.0029 -0.0375
  375MPD2    C2 5608   1.588   4.262  16.860  0.1962 -0.2651  0.4324
  375MPD2    C3 5609   1.702   4.244  16.781  0.2298  0.7969 -0.3328
  375MPD2    C4 5610   1.823   4.270  16.834 -0.0980  0.1968 -0.5741
  375MPD2    C5 5611   1.835   4.320  16.959  0.4088 -0.5939 -0.1040
  375MPD2     H 5612   1.492   4.235  16.819  0.7884 -1.6430 -0.0689
  375MPD2    H1 5613   1.920   4.255  16.788 -0.1859 -0.5030 -0.5412
  375MPD2    H2 5614   1.750   4.395  17.135 -2.1805  1.1275  0.5623
  375MPD2    H3 5615   1.936   4.336  16.995 -0.4148  2.6142  0.7510
  375MPD2     N 5616   1.706   4.173  16.653 -0.4376  0.6176 -0.2707
  375MPD2    H5 5617   1.796   4.149  16.615 -0.0794  0.1774  0.8429
  375MPD2    N1 5618   1.480   4.326  17.063 -0.0592  0.2139 -0.0149
  375MPD2    H7 5619   1.393   4.286  17.030  1.3912 -1.9648 -1.1184
  376TMC3    C1 5620   1.636   4.057  16.475 -0.5287 -0.1148 -0.7373
  376TMC3    C2 5621   1.757   3.994  16.479  1.2393 -0.5065 -0.7524
  376TMC3    C3 5622   1.805   3.933  16.369 -0.1152 -0.2167 -0.3863
  376TMC3    C4 5623   1.563   4.062  16.358  0.4766  0.5802 -0.1761
  376TMC3    C5 5624   1.623   4.006  16.246  0.2076  0.9044  0.6671
  376TMC3    C6 5625   1.745   3.945  16.249  0.4145 -0.2527  0.5235
  376TMC3     C 5626   1.591   4.127  16.587 -0.4587 -0.1373 -0.6339
  376TMC3     O 5627   1.469   4.143  16.604  0.1785 -0.0338  0.0436
  376TMC3     H 5628   1.798   3.963  16.574 -1.2866 -0.7398  0.2552
  376TMC3    H1 5629   1.465   4.107  16.342  0.3413  1.0626  2.0352
  376TMC3    H2 5630   1.797   3.916  16.158 -1.5673 -1.4999 -0.1900
  376TMC3    C7 5631   1.564   4.041  16.119 -0.9515 -1.1803  0.1058
  376TMC3    C8 5632   1.939   3.864  16.353  0.1573 -0.2673  0.5917
  376TMC3    O1 5633   1.493   4.143  16.103 -0.6288 -0.2910  0.0430
  376TMC3    O2 5634   1.948   3.787  16.263 -0.0951  0.2010  0.2472
  377MPD2     C 5635   4.571   3.986  12.261  0.0056  0.2503 -0.0668
  377MPD2    C1 5636   4.640   4.035  12.369 -0.2594 -0.3131  0.4471
  377MPD2    C2 5637   4.577   4.031  12.493  0.1747  0.1293  0.2681
  377MPD2    C3 5638   4.461   3.959  12.515  0.9985  0.2393  0.3067
  377MPD2    C4 5639   4.406   3.894  12.403 -0.6932 -0.5928 -0.7012
  377MPD2    C5 5640   4.467   3.906  12.281  0.1563 -0.1450  0.1157
  377MPD2     H 5641   4.618   4.071  12.585 -0.2411  0.8548  0.1408
  377MPD2    H1 5642   4.310   3.844  12.408 -1.8121  1.6273  0.1203
  377MPD2    H2 5643   4.608   3.988  12.159  0.1863  1.0652  0.0152
  377MPD2    H3 5644   4.420   3.860  12.195 -0.5296 -2.3902  1.6942
  377MPD2     N 5645   4.407   3.953  12.646  0.0312 -0.3021  0.1886
  377MPD2    H5 5646   4.455   4.012  12.713 -0.6332 -2.2722  2.4198
  377MPD2    N1 5647   0.046   4.100  12.360  0.2760  0.1289 -0.0540
  377MPD2    H7 5648   0.073   4.125  12.266  0.1135  1.4297  0.2488
  378TMC3    C1 5649   0.313   4.223  12.174  0.4108  0.6947 -0.5863
  378TMC3    C2 5650   0.225   4.252  12.279  0.4554  0.1437 -0.2252
  378TMC3    C3 5651   0.249   4.186  12.397  0.0623 -0.4060 -0.3295
  378TMC3    C4 5652   0.422   4.142  12.182 -0.5595  0.4092 -0.0935
  378TMC3    C5 5653   0.427   4.064  12.300 -0.1415 -0.0685 -0.3564
  378TMC3    C6 5654   0.346   4.092  12.407  0.3154  0.9319  0.1941
  378TMC3     C 5655   0.245   4.217  12.040 -0.1213  0.5883  0.3488
  378TMC3     O 5656   0.269   4.110  11.977  0.0588  0.6200  0.1466
  378TMC3     H 5657   0.148   4.328  12.273  2.1667  1.8919 -0.0230
  378TMC3    H1 5658   0.480   4.121  12.093 -0.9471  0.0442 -0.2619
  378TMC3    H2 5659   0.348   4.029  12.496  3.1608  2.9014  1.5252
  378TMC3    C7 5660   0.549   3.992  12.328  0.8004  0.3899 -0.2568
  378TMC3    C8 5661   0.130   4.136  12.462  0.0197 -0.3807  0.5530
  378TMC3    O1 5662   0.569   3.985  12.448 -0.0947  0.6144  0.1657
  378TMC3    O2 5663   0.131   4.105  12.583  0.0804  0.1263 -0.3455
  379MPD2     C 5664   0.118   1.690  16.306  0.0557  0.5275  0.0255
  379MPD2    C1 5665   0.247   1.674  16.254 -0.0050  0.8086  0.0808
  379MPD2    C2 5666   0.345   1.636  16.348  0.0588  0.3043 -0.3515
  379MPD2    C3 5667   0.315   1.599  16.477  0.6875  0.3062 -0.3935
  379MPD2    C4 5668   0.185   1.613  16.518 -0.1648  0.4360 -0.0191
  379MPD2    C5 5669   0.088   1.663  16.434 -0.1764  0.4319 -0.0310
  379MPD2     H 5670   0.442   1.611  16.308 -0.3219 -0.9128 -0.5293
  379MPD2    H1 5671   0.156   1.596  16.621 -0.8499 -1.0323 -0.4591
  379MPD2    H2 5672   0.038   1.710  16.236 -1.2543 -2.9843  0.4723
  379MPD2    H3 5673   4.710   1.686  16.471  0.5421  0.9354  1.5622
  379MPD2     N 5674   0.414   1.552  16.569 -0.2717  0.2013 -0.2847
  379MPD2    H5 5675   0.385   1.523  16.661  1.4171 -0.5960 -0.0107
  379MPD2    N1 5676   0.266   1.708  16.121  0.4921 -0.0894 -0.3490
  379MPD2    H7 5677   0.178   1.734  16.078  0.2723  1.2286  0.8757
  380TMC3    C1 5678   0.393   1.795  15.943  0.0607  0.7426 -0.5113
  380TMC3    C2 5679   0.496   1.754  15.865  0.2557 -0.5340  0.3576
  380TMC3    C3 5680   0.482   1.782  15.727  0.4304 -0.4120 -0.9528
  380TMC3    C4 5681   0.283   1.867  15.902  0.7120  0.7041  0.1310
  380TMC3    C5 5682   0.287   1.904  15.771  0.0444  0.0261  0.5915
  380TMC3    C6 5683   0.376   1.848  15.677  0.0579  0.2606  0.5309
  380TMC3     C 5684   0.393   1.747  16.075  0.8296  0.5002  0.0318
  380TMC3     O 5685   0.502   1.726  16.120 -0.1790  0.0592 -0.2440
  380TMC3     H 5686   0.570   1.683  15.901 -0.6434 -0.1865  2.9016
  380TMC3    H1 5687   0.208   1.906  15.970 -0.6873  1.0551 -1.6443
  380TMC3    H2 5688   0.353   1.852  15.571 -1.5110 -0.3130  0.8464
  380TMC3    C7 5689   0.174   1.981  15.719  0.8035  0.0031  0.2369
  380TMC3    C8 5690   0.601   1.794  15.636  0.1696 -0.7281  0.8287
  380TMC3    O1 5691   0.076   2.001  15.790  0.0306 -0.1760 -0.2072
  380TMC3    O2 5692   0.577   1.833  15.523  0.2065  0.5364 -0.8141
  381TMC3    C1 5693   0.386   3.234  16.229 -0.4771 -0.2233  0.1997
  381TMC3    C2 5694   0.491   3.320  16.237  0.5027  0.0740  0.5891
  381TMC3    C3 5695   0.500   3.404  16.348  0.5558  0.9864  0.5469
  381TMC3    C4 5696   0.284   3.237  16.322 -0.2277  0.5683 -0.3293
  381TMC3    C5 5697   0.291   3.332  16.421 -0.1515 -0.5295  0.4031
  381TMC3    C6 5698   0.400   3.407  16.450 -0.2228  0.0070  0.2179
  381TMC3     C 5699   0.366   3.158  16.110 -1.3655  0.1746 -0.2300
  381TMC3     O 5700   0.437   3.186  16.016 -0.0647 -0.0129 -0.6799
  381TMC3     H 5701   0.564   3.317  16.157 -0.0630 -1.7143  0.1525
  381TMC3    H1 5702   0.192   3.181  16.308  0.9678 -1.4202 -0.2504
  381TMC3    H2 5703   0.396   3.480  16.530  0.0717 -0.6925  0.8725
  381TMC3    C7 5704   0.187   3.297  16.528  0.7286  0.3601  0.3650
  381TMC3    C8 5705   0.612   3.496  16.332  0.1066 -0.2683  0.6734
  381TMC3    O1 5706   0.154   3.181  16.525  0.2451  0.1839 -0.4718
  381TMC3    O2 5707   0.662   3.499  16.222  0.2028 -0.1774 -0.6256
  382MPD2     C 5708   3.916   0.953  17.198  1.1326  0.3840 -0.0548
  382MPD2    C1 5709   3.938   0.990  17.326 -0.3277 -0.6505  0.4140
  382MPD2    C2 5710   3.956   0.883  17.409  0.3727  0.0729  0.9365
  382MPD2    C3 5711   3.957   0.749  17.357  0.4406  0.0184 -1.3941
  382MPD2    C4 5712   3.940   0.714  17.226  0.0254 -0.5546 -0.5929
  382MPD2    C5 5713   3.926   0.827  17.149  0.5544  1.1921  0.0628
  382MPD2     H 5714   3.981   0.914  17.510 -0.1029  1.0951  0.7381
  382MPD2    H1 5715   3.937   0.611  17.191 -1.8779 -0.5860 -0.3356
  382MPD2    H2 5716   3.910   1.031  17.123 -0.5853  1.0113  0.7044
  382MPD2    H3 5717   3.917   0.826  17.041 -2.9865 -0.4192  0.3802
  382MPD2     N 5718   3.973   0.641  17.441  0.0194 -0.1241 -0.1792
  382MPD2    H5 5719   3.958   0.549  17.401  1.6890 -0.4357 -0.1017
  382MPD2    N1 5720   3.948   1.127  17.370  0.2605 -1.0549  0.6788
  382MPD2    H7 5721   3.933   1.147  17.468  1.7075  1.9455  0.2838
  383TMC3    C1 5722   3.972   0.511  17.625 -0.3906 -0.1666  0.5790
  383TMC3    C2 5723   3.853   0.457  17.604  0.0900 -0.7215  0.7556
  383TMC3    C3 5724   3.816   0.350  17.676  0.0003  0.0644  0.1651
  383TMC3    C4 5725   4.043   0.480   0.049 -0.3446  0.0323 -0.3340
  383TMC3    C5 5726   3.985   0.388   0.133  0.1613 -0.2781  0.1963
  383TMC3    C6 5727   3.873   0.314   0.103 -0.1918  0.0744 -0.1887
  383TMC3     C 5728   3.992   0.649  17.578 -0.1051  0.1771 -0.6169
  383TMC3     O 5729   4.043   0.737  17.651  0.3285 -0.3301  0.1974
  383TMC3     H 5730   3.784   0.497  17.530  1.9407  2.2917  0.6721
  383TMC3    H1 5731   4.140   0.528   0.057 -1.2893  1.3970  2.4903
  383TMC3    H2 5732   3.822   0.252   0.177 -0.6356 -0.6479 -1.1107
  383TMC3    C7 5733   4.059   0.337   0.250 -0.3309 -0.5098  0.3300
  383TMC3    C8 5734   3.694   0.279  17.629  0.0659  0.3881 -0.1779
  383TMC3    O1 5735   4.037   0.227   0.295  0.0521  0.3424 -0.0829
  383TMC3    O2 5736   3.606   0.343  17.568 -0.0450 -0.1675 -0.2263
  384MPD2     C 5737   1.386   1.747  12.320 -0.3154 -0.2792  0.0088
  384MPD2    C1 5738   1.358   1.612  12.334 -0.9952  0.1365  0.2177
  384MPD2    C2 5739   1.453   1.519  12.298 -0.0662 -0.2481 -0.5004
  384MPD2    C3 5740   1.564   1.554  12.233 -0.6293  0.6923 -0.6530
  384MPD2    C4 5741   1.594   1.688  12.213  0.3338 -0.3390 -0.3210
  384MPD2    C5 5742   1.501   1.779  12.255 -0.4023 -0.4399  0.3650
  384MPD2     H 5743   1.429   1.413  12.307 -1.2245 -0.1239 -2.0621
  384MPD2    H1 5744   1.680   1.726  12.159  0.6369  1.2350  1.2522
  384MPD2    H2 5745   1.315   1.823  12.350 -0.0342  0.0585 -0.1908
  384MPD2    H3 5746   1.533   1.882  12.243 -0.3355 -0.2932  1.8096
  384MPD2     N 5747   1.648   1.452  12.187 -0.2498  0.2636 -0.5210
  384MPD2    H5 5748   1.601   1.362  12.196 -0.2493  0.3559  0.4146
  384MPD2    N1 5749   1.230   1.568  12.372  0.4960 -0.0088  0.0738
  384MPD2    H7 5750   1.230   1.467  12.378  2.8102 -0.1067 -1.3940
  385TMC3    C1 5751   1.812   1.324  12.094 -0.0252 -0.4264  0.1397
  385TMC3    C2 5752   1.876   1.329  11.975  0.2897 -0.3720 -0.2704
  385TMC3    C3 5753   1.815   1.262  11.874  0.4113 -0.0845  0.3732
  385TMC3    C4 5754   1.708   1.231  12.114 -0.5663  0.1153 -0.1624
  385TMC3    C5 5755   1.657   1.152  12.010  0.0660  0.1852 -0.2063
  385TMC3    C6 5756   1.700   1.190  11.886 -1.0842  0.0398 -0.3949
  385TMC3     C 5757   1.769   1.460  12.134 -0.5183 -0.6199  0.4826
  385TMC3     O 5758   1.825   1.559  12.089  0.0738  0.1698  0.1001
  385TMC3     H 5759   1.951   1.406  11.960  0.5671 -0.2584  1.7111
  385TMC3    H1 5760   1.671   1.201  12.212  2.2337  0.1078  0.8868
  385TMC3    H2 5761   1.645   1.146  11.803  1.8186 -2.7912 -0.8358
  385TMC3    C7 5762   1.517   1.165  12.024  0.3510 -0.7977 -0.5687
  385TMC3    C8 5763   1.858   1.296  11.746 -0.2337 -0.3543  0.3056
  385TMC3    O1 5764   1.482   1.262  12.091 -0.1271 -0.0860  0.2589
  385TMC3    O2 5765   1.978   1.304  11.719  0.0127  0.0728 -0.0380
  386TMC3    C1 5766   1.280   4.158  12.100 -0.2364 -0.3785 -0.3350
  386TMC3    C2 5767   1.227   4.146  11.973  0.9617  0.0850  0.5926
  386TMC3    C3 5768   1.084   4.168  11.959 -0.3251 -0.2001 -0.2541
  386TMC3    C4 5769   1.197   4.185  12.209 -0.5535 -0.4487 -0.6092
  386TMC3    C5 5770   1.063   4.190  12.192 -0.6964  1.0380 -0.6649
  386TMC3    C6 5771   0.999   4.187  12.071 -0.8140 -0.2316 -0.6103
  386TMC3     C 5772   1.418   4.142  12.119  0.2791  0.3354  0.4576
  386TMC3     O 5773   1.475   4.198  12.213  0.3632 -0.3774  0.3790
  386TMC3     H 5774   1.288   4.123  11.886 -0.4287  0.4083 -0.4677
  386TMC3    H1 5775   1.248   4.181  12.305  0.5301 -0.1569 -1.1780
  386TMC3    H2 5776   0.891   4.182  12.059 -0.5962  1.2109 -3.1768
  386TMC3    C7 5777   0.990   4.216  12.311  0.5364 -0.2031  0.4627
  386TMC3    C8 5778   1.012   4.135  11.840  0.7331  0.4726  0.2024
  386TMC3    O1 5779   1.040   4.187  12.422 -0.1072  0.7952 -0.6199
  386TMC3    O2 5780   0.891   4.115  11.853 -0.5160  0.7511  0.2240
  387MPD2     C 5781   3.484   3.575   9.427  0.3111  0.1602  0.6524
  387MPD2    C1 5782   3.613   3.620   9.442  0.0932 -1.1448  0.2246
  387MPD2    C2 5783   3.724   3.537   9.419 -0.1346  0.9604  0.7728
  387MPD2    C3 5784   3.710   3.402   9.380  0.0885  0.4248  0.6025
  387MPD2    C4 5785   3.577   3.360   9.344 -0.7458  0.2037  0.3567
  387MPD2    C5 5786   3.469   3.444   9.376 -0.1060 -0.4959  0.2524
  387MPD2     H 5787   3.820   3.585   9.434  0.5875 -0.5679  0.9756
  387MPD2    H1 5788   3.544   3.264   9.305  4.9540 -0.2674 -3.2815
  387MPD2    H2 5789   3.405   3.642   9.457  0.3044  0.2480  0.4382
  387MPD2    H3 5790   3.370   3.401   9.369 -0.5063  0.8130 -2.3869
  387MPD2     N 5791   3.821   3.322   9.387 -0.2814  0.0436  0.3666
  387MPD2    H5 5792   3.901   3.372   9.425 -0.1381 -2.0822  2.8370
  387MPD2    N1 5793   3.656   3.747   9.496 -0.2353 -0.1224 -0.2639
  387MPD2    H7 5794   3.756   3.754   9.513  0.1143 -1.4017 -1.7780
  388TMC3    C1 5795   3.653   3.936   9.630 -0.1790 -0.0629  0.2524
  388TMC3    C2 5796   3.641   4.074   9.613 -0.2576  0.8535  0.6389
  388TMC3    C3 5797   3.729   4.154   9.692  0.0321 -0.2060 -0.0809
  388TMC3    C4 5798   3.744   3.883   9.719  0.4179 -0.3968  0.0210
  388TMC3    C5 5799   3.825   3.966   9.795  0.3128 -0.3195  0.1794
  388TMC3    C6 5800   3.821   4.100   9.782  0.0675 -0.3295 -0.4758
  388TMC3     C 5801   3.577   3.848   9.547  0.0113  0.0337  0.4059
  388TMC3     O 5802   3.462   3.878   9.525  0.0615 -0.4445 -0.4919
  388TMC3     H 5803   3.571   4.120   9.543  1.3091 -0.6424 -1.8926
  388TMC3    H1 5804   3.735   3.777   9.741  1.8152 -0.1201  1.8782
  388TMC3    H2 5805   3.883   4.162   9.846 -1.9208  0.7046  0.4322
  388TMC3    C7 5806   3.928   3.905   9.880  0.3832  0.5076  0.3310
  388TMC3    C8 5807   3.722   4.301   9.682 -0.2496  0.3718 -0.0375
  388TMC3    O1 5808   3.996   3.965   9.960 -0.5581 -0.3201 -0.1449
  388TMC3    O2 5809   3.620   4.326   9.617 -0.3586  0.3440  0.0840
  389MPD2     C 5810   3.316   2.557  10.915  0.3015  0.1063 -0.7493
  389MPD2    C1 5811   3.272   2.428  10.872 -0.0575  0.4640  0.0071
  389MPD2    C2 5812   3.238   2.329  10.965  0.1136 -0.1058 -0.1247
  389MPD2    C3 5813   3.238   2.359  11.100 -0.1894 -0.3912 -0.3596
  389MPD2    C4 5814   3.289   2.480  11.140 -0.8060  0.3890  0.2179
  389MPD2    C5 5815   3.333   2.577  11.053 -0.3248 -0.8660  0.3294
  389MPD2     H 5816   3.202   2.233  10.931  2.3597 -2.1672  3.3333
  389MPD2    H1 5817   3.297   2.493  11.248  0.5752 -2.5053  0.4542
  389MPD2    H2 5818   3.344   2.637  10.849 -0.1350 -0.5320 -1.7000
  389MPD2    H3 5819   3.369   2.672  11.092 -1.9627  0.3412 -1.0575
  389MPD2     N 5820   3.203   2.269  11.208  0.0454  0.0939 -0.3928
  389MPD2    H5 5821   3.216   2.303  11.303  0.9405  2.5763 -1.4052
  389MPD2    N1 5822   3.262   2.410  10.730  0.2435 -0.0232 -0.1213
  389MPD2    H7 5823   3.290   2.487  10.669 -2.2112 -0.0601 -1.2984
  390TMC3    C1 5824   3.130   2.078  11.317 -0.3210 -0.6947  0.0664
  390TMC3    C2 5825   3.093   1.942  11.299  0.7850 -0.2175 -0.0805
  390TMC3    C3 5826   3.015   1.888  11.403 -0.5007 -0.8668 -0.1984
  390TMC3    C4 5827   3.071   2.146  11.425 -0.6056 -0.5392 -0.6119
  390TMC3    C5 5828   2.994   2.083  11.523  0.1468  0.0571  0.3984
  390TMC3    C6 5829   2.978   1.948  11.517  0.2404 -0.7519 -0.3068
  390TMC3     C 5830   3.161   2.140  11.195  0.2018 -0.7648  0.2300
  390TMC3     O 5831   3.132   2.076  11.092  0.2511 -0.1699 -0.0369
  390TMC3     H 5832   3.114   1.880  11.213 -0.0941  0.6340 -0.8950
  390TMC3    H1 5833   3.074   2.254  11.423 -0.7448 -0.5287 -0.3610
  390TMC3    H2 5834   2.931   1.886  11.591 -1.2150  0.4121 -0.2453
  390TMC3    C7 5835   2.869   2.156  11.559 -0.1285  0.3384  0.1121
  390TMC3    C8 5836   2.924   1.776  11.357 -0.4967 -0.0333 -0.1594
  390TMC3    O1 5837   2.854   2.266  11.501  0.3408  0.1065 -0.1438
  390TMC3    O2 5838   2.979   1.686  11.291 -0.3168  0.1504 -0.0752
  391MPD2     C 5839   1.966   3.698  11.102  0.4724 -0.4074 -0.8188
  391MPD2    C1 5840   2.091   3.757  11.080 -0.0041 -0.5885 -0.1654
  391MPD2    C2 5841   2.125   3.775  10.946  0.2259 -0.1751  0.4075
  391MPD2    C3 5842   2.050   3.720  10.850 -1.0626 -0.2761 -0.1230
  391MPD2    C4 5843   1.946   3.634  10.875 -0.4367  0.2328 -0.2205
  391MPD2    C5 5844   1.906   3.621  11.005 -0.3099  0.3722 -0.2272
  391MPD2     H 5845   2.203   3.845  10.922  1.3911 -0.8217  2.2676
  391MPD2    H1 5846   1.886   3.585  10.799  1.8942  0.1791 -2.0269
  391MPD2    H2 5847   1.926   3.699  11.202 -0.9588 -1.2979 -1.3781
  391MPD2    H3 5848   1.825   3.553  11.029 -0.3977 -0.1382 -2.0052
  391MPD2     N 5849   2.076   3.763  10.716 -0.0372 -0.0251  0.0262
  391MPD2    H5 5850   2.165   3.812  10.713 -0.8030  1.4823  1.9631
  391MPD2    N1 5851   2.172   3.812  11.182  0.5448 -0.0982  0.8541
  391MPD2    H7 5852   2.134   3.811  11.276 -1.2231  1.3872  0.1634
  392TMC3    C1 5853   2.058   3.766  10.480  0.4831  1.2721  0.9787
  392TMC3    C2 5854   1.980   3.819  10.385  0.2072 -0.6340  0.1802
  392TMC3    C3 5855   2.035   3.879  10.274 -0.2877  0.1600 -0.2554
  392TMC3    C4 5856   2.198   3.768  10.472  0.3197 -0.2574  0.4141
  392TMC3    C5 5857   2.249   3.821  10.356  0.1295 -0.5056 -0.2258
  392TMC3    C6 5858   2.173   3.885  10.262  0.1063 -0.1027  0.4104
  392TMC3     C 5859   1.991   3.750  10.607 -0.2536 -0.1418 -0.0545
  392TMC3     O 5860   1.870   3.738  10.605 -0.5415 -0.3413 -0.0055
  392TMC3     H 5861   1.872   3.829  10.398  0.4996  1.4615  1.1070
  392TMC3    H1 5862   2.267   3.730  10.547 -1.5662 -0.6506  1.9606
  392TMC3    H2 5863   2.218   3.923  10.171 -1.1434 -2.1634 -1.0562
  392TMC3    C7 5864   2.393   3.826  10.348  0.0455 -0.2767  0.4286
  392TMC3    C8 5865   1.951   3.938  10.171  1.2404 -0.3079  0.0209
  392TMC3    O1 5866   2.456   3.811  10.451 -0.6110  0.1856 -0.9373
  392TMC3    O2 5867   1.833   3.922  10.186 -0.0188 -0.2256 -0.0974
  393TMC3    C1 5868   1.563   1.653  10.410  0.2132 -0.0260  0.2321
  393TMC3    C2 5869   1.539   1.714  10.530 -0.1924  0.3709  0.6195
  393TMC3    C3 5870   1.504   1.638  10.637  0.7668  0.4814 -0.1716
  393TMC3    C4 5871   1.548   1.515  10.404  0.0889  0.6005 -0.4436
  393TMC3    C5 5872   1.518   1.442  10.513  0.9621  0.4097  0.3843
  393TMC3    C6 5873   1.503   1.499  10.631 -0.3097  0.0357  0.6971
  393TMC3     C 5874   1.585   1.729  10.294  0.4642 -0.0499 -0.4185
  393TMC3     O 5875   1.590   1.670  10.186  0.0501 -0.7336 -0.2152
  393TMC3     H 5876   1.514   1.819  10.536  3.4343  1.3687 -1.7271
  393TMC3    H1 5877   1.581   1.462  10.316 -1.7671 -1.7845  0.2944
  393TMC3    H2 5878   1.485   1.438  10.719 -0.7455  0.7046  1.0735
  393TMC3    C7 5879   1.574   1.310  10.512  0.0547 -0.3542 -0.7404
  393TMC3    C8 5880   1.492   1.704  10.769  0.5687 -0.2586  0.0873
  393TMC3    O1 5881   1.513   1.220  10.570  0.1333 -0.7269 -0.3050
  393TMC3    O2 5882   1.426   1.654  10.859  0.4908 -0.1937 -0.1086
  394TMC3    C1 5883   3.204   2.302  10.523 -0.3302  0.3236 -0.4268
  394TMC3    C2 5884   3.112   2.233  10.449  0.5615 -0.1620  0.8544
  394TMC3    C3 5885   3.106   2.253  10.317  0.2061  0.6565 -0.7583
  394TMC3    C4 5886   3.296   2.381  10.463  0.5024 -0.3177 -0.4866
  394TMC3    C5 5887   3.294   2.392  10.324 -0.3004  0.1187 -0.2322
  394TMC3    C6 5888   3.199   2.330  10.248  0.1648  0.5938 -1.5302
  394TMC3     C 5889   3.196   2.304  10.666 -0.4756 -0.5760 -0.2265
  394TMC3     O 5890   3.116   2.228  10.722 -0.2236  0.4763  0.5393
  394TMC3     H 5891   3.043   2.169  10.504  0.1313  1.0625  1.7524
  394TMC3    H1 5892   3.384   2.413  10.518 -0.2169  0.3331  0.2658
  394TMC3    H2 5893   3.212   2.322  10.141 -0.9904 -0.5144 -1.5868
  394TMC3    C7 5894   3.386   2.481  10.252  0.2813  0.7757 -0.1548
  394TMC3    C8 5895   3.005   2.167  10.244 -0.5509  0.3238  0.0691
  394TMC3    O1 5896   3.363   2.498  10.135 -0.7865 -0.1805  0.0216
  394TMC3    O2 5897   2.976   2.213  10.133 -0.6002 -0.3920  0.0578
  395TMC3    C1 5898   1.981   4.149  14.480 -0.0707  0.3282  0.0996
  395TMC3    C2 5899   1.866   4.121  14.554  0.6319  0.3478  0.0042
  395TMC3    C3 5900   1.845   4.179  14.672  0.5083 -0.0019  0.1680
  395TMC3    C4 5901   2.077   4.233  14.532  0.1091  0.4682  0.2174
  395TMC3    C5 5902   2.048   4.279  14.660 -0.1779 -0.4375  0.1958
  395TMC3    C6 5903   1.939   4.251  14.740  0.0084  0.3819 -0.0789
  395TMC3     C 5904   2.042   4.030  14.424  0.4094  0.2156  0.7588
  395TMC3     O 5905   2.011   3.931  14.483  0.1038 -0.1068 -0.0306
  395TMC3     H 5906   1.784   4.064  14.513 -0.9908 -0.1195  3.9452
  395TMC3    H1 5907   2.164   4.254  14.470 -0.4420 -1.3398 -1.1859
  395TMC3    H2 5908   1.936   4.269  14.847  1.8596 -0.3955  0.1023
  395TMC3    C7 5909   2.162   4.314  14.749 -0.3941  0.3150 -0.2641
  395TMC3    C8 5910   1.785   4.075  14.765 -0.0483  0.0791 -0.1176
  395TMC3    O1 5911   2.139   4.376  14.851  0.3467 -0.5904  0.3568
  395TMC3    O2 5912   1.764   4.105  14.882  0.9211  0.3184  0.5939
  396MPD2     C 5913   2.380   0.302  17.151  0.4017 -0.2288  0.1319
  396MPD2    C1 5914   2.435   0.392  17.235  0.7493 -0.0724 -0.1288
  396MPD2    C2 5915   2.499   0.506  17.179 -0.4906 -0.5449 -0.0187
  396MPD2    C3 5916   2.494   0.527  17.043  0.5414  0.2436 -0.0498
  396MPD2    C4 5917   2.432   0.435  16.967 -0.3664  0.7510 -0.5052
  396MPD2    C5 5918   2.381   0.325  17.021 -0.4048 -0.1795 -0.3465
  396MPD2     H 5919   2.550   0.575  17.246 -1.3902 -2.2708  2.4470
  396MPD2    H1 5920   2.442   0.436  16.859 -0.1297 -1.5432 -0.4946
  396MPD2    H2 5921   2.352   0.206  17.193  0.8561 -0.3682  0.1169
  396MPD2    H3 5922   2.346   0.238  16.968  1.4373 -0.2218 -1.5277
  396MPD2     N 5923   2.557   0.640  16.993 -1.0499  0.2341 -0.2478
  396MPD2    H5 5924   2.613   0.688  17.062  0.9740  3.0450 -3.9128
  396MPD2    N1 5925   2.432   0.363  17.374 -0.4722  0.8570 -0.1120
  396MPD2    H7 5926   2.391   0.273  17.394  0.6453 -0.0512 -1.9495
  397TMC3    C1 5927   2.518   0.355  17.592 -0.0924 -0.2434 -0.0466
  397TMC3    C2 5928   2.645   0.317  17.575  1.0157 -0.8265  0.0003
  397TMC3    C3 5929   2.680   0.188  17.541 -0.6518 -0.3280 -0.2012
  397TMC3    C4 5930   2.425   0.257  17.615  0.3026  0.1901 -0.4351
  397TMC3    C5 5931   2.461   0.127  17.599  0.4407 -0.4913 -1.3835
  397TMC3    C6 5932   2.583   0.086  17.550 -0.7339  0.1541 -0.6474
  397TMC3     C 5933   2.496   0.433  17.474 -0.7232 -0.0545 -0.5347
  397TMC3     O 5934   2.536   0.549  17.466 -0.5401  0.8525  0.4249
  397TMC3     H 5935   2.717   0.397  17.561 -0.3052  0.0029 -1.9338
  397TMC3    H1 5936   2.328   0.280  17.659 -0.0627 -0.5019 -0.8703
  397TMC3    H2 5937   2.608   4.703  17.532 -1.7224 -0.8026  3.5253
  397TMC3    C7 5938   2.384   0.022  17.658  0.1019 -0.5817 -0.5260
  397TMC3    C8 5939   2.766   0.174  17.421 -0.1327  0.2131 -0.8440
  397TMC3    O1 5940   2.371   4.643  17.595 -0.2977 -0.0433  0.4502
  397TMC3    O2 5941   2.723   0.099  17.329  0.4039  0.3420  0.0970
  398MPD2     C 5942   0.553   1.202   0.467  0.5710 -0.0158  0.0256
  398MPD2    C1 5943   0.666   1.144   0.418  0.0750 -0.0470  0.2952
  398MPD2    C2 5944   0.737   1.215   0.325 -0.9650 -0.3599 -0.1524
  398MPD2    C3 5945   0.708   1.341   0.290 -0.0853 -0.8054  0.6554
  398MPD2    C4 5946   0.603   1.406   0.345 -0.0615  0.3608  0.8114
  398MPD2    C5 5947   0.526   1.335   0.435 -0.1254  0.3835 -1.0301
  398MPD2     H 5948   0.826   1.160   0.296 -0.8382  0.1930 -0.8187
  398MPD2    H1 5949   0.571   1.505   0.315 -1.5212 -0.3817 -0.1044
  398MPD2    H2 5950   0.487   1.153   0.538  1.9418  0.3557  1.5615
  398MPD2    H3 5951   0.443   1.390   0.478  1.7874  0.5722  2.5017
  398MPD2     N 5952   0.793   1.400   0.198  0.2155  1.0203  0.1508
  398MPD2    H5 5953   0.877   1.349   0.171 -0.0920  1.0484 -0.8633
  398MPD2    N1 5954   0.709   1.017   0.459  0.0474  0.2641  0.1963
  398MPD2    H7 5955   0.787   0.988   0.402 -1.4327 -0.6211 -1.3458
  399TMC3    C1 5956   0.711   0.803   0.575 -0.4576  0.2014  0.0129
  399TMC3    C2 5957   0.847   0.805   0.592  0.4348 -0.3603  0.9133
  399TMC3    C3 5958   0.903   0.699   0.661  0.0755  0.4746 -0.2118
  399TMC3    C4 5959   0.634   0.691   0.606  0.3201  1.0078 -0.0972
  399TMC3    C5 5960   0.702   0.581   0.660 -0.5586 -0.1914 -0.3479
  399TMC3    C6 5961   0.831   0.591   0.691 -0.2436 -0.0042  0.1390
  399TMC3     C 5962   0.638   0.924   0.539 -0.3313 -0.8760  0.0339
  399TMC3     O 5963   0.532   0.936   0.599 -0.2653  0.3377  0.3943
  399TMC3     H 5964   0.894   0.902   0.583  1.0511 -0.8215 -0.7372
  399TMC3    H1 5965   0.526   0.694   0.592  0.2004 -2.5497 -0.0278
  399TMC3    H2 5966   0.877   0.504   0.735  0.3541  0.6809  0.8718
  399TMC3    C7 5967   0.632   0.461   0.713  0.2611 -0.1499  0.1477
  399TMC3    C8 5968   1.037   0.705   0.708  0.5826 -0.0573  0.3419
  399TMC3    O1 5969   0.689   0.403   0.805 -0.0871 -0.0181 -0.2921
  399TMC3    O2 5970   1.129   0.740   0.632 -0.4589 -0.6807 -0.5138
  400TMC3    C1 5971   3.995   4.711  17.388 -0.2053  0.1389  1.2927
  400TMC3    C2 5972   3.905   4.616  17.359 -0.8780 -0.1646  0.0722
  400TMC3    C3 5973   3.779   4.658  17.325  0.8613 -0.5065  0.0035
  400TMC3    C4 5974   3.969   0.125  17.375 -0.4192  0.3852  0.6062
  400TMC3    C5 5975   3.848   0.161  17.329  0.8826  0.0933 -0.0709
  400TMC3    C6 5976   3.749   0.069  17.320 -0.1023  0.3833 -0.2381
  400TMC3     C 5977   4.094   4.662  17.476 -0.2967 -0.3388  0.2929
  400TMC3     O 5978   4.096   4.542  17.493  0.3611 -0.2138 -0.3862
  400TMC3     H 5979   3.908   4.508  17.358 -2.3279 -0.2109  0.4588
  400TMC3    H1 5980   4.056   0.189  17.379  0.6592 -1.2910  3.8926
  400TMC3    H2 5981   3.647   0.095  17.294  0.7148  1.9328 -1.9297
  400TMC3    C7 5982   3.823   0.299  17.289 -1.0684 -0.2226 -0.3192
  400TMC3    C8 5983   3.667   4.567  17.336  0.3667 -0.4099  0.3488
  400TMC3    O1 5984   3.901   0.384  17.325 -0.2133  0.4793  0.1510
  400TMC3    O2 5985   3.675   4.476  17.418 -0.0466  0.5723 -0.1797
  401MPD2     C 5986   1.877   3.512   0.564 -0.1947 -0.5900  0.3501
  401MPD2    C1 5987   1.897   3.422   0.664  0.3484  0.3459  0.2587
  401MPD2    C2 5988   1.834   3.302   0.652  0.2479  0.1559  0.1934
  401MPD2    C3 5989   1.760   3.267   0.542 -0.0299 -0.1258 -0.3314
  401MPD2    C4 5990   1.759   3.355   0.433 -0.2016 -0.2265  0.5920
  401MPD2    C5 5991   1.819   3.475   0.446 -0.3920  0.6240  0.2425
  401MPD2     H 5992   1.844   3.227   0.730  0.3476  2.0422  1.9990
  401MPD2    H1 5993   1.714   3.326   0.339  1.2752  1.0224 -0.4951
  401MPD2    H2 5994   1.914   3.614   0.574  1.5089 -1.1569 -0.2993
  401MPD2    H3 5995   1.812   3.557   0.375 -0.1959 -0.0966 -0.6035
  401MPD2     N 5996   1.697   3.141   0.539 -0.3746 -0.4411 -0.8546
  401MPD2    H5 5997   1.703   3.094   0.629  1.0187  0.2641 -0.5739
  401MPD2    N1 5998   1.952   3.450   0.793  0.9491 -0.5796  0.5539
  401MPD2    H7 5999   1.942   3.366   0.850 -1.9088 -0.0607  0.8090
  402TMC3    C1 6000   1.627   2.937   0.458 -0.2591  0.1013 -0.2184
  402TMC3    C2 6001   1.624   2.901   0.592 -0.5298  0.0458  0.2951
  402TMC3    C3 6002   1.690   2.787   0.624  0.0485 -0.4246  0.1985
  402TMC3    C4 6003   1.682   2.857   0.362  0.8203 -0.6112  0.4697
  402TMC3    C5 6004   1.743   2.745   0.397 -0.2055 -0.6434  0.9304
  402TMC3    C6 6005   1.754   2.710   0.533 -0.7498  0.3585  0.4233
  402TMC3     C 6006   1.637   3.080   0.431 -0.1775 -0.3118 -1.0531
  402TMC3     O 6007   1.623   3.116   0.313 -0.0622 -0.7153 -0.5403
  402TMC3     H 6008   1.565   2.959   0.662 -1.1525  1.4625 -1.3888
  402TMC3    H1 6009   1.679   2.894   0.260 -1.8980 -1.2011  0.3509
  402TMC3    H2 6010   1.798   2.616   0.564  0.6332  0.8840  0.0396
  402TMC3    C7 6011   1.826   2.673   0.295  0.0002 -0.0780  0.0618
  402TMC3    C8 6012   1.728   2.761   0.762  0.4925  0.0981  0.3293
  402TMC3    O1 6013   1.803   2.702   0.177 -0.9419  0.0891  0.0681
  402TMC3    O2 6014   1.806   2.666   0.783 -0.0932 -0.1038 -0.6693
  403MPD2     C 6015   0.782   1.347  13.240  0.3911  0.0545 -0.1704
  403MPD2    C1 6016   0.711   1.430  13.318  0.2363 -0.9855  0.0544
  403MPD2    C2 6017   0.769   1.518  13.402 -0.4094 -0.1444  0.5305
  403MPD2    C3 6018   0.913   1.527  13.413  0.7668  0.1305  0.3043
  403MPD2    C4 6019   0.984   1.452  13.322 -0.6578  0.0069 -0.4611
  403MPD2    C5 6020   0.917   1.363  13.242 -0.2950  0.4441  0.0432
  403MPD2     H 6021   0.705   1.577  13.467  2.6434  1.6694  1.8907
  403MPD2    H1 6022   1.092   1.462  13.321 -0.6196 -0.3849 -0.3556
  403MPD2    H2 6023   0.728   1.287  13.167  1.2829  1.2880 -1.8347
  403MPD2    H3 6024   0.971   1.300  13.173 -2.9832 -1.0075 -0.7366
  403MPD2     N 6025   0.981   1.615  13.499  0.2361 -0.7162  0.4298
  403MPD2    H5 6026   1.076   1.590  13.521  0.0012 -0.6507  1.5286
  403MPD2    N1 6027   0.571   1.422  13.306 -0.1662  0.4969 -1.1414
  403MPD2    H7 6028   0.537   1.368  13.227 -1.3929 -0.1343 -0.1904
  404TMC3    C1 6029   0.356   1.377  13.373 -0.1417 -0.0036  0.2258
  404TMC3    C2 6030   0.316   1.293  13.470  0.4932  0.9570 -0.1063
  404TMC3    C3 6031   0.246   1.178  13.433 -0.7507  0.4698  0.0524
  404TMC3    C4 6032   0.324   1.364  13.240 -0.0023  0.2051  1.2933
  404TMC3    C5 6033   0.260   1.247  13.204 -0.3022 -0.0996 -0.2853
  404TMC3    C6 6034   0.225   1.156  13.302 -0.2374  0.0252  0.2105
  404TMC3     C 6035   0.478   1.455  13.399 -0.0264  0.7755 -0.3624
  404TMC3     O 6036   0.490   1.514  13.506 -0.5227  0.0054 -0.4971
  404TMC3     H 6037   0.351   1.317  13.570  1.2912 -1.1028  0.1071
  404TMC3    H1 6038   0.363   1.434  13.167 -0.6234  0.2100  0.9637
  404TMC3    H2 6039   0.177   1.060  13.286  1.3569 -0.9649  1.3517
  404TMC3    C7 6040   0.284   1.204  13.064 -0.3564 -0.2176  0.6982
  404TMC3    C8 6041   0.252   1.067  13.517 -0.4228  0.3844  0.1617
  404TMC3    O1 6042   0.385   1.240  13.007 -0.1191 -0.1712 -0.7117
  404TMC3    O2 6043   0.245   0.957  13.465 -0.6538 -0.0643 -0.1115
  405MPD2     C 6044   1.250   2.916  14.115  0.1385 -0.1311 -0.2657
  405MPD2    C1 6045   1.136   2.909  14.184 -1.0053 -0.7899  0.1133
  405MPD2    C2 6046   1.042   3.005  14.162 -0.0230 -0.2255 -0.4183
  405MPD2    C3 6047   1.056   3.097  14.062 -0.1707 -0.1301 -0.2021
  405MPD2    C4 6048   1.176   3.109  14.002 -1.0366  0.0327  0.1662
  405MPD2    C5 6049   1.274   3.016  14.020 -0.1641  0.4521 -0.7348
  405MPD2     H 6050   0.950   3.001  14.219 -1.3828 -0.0215 -2.5960
  405MPD2    H1 6051   1.202   3.177  13.922  0.8761  0.8213  1.4374
  405MPD2    H2 6052   1.332   2.847  14.134 -0.2183 -0.5123 -0.1200
  405MPD2    H3 6053   1.367   3.023  13.965  0.6957 -0.4855  0.6097
  405MPD2     N 6054   0.952   3.187  14.022 -0.3040  0.0492 -0.0619
  405MPD2    H5 6055   0.962   3.235  13.933 -0.5234  1.8281  0.8889
  405MPD2    N1 6056   1.121   2.805  14.281  0.3467 -0.0694 -0.1559
  405MPD2    H7 6057   1.195   2.735  14.278  0.7766  0.4808 -2.1664
  406TMC3    C1 6058   0.504   3.189  14.088 -0.4889 -0.0092  0.4844
  406TMC3    C2 6059   0.497   3.107  13.976  0.5967 -0.0710 -0.1275
  406TMC3    C3 6060   0.598   3.118  13.877 -0.0394  0.8086  0.0161
  406TMC3    C4 6061   0.614   3.263  14.105  0.5190 -0.0671  0.4467
  406TMC3    C5 6062   0.724   3.259  14.025  0.6653 -0.6505  0.2054
  406TMC3    C6 6063   0.711   3.188  13.911 -0.2306  0.0717 -0.5596
  406TMC3     C 6064   0.389   3.220  14.165  0.3443 -0.0788 -0.5699
  406TMC3     O 6065   0.367   3.339  14.189 -0.3721  0.0623  0.2637
  406TMC3     H 6066   0.417   3.035  13.960  2.6203 -2.7186  1.6252
  406TMC3    H1 6067   0.627   3.322  14.195  1.4327 -0.4246  0.5533
  406TMC3    H2 6068   0.800   3.179  13.850  0.2677  0.0733  0.1615
  406TMC3    C7 6069   0.842   3.213  14.099  0.0616 -0.2286 -0.9688
  406TMC3    C8 6070   0.624   2.996  13.806  0.0773 -0.1785  0.0678
  406TMC3    O1 6071   0.814   3.180  14.212 -0.1197 -0.2641 -0.6010
  406TMC3    O2 6072   0.619   3.006  13.683 -0.0913 -0.2063 -0.8089
  407MPD2     C 6073   3.128   3.364   9.643 -0.4965  0.7645  0.0540
  407MPD2    C1 6074   3.124   3.502   9.629 -0.0415  0.1010  0.4722
  407MPD2    C2 6075   3.138   3.581   9.741 -0.1788  0.1536 -0.1759
  407MPD2    C3 6076   3.154   3.528   9.868  0.2435  0.3236  0.8684
  407MPD2    C4 6077   3.169   3.392   9.878 -0.7363 -0.2603  0.4251
  407MPD2    C5 6078   3.143   3.312   9.768 -0.3538 -0.3336  0.8121
  407MPD2     H 6079   3.115   3.686   9.733 -0.7868  0.1153  1.0675
  407MPD2    H1 6080   3.203   3.348   9.971  3.6308 -1.4154 -1.7277
  407MPD2    H2 6081   3.111   3.296   9.560  0.2222 -1.6416  1.8663
  407MPD2    H3 6082   3.147   3.205   9.785  2.4798 -0.3147  0.1802
  407MPD2     N 6083   3.166   3.601   9.994  0.2723  0.5251 -0.2131
  407MPD2    H5 6084   3.194   3.553  10.079  2.0445  2.2259  0.1813
  407MPD2    N1 6085   3.097   3.573   9.509 -0.4751  0.3322  0.1692
  407MPD2    H7 6086   3.119   3.672   9.517  2.7193 -0.4137  0.5243
  408TMC3    C1 6087   3.089   3.623   9.279 -0.2399 -0.6694  0.6655
  408TMC3    C2 6088   3.201   3.615   9.203  0.0351 -0.0483 -0.1236
  408TMC3    C3 6089   3.256   3.730   9.152  0.5664  0.4882 -0.0548
  408TMC3    C4 6090   3.013   3.737   9.297  0.1881 -0.5563  0.6227
  408TMC3    C5 6091   3.075   3.853   9.240  0.3052 -0.4411  0.3297
  408TMC3    C6 6092   3.193   3.855   9.175 -0.3129 -0.1896  0.3628
  408TMC3     C 6093   3.081   3.521   9.383  0.2229  0.1779  0.5317
  408TMC3     O 6094   3.114   3.405   9.353 -0.2773  0.1098  0.0371
  408TMC3     H 6095   3.252   3.520   9.203  0.1000 -0.0257  1.3180
  408TMC3    H1 6096   2.933   3.743   9.369 -0.1157 -1.4601  0.3606
  408TMC3    H2 6097   3.224   3.952   9.139  1.9749 -0.2652  2.1559
  408TMC3    C7 6098   3.014   3.980   9.255 -0.1426  0.0056  0.2338
  408TMC3    C8 6099   3.406   3.725   9.141 -0.2639 -0.7978  0.2479
  408TMC3    O1 6100   3.086   4.079   9.238  0.7755  0.2456 -0.6495
  408TMC3    O2 6101   3.469   3.626   9.103 -0.0762  0.7465  0.2828
  409MPD2     C 6102   2.485   4.207  17.397  0.2331 -0.6853 -0.3023
  409MPD2    C1 6103   2.583   4.231  17.485 -0.3926 -0.1313 -0.2708
  409MPD2    C2 6104   2.681   4.321  17.457 -0.2471  0.1257  0.6059
  409MPD2    C3 6105   2.669   4.389  17.333  0.2991  0.3248  0.0057
  409MPD2    C4 6106   2.560   4.369  17.252 -0.2738 -0.9187 -0.4997
  409MPD2    C5 6107   2.471   4.271  17.282 -0.4456  0.0494 -0.4868
  409MPD2     H 6108   2.764   4.342  17.522 -0.1929 -2.5252  1.3842
  409MPD2    H1 6109   2.547   4.425  17.160 -2.3265 -0.4797  0.0433
  409MPD2    H2 6110   2.412   4.128  17.409 -1.8868  0.8374 -2.9910
  409MPD2    H3 6111   2.393   4.251  17.210 -1.3104  0.0280  0.4586
  409MPD2     N 6112   2.762   4.491  17.294 -0.4397 -0.2457 -0.7363
  409MPD2    H5 6113   2.749   4.539  17.206  1.0781  0.4355 -0.5985
  409MPD2    N1 6114   2.602   4.147  17.598 -0.4208  0.2486  0.2899
  409MPD2    H7 6115   2.669   4.175  17.668 -1.3164  1.0148  0.8350
  410TMC3    C1 6116   2.951   4.633  17.286 -0.6007  0.0127  0.1929
  410TMC3    C2 6117   3.054   4.698  17.356 -0.0031 -0.6056 -0.4756
  410TMC3    C3 6118   3.146   0.049  17.282  0.6668 -0.3615  0.5363
  410TMC3    C4 6119   2.942   4.647  17.147  1.0858  0.5054  0.1862
  410TMC3    C5 6120   3.036   4.719  17.082  0.1259  0.1206 -0.0436
  410TMC3    C6 6121   3.144   0.060  17.148 -0.5475  0.1927  0.0146
  410TMC3     C 6122   2.879   4.531  17.362  0.3394 -0.1888  0.1062
  410TMC3     O 6123   2.921   4.496  17.475  0.2099 -0.3975 -0.1991
  410TMC3     H 6124   3.042   4.688  17.463  1.4139 -0.3249 -0.2910
  410TMC3    H1 6125   2.861   4.597  17.094  1.4178 -0.8697  0.9816
  410TMC3    H2 6126   3.229   0.105  17.099 -3.3831  2.7650 -2.5661
  410TMC3    C7 6127   3.017   4.720  16.939 -0.2594  0.1163  0.3061
  410TMC3    C8 6128   3.254   0.090  17.361  0.7338 -0.1800 -0.1180
  410TMC3    O1 6129   2.934   4.641  16.899 -0.3449 -0.5390  0.3969
  410TMC3    O2 6130   3.343   0.155  17.303 -0.2061 -0.0019  0.8355
  411MPD2     C 6131   3.083   0.317  14.850  0.0973 -0.9478  1.0712
  411MPD2    C1 6132   2.949   0.357  14.837  0.2641 -0.0988  0.1143
  411MPD2    C2 6133   2.846   0.259  14.850  0.7468  0.3552  0.3741
  411MPD2    C3 6134   2.889   0.129  14.873 -0.4344  0.1328  0.4403
  411MPD2    C4 6135   3.023   0.093  14.905 -0.5634 -0.5450  0.0879
  411MPD2    C5 6136   3.119   0.187  14.875  0.6172 -0.5520  0.3051
  411MPD2     H 6137   2.745   0.290  14.824  0.7139  0.0061  0.0796
  411MPD2    H1 6138   3.050   4.714  14.937 -0.0818 -0.7033 -0.8128
  411MPD2    H2 6139   3.165   0.387  14.838 -0.6187 -0.6071 -1.8410
  411MPD2    H3 6140   3.225   0.162  14.880  0.4503 -1.1732  0.7530
  411MPD2     N 6141   2.796   0.024  14.859  0.3262 -0.1370  0.3827
  411MPD2    H5 6142   2.832   4.650  14.861  1.2926  0.2128 -0.8971
  411MPD2    N1 6143   2.917   0.489  14.806  0.7932 -0.0222  0.2724
  411MPD2    H7 6144   2.822   0.514  14.779  0.3131 -0.3772  1.6572
  412TMC3    C1 6145   2.593   4.667  14.773  0.8182 -0.4729 -0.0854
  412TMC3    C2 6146   2.450   4.662  14.778 -0.1987  0.1422  0.0385
  412TMC3    C3 6147   2.390   4.612  14.661 -0.2996 -0.9756 -0.1890
  412TMC3    C4 6148   2.660   4.598  14.673 -0.4650  1.2301 -0.3514
  412TMC3    C5 6149   2.589   4.533  14.572  0.2835 -0.1650 -0.1191
  412TMC3    C6 6150   2.457   4.544  14.561  0.4916 -0.1796 -0.3375
  412TMC3     C 6151   2.660   0.049  14.852  0.0175 -0.1917  0.1484
  412TMC3     O 6152   2.580   0.142  14.882 -0.1443  0.2202  0.1233
  412TMC3     H 6153   2.397   0.000  14.850  0.7293  0.6469  0.2995
  412TMC3    H1 6154   2.768   4.606  14.667 -0.2331 -2.0449 -0.2722
  412TMC3    H2 6155   2.405   4.500  14.477  1.6003 -0.9783 -0.6077
  412TMC3    C7 6156   2.643   4.531  14.432 -0.3670 -0.0280 -0.6285
  412TMC3    C8 6157   2.293   4.704  14.613  0.1302  0.1368 -0.2633
  412TMC3    O1 6158   2.564   4.548  14.338 -0.8496 -0.7094  0.1324
  412TMC3    O2 6159   2.219   0.045  14.682 -0.5269 -0.2216  0.0548
  413MPD2     C 6160   0.146   3.875  15.414  0.6196  0.0647  0.2313
  413MPD2    C1 6161   0.055   3.812  15.340 -0.2536  1.0124 -0.5017
  413MPD2    C2 6162   0.079   3.680  15.299  0.2678 -0.2537  0.0238
  413MPD2    C3 6163   0.195   3.613  15.342 -0.5450 -0.1551  0.6909
  413MPD2    C4 6164   0.278   3.679  15.429  0.1913 -0.1613 -0.5815
  413MPD2    C5 6165   0.255   3.809  15.458 -0.9320 -0.4338 -0.2327
  413MPD2     H 6166   0.008   3.632  15.233 -0.3183  2.4905 -1.3873
  413MPD2    H1 6167   0.371   3.634  15.463 -0.1462 -0.8558 -0.5870
  413MPD2    H2 6168   0.134   3.976  15.450  0.7669 -0.7024  2.4795
  413MPD2    H3 6169   0.314   3.861  15.532 -0.9947  0.6037 -0.9115
  413MPD2     N 6170   0.225   3.489  15.281 -1.1433 -0.5291 -0.0074
  413MPD2    H5 6171   0.145   3.449  15.232 -0.7808 -0.4115 -0.6988
  413MPD2    N1 6172   4.647   3.878  15.317  0.4223 -0.0391  0.0809
  413MPD2    H7 6173   4.639   3.974  15.348  0.8336  0.0061  0.0545
  414TMC3    C1 6174   0.328   3.306  15.195  0.6828  0.0277  0.7018
  414TMC3    C2 6175   0.429   3.215  15.204  0.1453 -0.2998 -1.0906
  414TMC3    C3 6176   0.439   3.109  15.114  0.2666  0.5456  0.5568
  414TMC3    C4 6177   0.249   3.305  15.080 -0.1501 -0.4515 -0.3848
  414TMC3    C5 6178   0.260   3.202  14.996 -0.5929  0.3137 -0.1622
  414TMC3    C6 6179   0.347   3.091  15.016  0.5848  0.5340  0.1299
  414TMC3     C 6180   0.338   3.428  15.271  0.4335  0.1438 -0.9277
  414TMC3     O 6181   0.442   3.457  15.325  0.5578 -0.1817  0.3138
  414TMC3     H 6182   0.497   3.238  15.285 -0.8292  1.8011 -0.8744
  414TMC3    H1 6183   0.185   3.388  15.055 -0.6339 -0.3526  1.1828
  414TMC3    H2 6184   0.351   3.004  14.952 -1.0998 -1.5566  2.8094
  414TMC3    C7 6185   0.186   3.204  14.871 -0.3865 -0.1427 -0.0338
  414TMC3    C8 6186   0.539   3.010  15.125 -0.0286 -0.4169  0.3407
  414TMC3    O1 6187   0.071   3.241  14.892  0.1509  0.2628 -0.4327
  414TMC3    O2 6188   0.521   2.910  15.068 -0.6972  0.0349  0.4262
  415TMC3    C1 6189   1.103   1.151  10.077 -0.0186  0.5251  0.2527
  415TMC3    C2 6190   1.232   1.186  10.040  0.3395 -0.1663  0.1270
  415TMC3    C3 6191   1.317   1.084   9.991 -0.3192 -0.5334  0.0555
  415TMC3    C4 6192   1.067   1.013  10.061  0.4485 -0.1267  0.2211
  415TMC3    C5 6193   1.145   0.924   9.997  0.5021 -0.3392 -0.4773
  415TMC3    C6 6194   1.269   0.960   9.961 -0.0150  0.0208 -0.4929
  415TMC3     C 6195   1.029   1.221  10.173  0.5231  0.5402  0.6550
  415TMC3     O 6196   0.912   1.205  10.189 -0.8008 -0.5204  0.0213
  415TMC3     H 6197   1.255   1.292  10.034  0.2470 -0.1580 -0.0985
  415TMC3    H1 6198   0.972   0.988  10.107 -0.0933  0.7349 -0.4295
  415TMC3    H2 6199   1.338   0.882   9.931 -0.6117 -0.7923  0.2414
  415TMC3    C7 6200   1.127   0.782  10.029 -0.0623  0.0901  0.1017
  415TMC3    C8 6201   1.450   1.115   9.934  0.6583  0.7880  0.2865
  415TMC3    O1 6202   1.202   0.699   9.976 -0.1185  0.4638  0.3748
  415TMC3    O2 6203   1.506   1.039   9.849 -0.3949  0.0156 -0.0947
  416MPD2     C 6204   2.568   0.565  11.476 -0.5040 -0.0626 -0.3647
  416MPD2    C1 6205   2.438   0.533  11.498  0.0636  0.1612 -0.4311
  416MPD2    C2 6206   2.384   0.413  11.444  0.0357  0.1013 -0.2046
  416MPD2    C3 6207   2.473   0.324  11.388 -0.8128  0.1649  0.0032
  416MPD2    C4 6208   2.599   0.363  11.360  0.2889  0.2930  0.0938
  416MPD2    C5 6209   2.653   0.483  11.404 -0.0451 -0.0189 -0.3924
  416MPD2     H 6210   2.282   0.387  11.471 -1.0735  2.1962 -2.3524
  416MPD2    H1 6211   2.670   0.295  11.314 -0.4545 -0.0966 -0.4833
  416MPD2    H2 6212   2.601   0.656  11.525 -1.8179 -0.2016  0.7754
  416MPD2    H3 6213   2.754   0.507  11.374  0.9189 -2.2439  1.0589
  416MPD2     N 6214   2.430   0.195  11.343  0.2020 -0.1871 -0.6401
  416MPD2    H5 6215   2.502   0.127  11.320 -0.7523 -1.5630  0.4322
  416MPD2    N1 6216   2.363   0.630  11.571  0.4625 -0.6315  0.2344
  416MPD2    H7 6217   2.418   0.703  11.616 -1.5548  0.1448  1.4410
  417TMC3    C1 6218   2.166   0.729  11.674 -0.4266  1.2513  0.1787
  417TMC3    C2 6219   2.189   0.730  11.805  0.3414  0.7685  0.3884
  417TMC3    C3 6220   2.086   0.779  11.887  0.8603 -0.0791  0.3124
  417TMC3    C4 6221   2.056   0.787  11.619  0.3696 -0.0363  0.4734
  417TMC3    C5 6222   1.969   0.850  11.703 -1.3845  0.0365  0.2617
  417TMC3    C6 6223   1.971   0.837  11.837  0.7328 -0.3373 -0.5521
  417TMC3     C 6224   2.224   0.621  11.601  0.0713  0.0462  0.1531
  417TMC3     O 6225   2.157   0.525  11.564  0.4780 -0.1010 -0.4340
  417TMC3     H 6226   2.281   0.688  11.844 -0.5565  0.5340  2.2522
  417TMC3    H1 6227   2.047   0.770  11.513 -2.2955 -2.9410  1.1461
  417TMC3    H2 6228   1.896   0.882  11.900  1.9623  0.6732  0.1844
  417TMC3    C7 6229   1.849   0.917  11.646 -0.0906 -0.3901  0.3418
  417TMC3    C8 6230   2.100   0.774  12.028  1.0458  0.6937  0.2285
  417TMC3    O1 6231   1.753   0.936  11.721 -0.2091 -0.5555  0.2165
  417TMC3    O2 6232   2.015   0.838  12.093 -0.4672  0.0167  0.8286
  418TMC3    C1 6233   1.057   1.466  17.578  0.8719 -0.3972 -0.4183
  418TMC3    C2 6234   0.945   1.432  17.653  0.5434  0.0637 -0.2663
  418TMC3    C3 6235   0.881   1.540   0.033 -0.3122  0.6217  0.2729
  418TMC3    C4 6236   1.090   1.596  17.550  0.2434  0.7540 -0.6242
  418TMC3    C5 6237   1.018   1.697  17.611  0.0583 -0.4489  0.5740
  418TMC3    C6 6238   0.908   1.667  17.687  0.0503  0.5018  0.4492
  418TMC3     C 6239   1.155   1.374  17.535 -0.0287 -0.2879 -0.3827
  418TMC3     O 6240   1.216   1.407  17.430  0.0155  0.5350  0.2699
  418TMC3     H 6241   0.907   1.331  17.654 -1.4200  0.7951 -0.1954
  418TMC3    H1 6242   1.183   1.619  17.499  2.1826 -0.5313  2.3422
  418TMC3    H2 6243   0.842   1.737   0.049  0.5889  1.0803  0.3514
  418TMC3    C7 6244   1.045   1.837  17.568 -0.2929 -0.9294  0.1447
  418TMC3    C8 6245   0.775   1.522   0.135 -0.6966 -0.0442 -0.0195
  418TMC3    O1 6246   1.080   1.841  17.451 -0.0875  0.4465 -0.4027
  418TMC3    O2 6247   0.679   1.596   0.130 -0.2225 -0.2334 -0.2448
  419MPD2     C 6248   4.676   0.135  12.711  0.1135 -0.3041 -0.2850
  419MPD2    C1 6249   4.539   0.151  12.704  0.5231 -1.0062  0.2466
  419MPD2    C2 6250   4.467   0.185  12.822  0.4984 -0.3429 -0.0357
  419MPD2    C3 6251   4.534   0.230  12.932 -0.0984 -0.4048 -0.5798
  419MPD2    C4 6252   4.672   0.212  12.942 -0.5598  0.2956  0.4659
  419MPD2    C5 6253   0.015   0.179  12.826  0.1973  0.2044  0.9518
  419MPD2     H 6254   4.359   0.193  12.816  0.6070 -0.0433 -1.6522
  419MPD2    H1 6255   0.000   0.224  13.038  1.1072  1.7779 -0.5944
  419MPD2    H2 6256   0.015   0.098  12.628 -1.6650 -0.8794 -1.3271
  419MPD2    H3 6257   0.122   0.161  12.830  0.0634 -0.7579  0.2848
  419MPD2     N 6258   4.462   0.278  13.041  0.3845 -0.2799 -0.4406
  419MPD2    H5 6259   4.363   0.294  13.029  0.2334 -1.4139 -0.6823
  419MPD2    N1 6260   4.471   0.112  12.591 -0.2501 -0.2473 -0.4828
  419MPD2    H7 6261   4.373   0.093  12.606 -0.1607  0.4866  1.0037
  420TMC3    C1 6262   4.426   0.406  13.234 -0.2594 -0.3988  0.0201
  420TMC3    C2 6263   4.294   0.410  13.193 -0.0420  0.1205 -0.0000
  420TMC3    C3 6264   4.207   0.482  13.270 -0.0808 -0.5456 -1.0263
  420TMC3    C4 6265   4.458   0.446  13.358 -0.0153  0.0057 -0.5978
  420TMC3    C5 6266   4.370   0.509  13.436  0.0276 -0.4458  0.1501
  420TMC3    C6 6267   4.238   0.530  13.395  0.4822 -0.7324  0.0570
  420TMC3     C 6268   4.521   0.328  13.158  0.1328 -0.3952 -0.1229
  420TMC3     O 6269   4.631   0.325  13.205  0.2873 -0.0761 -0.4990
  420TMC3     H 6270   4.246   0.370  13.105 -3.7154  1.0089  1.5971
  420TMC3    H1 6271   4.560   0.431  13.393 -0.0957 -1.5812 -1.0454
  420TMC3    H2 6272   4.159   0.564  13.461  0.1077 -0.6862 -0.4218
  420TMC3    C7 6273   4.399   0.507  13.577  0.2415 -0.3320  0.7527
  420TMC3    C8 6274   4.066   0.494  13.240 -0.8338  0.4323  0.1373
  420TMC3    O1 6275   4.489   0.427  13.606 -0.6587  0.0404 -0.7664
  420TMC3    O2 6276   4.002   0.585  13.292  0.1825 -0.2424  0.2566
  421TMC3    C1 6277   1.011   1.774  13.664  0.0785 -0.5088  0.0713
  421TMC3    C2 6278   1.000   1.909  13.687 -0.1434 -0.0616 -0.3287
  421TMC3    C3 6279   1.072   1.953  13.795 -0.0215 -0.3170 -0.5987
  421TMC3    C4 6280   1.083   1.684  13.737 -0.2126  0.7322  0.3389
  421TMC3    C5 6281   1.149   1.745  13.845  0.0444  0.1419  0.1313
  421TMC3    C6 6282   1.152   1.877  13.876 -0.2125  0.2025  0.1287
  421TMC3     C 6283   0.920   1.718  13.566  0.2212  0.1502  1.1062
  421TMC3     O 6284   0.805   1.763  13.546  0.2306 -0.1247 -0.1326
  421TMC3     H 6285   0.929   1.969  13.631 -0.7521  1.1792  1.8050
  421TMC3    H1 6286   1.105   1.579  13.716 -1.4811  0.6721 -0.6958
  421TMC3    H2 6287   1.184   1.920  13.971  0.8441  2.4036 -1.2100
  421TMC3    C7 6288   1.211   1.651  13.933  0.5808  0.1100 -0.1336
  421TMC3    C8 6289   1.057   2.091  13.829 -0.0825  0.0550  0.3183
  421TMC3    O1 6290   1.309   1.683  13.999 -0.6278 -0.0493 -0.2896
  421TMC3    O2 6291   0.948   2.141  13.802 -0.6440 -0.1024 -0.3258
  422TMC3    C1 6292   3.227   3.267  13.079  0.2442  0.4645  0.7240
  422TMC3    C2 6293   3.230   3.402  13.086  1.1799 -0.1908 -0.5383
  422TMC3    C3 6294   3.113   3.470  13.064 -0.0862  0.2701 -0.6305
  422TMC3    C4 6295   3.111   3.196  13.066 -0.6235  0.1202 -0.6026
  422TMC3    C5 6296   2.996   3.268  13.041  0.3956  0.0034  0.1820
  422TMC3    C6 6297   2.994   3.405  13.042 -0.1159  0.2233  0.2386
  422TMC3     C 6298   3.353   3.209  13.047 -1.1230 -0.5021  0.1163
  422TMC3     O 6299   3.426   3.265  12.974  0.6406  0.2540  0.2037
  422TMC3     H 6300   3.323   3.454  13.111  0.4893  0.8584 -0.1457
  422TMC3    H1 6301   3.116   3.088  13.056 -1.7481 -0.0124  0.2500
  422TMC3    H2 6302   2.901   3.460  13.044 -0.8939 -1.1120  0.2187
  422TMC3    C7 6303   2.882   3.187  13.004 -0.0749 -0.0781 -0.3268
  422TMC3    C8 6304   3.108   3.616  13.054  0.9052 -0.1642 -0.8837
  422TMC3    O1 6305   2.880   3.071  13.052 -1.0261  0.2869 -0.1302
  422TMC3    O2 6306   3.203   3.686  13.077 -0.5032 -0.0614 -0.1655
  423MPD2     C 6307   0.463   3.782   0.757  0.1575  0.0790  0.3603
  423MPD2    C1 6308   0.402   3.657   0.760  0.3545  0.4278 -0.1597
  423MPD2    C2 6309   0.360   3.603   0.636  0.8215  0.6243 -0.7415
  423MPD2    C3 6310   0.366   3.679   0.522  0.1607 -0.3473  0.2704
  423MPD2    C4 6311   0.425   3.805   0.527  0.1852 -0.5048  0.1710
  423MPD2    C5 6312   0.468   3.856   0.642 -0.6859 -0.4935  0.5178
  423MPD2     H 6313   0.307   3.509   0.631  0.4430  0.7368  1.6093
  423MPD2    H1 6314   0.453   3.867   0.442 -2.1743  2.1534  1.3159
  423MPD2    H2 6315   0.493   3.832   0.849  0.0634  0.7524  0.0192
  423MPD2    H3 6316   0.507   3.957   0.641  0.8902 -1.1026 -0.2809
  423MPD2     N 6317   0.325   3.644   0.390  0.3290  0.3308  0.3398
  423MPD2    H5 6318   0.344   3.720   0.325  5.5643 -0.7407  0.6685
  423MPD2    N1 6319   0.398   3.582   0.879 -0.3844  0.1656  0.6750
  423MPD2    H7 6320   0.345   3.496   0.875  1.8631 -0.9936 -3.4821
  424TMC3    C1 6321   0.426   3.522   1.110 -0.1142 -0.0332  0.4494
  424TMC3    C2 6322   0.504   3.508   1.224 -0.6596  0.5173 -0.3620
  424TMC3    C3 6323   0.450   3.457   1.334  0.0051  0.3972 -0.4337
  424TMC3    C4 6324   0.290   3.488   1.122 -0.1893  0.2430  0.8258
  424TMC3    C5 6325   0.237   3.448   1.245 -0.1214  0.3360  0.1774
  424TMC3    C6 6326   0.320   3.429   1.349  0.1434  0.8717 -0.1020
  424TMC3     C 6327   0.468   3.615   1.001  0.8069  0.4309  0.6354
  424TMC3     O 6328   0.543   3.709   1.035 -0.7382  0.0811 -0.2264
  424TMC3     H 6329   0.606   3.545   1.228 -1.4793  2.9712 -1.7872
  424TMC3    H1 6330   0.230   3.488   1.032 -0.9808  1.3874  1.3587
  424TMC3    H2 6331   0.285   3.382   1.440 -0.5733  0.5803 -0.5311
  424TMC3    C7 6332   0.099   3.401   1.248  0.0210 -0.6505 -0.2824
  424TMC3    C8 6333   0.537   3.411   1.441 -0.0280  0.0187 -0.6146
  424TMC3    O1 6334   0.043   3.379   1.136  0.1743 -0.4997 -0.1870
  424TMC3    O2 6335   0.644   3.473   1.450  0.9037 -0.1897  0.0922
  425MPD2     C 6336   3.664   3.486  17.571  0.3128  1.0463 -0.4751
  425MPD2    C1 6337   3.603   3.368  17.609  0.5728  0.4831  0.0317
  425MPD2    C2 6338   3.486   3.368  17.674 -0.3899  0.3656 -0.4430
  425MPD2    C3 6339   3.422   3.482   0.030 -0.1615 -0.9092  0.3656
  425MPD2    C4 6340   3.484   3.600  17.688  1.0990  0.6910 -0.5508
  425MPD2    C5 6341   3.604   3.599  17.616 -0.3540 -0.3485  0.0579
  425MPD2     H 6342   3.436   3.274   0.009  0.4340  0.3569  1.3175
  425MPD2    H1 6343   3.443   3.694   0.036 -0.0460  0.7598 -2.0362
  425MPD2    H2 6344   3.761   3.494  17.525  0.3218  2.0625 -0.2850
  425MPD2    H3 6345   3.653   3.692  17.590 -0.2270  0.0977  1.8708
  425MPD2     N 6346   3.302   3.464   0.103  0.1710 -0.5280  0.4739
  425MPD2    H5 6347   3.274   3.368   0.120 -0.6986 -0.2335  0.7263
  425MPD2    N1 6348   3.671   3.251  17.566  0.7485 -0.1315  0.0436
  425MPD2    H7 6349   3.743   3.244  17.496  0.1150 -2.2098 -0.4042
  426TMC3    C1 6350   3.717   3.017  17.565 -0.2572 -0.2137 -0.7111
  426TMC3    C2 6351   3.711   2.993  17.429 -0.1443 -0.0674 -0.3439
  426TMC3    C3 6352   3.757   2.877  17.372  0.2381  0.6045  0.5196
  426TMC3    C4 6353   3.758   2.919  17.648 -0.2067 -0.5330 -0.6712
  426TMC3    C5 6354   3.802   2.798  17.592  0.5817  0.2788  0.4802
  426TMC3    C6 6355   3.815   2.782  17.453 -0.1866  0.0493  0.7324
  426TMC3     C 6356   3.649   3.128  17.622 -0.0344 -0.2242 -0.0338
  426TMC3     O 6357   3.598   3.098   0.037 -0.2482  0.7012  0.2652
  426TMC3     H 6358   3.658   3.061  17.363  1.4751  0.7558 -0.7933
  426TMC3    H1 6359   3.801   2.962   0.050  0.9030  2.2511 -2.5400
  426TMC3    H2 6360   3.852   2.687  17.418  2.3061  1.0024  0.7202
  426TMC3    C7 6361   3.871   2.709  17.679  0.1978 -0.2026 -0.2385
  426TMC3    C8 6362   3.683   2.830  17.259 -0.1523 -0.4855  0.0812
  426TMC3    O1 6363   3.966   2.651  17.629  0.1313 -0.1729  0.1501
  426TMC3    O2 6364   3.739   2.751  17.182  0.2731  0.0902  0.6913
  427MPD2     C 6365   1.879   0.189  14.812  0.1372  0.4234 -0.4713
  427MPD2    C1 6366   1.927   0.259  14.925  0.4710  0.4248  0.2839
  427MPD2    C2 6367   1.854   0.372  14.971  1.0703  0.2399  0.1975
  427MPD2    C3 6368   1.747   0.411  14.900  0.5767  0.9193 -0.6444
  427MPD2    C4 6369   1.707   0.348  14.782 -0.9863  1.3413  0.6765
  427MPD2    C5 6370   1.776   0.237  14.740 -0.3417  0.2906 -0.6971
  427MPD2     H 6371   1.882   0.418  15.065 -1.4868  2.5327 -0.1896
  427MPD2    H1 6372   1.625   0.395  14.728  0.0187  1.6654 -0.5816
  427MPD2    H2 6373   1.938   0.104  14.779 -1.2623 -1.0599  0.9146
  427MPD2    H3 6374   1.736   0.190  14.652 -1.6920 -0.4557  0.3173
  427MPD2     N 6375   1.660   0.515  14.941  0.1265  0.5939 -0.4097
  427MPD2    H5 6376   1.568   0.521  14.899  0.4853 -1.9295 -1.5310
  427MPD2    N1 6377   2.025   0.194  15.000  0.0881  0.0554 -0.2444
  427MPD2    H7 6378   2.049   0.099  14.973  1.0056  0.3510 -0.4560
  428TMC3    C1 6379   2.187   0.151  15.170 -0.6752  0.0807  0.9803
  428TMC3    C2 6380   2.162   0.017  15.178  0.0479 -0.2637 -0.3147
  428TMC3    C3 6381   2.266   4.669  15.230  0.1060  0.1955 -0.2702
  428TMC3    C4 6382   2.295   0.218  15.225  0.0332  0.1599  0.0983
  428TMC3    C5 6383   2.387   0.140  15.294 -0.0978 -0.2008  0.0938
  428TMC3    C6 6384   2.375   0.004  15.292 -0.4000 -0.6602  0.5006
  428TMC3     C 6385   2.079   0.235  15.119 -0.7137 -0.1170  0.4466
  428TMC3     O 6386   2.077   0.356  15.154 -0.4950  0.1323 -0.2424
  428TMC3     H 6387   2.066   4.702  15.144  1.1933 -0.9023 -2.8469
  428TMC3    H1 6388   2.299   0.325  15.209  0.5956 -0.3581 -3.1990
  428TMC3    H2 6389   2.449   4.669  15.347  0.5849  1.8858  1.7872
  428TMC3    C7 6390   2.522   0.195  15.303  0.3157 -0.2230  0.8896
  428TMC3    C8 6391   2.272   4.528  15.198 -0.5583  0.0103  0.3751
  428TMC3    O1 6392   2.598   0.143  15.387 -0.5176  0.3574 -0.4259
  428TMC3    O2 6393   2.387   4.481  15.187 -0.4347 -0.7276  0.4436
  429MPD2     C 6394   3.082   0.660   0.277  0.3853  0.9267 -0.7888
  429MPD2    C1 6395   3.175   0.590   0.211  0.1638 -0.1518  0.3216
  429MPD2    C2 6396   3.243   0.651   0.104 -0.3311 -0.2366  0.6582
  429MPD2    C3 6397   3.215   0.783   0.068 -0.5132 -0.6963  0.1990
  429MPD2    C4 6398   3.110   0.847   0.134 -0.6784  0.5040  0.1757
  429MPD2    C5 6399   3.053   0.788   0.239 -0.5822  0.1180  0.7359
  429MPD2     H 6400   3.315   0.594   0.046 -0.1634  0.2509  0.3889
  429MPD2    H1 6401   3.083   0.946   0.100  0.7087  0.2860 -1.5947
  429MPD2    H2 6402   3.035   0.611   0.361  1.6724  0.0878 -0.5521
  429MPD2    H3 6403   2.972   0.834   0.295  0.4147  3.3121 -0.4313
  429MPD2     N 6404   3.285   0.843  17.652 -0.4498  0.4292 -0.3480
  429MPD2    H5 6405   3.346   0.775  17.608  0.5716  0.0471  1.6629
  429MPD2    N1 6406   3.204   0.454   0.241 -0.5799 -0.4643  0.1836
  429MPD2    H7 6407   3.282   0.414   0.191  0.9939  1.5403  1.0556
  430TMC3    C1 6408   3.399   1.011  17.538 -0.6249  0.0758  0.1999
  430TMC3    C2 6409   3.380   1.101  17.436 -0.3815 -0.6251  0.1089
  430TMC3    C3 6410   3.477   1.110  17.336  0.2810 -0.5764  0.7824
  430TMC3    C4 6411   3.512   0.929  17.547  0.1001  0.1277  0.7248
  430TMC3    C5 6412   3.600   0.940  17.447  0.3026  0.0833 -0.0702
  430TMC3    C6 6413   3.596   1.040  17.349 -0.5614  0.2264 -0.1137
  430TMC3     C 6414   3.284   0.976  17.617 -0.4577 -0.1874 -0.4628
  430TMC3     O 6415   3.198   1.066  17.633  0.5877 -0.5401  0.0620
  430TMC3     H 6416   3.282   1.148  17.437 -0.3901 -0.6619  1.9984
  430TMC3    H1 6417   3.524   0.853  17.625 -0.7161  1.3049  2.0044
  430TMC3    H2 6418   3.666   1.039  17.267 -1.5271  1.1678 -0.9361
  430TMC3    C7 6419   3.639   0.810  17.392 -0.2507  0.3340 -0.2626
  430TMC3    C8 6420   3.428   1.116  17.194 -0.6528 -0.8015 -0.1538
  430TMC3    O1 6421   3.640   0.721  17.473 -0.1109  0.3899  0.0113
  430TMC3    O2 6422   3.469   1.011  17.141 -0.0557 -0.5542  0.1000
  431MPD2     C 6423   4.093   0.186  12.786  0.8120  0.1999  0.3274
  431MPD2    C1 6424   4.142   0.223  12.661  0.7484  0.2781  0.5546
  431MPD2    C2 6425   4.120   0.137  12.558  0.1216 -0.2356 -0.1973
  431MPD2    C3 6426   4.059   0.010  12.576 -0.0109  0.4614  0.1229
  431MPD2    C4 6427   4.007   4.701  12.700 -0.0592  0.8876 -0.3446
  431MPD2    C5 6428   4.018   0.075  12.803 -0.8575 -0.7875 -0.2668
  431MPD2     H 6429   4.149   0.165  12.458 -3.1736  0.1956 -1.0200
  431MPD2    H1 6430   3.944   4.617  12.725  1.4775  0.1820  1.1310
  431MPD2    H2 6431   4.095   0.257  12.868  0.8146  0.5478  0.0230
  431MPD2    H3 6432   3.983   0.055  12.904 -1.2895  0.4383 -0.1848
  431MPD2     N 6433   4.061   4.624  12.477 -0.1025  0.8302  0.0162
  431MPD2    H5 6434   4.020   4.541  12.518 -0.9086  0.3743 -1.6925
  431MPD2    N1 6435   4.203   0.347  12.634 -0.3135 -0.1942  0.5444
  431MPD2    H7 6436   4.239   0.372  12.543  1.5426 -2.2984  0.6938
  432TMC3    C1 6437   4.232   4.673  12.314 -0.2278 -0.7950 -0.1399
  432TMC3    C2 6438   4.251   4.705  12.183  0.4944  0.5139 -0.0068
  432TMC3    C3 6439   4.374   0.027  12.149  0.2719 -0.8517 -0.3413
  432TMC3    C4 6440   4.335   4.691  12.409  0.0465 -0.2779 -0.0448
  432TMC3    C5 6441   4.457   0.022  12.366 -0.0641 -0.2255  0.8174
  432TMC3    C6 6442   4.480   0.059  12.237 -0.2969  0.5501  0.3415
  432TMC3     C 6443   4.106   4.612  12.348  0.4603 -0.0947 -0.5260
  432TMC3     O 6444   4.046   4.542  12.263 -0.3541  0.0328 -0.0763
  432TMC3     H 6445   4.179   4.692  12.103  1.9780 -1.6817 -0.9853
  432TMC3    H1 6446   4.322   4.652  12.509 -2.4952 -0.7396 -0.5646
  432TMC3    H2 6447   4.574   0.103  12.204 -0.2697 -1.9919 -2.8704
  432TMC3    C7 6448   4.537   0.084  12.470 -0.0643  0.2962  0.2542
  432TMC3    C8 6449   4.408   0.036  12.006  0.2369 -0.2371 -0.1621
  432TMC3    O1 6450   4.642   0.137  12.426  0.4101 -0.9395 -0.0704
  432TMC3    O2 6451   4.357   4.671  11.940  0.3899  0.0790 -0.2510
  433MPD2     C 6452   3.242   4.320  10.927 -0.6447 -0.1441  0.1160
  433MPD2    C1 6453   3.216   4.208  11.009  0.4443  0.2277  0.0320
  433MPD2    C2 6454   3.226   4.219  11.141  0.7009 -0.4771  0.6959
  433MPD2    C3 6455   3.298   4.324  11.201  0.8879  0.3705 -0.3514
  433MPD2    C4 6456   3.328   4.434  11.119 -0.0656 -0.2763 -0.1722
  433MPD2    C5 6457   3.294   4.432  10.986 -1.2897  0.1531 -1.0405
  433MPD2     H 6458   3.193   4.136  11.202 -1.0498 -0.2818  0.0157
  433MPD2    H1 6459   3.391   4.517  11.150  0.3471 -1.1097  1.1866
  433MPD2    H2 6460   3.242   4.322  10.819 -0.7601 -0.4153  0.1109
  433MPD2    H3 6461   3.327   4.511  10.920 -1.1260  0.0210 -1.1177
  433MPD2     N 6462   3.331   4.308  11.340  0.2408  0.0400  0.4373
  433MPD2    H5 6463   3.319   4.215  11.381  2.7544 -0.9042 -0.9451
  433MPD2    N1 6464   3.170   4.079  10.972 -0.1098  0.1462  0.7979
  433MPD2    H7 6465   3.116   4.023  11.036  1.4262 -0.9619  1.1160
  434TMC3    C1 6466   3.111   3.916  10.818 -0.5055 -0.3890 -0.1215
  434TMC3    C2 6467   3.139   3.825  10.916  0.2997 -0.5703 -0.8871
  434TMC3    C3 6468   3.145   3.691  10.884 -1.2205 -0.6475 -0.0653
  434TMC3    C4 6469   3.079   3.883  10.691  0.3415  0.2681 -0.1310
  434TMC3    C5 6470   3.096   3.752  10.669  0.1950  0.7306  0.4068
  434TMC3    C6 6471   3.122   3.653  10.759  0.2553 -0.2872 -0.4847
  434TMC3     C 6472   3.170   4.042  10.837 -0.1275  0.5101 -0.9396
  434TMC3     O 6473   3.211   4.099  10.738  0.6834 -0.3411  0.6235
  434TMC3     H 6474   3.172   3.857  11.015 -0.5934 -1.2690 -0.3615
  434TMC3    H1 6475   3.089   3.952  10.609 -1.2175 -1.1628 -1.5219
  434TMC3    H2 6476   3.131   3.551  10.724 -1.0297 -0.8402  0.7626
  434TMC3    C7 6477   3.049   3.716  10.534 -0.3632 -0.6558  0.3142
  434TMC3    C8 6478   3.206   3.607  10.984  0.2686  0.1654 -0.4058
  434TMC3    O1 6479   2.975   3.804  10.480  0.1438  0.2005 -0.3849
  434TMC3    O2 6480   3.188   3.643  11.102 -0.2040 -0.3712  0.4660
  435MPD2     C 6481   0.209   4.418  15.706  0.0164  0.4373 -0.3432
  435MPD2    C1 6482   0.241   4.376  15.836  0.5557 -0.0035  0.3979
  435MPD2    C2 6483   0.357   4.311  15.861 -0.3303  0.4415 -0.3352
  435MPD2    C3 6484   0.446   4.276  15.761  0.0998 -0.3306  0.6320
  435MPD2    C4 6485   0.417   4.325  15.637  0.0454  0.3767 -0.0939
  435MPD2    C5 6486   0.306   4.390  15.607 -0.3104  0.4187  0.1599
  435MPD2     H 6487   0.377   4.282  15.964  0.6718 -0.3728 -0.7644
  435MPD2    H1 6488   0.487   4.319  15.554  2.1278 -0.0960  1.7101
  435MPD2    H2 6489   0.123   4.478  15.681 -0.3702  0.2359  0.5116
  435MPD2    H3 6490   0.293   4.429  15.507  0.5818 -1.9932 -0.9120
  435MPD2     N 6491   0.560   4.199  15.790  0.4222 -0.4439 -0.1647
  435MPD2    H5 6492   0.576   4.171  15.887  1.4151  0.8060  0.0303
  435MPD2    N1 6493   0.159   4.401  15.948  0.0462  0.1400  0.0963
  435MPD2    H7 6494   0.190   4.370  16.040  3.1683 -0.5287 -1.1832
  436TMC3    C1 6495   4.605   4.331  16.261  1.4146 -0.5663  0.3425
  436TMC3    C2 6496   4.691   4.345  16.154  0.7281 -0.4078 -0.3670
  436TMC3    C3 6497   4.680   4.447  16.070 -0.2262  0.6947  0.2244
  436TMC3    C4 6498   4.516   4.419  16.294  0.1684 -0.1952 -0.2132
  436TMC3    C5 6499   4.494   4.519  16.197 -0.9395 -0.2231 -0.1395
  436TMC3    C6 6500   4.573   4.533  16.087  0.4374 -0.2421 -0.5039
  436TMC3     C 6501   4.610   4.205  16.332 -0.4395 -0.1488 -0.0154
  436TMC3     O 6502   4.660   4.112  16.276 -0.0933 -0.2320 -0.6180
  436TMC3     H 6503   0.044   4.267  16.145  1.6305  0.3113  0.8200
  436TMC3    H1 6504   4.449   4.396  16.376  0.6575  0.0007  0.2476
  436TMC3    H2 6505   4.565   4.620  16.022 -0.6536  0.8365  1.0676
  436TMC3    C7 6506   4.375   4.602  16.204  0.3603 -0.3330 -0.4576
  436TMC3    C8 6507   0.040   4.465  15.945  0.0811 -0.3497  0.3942
  436TMC3    O1 6508   4.348   4.656  16.093  0.6831 -0.0593 -0.0373
  436TMC3    O2 6509   4.715   4.533  15.856 -0.8978  0.4519 -0.7598
  437TMC3    C1 6510   3.644   1.609  12.765  0.3154  0.3848  0.4476
  437TMC3    C2 6511   3.547   1.705  12.777  0.0887 -0.0002  0.3563
  437TMC3    C3 6512   3.558   1.807  12.686  0.0231 -0.0513  0.3029
  437TMC3    C4 6513   3.741   1.610  12.670 -0.4593 -0.3895  0.3427
  437TMC3    C5 6514   3.746   1.717  12.584  0.3994 -0.1478 -0.4984
  437TMC3    C6 6515   3.651   1.818  12.589  0.0527 -0.7972  0.1280
  437TMC3     C 6516   3.665   1.533  12.888 -0.2334  0.7091 -0.2304
  437TMC3     O 6517   3.626   1.591  12.986  0.3147  0.6162 -0.2752
  437TMC3     H 6518   3.474   1.705  12.857  2.9827 -0.2243  2.9645
  437TMC3    H1 6519   3.812   1.528  12.664  1.6329  1.2579  2.3768
  437TMC3    H2 6520   3.641   1.902  12.520 -1.1256 -2.3896 -1.6516
  437TMC3    C7 6521   3.851   1.729  12.479 -0.6929 -0.2526  0.5516
  437TMC3    C8 6522   3.459   1.918  12.699  0.6238 -0.2441 -0.1434
  437TMC3    O1 6523   3.847   1.822  12.398 -0.1691 -0.3333 -0.6048
  437TMC3    O2 6524   3.368   1.880  12.773 -0.1088 -0.2483 -0.4137
  438MPD2     C 6525   1.269   1.390  17.038  0.5150  0.3502  0.4278
  438MPD2    C1 6526   1.246   1.495  16.948 -0.0937 -0.1299  0.8144
  438MPD2    C2 6527   1.122   1.556  16.936 -0.3753 -1.0254  0.2006
  438MPD2    C3 6528   1.027   1.513  17.027  0.0188  0.1310  0.0907
  438MPD2    C4 6529   1.048   1.411  17.111 -0.0413  0.2352  0.0642
  438MPD2    C5 6530   1.171   1.345  17.117 -0.5027  0.3679 -0.2616
  438MPD2     H 6531   1.114   1.640  16.868 -1.9151  0.0680  1.7382
  438MPD2    H1 6532   0.979   1.393  17.192  1.1336  3.7949  1.8267
  438MPD2    H2 6533   1.367   1.345  17.047  0.5747  0.3063 -0.3732
  438MPD2    H3 6534   1.198   1.276  17.196 -2.3058  1.4608  1.3066
  438MPD2     N 6535   0.907   1.577  17.056  0.3127  0.6277  0.7116
  438MPD2    H5 6536   0.845   1.541  17.127 -2.5867  1.1481 -1.5711
  438MPD2    N1 6537   1.366   1.558  16.895  0.1217  0.1554  0.0436
  438MPD2    H7 6538   1.454   1.524  16.931  0.0743 -0.6528 -0.6071
  439TMC3    C1 6539   1.499   1.711  16.793 -0.2823  0.5657  0.0225
  439TMC3    C2 6540   1.548   1.750  16.674 -0.4218 -0.1566  0.3498
  439TMC3    C3 6541   1.678   1.768  16.655 -0.2584 -0.1638  0.1323
  439TMC3    C4 6542   1.574   1.707  16.908 -0.1888 -0.0812  0.0901
  439TMC3    C5 6543   1.706   1.714  16.887 -0.0776 -0.3834  0.5946
  439TMC3    C6 6544   1.762   1.752  16.762 -0.1328 -0.6666  0.1787
  439TMC3     C 6545   1.363   1.655  16.794 -0.2314  0.2194 -0.1301
  439TMC3     O 6546   1.278   1.689  16.716 -0.0430 -0.4286 -0.4661
  439TMC3     H 6547   1.481   1.731  16.592  0.9950  0.8927 -1.0558
  439TMC3    H1 6548   1.534   1.702  17.009 -1.9701  0.4975 -0.5734
  439TMC3    H2 6549   1.864   1.785  16.753 -0.3095 -0.0578  0.4226
  439TMC3    C7 6550   1.803   1.707  16.989  0.1667 -0.1450  0.4507
  439TMC3    C8 6551   1.712   1.701  16.533 -0.1547 -0.0246  0.1965
  439TMC3    O1 6552   1.909   1.762  16.975  0.1927 -0.0058  0.1881
  439TMC3    O2 6553   1.813   1.635  16.539 -0.0678 -0.0663  0.0232
  440MPD2     C 6554   0.366   2.683  14.681  0.3770 -0.0297 -0.1862
  440MPD2    C1 6555   0.345   2.635  14.813 -0.4119 -0.7115  0.0505
  440MPD2    C2 6556   0.435   2.542  14.857 -0.4751  0.3457 -0.1454
  440MPD2    C3 6557   0.556   2.510  14.790 -0.4818 -1.0389 -0.4338
  440MPD2    C4 6558   0.575   2.557  14.662 -0.3245  0.2879  0.3965
  440MPD2    C5 6559   0.477   2.639  14.612  0.5283 -0.7454  0.2702
  440MPD2     H 6560   0.427   2.497  14.955 -1.2523  1.1939  0.1787
  440MPD2    H1 6561   0.665   2.533  14.606  0.6681  0.2863  1.9841
  440MPD2    H2 6562   0.297   2.756  14.641  0.2054 -1.0148 -1.6851
  440MPD2    H3 6563   0.497   2.681  14.514  2.0393  0.0455  0.9167
  440MPD2     N 6564   0.662   2.432  14.845  1.2089  0.1942 -0.2871
  440MPD2    H5 6565   0.741   2.430  14.781  0.3086 -0.0716 -1.3881
  440MPD2    N1 6566   0.235   2.675  14.893 -0.0323  0.8980  0.0451
  440MPD2    H7 6567   0.242   2.626  14.981 -3.3015 -1.2815 -0.9089
  441TMC3    C1 6568   0.779   2.318  15.013 -0.2563  0.2162 -0.6036
  441TMC3    C2 6569   0.861   2.429  15.027 -0.1920 -0.2122 -0.3144
  441TMC3    C3 6570   0.941   2.425  15.141  0.0167 -0.1936 -0.0713
  441TMC3    C4 6571   0.776   2.212  15.102 -0.1648 -0.3142  0.9812
  441TMC3    C5 6572   0.856   2.226  15.215 -0.1419  0.0726  0.0815
  441TMC3    C6 6573   0.940   2.336  15.238  0.1030  0.6715  0.2062
  441TMC3     C 6574   0.653   2.341  14.952 -0.2657  0.6492 -0.6777
  441TMC3     O 6575   0.548   2.292  14.989  0.8959 -0.2996 -0.2917
  441TMC3     H 6576   0.868   2.512  14.957 -0.8309 -0.0674 -0.2058
  441TMC3    H1 6577   0.692   2.146  15.089  1.8460 -2.3857 -1.3255
  441TMC3    H2 6578   1.008   2.342  15.323 -1.2693 -0.5179  1.3956
  441TMC3    C7 6579   0.852   2.111  15.305 -0.2813 -0.5625 -0.4513
  441TMC3    C8 6580   0.990   2.555  15.192  0.4536  0.3129 -0.0708
  441TMC3    O1 6581   0.792   2.016  15.260  0.2859  0.3454 -0.1861
  441TMC3    O2 6582   1.099   2.555  15.243 -0.5862 -0.2056  0.1573
  442MPD2     C 6583   3.259   3.143  16.594 -0.3081 -0.1362  0.3765
  442MPD2    C1 6584   3.209   3.059  16.695  1.1486  0.1787 -0.3875
  442MPD2    C2 6585   3.181   2.926  16.670  0.0835  0.1357 -0.7815
  442MPD2    C3 6586   3.211   2.868  16.552 -0.3364 -0.0995  0.2433
  442MPD2    C4 6587   3.265   2.950  16.455  0.1019  0.6297  0.4025
  442MPD2    C5 6588   3.296   3.084  16.474  0.1719 -0.1261  0.3105
  442MPD2     H 6589   3.133   2.870  16.750 -0.3425  2.4360  0.5863
  442MPD2    H1 6590   3.300   2.912  16.360 -1.4395  1.5159 -0.5382
  442MPD2    H2 6591   3.283   3.245  16.623  0.4490 -0.5309  1.1180
  442MPD2    H3 6592   3.344   3.133  16.390  2.0787 -1.4516  0.6257
  442MPD2     N 6593   3.166   2.738  16.511  0.3225  0.1781 -0.5083
  442MPD2    H5 6594   3.179   2.711  16.414 -0.3592  0.8680 -0.8006
  442MPD2    N1 6595   3.179   3.105  16.830 -0.7880 -0.4570 -0.6080
  442MPD2    H7 6596   3.114   3.048  16.884 -0.4427 -0.6327 -0.3768
  443TMC3    C1 6597   3.135   3.269  16.984 -0.7164  0.2514 -0.1851
  443TMC3    C2 6598   3.063   3.369  16.933 -0.1973  0.3409 -0.0658
  443TMC3    C3 6599   2.927   3.387  16.960 -0.6622 -1.2296 -0.6364
  443TMC3    C4 6600   3.087   3.177  17.068 -0.4600  0.9656  0.2282
  443TMC3    C5 6601   2.959   3.203  17.107 -0.1391 -0.0475  0.4846
  443TMC3    C6 6602   2.879   3.299  17.048  0.2877 -0.2598 -0.4260
  443TMC3     C 6603   3.224   3.222  16.883  0.1973 -0.1930 -0.1961
  443TMC3     O 6604   3.310   3.295  16.845  0.0953 -0.2328  0.3515
  443TMC3     H 6605   3.121   3.434  16.869 -2.0905  1.0398 -1.0747
  443TMC3    H1 6606   3.140   3.091  17.108 -3.5253 -0.7687  0.6061
  443TMC3    H2 6607   2.771   3.300  17.063  0.1444  0.8596 -1.4365
  443TMC3    C7 6608   2.890   3.088  17.172  0.0306  0.2260 -0.3507
  443TMC3    C8 6609   2.855   3.373  16.837 -0.3580  0.3551  0.6186
  443TMC3    O1 6610   2.927   2.974  17.141  0.0494  0.4065  0.3367
  443TMC3    O2 6611   2.794   3.270  16.814  0.7701 -0.3829 -0.1617
  444MPD2     C 6612   3.322   2.512  17.257 -0.1653 -0.4526  0.1201
  444MPD2    C1 6613   3.246   2.405  17.223 -0.2937  0.4797  0.5554
  444MPD2    C2 6614   3.300   2.316  17.134 -0.4268  0.1481  0.4559
  444MPD2    C3 6615   3.425   2.334  17.075 -0.8287  0.3282  1.0657
  444MPD2    C4 6616   3.500   2.439  17.118 -0.4252 -0.2755 -0.2303
  444MPD2    C5 6617   3.448   2.523  17.216  0.4511 -0.2049 -0.3258
  444MPD2     H 6618   3.235   2.234  17.104  0.0919  0.6290 -2.0195
  444MPD2    H1 6619   3.601   2.461  17.085 -0.1727  0.0007  0.7083
  444MPD2    H2 6620   3.293   2.580  17.337  1.2498  1.7075 -1.1990
  444MPD2    H3 6621   3.511   2.600  17.258  1.6305 -1.6777  0.6316
  444MPD2     N 6622   3.473   2.234  16.989 -0.4791 -0.2641 -0.7957
  444MPD2    H5 6623   3.404   2.160  16.978  0.9360 -1.5978 -0.7286
  444MPD2    N1 6624   3.115   2.388  17.270 -0.4436  0.0266 -0.4108
  444MPD2    H7 6625   3.057   2.312  17.235 -0.5471  0.5551 -1.3929
  445TMC3    C1 6626   3.613   2.108  16.844  0.2048  0.4642 -0.3724
  445TMC3    C2 6627   3.533   1.999  16.860  0.2756  0.0919  0.4826
  445TMC3    C3 6628   3.562   1.886  16.778 -0.0619 -0.8189  0.2591
  445TMC3    C4 6629   3.713   2.111  16.749  0.1660 -0.4506  0.1277
  445TMC3    C5 6630   3.733   2.000  16.671  0.1272 -0.4829  0.2147
  445TMC3    C6 6631   3.655   1.888  16.676 -0.3701  0.6921 -0.0247
  445TMC3     C 6632   3.593   2.230  16.927  0.0563 -0.0570 -0.2056
  445TMC3     O 6633   3.685   2.312  16.930 -0.7874  0.4022  0.6162
  445TMC3     H 6634   3.453   1.987  16.932  1.1125  0.1080  1.4083
  445TMC3    H1 6635   3.782   2.194  16.736  1.5927 -1.7276 -0.4367
  445TMC3    H2 6636   3.669   1.808  16.604  0.5256 -0.1401  1.0871
  445TMC3    C7 6637   3.868   1.983  16.613 -0.6560 -0.3274  0.1313
  445TMC3    C8 6638   3.455   1.783  16.781 -0.5675 -0.3211  0.1798
  445TMC3    O1 6639   3.901   2.074  16.536 -1.0703 -0.3511  0.1055
  445TMC3    O2 6640   3.370   1.786  16.865 -0.5772 -0.3947  0.4743
  446MPD2     C 6641   2.946   3.385  11.494  0.2833 -0.9347  0.5211
  446MPD2    C1 6642   2.976   3.392  11.360 -0.1728 -0.2835 -0.1973
  446MPD2    C2 6643   3.057   3.493  11.317 -0.2908  0.6217  0.6047
  446MPD2    C3 6644   3.130   3.570  11.411 -0.6633 -0.0870  0.5595
  446MPD2    C4 6645   3.102   3.563  11.542 -0.0846  0.1576 -0.4947
  446MPD2    C5 6646   3.010   3.467  11.587 -0.0578  0.9286 -0.2274
  446MPD2     H 6647   3.073   3.508  11.211 -1.1380 -2.9592 -0.0142
  446MPD2    H1 6648   3.149   3.629  11.614 -3.3721 -0.1480  1.9412
  446MPD2    H2 6649   2.864   3.325  11.533 -0.5215 -1.4635 -2.0240
  446MPD2    H3 6650   2.973   3.479  11.688 -0.9779 -1.1977 -0.3126
  446MPD2     N 6651   3.239   3.648  11.364 -0.1585  0.1970 -0.2333
  446MPD2    H5 6652   3.243   3.676  11.267 -0.5474  0.1003 -0.2751
  446MPD2    N1 6653   2.910   3.310  11.262 -0.7268 -0.5958 -0.6908
  446MPD2    H7 6654   2.931   3.339  11.167 -1.6288  0.1168 -0.6820
  447TMC3    C1 6655   3.467   3.713  11.368  0.7257 -0.1421 -0.2699
  447TMC3    C2 6656   3.460   3.715  11.236  0.1786 -0.9818 -0.1958
  447TMC3    C3 6657   3.571   3.700  11.162  0.8459  0.0385 -0.9920
  447TMC3    C4 6658   3.583   3.675  11.429  0.0957 -0.3245  0.3327
  447TMC3    C5 6659   3.693   3.652  11.354 -0.2022 -0.2036  0.9470
  447TMC3    C6 6660   3.690   3.667  11.217  0.0297 -0.3653 -1.0399
  447TMC3     C 6661   3.350   3.657  11.438  0.1248  0.5387 -0.0638
  447TMC3     O 6662   3.373   3.602  11.544  0.4591  0.2025 -0.9550
  447TMC3     H 6663   3.373   3.760  11.190  2.2937  1.5051 -1.7462
  447TMC3    H1 6664   3.585   3.680  11.538  0.8843  0.5313  0.2762
  447TMC3    H2 6665   3.778   3.650  11.156 -0.6972 -1.5440 -1.7588
  447TMC3    C7 6666   3.810   3.594  11.417 -0.7868  0.4384 -0.4443
  447TMC3    C8 6667   3.553   3.720  11.016  0.4027 -0.4880  0.5753
  447TMC3    O1 6668   3.905   3.577  11.339  1.1946 -0.3585 -0.0694
  447TMC3    O2 6669   3.466   3.795  10.969  0.0497 -0.8422 -0.1578
  448TMC3    C1 6670   2.359   3.334  17.190  0.5662  0.3805 -0.0529
  448TMC3    C2 6671   2.378   3.198  17.177  0.2587  0.5950  0.0555
  448TMC3    C3 6672   2.305   3.113  17.257  0.3998  0.7736  0.1732
  448TMC3    C4 6673   2.270   3.384  17.280 -0.4309  0.2714  0.5505
  448TMC3    C5 6674   2.192   3.298  17.355  0.4273  0.0115  0.2644
  448TMC3    C6 6675   2.215   3.165  17.345 -1.0102 -0.2522  0.0751
  448TMC3     C 6676   2.403   3.405  17.076  0.3950  1.1859  0.8673
  448TMC3     O 6677   2.435   3.343  16.973  0.0795 -0.3457  0.0594
  448TMC3     H 6678   2.437   3.157  17.096 -0.4171 -2.1802  0.9583
  448TMC3    H1 6679   2.264   3.489  17.305 -4.0867  0.2531 -0.2994
  448TMC3    H2 6680   2.152   3.095  17.398 -1.9087  0.1849 -0.4101
  448TMC3    C7 6681   2.074   3.348  17.428  0.5370  0.5281  1.1601
  448TMC3    C8 6682   2.289   2.971  17.228  0.3059 -0.0669  0.3057
  448TMC3    O1 6683   2.055   3.466  17.412 -0.2281  0.5545 -0.3609
  448TMC3    O2 6684   2.213   2.909  17.300 -0.1817  0.1542  0.2190
  449MPD2     C 6685   2.316   1.618  13.818 -0.4336 -0.1807  0.1075
  449MPD2    C1 6686   2.249   1.682  13.712  0.3943 -0.2631 -1.5162
  449MPD2    C2 6687   2.115   1.696  13.726 -0.2688 -0.3877  0.1268
  449MPD2    C3 6688   2.046   1.646  13.834 -0.0627  0.6911  0.4250
  449MPD2    C4 6689   2.115   1.589  13.948 -0.2958 -0.5497  0.4039
  449MPD2    C5 6690   2.252   1.577  13.936 -0.5227 -0.8439  0.3128
  449MPD2     H 6691   2.066   1.732  13.637  5.0624  3.1632 -1.3378
  449MPD2    H1 6692   2.062   1.571  14.041 -1.0468  1.6617  0.4001
  449MPD2    H2 6693   2.423   1.607  13.813 -0.6352 -0.5912 -3.0457
  449MPD2    H3 6694   2.316   1.538  14.014  0.2600  1.4011  0.7966
  449MPD2     N 6695   1.905   1.651  13.816  0.5366  0.5677 -0.0192
  449MPD2    H5 6696   1.876   1.717  13.744 -0.4929 -1.4902 -1.5248
  449MPD2    N1 6697   2.309   1.720  13.589  0.1501 -0.5716  0.6901
  449MPD2    H7 6698   2.245   1.764  13.525  1.6706 -0.1799 -0.5691
  450TMC3    C1 6699   2.454   1.795  13.431 -0.6421  0.6098  0.2887
  450TMC3    C2 6700   2.542   1.901  13.436  0.0637  0.3723  0.0850
  450TMC3    C3 6701   2.498   2.021  13.390 -0.4466  0.4131  0.2195
  450TMC3    C4 6702   2.336   1.811  13.364  0.6343  0.1519  0.0274
  450TMC3    C5 6703   2.305   1.930  13.303 -0.5367  0.4182  0.5280
  450TMC3    C6 6704   2.386   2.036  13.313  0.2127  0.0643  0.1775
  450TMC3     C 6705   2.445   1.729  13.566 -0.1194  0.1606  0.4026
  450TMC3     O 6706   2.546   1.702  13.635 -0.2042 -0.8468  0.0933
  450TMC3     H 6707   2.633   1.903  13.495 -0.4604 -0.4158  0.9248
  450TMC3    H1 6708   2.266   1.727  13.363  2.1451 -1.0780 -1.2009
  450TMC3    H2 6709   2.366   2.136  13.277  2.5276  1.7164  3.4236
  450TMC3    C7 6710   2.163   1.954  13.328 -0.0887  0.2711 -0.1906
  450TMC3    C8 6711   2.602   2.116  13.362 -0.1718  0.0411 -0.2541
  450TMC3    O1 6712   2.106   1.864  13.387  0.0925  0.1321 -0.0037
  450TMC3    O2 6713   2.573   2.232  13.355  0.3225 -0.0098 -0.5635
  451MPD2     C 6714   4.672   0.890   1.564 -0.5003 -0.0186 -0.8959
  451MPD2    C1 6715   4.585   0.831   1.645 -0.0042  0.3634 -0.1294
  451MPD2    C2 6716   4.639   0.752   1.747  0.3134 -0.3766 -0.4308
  451MPD2    C3 6717   0.045   0.716   1.757 -0.3977  0.6066 -0.0168
  451MPD2    C4 6718   0.132   0.787   1.675 -0.5506 -0.2526 -0.6237
  451MPD2    C5 6719   0.087   0.872   1.577  1.3156 -0.1109 -0.1216
  451MPD2     H 6720   4.569   0.713   1.820  1.5755 -0.5131  0.7095
  451MPD2    H1 6721   0.240   0.776   1.673 -0.1265  3.4352  1.2660
  451MPD2    H2 6722   4.653   0.963   1.486  0.4081  0.4873 -0.6406
  451MPD2    H3 6723   0.151   0.931   1.512  1.0321 -1.1805 -1.3845
  451MPD2     N 6724   0.096   0.623   1.854 -0.1556 -0.2074 -0.3383
  451MPD2    H5 6725   0.193   0.602   1.835  0.1323  2.0656 -1.3638
  451MPD2    N1 6726   4.448   0.872   1.632  0.3163 -0.3677  1.1548
  451MPD2    H7 6727   4.435   0.950   1.568 -2.1422 -0.6108  1.3843
  452TMC3    C1 6728   0.106   0.445   2.010  0.3458  0.7055 -0.5009
  452TMC3    C2 6729   0.050   0.371   2.113  0.1511 -0.0117  0.2386
  452TMC3    C3 6730   0.099   0.243   2.133  0.3245  0.0276  0.3556
  452TMC3    C4 6731   0.214   0.399   1.944  0.5436  0.2926 -0.0230
  452TMC3    C5 6732   0.251   0.266   1.963  0.2747  0.1929  0.2121
  452TMC3    C6 6733   0.201   0.184   2.054  0.7240  0.8736  0.1724
  452TMC3     C 6734   0.026   0.550   1.945  0.1727  0.0155  0.2115
  452TMC3     O 6735   4.627   0.556   1.978  0.4800 -0.5759 -0.0068
  452TMC3     H 6736   4.685   0.414   2.163  0.8327  1.3949  0.2043
  452TMC3    H1 6737   0.250   0.446   1.854  0.1737  2.0644  0.7565
  452TMC3    H2 6738   0.236   0.082   2.070 -2.7569 -0.4432 -0.5222
  452TMC3    C7 6739   0.349   0.208   1.881 -0.0968 -0.2212 -0.2239
  452TMC3    C8 6740   0.037   0.145   2.230 -0.0577  0.0865  0.7728
  452TMC3    O1 6741   0.332   0.091   1.844 -0.1977 -0.2609 -0.0572
  452TMC3    O2 6742   0.055   0.025   2.205  0.5427  0.3775 -0.4450
  453TMC3    C1 6743   0.838   2.442  12.019 -0.4651  0.1452 -0.6373
  453TMC3    C2 6744   0.785   2.322  12.050  0.7679 -0.6667 -0.3447
  453TMC3    C3 6745   0.664   2.292  11.995 -0.4227 -0.1477 -0.0946
  453TMC3    C4 6746   0.774   2.520  11.931 -0.0524 -0.3462 -0.9454
  453TMC3    C5 6747   0.650   2.487  11.876 -0.2303 -0.6362  0.0401
  453TMC3    C6 6748   0.599   2.370  11.912  0.1660 -0.4546 -0.2615
  453TMC3     C 6749   0.974   2.484  12.055  0.0599 -0.5697  0.7084
  453TMC3     O 6750   0.991   2.602  12.060  0.4846  0.5639 -0.2689
  453TMC3     H 6751   0.840   2.251  12.110  0.2668 -0.5720  0.2318
  453TMC3    H1 6752   0.821   2.610  11.896  0.2778 -0.0017  0.3993
  453TMC3    H2 6753   0.512   2.334  11.858  1.3092 -1.0571 -1.6904
  453TMC3    C7 6754   0.637   2.521  11.734  0.6869  0.2053 -0.1940
  453TMC3    C8 6755   0.605   2.159  12.007 -0.4414  0.4383  0.6663
  453TMC3    O1 6756   0.570   2.445  11.661 -0.1732  0.1519 -0.0470
  453TMC3    O2 6757   0.486   2.141  11.986 -0.0003 -0.1708  0.5643
  454MPD2     C 6758   4.097   2.696  16.065 -0.1984 -0.0516  0.3019
  454MPD2    C1 6759   3.968   2.658  16.025 -0.3517 -0.0326  0.1620
  454MPD2    C2 6760   3.862   2.675  16.110 -0.4327  0.7307  0.5804
  454MPD2    C3 6761   3.889   2.703  16.243 -0.2833 -0.6760 -0.2773
  454MPD2    C4 6762   4.018   2.733  16.288  0.2315  0.7597  0.5011
  454MPD2    C5 6763   4.118   2.735  16.199  0.1654 -0.1942 -0.4404
  454MPD2     H 6764   3.772   2.636  16.063 -0.5163  0.2486  1.1385
  454MPD2    H1 6765   4.030   2.755  16.394  3.2580  1.5955 -0.0043
  454MPD2    H2 6766   4.187   2.687  16.005  0.0521  2.0807  0.3524
  454MPD2    H3 6767   4.219   2.754  16.236  0.3369  1.4412 -1.7364
  454MPD2     N 6768   3.801   2.673  16.347 -0.2267 -0.2620 -0.1307
  454MPD2    H5 6769   3.832   2.677  16.443  1.3941 -1.6613 -0.5956
  454MPD2    N1 6770   3.944   2.576  15.912  0.3468  0.2646  0.5040
  454MPD2    H7 6771   3.848   2.543  15.905  0.3650  0.5660 -1.1589
  455TMC3    C1 6772   3.622   2.571  16.448  0.4604 -0.3638  0.1003
  455TMC3    C2 6773   3.588   2.663  16.544  0.9086 -0.4658 -0.0008
  455TMC3    C3 6774   3.516   2.614  16.652 -0.7871 -0.1133  0.0322
  455TMC3    C4 6775   3.568   2.441  16.441  0.7298  0.4574  0.1314
  455TMC3    C5 6776   3.486   2.403  16.545 -0.6614 -0.4192  0.0641
  455TMC3    C6 6777   3.474   2.482  16.660 -0.5333  0.1549 -0.0950
  455TMC3     C 6778   3.673   2.622  16.325 -0.3393  0.2244 -1.0378
  455TMC3     O 6779   3.614   2.614  16.221 -0.6752 -0.0619 -0.2171
  455TMC3     H 6780   3.625   2.765  16.545  0.6094 -0.3679  1.0100
  455TMC3    H1 6781   3.568   2.392  16.345 -0.6553  0.4900  0.1092
  455TMC3    H2 6782   3.412   2.452  16.744  1.5656 -0.8119  1.1291
  455TMC3    C7 6783   3.430   2.271  16.546  0.0770 -0.2383  0.0764
  455TMC3    C8 6784   3.511   2.705  16.762  0.4043 -0.0085 -0.1932
  455TMC3    O1 6785   3.352   2.242  16.640  0.0249 -0.2058  0.1289
  455TMC3    O2 6786   3.613   2.777  16.782 -0.7170 -0.6104  0.3321
  456MPD2     C 6787   1.838   2.014  16.480  0.1003 -0.5445  0.0080
  456MPD2    C1 6788   1.956   2.000  16.559  0.6177  0.7128  0.6373
  456MPD2    C2 6789   1.966   2.060  16.678  0.0835 -1.2832 -0.1714
  456MPD2    C3 6790   1.864   2.138  16.725 -0.4611 -0.0906 -0.4128
  456MPD2    C4 6791   1.756   2.157  16.652 -0.2674  0.5639 -0.4081
  456MPD2    C5 6792   1.740   2.092  16.539  0.2889  0.1564  0.8362
  456MPD2     H 6793   2.052   2.053  16.743 -0.3653  3.7910  0.9565
  456MPD2    H1 6794   1.681   2.227  16.689 -2.1134 -1.0855 -1.0325
  456MPD2    H2 6795   1.820   1.961  16.387  0.7761 -2.3639  0.9053
  456MPD2    H3 6796   1.646   2.092  16.485 -0.1304  0.0623  1.5757
  456MPD2     N 6797   1.881   2.187  16.858 -0.0808 -0.1313  0.9042
  456MPD2    H5 6798   1.972   2.183  16.903  1.2043  1.3338 -1.6115
  456MPD2    N1 6799   2.058   1.916  16.509  0.2279  0.6464  0.2716
  456MPD2    H7 6800   2.046   1.878  16.415  0.3202  1.3003 -0.0025
  457TMC3    C1 6801   1.825   2.272  17.070  0.0490 -0.1863  0.5091
  457TMC3    C2 6802   1.953   2.331  17.070  0.2867  0.6893 -0.0596
  457TMC3    C3 6803   2.008   2.359  17.190 -1.0516 -0.4557  0.3103
  457TMC3    C4 6804   1.761   2.231  17.184 -0.3646 -0.1696  0.6040
  457TMC3    C5 6805   1.827   2.245  17.301 -0.2404 -0.4271  0.3301
  457TMC3    C6 6806   1.950   2.317  17.307  0.1350 -0.2616  0.0775
  457TMC3     C 6807   1.777   2.226  16.936  0.5726 -0.1335 -0.0088
  457TMC3     O 6808   1.658   2.211  16.925 -0.2018  0.4922  0.1123
  457TMC3     H 6809   1.987   2.376  16.978 -0.8552 -0.5181 -1.0651
  457TMC3    H1 6810   1.671   2.173  17.169  0.5200 -1.7703  1.4966
  457TMC3    H2 6811   2.001   2.339  17.400 -2.9936 -0.0573  1.7233
  457TMC3    C7 6812   1.772   2.212  17.429  0.1011  0.0927  0.4542
  457TMC3    C8 6813   2.111   2.465  17.195 -0.6094  0.0151  0.7475
  457TMC3    O1 6814   1.841   2.206  17.528  0.3978 -0.5172  0.1607
  457TMC3    O2 6815   2.114   2.535  17.290 -0.0565 -0.0226 -0.1753
  458MPD2     C 6816   4.294   1.568  12.293  0.0136  0.0230  0.2039
  458MPD2    C1 6817   4.287   1.531  12.422  0.4358 -0.0347  0.3413
  458MPD2    C2 6818   4.174   1.562  12.493 -0.0677 -0.2442  0.1779
  458MPD2    C3 6819   4.069   1.625  12.432  0.8121  0.1971  0.0378
  458MPD2    C4 6820   4.076   1.662  12.295 -0.0629 -0.3275 -0.4447
  458MPD2    C5 6821   4.197   1.634  12.235  0.5448 -0.2730  0.1730
  458MPD2     H 6822   4.162   1.525  12.594 -1.8275 -2.1285 -0.7040
  458MPD2    H1 6823   3.998   1.713  12.239 -0.6078 -1.4007 -0.6713
  458MPD2    H2 6824   4.379   1.535  12.234 -0.6661 -3.1458  0.9909
  458MPD2    H3 6825   4.213   1.664  12.133  0.1167 -1.5560 -0.2703
  458MPD2     N 6826   3.955   1.651  12.516 -0.5358  0.6109 -0.2267
  458MPD2    H5 6827   3.965   1.618  12.612  0.4093 -1.0840 -0.9059
  458MPD2    N1 6828   4.402   1.471  12.484  0.4312  0.2437  0.3386
  458MPD2    H7 6829   4.486   1.470  12.427  1.2580  1.3259  1.5256
  459TMC3    C1 6830   4.534   1.365  12.632 -0.1878 -0.1338  0.2594
  459TMC3    C2 6831   4.645   1.433  12.591  0.2388  0.0780 -0.4508
  459TMC3    C3 6832   0.041   1.421  12.664 -0.0427 -1.1323  0.7498
  459TMC3    C4 6833   4.534   1.272  12.730  0.0727 -0.1345 -0.2391
  459TMC3    C5 6834   4.643   1.264  12.809  0.3854 -0.5298 -0.4081
  459TMC3    C6 6835   0.035   1.329  12.768 -0.3903 -0.0203  0.1551
  459TMC3     C 6836   4.409   1.415  12.608 -0.3177 -0.3593 -0.4941
  459TMC3     O 6837   4.324   1.379  12.683  0.1927 -0.0939 -0.2515
  459TMC3     H 6838   4.644   1.498  12.504 -1.5012 -0.0388 -0.5208
  459TMC3    H1 6839   4.440   1.227  12.759 -0.4959  1.2566  0.0887
  459TMC3    H2 6840   0.129   1.325  12.822 -0.8175  0.2839  0.9144
  459TMC3    C7 6841   4.620   1.244  12.945  0.2996 -0.5741  0.7602
  459TMC3    C8 6842   0.161   1.453  12.591 -0.3079  0.1341 -0.2515
  459TMC3    O1 6843   4.537   1.155  12.966  0.3978  0.6076  0.1855
  459TMC3    O2 6844   0.260   1.382  12.605  0.3596 -0.2077  0.0498
  460MPD2     C 6845   3.725   3.507  10.764  0.7055  0.4029 -0.2573
  460MPD2    C1 6846   3.648   3.614  10.804 -0.1769 -0.4315 -0.0732
  460MPD2    C2 6847   3.576   3.683  10.709  0.5216  0.2203 -0.6768
  460MPD2    C3 6848   3.569   3.635  10.581 -0.2369  0.4924 -0.1853
  460MPD2    C4 6849   3.626   3.516  10.551 -0.2608  0.1957  0.0698
  460MPD2    C5 6850   3.713   3.455  10.635  0.1515  0.2290  0.3084
  460MPD2     H 6851   3.519   3.772  10.734  1.2150  0.2531  0.7955
  460MPD2    H1 6852   3.619   3.475  10.451 -1.3461 -0.2667  0.3320
  460MPD2    H2 6853   3.802   3.461  10.826 -0.1459 -1.1975 -0.3958
  460MPD2    H3 6854   3.753   3.357  10.612  0.4599  0.3047  0.5194
  460MPD2     N 6855   3.490   3.707  10.485  0.4157 -0.3374  0.0619
  460MPD2    H5 6856   3.454   3.796  10.518  1.8385  0.9287 -1.8108
  460MPD2    N1 6857   3.636   3.639  10.943 -0.2110 -0.3282  0.2348
  460MPD2    H7 6858   3.685   3.575  11.005  0.6394  0.0777 -0.0169
  461TMC3    C1 6859   3.370   3.770  10.298 -0.1380  0.0634  0.0158
  461TMC3    C2 6860   3.289   3.702  10.210 -0.4052  0.3885 -0.8774
  461TMC3    C3 6861   3.204   3.784  10.140 -0.0487  0.6258 -0.2668
  461TMC3    C4 6862   3.401   3.903  10.291  0.2818 -0.1759 -0.1491
  461TMC3    C5 6863   3.319   3.977  10.214  0.3261  0.3206 -0.7507
  461TMC3    C6 6864   3.212   3.918  10.148 -0.0027 -0.7226  0.5807
  461TMC3     C 6865   3.470   3.678  10.357 -0.0495 -0.1166  0.1102
  461TMC3     O 6866   3.509   3.584  10.285  0.0529  0.3795 -1.0278
  461TMC3     H 6867   3.275   3.595  10.217  2.6729  0.2249  2.8102
  461TMC3    H1 6868   3.494   3.940  10.333 -0.3707 -0.0863  1.2222
  461TMC3    H2 6869   3.160   3.982  10.078  0.8867  0.3681  0.9295
  461TMC3    C7 6870   3.359   4.106  10.158  0.0640  0.6799  0.8997
  461TMC3    C8 6871   3.159   3.738  10.009  0.0515 -0.2864 -0.3696
  461TMC3    O1 6872   3.282   4.172  10.092  0.2445 -0.5320 -0.8814
  461TMC3    O2 6873   3.137   3.830   9.929  0.7151 -0.0368 -0.1440
  462TMC3    C1 6874   3.846   0.276   0.647  0.1510 -0.4189 -0.1861
  462TMC3    C2 6875   3.956   0.210   0.699 -0.3850 -0.1348 -0.4868
  462TMC3    C3 6876   3.929   0.105   0.783  0.4357  0.2540 -0.0672
  462TMC3    C4 6877   3.717   0.227   0.655  0.0846  0.9189  0.0895
  462TMC3    C5 6878   3.697   0.112   0.732 -0.0006  0.9716  0.1440
  462TMC3    C6 6879   3.799   0.059   0.808 -0.1486  0.0019  0.2121
  462TMC3     C 6880   3.874   0.400   0.584  0.3549 -0.3628  0.7914
  462TMC3     O 6881   3.975   0.461   0.619 -0.0661  0.1456  0.6440
  462TMC3     H 6882   4.058   0.247   0.700  0.1737 -1.7817  2.4775
  462TMC3    H1 6883   3.642   0.256   0.582  0.1393 -0.4970 -0.5295
  462TMC3    H2 6884   3.777   4.682   0.848  0.3745 -0.8937 -1.6834
  462TMC3    C7 6885   3.572   0.045   0.725 -0.2634 -0.3516 -0.1755
  462TMC3    C8 6886   4.033   0.004   0.772  0.3391 -0.6800  0.4233
  462TMC3    O1 6887   3.564   4.654   0.779  0.2597 -0.2530  0.2482
  462TMC3    O2 6888   4.111   0.026   0.680  0.0977 -0.0330  0.1364
  463MPD2     C 6889   0.040   2.536   2.291  0.5460  0.0501 -0.4966
  463MPD2    C1 6890   4.670   2.628   2.241 -0.3018  0.1847 -0.2751
  463MPD2    C2 6891   0.001   2.763   2.218 -0.2999 -0.3084 -0.8420
  463MPD2    C3 6892   0.130   2.801   2.250 -0.3408  0.2319 -0.4931
  463MPD2    C4 6893   0.215   2.713   2.313 -0.2913  0.9351  0.8360
  463MPD2    C5 6894   0.168   2.582   2.338  0.2548 -0.4473 -0.0110
  463MPD2     H 6895   4.649   2.834   2.181  1.4468  0.3881 -2.9827
  463MPD2    H1 6896   0.314   2.744   2.343  0.2419  1.9635 -1.9629
  463MPD2    H2 6897   0.014   2.434   2.313 -1.8756  0.8226  0.2491
  463MPD2    H3 6898   0.230   2.512   2.392  0.0465 -0.1221  0.6470
  463MPD2     N 6899   0.187   2.918   2.206 -0.2225  0.2621  0.2043
  463MPD2    H5 6900   0.284   2.936   2.229 -0.6528 -0.0309  2.2498
  463MPD2    N1 6901   4.537   2.607   2.194  0.3770  0.3596  0.7765
  463MPD2    H7 6902   4.483   2.688   2.165 -0.7168 -0.6846 -0.1217
  464TMC3    C1 6903   4.336   2.506   2.155 -0.0079 -0.1574  0.3951
  464TMC3    C2 6904   4.313   2.610   2.075 -0.5998 -0.5486  0.4473
  464TMC3    C3 6905   4.195   2.615   2.007  0.1497  0.3015 -0.1537
  464TMC3    C4 6906   4.260   2.393   2.162  0.1990  0.3310 -0.7681
  464TMC3    C5 6907   4.138   2.407   2.097  0.1742 -0.0960 -0.1989
  464TMC3    C6 6908   4.104   2.513   2.018 -0.2881  1.0619 -0.3921
  464TMC3     C 6909   4.467   2.489   2.205 -0.4729  0.6476 -0.7525
  464TMC3     O 6910   4.509   2.375   2.226 -0.2802 -0.2479 -0.2212
  464TMC3     H 6911   4.372   2.701   2.070  1.4403 -1.9092 -0.4317
  464TMC3    H1 6912   4.283   2.309   2.227  0.0962  1.1709  0.3517
  464TMC3    H2 6913   4.019   2.498   1.953  0.2364 -0.5096 -0.7107
  464TMC3    C7 6914   4.067   2.282   2.070 -0.0086 -0.7143 -0.0781
  464TMC3    C8 6915   4.167   2.731   1.928 -0.0244  0.0023 -0.5705
  464TMC3    O1 6916   4.134   2.184   2.102  0.0988  0.6916 -0.1416
  464TMC3    O2 6917   4.249   2.822   1.924 -0.0153  0.4446 -0.6342
  465MPD2     C 6918   1.033   2.183  16.011  0.3207  0.2391  0.3205
  465MPD2    C1 6919   0.941   2.209  16.109 -0.0082 -0.5790 -0.3656
  465MPD2    C2 6920   0.834   2.288  16.087 -0.4019  0.0324  0.3739
  465MPD2    C3 6921   0.800   2.320  15.960  0.3788  0.3191 -1.1351
  465MPD2    C4 6922   0.880   2.279  15.856 -0.1225  0.6154 -0.6269
  465MPD2    C5 6923   1.002   2.219  15.883  0.2667 -0.0122 -0.2158
  465MPD2     H 6924   0.764   2.316  16.165  0.0049  0.0303  0.7382
  465MPD2    H1 6925   0.852   2.307  15.755  1.4508  1.2717 -0.8780
  465MPD2    H2 6926   1.126   2.131  16.030  0.0057 -1.2187 -2.0078
  465MPD2    H3 6927   1.071   2.194  15.804 -1.5967  0.2951 -1.9586
  465MPD2     N 6928   0.685   2.396  15.943 -0.3116  0.0985  0.0478
  465MPD2    H5 6929   0.636   2.424  16.027  0.6301  2.8980 -0.3312
  465MPD2    N1 6930   0.967   2.174  16.240  0.0801 -0.5826 -0.1953
  465MPD2    H7 6931   0.887   2.197  16.298  0.2453 -1.2311  0.2819
  466TMC3    C1 6932   0.371   2.566  16.025  0.0658 -0.3032  0.5516
  466TMC3    C2 6933   0.439   2.675  16.076 -0.4934  0.4084  0.1213
  466TMC3    C3 6934   0.556   2.717  16.013  0.1247  0.5234 -0.2032
  466TMC3    C4 6935   0.416   2.497  15.917 -0.5336 -0.1485 -0.6665
  466TMC3    C5 6936   0.531   2.539  15.860  0.0447  0.7347  0.5527
  466TMC3    C6 6937   0.600   2.646  15.905  0.2209  0.2114  0.4943
  466TMC3     C 6938   0.275   2.501  16.120  0.0012 -0.0253 -0.2932
  466TMC3     O 6939   0.242   2.568  16.213  0.7332  0.3584  0.3312
  466TMC3     H 6940   0.395   2.721  16.164  0.9240 -0.8980  1.5103
  466TMC3    H1 6941   0.369   2.414  15.865 -0.1427 -1.1730  0.5979
  466TMC3    H2 6942   0.697   2.669  15.863 -0.6061 -1.4765 -2.3464
  466TMC3    C7 6943   0.621   2.433  15.826 -0.5464  0.0539  0.6569
  466TMC3    C8 6944   0.647   2.821  16.063 -0.4903  0.4546  0.3067
  466TMC3    O1 6945   0.640   2.411  15.707  0.1190 -0.0849  0.3782
  466TMC3    O2 6946   0.757   2.819  16.008 -0.0685  0.7087 -0.1497
  467TMC3    C1 6947   1.422   1.174  14.052  0.2792  0.1793 -0.3590
  467TMC3    C2 6948   1.473   1.288  13.990  0.4300 -0.1272  0.0203
  467TMC3    C3 6949   1.423   1.319  13.864 -0.0105  0.8876  0.3100
  467TMC3    C4 6950   1.343   1.088  13.977 -0.2540  0.2228  0.3513
  467TMC3    C5 6951   1.281   1.136  13.868 -0.5747  0.3677  0.5097
  467TMC3    C6 6952   1.316   1.255  13.809  0.3168 -0.3309 -0.6997
  467TMC3     C 6953   1.533   1.105  14.109 -0.8315 -0.2557 -0.2066
  467TMC3     O 6954   1.583   1.154  14.207  0.4333  0.1352  0.0096
  467TMC3     H 6955   1.564   1.331  14.031 -0.3124  0.4385  1.0799
  467TMC3    H1 6956   1.307   1.002  14.033  2.5709 -0.2302  1.4557
  467TMC3    H2 6957   1.281   1.268  13.707 -1.2199  0.4136 -0.0762
  467TMC3    C7 6958   1.150   1.077  13.828  0.2512 -0.0716 -0.4396
  467TMC3    C8 6959   1.529   1.343  13.763  0.0909  0.6458  0.6272
  467TMC3    O1 6960   1.092   1.144  13.744  0.2875 -0.1688  0.7322
  467TMC3    O2 6961   1.501   1.378  13.650 -0.4804 -0.2144 -0.0610
  468MPD2     C 6962   0.463   3.471  10.756  0.4163  0.3589  0.3055
  468MPD2    C1 6963   0.500   3.454  10.890 -0.0357 -0.3858 -0.5422
  468MPD2    C2 6964   0.533   3.328  10.940 -0.3812 -0.1329  0.2590
  468MPD2    C3 6965   0.549   3.224  10.845  0.5758  0.0780  1.0196
  468MPD2    C4 6966   0.523   3.245  10.709  0.3497  0.5247 -0.4600
  468MPD2    C5 6967   0.483   3.365  10.670 -0.0719  0.5376 -0.5337
  468MPD2     H 6968   0.551   3.323  11.047  1.5351  1.9463  0.0243
  468MPD2    H1 6969   0.547   3.168  10.637  2.7967  1.0194 -0.1649
  468MPD2    H2 6970   0.440   3.571  10.721 -2.1543 -0.6853 -1.0487
  468MPD2    H3 6971   0.451   3.379  10.568 -2.5956  0.2899  0.2214
  468MPD2     N 6972   0.598   3.093  10.881 -0.3181  0.0340  0.3834
  468MPD2    H5 6973   0.614   3.030  10.803  0.0827  0.3769  0.1839
  468MPD2    N1 6974   0.483   3.566  10.981 -0.3327  0.2706  0.4483
  468MPD2    H7 6975   0.499   3.555  11.080  1.4695 -0.4049  0.0790
  469TMC3    C1 6976   0.474   3.793  11.051  0.4332  0.5576  0.4628
  469TMC3    C2 6977   0.589   3.778  11.131  0.1446 -0.3615 -1.0678
  469TMC3    C3 6978   0.608   3.874  11.227  0.1559 -0.3565  0.5069
  469TMC3    C4 6979   0.383   3.893  11.070  0.3163 -0.2579 -0.2487
  469TMC3    C5 6980   0.405   3.976  11.175  0.1097  0.0913  0.6481
  469TMC3    C6 6981   0.519   3.976  11.253 -0.4635  0.0476  0.2234
  469TMC3     C 6982   0.444   3.694  10.947  0.0134  0.2001 -0.2791
  469TMC3     O 6983   0.399   3.742  10.844  0.5413  0.1086 -0.4735
  469TMC3     H 6984   0.667   3.709  11.102 -1.8404 -2.8328 -0.5394
  469TMC3    H1 6985   0.286   3.899  11.023  0.1331 -1.3040 -0.0053
  469TMC3    H2 6986   0.518   4.034  11.344  0.1621  2.9227 -1.6023
  469TMC3    C7 6987   0.280   4.028  11.235 -0.4603 -0.7220  0.3689
  469TMC3    C8 6988   0.749   3.902  11.255 -0.8911 -0.2757  0.4541
  469TMC3    O1 6989   0.174   3.979  11.193 -0.3021 -0.4299  0.3165
  469TMC3    O2 6990   0.819   3.872  11.155  0.6554 -0.2096  1.0162
  470TMC3    C1 6991   2.568   4.633   1.170 -0.6378 -0.2861 -0.6096
  470TMC3    C2 6992   2.670   0.003   1.173 -0.2236  0.3408  0.6672
  470TMC3    C3 6993   2.688   0.083   1.281 -0.3928 -0.4810 -0.6696
  470TMC3    C4 6994   2.463   4.654   1.259 -0.2622  0.0320 -0.0625
  470TMC3    C5 6995   2.493   4.721   1.377 -0.3985  1.0189  0.3265
  470TMC3    C6 6996   2.604   0.077   1.385 -0.0784  0.5111 -0.5054
  470TMC3     C 6997   2.536   4.582   1.044 -0.6363  0.1752 -0.1478
  470TMC3     O 6998   2.590   4.617   0.940 -0.0904 -0.0197 -0.2460
  470TMC3     H 6999   2.737   0.002   1.088 -0.2712  0.0308  0.6337
  470TMC3    H1 7000   2.363   4.611   1.257 -0.4510  0.5708 -1.8281
  470TMC3    H2 7001   2.603   0.148   1.467 -1.4380 -0.4972  0.3652
  470TMC3    C7 7002   2.375   0.052   1.444  0.2164 -0.4181 -0.4735
  470TMC3    C8 7003   2.795   0.170   1.292  0.1708  0.5302  0.4439
  470TMC3    O1 7004   2.276   0.050   1.372 -0.2752  0.0405 -0.2216
  470TMC3    O2 7005   2.823   0.204   1.402  0.0096 -0.6540  0.7175
  471MPD2     C 7006   3.074   1.194  16.828 -0.7418  0.3943 -0.1747
  471MPD2    C1 7007   3.182   1.107  16.837 -0.4146  0.2963  0.0875
  471MPD2    C2 7008   3.275   1.113  16.938  0.8508  0.2463 -0.7973
  471MPD2    C3 7009   3.255   1.208  17.040 -0.3776  0.4931 -0.4128
  471MPD2    C4 7010   3.156   1.307  17.024 -0.2760  0.5249 -0.1945
  471MPD2    C5 7011   3.076   1.302  16.916 -0.1335  0.6668 -0.4188
  471MPD2     H 7012   3.354   1.039  16.936  0.2524 -0.4183  0.2403
  471MPD2    H1 7013   3.144   1.391  17.091 -1.0986  1.1136 -1.0695
  471MPD2    H2 7014   3.013   1.200  16.739  1.3483 -1.6821 -1.7714
  471MPD2    H3 7015   3.006   1.383  16.893 -1.5657 -0.9698 -1.8475
  471MPD2     N 7016   3.340   1.210  17.158  0.1650  0.3059 -0.0534
  471MPD2    H5 7017   3.333   1.284  17.228  1.0232  1.1906 -0.9157
  471MPD2    N1 7018   3.204   1.003  16.742  0.8565 -0.2291  0.1900
  471MPD2    H7 7019   3.281   0.940  16.764  0.5962 -0.7905 -0.5349
  472TMC3    C1 7020   3.143   0.860  16.558 -0.5943 -0.9164  0.6164
  472TMC3    C2 7021   3.136   0.868  16.423  0.0175 -0.3022 -0.1130
  472TMC3    C3 7022   3.154   0.754  16.343 -0.7991 -0.1518 -0.1932
  472TMC3    C4 7023   3.171   0.739  16.616  0.9950 -0.3366  0.4623
  472TMC3    C5 7024   3.205   0.640  16.532  0.2223  0.2147 -0.0558
  472TMC3    C6 7025   3.190   0.636  16.400  0.3153 -0.5198 -0.5403
  472TMC3     C 7026   3.125   0.986  16.631  0.1612  0.7303 -0.0897
  472TMC3     O 7027   3.031   1.050  16.587  0.6657  0.1132  0.0702
  472TMC3     H 7028   3.107   0.965  16.385 -0.1079 -0.3190 -0.0589
  472TMC3    H1 7029   3.169   0.738  16.724 -0.2858 -1.3492  0.4386
  472TMC3    H2 7030   3.236   0.567  16.330  1.8330 -0.5359  0.4616
  472TMC3    C7 7031   3.217   0.511  16.594 -0.5278  0.3954 -0.2865
  472TMC3    C8 7032   3.155   0.774  16.195  0.4626  0.0444  0.7819
  472TMC3    O1 7033   3.257   0.507  16.712 -0.1932 -0.1927  0.0384
  472TMC3    O2 7034   3.267   0.772  16.143  0.0195  0.4018 -0.3417
  473MPD2     C 7035   3.287   2.931  13.953  0.1217  0.4119  0.1415
  473MPD2    C1 7036   3.219   3.040  13.912 -0.0738 -0.1558 -0.0648
  473MPD2    C2 7037   3.248   3.159  13.975  0.7341 -0.3692 -0.0081
  473MPD2    C3 7038   3.343   3.166  14.077 -0.2285  0.1611 -0.1073
  473MPD2    C4 7039   3.408   3.045  14.119 -0.7339  0.2028  0.1925
  473MPD2    C5 7040   3.376   2.936  14.056 -0.3224 -0.2612  0.2043
  473MPD2     H 7041   3.210   3.255  13.942  0.0218 -0.8220 -0.5086
  473MPD2    H1 7042   3.476   3.049  14.203 -0.7321  0.6726  0.1689
  473MPD2    H2 7043   3.271   2.833  13.911  0.0622  0.8157 -0.7763
  473MPD2    H3 7044   3.421   2.841  14.083 -0.8496 -1.2508 -2.4413
  473MPD2     N 7045   3.376   3.290  14.141  0.0307  0.9959 -0.5296
  473MPD2    H5 7046   3.452   3.285  14.208 -1.9965  1.4368  1.7999
  473MPD2    N1 7047   3.128   3.050  13.807  0.9539  0.6834 -0.3031
  473MPD2    H7 7048   3.089   3.139  13.779  0.4172  0.5715  0.0912
  474TMC3    C1 7049   3.356   3.524  14.217  0.6238  0.0435  0.2885
  474TMC3    C2 7050   3.260   3.614  14.258 -0.2677 -0.0462 -0.2920
  474TMC3    C3 7051   3.299   3.714  14.346  0.0356  0.4918 -0.4746
  474TMC3    C4 7052   3.487   3.531  14.272  0.0333 -0.1646 -0.4013
  474TMC3    C5 7053   3.513   3.630  14.365  0.2376 -0.8442 -0.4390
  474TMC3    C6 7054   3.425   3.723  14.403 -0.2440  0.1074  0.5027
  474TMC3     C 7055   3.306   3.413  14.132  0.8318  0.3330 -0.0509
  474TMC3     O 7056   3.202   3.442  14.079 -0.0323 -0.4166  0.9096
  474TMC3     H 7057   3.161   3.628  14.216  0.9153  1.6402 -2.5327
  474TMC3    H1 7058   3.571   3.465  14.253  0.6624  0.5202 -0.0150
  474TMC3    H2 7059   3.437   3.804  14.474 -0.2397  1.7377 -1.3450
  474TMC3    C7 7060   3.636   3.624  14.439  0.0286  0.3930 -0.7345
  474TMC3    C8 7061   3.190   3.780  14.420 -0.3442 -0.0712  0.2459
  474TMC3    O1 7062   3.738   3.593  14.384  0.0352 -0.9324  0.4900
  474TMC3    O2 7063   3.088   3.713  14.426 -0.3878  0.5031 -0.2012
  475MPD2     C 7064   1.891   0.962  10.306  0.2219 -0.6856  0.7852
  475MPD2    C1 7065   1.949   1.084  10.288  0.0237  0.2130 -0.5389
  475MPD2    C2 7066   1.880   1.193  10.328  0.3758 -0.4637 -0.6165
  475MPD2    C3 7067   1.757   1.190  10.393 -0.2775  0.6033 -0.0498
  475MPD2    C4 7068   1.695   1.069  10.403  0.5619  0.7245  0.9635
  475MPD2    C5 7069   1.766   0.958  10.355  0.1896 -0.3301  0.0611
  475MPD2     H 7070   1.912   1.293  10.304 -0.9487 -0.4087 -2.1144
  475MPD2    H1 7071   1.603   1.055  10.459  0.0136  1.4431  0.2483
  475MPD2    H2 7072   1.942   0.868  10.288  0.3685 -0.1761 -1.5012
  475MPD2    H3 7073   1.720   0.862  10.375 -0.7972  0.0065 -0.6466
  475MPD2     N 7074   1.692   1.309  10.439 -1.3770  0.1408 -0.2955
  475MPD2    H5 7075   1.741   1.391  10.406 -0.1101 -1.4398 -2.4282
  475MPD2    N1 7076   2.078   1.090  10.237 -1.1491 -0.3800  0.6256
  475MPD2    H7 7077   2.120   1.003  10.206  0.9699  0.3104  1.5288
  476TMC3    C1 7078   2.284   1.180  10.192 -0.2964 -0.8599 -0.1691
  476TMC3    C2 7079   2.276   1.122  10.071  0.0406 -0.2580 -0.4432
  476TMC3    C3 7080   2.377   1.153   9.983  0.2810 -0.2761 -0.0263
  476TMC3    C4 7081   2.377   1.272  10.227 -0.5384 -0.6393  0.6643
  476TMC3    C5 7082   2.473   1.294  10.138 -0.7221 -0.7204 -0.1322
  476TMC3    C6 7083   2.476   1.235  10.021  0.4947 -0.4728 -0.2072
  476TMC3     C 7084   2.161   1.194  10.258  0.8985 -0.1988 -0.3584
  476TMC3     O 7085   2.149   1.286  10.340 -0.1817  0.2113  0.0679
  476TMC3     H 7086   2.204   1.050  10.034 -0.5201 -0.1806  0.4897
  476TMC3    H1 7087   2.373   1.311  10.328  0.6487 -0.3440  0.5901
  476TMC3    H2 7088   2.560   1.255   9.954  2.2647 -0.0711  2.1362
  476TMC3    C7 7089   2.586   1.373  10.182  0.1667  0.3862 -1.4519
  476TMC3    C8 7090   2.326   1.172   9.844 -0.4474  0.1132 -0.6281
  476TMC3    O1 7091   2.697   1.349  10.137  0.8806 -0.0932 -0.7051
  476TMC3    O2 7092   2.244   1.090   9.807 -0.0739  0.3157 -0.1654
  477MPD2     C 7093   4.097   3.120  11.758 -0.3513  0.0722  0.1266
  477MPD2    C1 7094   3.987   3.122  11.843 -0.4699  0.1989  0.5665
  477MPD2    C2 7095   4.005   3.109  11.980  0.1113  0.3840 -0.9061
  477MPD2    C3 7096   4.129   3.064  12.022  0.5176  0.4108  0.5720
  477MPD2    C4 7097   4.234   3.051  11.930 -0.1731  0.3095  0.2245
  477MPD2    C5 7098   4.222   3.093  11.800 -0.1593 -0.2988  0.3223
  477MPD2     H 7099   3.925   3.126  12.051  0.9033  0.5169 -0.0551
  477MPD2    H1 7100   4.331   3.015  11.964 -0.4263  0.3561  0.9913
  477MPD2    H2 7101   4.081   3.139  11.653 -0.1211 -2.0968 -0.3003
  477MPD2    H3 7102   4.310   3.085  11.737 -0.3843  1.3634 -0.2274
  477MPD2     N 7103   4.154   3.020  12.150 -0.0073 -0.9279 -0.4795
  477MPD2    H5 7104   4.236   2.960  12.156 -0.2739 -1.5509 -2.9876
  477MPD2    N1 7105   3.861   3.156  11.780 -0.5865  0.5216  0.3772
  477MPD2    H7 7106   3.855   3.175  11.681 -0.8893 -1.7615 -0.0536
  478TMC3    C1 7107   3.639   3.224  11.765 -0.9120  0.1059 -0.2074
  478TMC3    C2 7108   3.520   3.242  11.829  0.2698  0.2659  0.4086
  478TMC3    C3 7109   3.418   3.292  11.759  0.9823  0.4192  0.2267
  478TMC3    C4 7110   3.652   3.255  11.634 -0.1452  0.9562 -0.5480
  478TMC3    C5 7111   3.548   3.282  11.562  0.4038  0.4353  0.2739
  478TMC3    C6 7112   3.429   3.320  11.626 -0.1577 -0.0945 -0.2960
  478TMC3     C 7113   3.744   3.179  11.849 -0.1939  0.8932 -0.1451
  478TMC3     O 7114   3.725   3.169  11.966  0.1503 -0.0994 -0.7000
  478TMC3     H 7115   3.504   3.208  11.931  0.5806 -0.6075  0.1714
  478TMC3    H1 7116   3.744   3.238  11.579  2.2474 -0.2928  3.8243
  478TMC3    H2 7117   3.344   3.359  11.572 -0.1440 -0.4135 -0.5463
  478TMC3    C7 7118   3.562   3.276  11.417  0.3057 -0.2395  0.1788
  478TMC3    C8 7119   3.344   3.384  11.843  0.1773  0.0985  0.8315
  478TMC3    O1 7120   3.659   3.216  11.374  0.0839 -0.2253 -0.8434
  478TMC3    O2 7121   3.311   3.345  11.954 -0.6369 -0.3153  0.2404
  479MPD2     C 7122   2.674   0.482  15.136 -0.1883  0.3967  0.2190
  479MPD2    C1 7123   2.660   0.389  15.233  0.1417  0.1016  0.1296
  479MPD2    C2 7124   2.737   0.400  15.349 -0.3036  0.1611  0.0452
  479MPD2    C3 7125   2.836   0.495  15.366 -0.1498  0.1444 -0.0853
  479MPD2    C4 7126   2.853   0.585  15.264  0.4993 -0.5386 -0.0616
  479MPD2    C5 7127   2.770   0.577  15.156 -0.6361 -0.7024 -0.9564
  479MPD2     H 7128   2.718   0.320  15.420 -2.0734  0.5653  0.0169
  479MPD2    H1 7129   2.938   0.653  15.266  0.3503 -0.3759  0.6499
  479MPD2    H2 7130   2.624   0.496  15.041  0.0620  0.1437  0.0519
  479MPD2    H3 7131   2.791   0.642  15.072 -0.0928  2.2306  1.4705
  479MPD2     N 7132   2.910   0.512  15.486  0.2853 -0.5565 -0.2308
  479MPD2    H5 7133   2.986   0.579  15.478 -1.0125  0.8416 -0.8589
  479MPD2    N1 7134   2.557   0.303  15.215 -0.7791 -0.6810  0.5961
  479MPD2    H7 7135   2.490   0.309  15.139 -2.3644 -0.3492  2.0183
  480TMC3    C1 7136   2.808   0.514  15.909 -0.0962  0.6361 -1.0691
  480TMC3    C2 7137   2.740   0.632  15.889 -0.7719 -0.7804 -0.1480
  480TMC3    C3 7138   2.783   0.714  15.782  0.5470 -0.7648 -0.4095
  480TMC3    C4 7139   2.899   0.469  15.826  0.5240 -0.2102  0.0507
  480TMC3    C5 7140   2.929   0.538  15.713  0.4434 -0.4460 -0.1957
  480TMC3    C6 7141   2.877   0.668  15.697 -0.4535 -0.7069 -0.1141
  480TMC3     C 7142   2.754   0.418  16.007 -0.8038 -0.0367  0.3720
  480TMC3     O 7143   2.836   0.342  16.057  0.2029 -0.2069  0.0901
  480TMC3     H 7144   2.665   0.668  15.958 -0.1459 -0.5514  0.4109
  480TMC3    H1 7145   2.944   0.370  15.832 -0.7985 -0.9145 -1.4206
  480TMC3    H2 7146   2.926   0.727  15.620  0.8413  0.0411  1.2883
  480TMC3    C7 7147   2.887   0.454  15.606 -0.7421  0.0897 -0.5921
  480TMC3    C8 7148   2.671   0.766  15.714  1.0839  0.2868  0.6966
  480TMC3    O1 7149   2.810   0.360  15.639  0.0685  0.1655  0.2159
  480TMC3    O2 7150   2.566   0.723  15.756 -0.3756 -0.1817  0.0548
  481MPD2     C 7151   4.705   0.428  14.848  0.7725  0.1327 -0.5115
  481MPD2    C1 7152   4.600   0.378  14.782  0.0571  0.1889  0.4671
  481MPD2    C2 7153   4.472   0.376  14.838 -0.2540 -0.0863 -0.4390
  481MPD2    C3 7154   4.454   0.423  14.971 -0.0673 -0.2371  1.3685
  481MPD2    C4 7155   4.563   0.488  15.023  0.7025  0.3811 -0.3495
  481MPD2    C5 7156   4.689   0.489  14.969 -0.2652  0.3936  0.3915
  481MPD2     H 7157   4.387   0.340  14.781 -0.6620  0.1159  0.0397
  481MPD2    H1 7158   4.552   0.532  15.122  1.5931 -1.0407  0.3856
  481MPD2    H2 7159   0.083   0.416  14.806  1.3211  2.3295  0.1504
  481MPD2    H3 7160   0.050   0.544  15.013  0.4582 -0.2124 -0.2068
  481MPD2     N 7161   4.331   0.412  15.047 -0.5615 -0.2919 -0.7958
  481MPD2    H5 7162   4.320   0.433  15.145 -2.2470  0.6008 -1.1888
  481MPD2    N1 7163   4.626   0.325  14.655  0.0983 -0.3909 -0.1762
  481MPD2    H7 7164   0.000   0.299  14.634  1.1049  3.2353 -0.0849
  482TMC3    C1 7165   4.595   0.295  14.429  0.9610 -0.2239 -0.7321
  482TMC3    C2 7166   4.698   0.196  14.424  0.1336  0.0623  0.2565
  482TMC3    C3 7167   0.012   0.156  14.297  0.9798 -0.2079 -0.3961
  482TMC3    C4 7168   4.545   0.369  14.327 -0.4568 -1.1414  1.0985
  482TMC3    C5 7169   4.588   0.317  14.205 -0.3417  0.6671 -0.5236
  482TMC3    C6 7170   4.678   0.219  14.191  0.1608 -0.1739  0.4180
  482TMC3     C 7171   4.528   0.323  14.555  0.5729  0.1970 -0.2210
  482TMC3     O 7172   4.419   0.375  14.561  0.4351 -0.1464 -0.5449
  482TMC3     H 7173   4.712   0.127  14.506 -1.3696 -0.4206  0.1120
  482TMC3    H1 7174   4.463   0.438  14.342  0.6054  0.9660 -2.9610
  482TMC3    H2 7175   4.699   0.181  14.092  0.3041 -1.5109  0.9548
  482TMC3    C7 7176   4.522   0.363  14.085 -0.3143 -0.1784  0.3742
  482TMC3    C8 7177   0.038   0.012  14.266  0.1272 -0.5960 -0.3933
  482TMC3    O1 7178   4.505   0.285  13.992 -0.8284  0.2229  0.6943
  482TMC3    O2 7179   4.713   4.644  14.334 -0.4502  0.1021  0.5505
  483TMC3    C1 7180   2.044   3.564   0.980 -0.2218  0.2023  0.3242
  483TMC3    C2 7181   2.072   3.682   1.037 -0.0837 -0.1652  0.2948
  483TMC3    C3 7182   2.148   3.688   1.149 -0.0136 -0.3730  0.1194
  483TMC3    C4 7183   2.105   3.449   1.030  0.4402 -0.1406  0.0990
  483TMC3    C5 7184   2.182   3.451   1.140  0.0300  0.4044 -0.4367
  483TMC3    C6 7185   2.203   3.572   1.204 -0.0102  0.7878 -0.6481
  483TMC3     C 7186   1.999   3.568   0.839  0.2959 -0.5699  0.0832
  483TMC3     O 7187   1.997   3.674   0.786  0.2858 -0.2741  0.1269
  483TMC3     H 7188   2.030   3.777   1.005  0.9095 -0.8706 -3.1128
  483TMC3    H1 7189   2.101   3.368   0.957  0.5444  0.5906 -0.7166
  483TMC3    H2 7190   2.291   3.581   1.266 -0.9665 -1.7272  1.0504
  483TMC3    C7 7191   2.271   3.340   1.177  0.2513  0.7816  0.5550
  483TMC3    C8 7192   2.235   3.808   1.150 -0.3872 -0.8312 -0.3025
  483TMC3    O1 7193   2.354   3.365   1.261 -0.1364 -0.2853 -0.3549
  483TMC3    O2 7194   2.234   3.880   1.049  0.2443 -0.0118  0.0842
  484MPD2     C 7195   0.216   1.749  12.382  0.2208  0.3552 -0.8664
  484MPD2    C1 7196   0.252   1.630  12.450  0.2215  0.0675  0.4141
  484MPD2    C2 7197   0.382   1.586  12.440 -0.7060 -0.4154 -0.3850
  484MPD2    C3 7198   0.474   1.657  12.361 -0.1707 -0.1482  0.4616
  484MPD2    C4 7199   0.437   1.778  12.315  0.9373  0.2017 -0.3435
  484MPD2    C5 7200   0.306   1.822  12.315  0.4530 -0.0849  0.3253
  484MPD2     H 7201   0.403   1.489  12.485 -2.5761 -1.4298 -1.6839
  484MPD2    H1 7202   0.510   1.845  12.271 -0.1334 -0.3820 -3.0177
  484MPD2    H2 7203   0.114   1.785  12.382 -0.2570 -1.0316 -0.7038
  484MPD2    H3 7204   0.285   1.918  12.270 -1.0674 -1.1982 -1.3203
  484MPD2     N 7205   0.610   1.610  12.340 -0.3325  0.1967 -0.2022
  484MPD2    H5 7206   0.664   1.674  12.282  1.4156  0.0469  1.2360
  484MPD2    N1 7207   0.150   1.574  12.530  0.3098  0.6208 -0.0038
  484MPD2    H7 7208   0.058   1.617  12.534  0.8608  1.7548  0.3527
  485TMC3    C1 7209   0.804   1.485  12.348  0.3451 -0.2397 -0.7883
  485TMC3    C2 7210   0.846   1.352  12.357  0.3223 -0.8976  0.3048
  485TMC3    C3 7211   0.976   1.323  12.398 -0.1191  0.6832  0.0097
  485TMC3    C4 7212   0.889   1.593  12.387  0.4499 -0.1137 -0.1136
  485TMC3    C5 7213   1.007   1.558  12.445  0.1421  0.7450 -0.6107
  485TMC3    C6 7214   1.047   1.427  12.460 -0.1599 -0.8394 -0.5619
  485TMC3     C 7215   0.664   1.492  12.389 -0.2784  1.2522 -0.0636
  485TMC3     O 7216   0.612   1.402  12.457  0.0495 -0.3654  0.1052
  485TMC3     H 7217   0.781   1.268  12.333 -1.0872  0.4535 -0.6138
  485TMC3    H1 7218   0.869   1.699  12.381 -0.8487 -0.3824 -0.4719
  485TMC3    H2 7219   1.138   1.406  12.514 -0.6887  0.4810  0.8393
  485TMC3    C7 7220   1.119   1.644  12.411 -0.0425 -0.8647 -0.3684
  485TMC3    C8 7221   1.069   1.245  12.317  0.0947  0.2003  0.1096
  485TMC3    O1 7222   1.104   1.765  12.412 -0.1354 -0.4706 -0.1516
  485TMC3    O2 7223   1.182   1.290  12.325 -0.6932  0.3311  0.1368
  486MPD2     C 7224   2.953   0.866  13.198 -0.8065 -0.9903 -0.7528
  486MPD2    C1 7225   2.876   0.845  13.088  0.1869 -1.2683  0.5120
  486MPD2    C2 7226   2.801   0.954  13.039 -0.1218  0.4339  0.4862
  486MPD2    C3 7227   2.801   1.078  13.098 -0.2028  0.6554 -0.3883
  486MPD2    C4 7228   2.870   1.096  13.212 -0.2539  0.0228 -0.0847
  486MPD2    C5 7229   2.952   0.994  13.257  0.2789 -0.6109 -0.2590
  486MPD2     H 7230   2.740   0.942  12.950  0.3613  0.4249  0.1571
  486MPD2    H1 7231   2.876   1.193  13.262 -0.7165  1.4782 -2.8767
  486MPD2    H2 7232   3.019   0.789  13.238 -0.2307  0.5507  1.2568
  486MPD2    H3 7233   3.021   1.001  13.340 -1.5575  2.2478  0.9992
  486MPD2     N 7234   2.701   1.161  13.042  0.1306  0.4823  0.1027
  486MPD2    H5 7235   2.654   1.130  12.958 -2.0768  1.6920  0.8862
  486MPD2    N1 7236   2.892   0.724  13.020 -0.1484 -0.4467  0.0097
  486MPD2    H7 7237   2.917   0.645  13.078  2.0202  0.2312  0.0215
  487TMC3    C1 7238   2.816   0.571  12.861  0.2590  0.0617 -0.2212
  487TMC3    C2 7239   2.708   0.549  12.784  0.2297  0.5524 -0.0845
  487TMC3    C3 7240   2.668   0.416  12.772  0.2414  0.2848 -0.1823
  487TMC3    C4 7241   2.868   0.476  12.948  0.6764 -1.1747 -0.3748
  487TMC3    C5 7242   2.822   0.349  12.933 -0.8251  0.3519  0.2791
  487TMC3    C6 7243   2.742   0.313  12.825  0.0864 -0.1700 -0.0322
  487TMC3     C 7244   2.853   0.705  12.889  0.3608  0.2563  0.5749
  487TMC3     O 7245   2.821   0.792  12.808  0.1276 -0.0390  0.6714
  487TMC3     H 7246   2.656   0.623  12.725 -0.8529 -1.1559 -1.2860
  487TMC3    H1 7247   2.961   0.493  13.001  0.9398  0.9218 -1.5077
  487TMC3    H2 7248   2.697   0.214  12.829 -1.5648  0.6671  2.0076
  487TMC3    C7 7249   2.789   0.294  13.062  0.2976 -0.4336  0.8036
  487TMC3    C8 7250   2.536   0.416  12.815  0.4587 -0.2573 -0.2303
  487TMC3    O1 7251   2.802   0.373  13.153  0.3956  0.5260  0.5550
  487TMC3    O2 7252   2.501   0.503  12.893 -0.5822 -0.4054 -0.1576
  488MPD2     C 7253   2.702   2.313  16.481 -0.1594 -0.6509  0.1321
  488MPD2    C1 7254   2.727   2.434  16.543 -0.3884 -0.1689  0.4337
  488MPD2    C2 7255   2.708   2.445  16.682  0.0514  0.2184 -0.8068
  488MPD2    C3 7256   2.659   2.339  16.759  0.5431  0.7903 -0.2169
  488MPD2    C4 7257   2.638   2.223  16.694 -0.0972 -0.1786  0.0819
  488MPD2    C5 7258   2.653   2.213  16.561 -0.0397 -0.2278  0.4473
  488MPD2     H 7259   2.714   2.542  16.728 -0.8204  0.2766 -0.8180
  488MPD2    H1 7260   2.602   2.133  16.741 -1.0062  0.8600  1.3826
  488MPD2    H2 7261   2.712   2.287  16.376  0.2969  2.7686 -0.6763
  488MPD2    H3 7262   2.624   2.118  16.517  0.8913  1.1727 -3.1062
  488MPD2     N 7263   2.624   2.361  16.891  0.2943 -0.3772  0.1908
  488MPD2    H5 7264   2.642   2.449  16.938  0.9170 -0.2882 -0.2154
  488MPD2    N1 7265   2.762   2.553  16.472 -0.0774 -0.1410 -0.1028
  488MPD2    H7 7266   2.767   2.642  16.521 -0.1777  0.5299 -1.3072
  489TMC3    C1 7267   2.535   2.337  17.106  0.0007 -0.3232 -0.2588
  489TMC3    C2 7268   2.612   2.446  17.146  0.2153  0.5892  0.0025
  489TMC3    C3 7269   2.594   2.493  17.275  0.0298 -0.1153 -0.3466
  489TMC3    C4 7270   2.434   2.288  17.181 -0.1516  0.8113  0.2020
  489TMC3    C5 7271   2.420   2.341  17.312  0.0724 -0.2462 -0.3098
  489TMC3    C6 7272   2.510   2.435  17.362  0.0551 -0.0164 -0.2341
  489TMC3     C 7273   2.563   2.270  16.979 -0.3866 -0.0297 -0.6974
  489TMC3     O 7274   2.509   2.163  16.951 -0.1183  0.6907  0.1905
  489TMC3     H 7275   2.682   2.491  17.076  0.3163 -0.7780 -0.7737
  489TMC3    H1 7276   2.364   2.216  17.139  0.1674 -0.3274  1.6184
  489TMC3    H2 7277   2.506   2.462  17.467  3.0751  0.0148 -0.1304
  489TMC3    C7 7278   2.335   2.288  17.414 -0.8389  0.0798  0.2272
  489TMC3    C8 7279   2.640   2.628  17.295 -0.4175  0.6524 -0.1740
  489TMC3    O1 7280   2.283   2.362  17.498 -0.1131  0.4590 -0.2250
  489TMC3    O2 7281   2.744   2.652  17.237 -0.2063 -0.1961  0.8255
  490MPD2     C 7282   3.568   1.755  17.218 -0.0390  0.0869  0.2546
  490MPD2    C1 7283   3.481   1.813  17.296  1.0856 -0.8288 -0.4852
  490MPD2    C2 7284   3.492   1.944  17.330  0.3264  0.5857 -0.2193
  490MPD2    C3 7285   3.591   2.026  17.273  1.0130 -0.2847  0.4285
  490MPD2    C4 7286   3.668   1.970  17.172 -0.2782  0.3483 -0.2615
  490MPD2    C5 7287   3.657   1.832  17.152 -0.3840 -0.8836  0.8545
  490MPD2     H 7288   3.427   1.984  17.408 -0.6003 -1.9372  0.3161
  490MPD2    H1 7289   3.747   2.022  17.120  0.3905  0.0699  0.4766
  490MPD2    H2 7290   3.573   1.647  17.204  0.3714  0.1290  0.0785
  490MPD2    H3 7291   3.718   1.783  17.078  0.6117  2.0765 -0.3056
  490MPD2     N 7292   3.618   2.157  17.315 -0.9636  0.8331 -0.3409
  490MPD2    H5 7293   3.713   2.182  17.291 -0.8300  1.1453  0.5022
  490MPD2    N1 7294   3.382   1.736  17.363  0.3486  0.1538 -0.3614
  490MPD2    H7 7295   3.313   1.784  17.420  1.9581  1.5149  0.4432
  491TMC3    C1 7296   3.265   1.567  17.469 -0.2609 -0.5018 -0.3972
  491TMC3    C2 7297   3.232   1.656  17.564  0.2967  0.4896  0.4535
  491TMC3    C3 7298   3.110   1.635  17.624 -0.7048 -0.4089 -0.2440
  491TMC3    C4 7299   3.191   1.458  17.443 -0.0092 -0.4109 -0.3104
  491TMC3    C5 7300   3.068   1.444  17.496  0.6779 -0.0672 -0.0582
  491TMC3    C6 7301   3.023   1.533  17.589  0.3983  0.5025  0.4868
  491TMC3     C 7302   3.365   1.599  17.366 -0.8332  0.5019  0.1670
  491TMC3     O 7303   3.418   1.506  17.316 -0.0818  0.2269  0.5164
  491TMC3     H 7304   3.296   1.734  17.602  0.3019  1.1298 -0.8765
  491TMC3    H1 7305   3.215   1.384  17.368 -2.8626 -1.9623  0.3061
  491TMC3    H2 7306   2.927   1.517  17.637 -0.8112  0.3822 -1.9752
  491TMC3    C7 7307   2.976   1.387  17.401  0.1359  0.4792  0.2027
  491TMC3    C8 7308   3.080   1.698   0.062 -0.0318  0.1208  0.0158
  491TMC3    O1 7309   2.997   1.269  17.369  0.0908  0.3135 -0.1698
  491TMC3    O2 7310   3.008   1.633   0.133 -0.4896 -0.0968  0.3473
  492MPD2     C 7311   4.017   1.719  11.676 -0.0386 -0.6385  0.1629
  492MPD2    C1 7312   3.921   1.644  11.611 -0.1405  0.5119  0.0693
  492MPD2    C2 7313   3.855   1.537  11.667  0.6168  0.1173  0.0750
  492MPD2    C3 7314   3.881   1.503  11.800  0.1885  0.0786 -0.4975
  492MPD2    C4 7315   3.973   1.585  11.869  0.3072 -0.2474 -0.7214
  492MPD2    C5 7316   4.040   1.688  11.807  0.5570  0.4971  0.4199
  492MPD2     H 7317   3.778   1.482  11.615 -0.7038  1.3026  0.7939
  492MPD2    H1 7318   3.991   1.568  11.975  1.5005  0.5881 -0.7892
  492MPD2    H2 7319   4.076   1.790  11.618 -0.3808 -0.1829  0.3765
  492MPD2    H3 7320   4.109   1.747  11.866  0.5491 -0.8597  1.7770
  492MPD2     N 7321   3.800   1.419  11.870 -0.2666  0.4235  0.2198
  492MPD2    H5 7322   3.809   1.422  11.971 -1.5163 -0.1344  0.3534
  492MPD2    N1 7323   3.913   1.679  11.474 -0.2566  0.4610  0.9705
  492MPD2    H7 7324   3.977   1.752  11.444  1.9201 -2.2166 -0.9732
  493TMC3    C1 7325   3.818   1.727  11.268 -0.2026  0.5278  0.0578
  493TMC3    C2 7326   3.876   1.851  11.279 -0.3542  0.0519  0.4048
  493TMC3    C3 7327   3.901   1.923  11.164 -0.0776  0.0073 -0.4966
  493TMC3    C4 7328   3.780   1.664  11.155 -1.0178 -0.1803  0.7334
  493TMC3    C5 7329   3.806   1.739  11.041 -0.3352  0.5062 -0.6501
  493TMC3    C6 7330   3.856   1.869  11.043 -0.9516  0.6498  0.4751
  493TMC3     C 7331   3.805   1.651  11.387 -0.5096 -0.2490  0.2750
  493TMC3     O 7332   3.718   1.567  11.393  0.0090  0.3918  0.3176
  493TMC3     H 7333   3.898   1.898  11.375  0.2782  1.0417 -0.2181
  493TMC3    H1 7334   3.732   1.567  11.157 -2.5299  0.5908  1.3549
  493TMC3    H2 7335   3.870   1.927  10.952  1.0811 -2.2833 -1.1177
  493TMC3    C7 7336   3.758   1.680  10.913  0.6757  0.1078  1.1307
  493TMC3    C8 7337   3.965   2.052  11.174  0.5693 -0.3554  0.2866
  493TMC3    O1 7338   3.668   1.593  10.915 -0.1374 -1.3560 -0.0649
  493TMC3    O2 7339   4.029   2.067  11.278  0.2756  0.5782 -0.4607
  494TMC3    C1 7340   4.458   3.436   0.762  0.2589  0.2731  0.1953
  494TMC3    C2 7341   4.426   3.303   0.742  0.3886 -0.4083  0.2574
  494TMC3    C3 7342   4.482   3.244   0.634 -0.4660 -0.3698 -0.2405
  494TMC3    C4 7343   4.548   3.500   0.686 -0.6363 -0.0070 -0.4630
  494TMC3    C5 7344   4.594   3.443   0.570 -0.4199 -0.8893 -0.4655
  494TMC3    C6 7345   4.564   3.312   0.546 -0.7402 -0.2712  0.8814
  494TMC3     C 7346   4.450   3.478   0.897 -0.1068  0.6287  0.0691
  494TMC3     O 7347   4.351   3.439   0.960  0.1820  0.8749  0.5725
  494TMC3     H 7348   4.366   3.245   0.812  1.0432 -2.2094 -0.6688
  494TMC3    H1 7349   4.550   3.608   0.697  2.4819 -0.2168  1.0646
  494TMC3    H2 7350   4.605   3.255   0.463  1.6780  1.9715  0.5371
  494TMC3    C7 7351   4.612   3.515   0.444 -0.8146  0.0231  0.6565
  494TMC3    C8 7352   4.498   3.096   0.656  0.3423 -0.1518  0.0525
  494TMC3    O1 7353   4.571   3.469   0.340 -0.5344  0.2061  0.2802
  494TMC3    O2 7354   4.464   3.056   0.768  0.1757  0.8103 -0.1291
  495TMC3    C1 7355   2.933   0.725  14.837 -0.2062 -0.2086  0.1098
  495TMC3    C2 7356   2.842   0.730  14.740 -0.0432  0.1249 -0.8517
  495TMC3    C3 7357   2.757   0.836  14.738  0.4598  0.5647  0.7443
  495TMC3    C4 7358   2.942   0.817  14.937  0.6837  0.8880 -0.0907
  495TMC3    C5 7359   2.837   0.907  14.950  0.1818 -0.5054 -0.0333
  495TMC3    C6 7360   2.743   0.909  14.853  0.2977  1.0646 -0.0954
  495TMC3     C 7361   2.984   0.588  14.866 -0.1236 -0.1434 -0.9509
  495TMC3     O 7362   3.062   0.580  14.962 -0.0486 -0.3255 -0.5562
  495TMC3     H 7363   2.854   0.665  14.655  2.3873  1.8336 -1.8292
  495TMC3    H1 7364   3.008   0.797  15.020 -1.7565 -1.4094  1.2646
  495TMC3    H2 7365   2.669   0.988  14.854  0.1506  0.8990  1.3319
  495TMC3    C7 7366   2.782   0.925  15.085 -0.4804  0.2673 -0.4448
  495TMC3    C8 7367   2.640   0.813  14.658  0.4247 -0.4886 -0.4749
  495TMC3    O1 7368   2.862   0.969  15.165 -0.0694  0.2196  0.2058
  495TMC3    O2 7369   2.533   0.823  14.711  0.2826  0.6343 -0.0592
  496MPD2     C 7370   0.242   1.061  15.374 -0.4508  0.1063 -0.2153
  496MPD2    C1 7371   0.346   1.074  15.468  0.1584 -0.0040  0.1888
  496MPD2    C2 7372   0.317   1.130  15.592 -0.3262  0.3753 -0.1538
  496MPD2    C3 7373   0.183   1.163  15.624 -0.3272  0.3848  0.1432
  496MPD2    C4 7374   0.086   1.153  15.524 -0.2362  0.2920 -0.1107
  496MPD2    C5 7375   0.120   1.114  15.397  0.1511  0.3682 -0.4165
  496MPD2     H 7376   0.392   1.138  15.670 -3.3414  0.5324  2.7239
  496MPD2    H1 7377   4.702   1.178  15.536 -0.4866 -0.7909 -0.0674
  496MPD2    H2 7378   0.252   1.002  15.284  1.0693  0.3924 -0.2324
  496MPD2    H3 7379   0.045   1.102  15.319  1.5708  1.8218 -2.0137
  496MPD2     N 7380   0.149   1.198  15.763  0.2465 -0.0809 -0.5894
  496MPD2    H5 7381   0.229   1.192  15.825 -0.4963 -0.7582  0.2991
  496MPD2    N1 7382   0.467   1.007  15.439  0.2320  0.1185  0.0644
  496MPD2    H7 7383   0.470   0.963  15.348 -0.2118  1.9539 -0.8429
  497TMC3    C1 7384   0.021   1.311  15.936 -0.3952  0.3980  0.0006
  497TMC3    C2 7385   4.630   1.294  16.007 -0.5671 -0.7188 -0.3667
  497TMC3    C3 7386   4.638   1.313  16.145 -0.4235  0.6347 -0.0154
  497TMC3    C4 7387   0.146   1.337  15.990 -0.5043 -0.1283 -0.0732
  497TMC3    C5 7388   0.147   1.348  16.126 -0.8968 -0.1267 -0.1440
  497TMC3    C6 7389   0.037   1.342  16.207 -0.6216  0.3191  0.2744
  497TMC3     C 7390   0.028   1.257  15.801 -0.0277  0.5049  0.6349
  497TMC3     O 7391   4.643   1.276  15.745 -0.4350 -0.3635  0.2199
  497TMC3     H 7392   4.541   1.274  15.949 -0.8407 -1.1948  0.2176
  497TMC3    H1 7393   0.238   1.334  15.933  0.0208 -1.4581  0.8299
  497TMC3    H2 7394   0.024   1.360  16.313 -1.7129 -0.1395  0.2275
  497TMC3    C7 7395   0.282   1.335  16.176 -0.6606  0.3468  0.3033
  497TMC3    C8 7396   4.532   1.266  16.224  0.1712  0.2577 -0.1974
  497TMC3    O1 7397   0.377   1.365  16.110  0.1852 -0.2688 -0.4647
  497TMC3    O2 7398   4.420   1.309  16.203  0.1893 -0.7671  0.5894
  498MPD2     C 7399   1.909   1.305   9.933  0.4001  0.3219  0.4793
  498MPD2    C1 7400   1.823   1.410   9.934  0.0658  0.6731  0.3559
  498MPD2    C2 7401   1.684   1.378   9.940  0.0195  0.2745 -0.3002
  498MPD2    C3 7402   1.648   1.250   9.959 -0.7430 -0.7931  0.1770
  498MPD2    C4 7403   1.740   1.151   9.969  0.2783  0.5099  0.8276
  498MPD2    C5 7404   1.873   1.177   9.950 -0.2478  0.3109  0.4062
  498MPD2     H 7405   1.611   1.457   9.950  0.4996  0.6408  0.2819
  498MPD2    H1 7406   1.706   1.052   9.998  1.4526 -0.5723 -1.5486
  498MPD2    H2 7407   2.015   1.322   9.920 -0.3527  5.0810  0.4943
  498MPD2    H3 7408   1.949   1.100   9.954 -0.3178  0.3687  3.1256
  498MPD2     N 7409   1.512   1.227   9.984 -0.1181 -0.3314 -0.2520
  498MPD2    H5 7410   1.461   1.305  10.023  1.9558  1.0551 -0.3179
  498MPD2    N1 7411   1.859   1.543   9.907  0.8869  0.2111  0.1718
  498MPD2    H7 7412   1.790   1.610   9.875  0.6971  0.6927  1.5550
  499TMC3    C1 7413   2.002   1.733   9.890 -0.1618  0.5513 -0.2697
  499TMC3    C2 7414   2.101   1.806   9.952 -0.0334  0.5859 -0.3924
  499TMC3    C3 7415   2.110   1.942   9.920  0.0778  0.3340 -0.7459
  499TMC3    C4 7416   1.908   1.786   9.797  0.4467  0.5583 -0.7780
  499TMC3    C5 7417   1.919   1.923   9.782 -0.0501  0.3653  0.2067
  499TMC3    C6 7418   2.031   1.989   9.821 -0.0044  0.0057 -0.3752
  499TMC3     C 7419   1.983   1.596   9.943 -0.2822 -0.1833  0.1353
  499TMC3     O 7420   2.063   1.544  10.019  0.1403 -0.6197 -0.3373
  499TMC3     H 7421   2.158   1.763  10.034  0.2773 -0.6313 -1.2522
  499TMC3    H1 7422   1.844   1.723   9.737  0.5651  0.1574 -0.4852
  499TMC3    H2 7423   2.031   2.097   9.812 -0.0778  0.1804  1.5951
  499TMC3    C7 7424   1.836   1.975   9.669  0.4454 -0.3398 -0.2643
  499TMC3    C8 7425   2.208   2.033   9.972 -0.4113  0.6053  0.1338
  499TMC3    O1 7426   1.858   2.081   9.617  0.9818 -0.4960  0.0706
  499TMC3    O2 7427   2.222   2.145   9.928  0.0026 -0.2537  0.1731
  500MPD2     C 7428   2.615   2.642  10.477 -0.1179  0.1170  0.2899
  500MPD2    C1 7429   2.653   2.694  10.357  0.1982 -0.6303 -0.0622
  500MPD2    C2 7430   2.566   2.720  10.250 -0.4258 -1.0431  0.3505
  500MPD2    C3 7431   2.432   2.675  10.261  0.1335  0.4393  0.3494
  500MPD2    C4 7432   2.400   2.613  10.382  0.0449 -0.1285  0.6819
  500MPD2    C5 7433   2.487   2.600  10.485  0.2983  0.4325 -0.2350
  500MPD2     H 7434   2.598   2.770  10.160 -1.9647 -0.3128  0.2160
  500MPD2    H1 7435   2.298   2.582  10.400 -0.1402 -2.2347 -3.8452
  500MPD2    H2 7436   2.678   2.622  10.563  2.6450  1.0907 -1.5200
  500MPD2    H3 7437   2.459   2.546  10.575  0.5119  1.7988  0.6501
  500MPD2     N 7438   2.328   2.680  10.162 -0.0386  0.6872  0.2540
  500MPD2    H5 7439   2.229   2.670  10.178 -0.1883  1.3373 -0.2851
  500MPD2    N1 7440   2.788   2.745  10.346 -0.0410 -0.0761 -0.6938
  500MPD2    H7 7441   2.809   2.813  10.273  0.1173  1.4315  0.7673
  501TMC3    C1 7442   3.019   2.766  10.377  0.2024 -0.0722 -0.3779
  501TMC3    C2 7443   3.012   2.899  10.337 -0.4012 -0.4833 -0.2710
  501TMC3    C3 7444   3.132   2.966  10.310 -0.0590  0.5065  0.1408
  501TMC3    C4 7445   3.139   2.708  10.413  0.5555 -0.2413  0.7338
  501TMC3    C5 7446   3.254   2.783  10.398 -0.1391  0.0642 -0.4051
  501TMC3    C6 7447   3.249   2.912  10.346  0.0588  0.2584 -0.0503
  501TMC3     C 7448   2.897   2.701  10.417 -0.1626 -0.3214  0.1252
  501TMC3     O 7449   2.905   2.601  10.488 -0.6666  0.1866 -0.0802
  501TMC3     H 7450   2.924   2.961  10.335 -0.7798 -1.0687 -1.8183
  501TMC3    H1 7451   3.139   2.604  10.446  0.2505 -0.5895 -0.3659
  501TMC3    H2 7452   3.344   2.961  10.324  1.6001 -3.3107 -1.3523
  501TMC3    C7 7453   3.346   2.768  10.511  0.5960 -0.2022  0.1243
  501TMC3    C8 7454   3.136   3.105  10.336  0.4066  0.3918  0.2927
  501TMC3    O1 7455   3.338   2.655  10.560 -0.0555 -0.0666  0.0086
  501TMC3    O2 7456   3.201   3.141  10.434 -0.4748  0.1209  0.0807
  502TMC3    C1 7457   2.252   1.538  15.058  0.6541 -0.5658 -0.0647
  502TMC3    C2 7458   2.200   1.648  14.995 -0.1767  0.4774 -0.5905
  502TMC3    C3 7459   2.069   1.680  15.012  0.9866 -0.0777  0.0437
  502TMC3    C4 7460   2.166   1.447  15.115 -0.1739  0.4917 -0.0043
  502TMC3    C5 7461   2.033   1.464  15.107 -0.0019  0.3298 -0.2563
  502TMC3    C6 7462   1.980   1.586  15.068  0.3038  0.3665  0.1968
  502TMC3     C 7463   2.379   1.564  15.124  0.8003  1.1283 -0.3330
  502TMC3     O 7464   2.454   1.648  15.079 -0.3049  1.2300 -0.0859
  502TMC3     H 7465   2.270   1.728  14.974 -1.2232  2.0511  1.9079
  502TMC3    H1 7466   2.208   1.353  15.149 -0.6799  1.1118  2.3517
  502TMC3    H2 7467   1.877   1.619  15.072  0.9377  2.3718 -0.0648
  502TMC3    C7 7468   1.960   1.401  15.220  0.8636  0.4658 -0.2365
  502TMC3    C8 7469   2.053   1.822  15.047 -0.1240  0.2442  0.1736
  502TMC3    O1 7470   2.031   1.341  15.295  0.1511 -0.4104  0.4653
  502TMC3    O2 7471   2.112   1.905  14.981  0.2329  0.1996  1.0576
  503MPD2     C 7472   4.298   2.359  16.856  0.1493 -0.2633 -1.0641
  503MPD2    C1 7473   4.303   2.365  16.990  0.3812  0.3785 -0.0472
  503MPD2    C2 7474   4.344   2.253  17.060 -0.3250 -0.2975 -0.0977
  503MPD2    C3 7475   4.379   2.141  16.993 -0.8563  0.2552  0.1552
  503MPD2    C4 7476   4.347   2.138  16.858  0.6485 -0.4118 -0.1761
  503MPD2    C5 7477   4.302   2.241  16.794  0.4500 -0.0612 -0.4301
  503MPD2     H 7478   4.347   2.253  17.168 -0.4826  0.2099 -0.0896
  503MPD2    H1 7479   4.354   2.047  16.800 -1.4510 -0.0136 -1.0427
  503MPD2    H2 7480   4.281   2.443  16.791 -2.4787  0.5877  0.7286
  503MPD2    H3 7481   4.280   2.233  16.688 -0.7422  0.5538 -0.2261
  503MPD2     N 7482   4.426   2.034  17.073 -0.1399  0.0996  0.4242
  503MPD2    H5 7483   4.442   2.052  17.172 -1.2410  3.8320 -0.0672
  503MPD2    N1 7484   4.290   2.489  17.067  0.4462 -0.1157 -0.1032
  503MPD2    H7 7485   4.300   2.480  17.168 -3.0559 -1.3304  0.1471
  504TMC3    C1 7486   4.501   1.830  17.129  0.0822  0.1860 -0.8046
  504TMC3    C2 7487   4.415   1.824  17.233 -0.0261  0.9756  0.9070
  504TMC3    C3 7488   4.462   1.765  17.350  0.4276  0.1163 -0.2052
  504TMC3    C4 7489   4.634   1.807  17.141  0.1927 -0.9691 -0.5623
  504TMC3    C5 7490   4.670   1.751  17.254 -0.0331 -0.7592  0.0633
  504TMC3    C6 7491   4.584   1.714  17.353 -0.1193  0.5311  0.0921
  504TMC3     C 7492   4.464   1.914  17.023  0.9614  0.8063  0.1060
  504TMC3     O 7493   4.488   1.886  16.907 -0.0248  0.1539  0.9799
  504TMC3     H 7494   4.310   1.838  17.212  0.5529 -1.4471 -3.5820
  504TMC3    H1 7495   4.689   1.818  17.049 -2.5412 -1.6032 -2.2589
  504TMC3    H2 7496   4.609   1.655  17.441  1.9321  0.2767 -0.6651
  504TMC3    C7 7497   0.082   1.684  17.236  0.6651 -0.1488  0.0972
  504TMC3    C8 7498   4.364   1.748  17.460 -0.3690  0.0737 -0.2169
  504TMC3    O1 7499   0.133   1.703  17.125  0.4691  0.8574 -0.0640
  504TMC3    O2 7500   4.250   1.729  17.422  0.0849 -0.1619  0.1320
  505MPD2     C 7501   0.192   1.000  10.093  1.0204 -0.3891 -0.3776
  505MPD2    C1 7502   0.232   0.973  10.219  0.0318 -0.0249 -0.0939
  505MPD2    C2 7503   0.272   1.070  10.305  0.0373 -1.0251  0.5347
  505MPD2    C3 7504   0.266   1.205  10.265 -0.0630 -0.4074 -0.2917
  505MPD2    C4 7505   0.229   1.232  10.138  0.7150  0.6435  0.0847
  505MPD2    C5 7506   0.191   1.135  10.052  0.1247  0.6059 -0.1005
  505MPD2     H 7507   0.303   1.031  10.402 -0.5537  0.5042  1.3365
  505MPD2    H1 7508   0.220   1.334  10.104 -0.8576  0.0638 -1.1976
  505MPD2    H2 7509   0.149   0.922  10.031 -0.0870  0.9715 -1.3017
  505MPD2    H3 7510   0.132   1.173   9.969  0.6608  2.0078  0.1598
  505MPD2     N 7511   0.294   1.306  10.358  0.1760 -0.3578 -0.1963
  505MPD2    H5 7512   0.299   1.403  10.331 -0.9092  0.3922  2.3190
  505MPD2    N1 7513   0.233   0.832  10.254 -0.2708  0.0629 -0.2540
  505MPD2    H7 7514   0.213   0.767  10.179  1.8552 -2.4888  1.3689
  506TMC3    C1 7515   0.250   0.643  10.400 -0.1972 -0.0504  0.1261
  506TMC3    C2 7516   0.362   0.604  10.341 -0.5071  0.8039  0.3261
  506TMC3    C3 7517   0.440   0.521  10.414  0.2611  0.1478 -0.1419
  506TMC3    C4 7518   0.232   0.612  10.536  0.3914 -0.0719 -0.9107
  506TMC3    C5 7519   0.319   0.542  10.612 -0.3367  0.0058 -0.3674
  506TMC3    C6 7520   0.422   0.477  10.542 -0.1378  0.3862  0.3170
  506TMC3     C 7521   0.227   0.789  10.380  1.1180 -0.3203  0.0118
  506TMC3     O 7522   0.205   0.850  10.482 -0.4816 -0.2348 -0.6200
  506TMC3     H 7523   0.376   0.603  10.233  0.8857 -2.5921  0.5332
  506TMC3    H1 7524   0.149   0.649  10.595  0.9528  0.8750 -0.7155
  506TMC3    H2 7525   0.504   0.426  10.592  0.5894 -0.4079 -1.6619
  506TMC3    C7 7526   0.369   0.608  10.733  0.3229 -0.1559 -0.4263
  506TMC3    C8 7527   0.550   0.460  10.338 -0.1495  0.7361 -0.2807
  506TMC3    O1 7528   0.434   0.543  10.813  0.1950  0.0287  0.3267
  506TMC3    O2 7529   0.582   0.346  10.361  0.0920 -0.1433 -0.4023
  507TMC3    C1 7530   1.025   2.427  14.318 -0.3208  0.1315  0.4684
  507TMC3    C2 7531   0.887   2.403  14.295  0.0648  0.1295 -0.3080
  507TMC3    C3 7532   0.798   2.501  14.334 -0.2711  0.2253 -0.3897
  507TMC3    C4 7533   1.077   2.550  14.349  0.1776 -0.6625  0.1382
  507TMC3    C5 7534   0.986   2.644  14.381 -0.0142 -0.0809  0.2907
  507TMC3    C6 7535   0.853   2.620  14.379 -0.0844  0.0786  0.0762
  507TMC3     C 7536   1.121   2.323  14.312 -0.3129 -0.8718 -0.3806
  507TMC3     O 7537   1.230   2.342  14.362 -0.1738 -0.0577  0.0378
  507TMC3     H 7538   0.850   2.302  14.280 -2.8932  0.9113  1.8767
  507TMC3    H1 7539   1.182   2.562  14.372  0.6198  2.4691 -3.6401
  507TMC3    H2 7540   0.778   2.697  14.394 -0.5401 -0.0510 -1.4549
  507TMC3    C7 7541   1.015   2.787  14.364 -0.7068  0.2684  0.8743
  507TMC3    C8 7542   0.686   2.513  14.246 -0.2922  0.3720 -0.7955
  507TMC3    O1 7543   0.928   2.864  14.392 -0.4153  0.3154  0.3189
  507TMC3    O2 7544   0.605   2.599  14.272  0.5238 -0.1982 -0.1499
  508MPD2     C 7545   1.576   3.849  15.811 -0.4152  0.4410 -0.0371
  508MPD2    C1 7546   1.577   3.960  15.895  1.0071  0.1626  0.3763
  508MPD2    C2 7547   1.571   4.089  15.838 -0.4407 -0.0749 -0.2305
  508MPD2    C3 7548   1.573   4.104  15.698  0.4674 -0.3860  0.4871
  508MPD2    C4 7549   1.561   3.991  15.614 -0.8408  0.2313 -0.1399
  508MPD2    C5 7550   1.582   3.870  15.675 -0.5736 -0.3840  0.3786
  508MPD2     H 7551   1.577   4.180  15.896  2.6759  0.3009 -1.1870
  508MPD2    H1 7552   1.558   3.990  15.506 -1.0994 -0.5308 -0.1267
  508MPD2    H2 7553   1.585   3.744  15.838  0.3638  0.7402  0.8834
  508MPD2    H3 7554   1.604   3.783  15.615  1.0104  1.0330 -1.1084
  508MPD2     N 7555   1.573   4.240  15.656 -0.1203 -0.4103  0.0769
  508MPD2    H5 7556   1.576   4.314  15.726  2.1578 -1.0907  0.6943
  508MPD2    N1 7557   1.603   3.948  16.027  0.1109 -0.4208  0.0978
  508MPD2    H7 7558   1.642   3.862  16.063 -0.1641  0.2242  1.9492
  509TMC3    C1 7559   1.543   4.634  15.516  0.6419 -0.2763  0.2006
  509TMC3    C2 7560   1.636   4.672  15.420  0.0389 -0.8352  0.0153
  509TMC3    C3 7561   1.726   4.584  15.381 -0.5280 -0.1755  1.1160
  509TMC3    C4 7562   1.530   4.507  15.565 -0.0449 -0.0852  0.0869
  509TMC3    C5 7563   1.636   4.427  15.530  0.1995  0.1306  0.1162
  509TMC3    C6 7564   1.723   4.456  15.426  0.5661  0.0515  0.1821
  509TMC3     C 7565   1.522   0.019  15.605 -0.1828 -0.5782  0.6228
  509TMC3     O 7566   1.546   4.712  15.723 -0.0676  0.0285  0.1677
  509TMC3     H 7567   1.624   0.042  15.362  0.3219 -1.4352 -1.0034
  509TMC3    H1 7568   1.455   4.485  15.641 -1.1344  1.8193 -0.4294
  509TMC3    H2 7569   1.794   4.379  15.398 -1.7732 -1.0484 -2.7330
  509TMC3    C7 7570   1.616   4.278  15.537  0.0917  0.4741  0.2002
  509TMC3    C8 7571   1.860   4.631  15.365  0.2110 -0.7078  0.1620
  509TMC3    O1 7572   1.620   4.213  15.431 -0.0097  0.4870 -0.6679
  509TMC3    O2 7573   1.957   4.555  15.353 -0.5188 -0.0316  0.0658
  510MPD2     C 7574   4.229   1.261  14.718 -0.4605  0.0954  0.5162
  510MPD2    C1 7575   4.259   1.138  14.770  0.5591  0.8956  0.5203
  510MPD2    C2 7576   4.378   1.079  14.738  0.1864 -0.3328  0.3667
  510MPD2    C3 7577   4.450   1.127  14.627  0.6767  0.1530  0.3977
  510MPD2    C4 7578   4.404   1.239  14.557  0.0388  0.0926  0.5214
  510MPD2    C5 7579   4.308   1.313  14.619 -0.2271 -0.6298 -0.3101
  510MPD2     H 7580   4.408   0.981  14.772 -0.8719 -1.0561 -0.7524
  510MPD2    H1 7581   4.450   1.290  14.473 -0.0647 -1.3246 -0.4044
  510MPD2    H2 7582   4.157   1.329  14.761 -0.0103 -0.2091  1.7559
  510MPD2    H3 7583   4.278   1.405  14.571  0.5776 -0.3536 -0.2730
  510MPD2     N 7584   4.562   1.059  14.590  0.2741 -0.1934 -0.7642
  510MPD2    H5 7585   4.592   0.988  14.656 -1.2822 -1.1898 -1.1312
  510MPD2    N1 7586   4.170   1.094  14.871 -0.0065  0.3083  0.0962
  510MPD2    H7 7587   4.103   1.163  14.904  0.7748  1.0242  0.1765
  511TMC3    C1 7588   4.048   0.919  15.002 -0.7316 -0.1865  0.0952
  511TMC3    C2 7589   3.987   1.005  15.082 -0.8088  0.4595  0.0911
  511TMC3    C3 7590   3.890   0.945  15.164  0.0658 -0.0361  0.0547
  511TMC3    C4 7591   4.016   0.785  14.990  0.2109 -0.7671  0.4638
  511TMC3    C5 7592   3.907   0.737  15.058 -0.4066 -0.2561  0.0779
  511TMC3    C6 7593   3.845   0.814  15.153 -0.0989 -0.0575  0.2264
  511TMC3     C 7594   4.161   0.960  14.916  0.7214  0.2524  0.2538
  511TMC3     O 7595   4.240   0.864  14.894 -0.2524 -0.7015 -0.7025
  511TMC3     H 7596   4.015   1.109  15.093 -1.1443  0.5293  0.2799
  511TMC3    H1 7597   4.065   0.726  14.914 -1.9489 -0.2292 -1.3363
  511TMC3    H2 7598   3.769   0.769  15.215 -2.9981  2.1335 -1.6841
  511TMC3    C7 7599   3.843   0.614  15.009 -0.3049  0.5290  0.0363
  511TMC3    C8 7600   3.850   1.028  15.282 -0.7864  0.2868 -0.0149
  511TMC3    O1 7601   3.909   0.566  14.918 -0.2976  0.4915  0.0148
  511TMC3    O2 7602   3.865   1.148  15.294 -0.0964 -0.0745 -0.3659
  512TMC3    C1 7603   3.815   0.565  13.632 -0.1792 -0.5317  0.8179
  512TMC3    C2 7604   3.774   0.504  13.752  0.0789  0.4798 -0.4898
  512TMC3    C3 7605   3.679   0.406  13.740 -0.0040  0.2475 -0.2242
  512TMC3    C4 7606   3.763   0.530  13.507 -0.2558 -0.0941  0.6813
  512TMC3    C5 7607   3.670   0.429  13.511 -0.4463  0.7379  0.1209
  512TMC3    C6 7608   3.628   0.362  13.621  0.2374  0.3303 -0.5355
  512TMC3     C 7609   3.903   0.688  13.637  0.3550 -0.4430  0.5637
  512TMC3     O 7610   3.941   0.723  13.750 -0.2828 -0.1853  0.2932
  512TMC3     H 7611   3.813   0.516  13.852  0.7234 -0.4792 -0.6298
  512TMC3    H1 7612   3.790   0.574  13.412  1.5787  2.2359  2.2665
  512TMC3    H2 7613   3.557   0.280  13.620 -1.4473  1.7881 -0.7882
  512TMC3    C7 7614   3.577   0.439  13.408  0.7546 -0.1132  0.0116
  512TMC3    C8 7615   3.589   0.413  13.852  0.4590 -0.0758  0.0924
  512TMC3    O1 7616   3.567   0.552  13.366 -0.3145  0.4315  0.0533
  512TMC3    O2 7617   3.517   0.316  13.875 -0.5911 -0.3641 -0.2592
  513MPD2     C 7618   0.319   0.170  13.071  0.8227 -0.0282 -0.3044
  513MPD2    C1 7619   0.425   0.259  13.051 -0.3144 -0.0835  0.0129
  513MPD2    C2 7620   0.467   0.344  13.157 -0.3176 -0.0904  0.6060
  513MPD2    C3 7621   0.401   0.348  13.278  0.0298  0.4366  0.2488
  513MPD2    C4 7622   0.294   0.263  13.293 -0.6891 -0.0985 -0.0498
  513MPD2    C5 7623   0.259   0.175  13.193 -0.2905  0.0780 -0.6171
  513MPD2     H 7624   0.549   0.415  13.165  1.4303 -2.1033  0.5946
  513MPD2    H1 7625   0.237   0.251  13.385 -0.3781 -0.4762  0.0939
  513MPD2    H2 7626   0.270   0.110  12.994  2.9080 -0.6725 -1.1319
  513MPD2    H3 7627   0.174   0.108  13.205  2.0857 -2.8785 -0.2592
  513MPD2     N 7628   0.454   0.427  13.381 -0.5055  0.4696  0.1451
  513MPD2    H5 7629   0.534   0.485  13.361 -0.2656  0.5932  1.4358
  513MPD2    N1 7630   0.486   0.276  12.924  0.7586  0.3228 -0.3141
  513MPD2    H7 7631   0.446   0.231  12.843 -0.4043  0.3419  0.2521
  514TMC3    C1 7632   0.621   0.370  12.753 -0.3820 -0.1109 -0.0509
  514TMC3    C2 7633   0.516   0.426  12.686 -0.7174 -0.7693 -1.3583
  514TMC3    C3 7634   0.526   0.526  12.591 -0.2712  0.9236  0.6120
  514TMC3    C4 7635   0.738   0.435  12.737  0.0032 -0.0863 -0.6323
  514TMC3    C5 7636   0.737   0.560  12.668  0.0718 -0.4138  0.3348
  514TMC3    C6 7637   0.639   0.596  12.573 -0.4264 -0.6131  0.3184
  514TMC3     C 7638   0.597   0.346  12.894  0.5223 -0.3644 -0.0875
  514TMC3     O 7639   0.678   0.395  12.972 -0.3332  0.7857 -0.0095
  514TMC3     H 7640   0.417   0.382  12.695 -1.2694  1.1054  1.5236
  514TMC3    H1 7641   0.816   0.409  12.807  1.0937 -2.8128 -2.8778
  514TMC3    H2 7642   0.635   0.690  12.518 -0.0609 -0.7500  0.0568
  514TMC3    C7 7643   0.785   0.678  12.740  0.2508  1.0017 -0.4454
  514TMC3    C8 7644   0.409   0.565  12.513  0.3886 -0.2786  0.2990
  514TMC3    O1 7645   0.793   0.787  12.690 -0.3779  0.3142  0.4485
  514TMC3    O2 7646   0.302   0.573  12.576 -0.5024 -0.3688 -0.4678
  515MPD2     C 7647   2.833   2.240  14.596  0.5813 -0.6386  0.3418
  515MPD2    C1 7648   2.953   2.172  14.580  0.3455 -0.0822 -0.3897
  515MPD2    C2 7649   3.064   2.220  14.651  0.8505  0.2783  0.1360
  515MPD2    C3 7650   3.050   2.329  14.740  0.1796 -0.6273 -0.0387
  515MPD2    C4 7651   2.931   2.390  14.763 -0.1290  0.0858  0.8641
  515MPD2    C5 7652   2.821   2.342  14.688 -0.8616 -0.4981 -0.3921
  515MPD2     H 7653   3.156   2.167  14.630 -0.0296 -0.3376 -2.0808
  515MPD2    H1 7654   2.925   2.477  14.828 -4.0905 -1.0244  1.9862
  515MPD2    H2 7655   2.747   2.209  14.537 -0.9462  1.0561  1.6806
  515MPD2    H3 7656   2.722   2.385  14.700 -0.0777  0.8881  1.0482
  515MPD2     N 7657   3.165   2.377  14.814  0.4938  0.3842 -0.1079
  515MPD2    H5 7658   3.157   2.448  14.886  2.3374 -0.1646  0.6246
  515MPD2    N1 7659   2.969   2.056  14.503  0.3729  0.2593  0.3731
  515MPD2    H7 7660   3.051   2.000  14.526  1.3740  1.3756 -0.5293
  516TMC3    C1 7661   2.922   1.911  14.330 -0.2462 -0.0732  0.1618
  516TMC3    C2 7662   2.866   1.893  14.209 -0.8548 -0.4841 -0.6005
  516TMC3    C3 7663   2.767   1.799  14.190 -0.6712  0.0328  0.8052
  516TMC3    C4 7664   2.898   1.811  14.425 -0.2088 -0.0334  0.1892
  516TMC3    C5 7665   2.799   1.711  14.403  0.0729  0.5582  0.6501
  516TMC3    C6 7666   2.735   1.704  14.281  0.2726  0.2821  0.4566
  516TMC3     C 7667   2.895   2.037  14.392  0.6694 -0.1149 -0.5700
  516TMC3     O 7668   2.823   2.113  14.333 -0.3388 -0.0346  0.5387
  516TMC3     H 7669   2.884   1.965  14.129 -0.1463  1.6050  1.4276
  516TMC3    H1 7670   2.943   1.816  14.523  3.2718  1.8636 -1.5202
  516TMC3    H2 7671   2.658   1.631  14.261  0.6253 -0.0140  0.1832
  516TMC3    C7 7672   2.763   1.621  14.516 -0.4006 -0.0481 -1.1660
  516TMC3    C8 7673   2.689   1.802  14.066 -0.1085 -0.5780 -0.1638
  516TMC3    O1 7674   2.839   1.626  14.611  0.4640 -0.8722  0.7308
  516TMC3    O2 7675   2.590   1.734  14.064  0.0513 -0.4476  0.5757
  517MPD2     C 7676   2.628   3.819   0.439 -0.5237  0.2629 -0.1025
  517MPD2    C1 7677   2.762   3.811   0.475 -0.3385  0.6615 -0.8044
  517MPD2    C2 7678   2.810   3.903   0.568  0.0578 -0.3725 -0.3444
  517MPD2    C3 7679   2.725   4.000   0.623 -0.1839 -0.2764 -0.3167
  517MPD2    C4 7680   2.593   4.000   0.590  0.6334  0.5147  0.5355
  517MPD2    C5 7681   2.544   3.913   0.496 -0.7914  0.1470  0.2189
  517MPD2     H 7682   2.907   3.898   0.616 -1.3504  1.3008  2.6992
  517MPD2    H1 7683   2.527   4.073   0.634  0.5163  0.9118 -0.3001
  517MPD2    H2 7684   2.596   3.749   0.363  0.9180  1.0239 -1.3867
  517MPD2    H3 7685   2.438   3.907   0.474 -0.9443 -0.0158  0.9928
  517MPD2     N 7686   2.764   4.096   0.724 -0.2630 -0.1194 -0.6763
  517MPD2    H5 7687   2.686   4.128   0.782 -0.1064  1.4170 -1.3410
  517MPD2    N1 7688   2.850   3.710   0.434 -0.3631 -0.4814  0.3261
  517MPD2    H7 7689   2.947   3.739   0.429 -1.3147  2.7604  0.4835
  518TMC3    C1 7690   2.921   3.510   0.353 -0.3280  0.6947  0.4092
  518TMC3    C2 7691   2.901   3.375   0.348  0.5874 -1.1645 -0.0053
  518TMC3    C3 7692   2.991   3.298   0.280 -0.5566  0.4972  0.2319
  518TMC3    C4 7693   3.030   3.569   0.297  0.2660  0.9970 -0.5222
  518TMC3    C5 7694   3.117   3.489   0.223 -0.2729  0.1158 -0.3490
  518TMC3    C6 7695   3.098   3.348   0.217  0.0214  0.7553  0.3689
  518TMC3     C 7696   2.811   3.584   0.399  0.3647  0.3754  0.8097
  518TMC3     O 7697   2.702   3.526   0.401 -0.5095 -0.0184  0.4368
  518TMC3     H 7698   2.811   3.338   0.396  0.3877  0.4835  0.8752
  518TMC3    H1 7699   3.044   3.677   0.296  0.8366  0.9272 -0.2620
  518TMC3    H2 7700   3.167   3.279   0.169  0.4087  0.8786  0.7470
  518TMC3    C7 7701   3.229   3.559   0.160 -0.4022 -0.1443 -0.0933
  518TMC3    C8 7702   2.959   3.163   0.238 -0.3179  0.3873  0.3574
  518TMC3    O1 7703   3.238   3.677   0.182 -0.9394  0.3799 -0.1882
  518TMC3    O2 7704   3.023   3.116   0.143  0.2050  0.2118  0.5822
  519MPD2     C 7705   4.461   2.208  14.472 -0.7673 -0.4793 -0.5662
  519MPD2    C1 7706   4.398   2.204  14.348 -0.6103  0.7911  0.1180
  519MPD2    C2 7707   4.406   2.097  14.261  0.1134  0.2245 -0.2931
  519MPD2    C3 7708   4.487   1.991  14.302 -0.9557  0.3961  0.3184
  519MPD2    C4 7709   4.540   1.988  14.428 -0.0299 -0.7870  0.1785
  519MPD2    C5 7710   4.534   2.098  14.509 -0.0729 -0.1124  0.2252
  519MPD2     H 7711   4.360   2.099  14.162 -0.8770  2.6970  0.2315
  519MPD2    H1 7712   4.595   1.906  14.471  1.4333  0.0146 -0.1505
  519MPD2    H2 7713   4.441   2.286  14.544  2.1945 -0.6327  0.4420
  519MPD2    H3 7714   4.577   2.091  14.608 -0.4481 -0.2270  0.3782
  519MPD2     N 7715   4.513   1.879  14.220  0.1883  0.2135 -0.3650
  519MPD2    H5 7716   4.580   1.811  14.255  0.3633  1.6426  2.0730
  519MPD2    N1 7717   4.321   2.317  14.316 -0.3961 -0.0570  0.2433
  519MPD2    H7 7718   4.280   2.365  14.396  0.1275  0.0498  0.4501
  520TMC3    C1 7719   4.494   1.723  14.048  0.5884  0.2289 -0.4791
  520TMC3    C2 7720   4.428   1.688  13.930  0.0981  0.0711 -0.1501
  520TMC3    C3 7721   4.496   1.631  13.828  0.2586  0.3824 -0.2149
  520TMC3    C4 7722   4.630   1.707  14.053 -0.2236  0.1539 -0.5966
  520TMC3    C5 7723   4.700   1.655  13.950  0.0534 -0.5696 -0.0743
  520TMC3    C6 7724   4.632   1.608  13.844  0.2076 -0.4283  0.5980
  520TMC3     C 7725   4.450   1.853  14.099 -0.2207  0.9192  0.0308
  520TMC3     O 7726   4.373   1.917  14.030 -0.0814  0.2334 -0.0390
  520TMC3     H 7727   4.324   1.717  13.914  0.0737 -0.0654 -0.2403
  520TMC3    H1 7728   4.689   1.735  14.139  1.4788  0.2164 -1.7758
  520TMC3    H2 7729   4.692   1.556  13.770 -0.5612 -1.4560  0.6907
  520TMC3    C7 7730   0.084   1.568  14.001 -0.3791  0.2849  0.1547
  520TMC3    C8 7731   4.453   1.664  13.687 -0.2581 -0.1877 -1.0963
  520TMC3    O1 7732   0.088   1.540  14.117  0.1400  0.1755  0.5584
  520TMC3    O2 7733   4.545   1.655  13.605  0.1184 -0.3456  0.5584
  521MPD2     C 7734   0.922   4.705   0.239  0.2595  0.5594 -0.0942
  521MPD2    C1 7735   0.851   0.020   0.126 -0.2979 -0.5050  0.4103
  521MPD2    C2 7736   0.909   4.704   0.001 -0.3656  1.0904  0.2822
  521MPD2    C3 7737   1.022   4.627  17.684 -0.1369 -0.2143  0.1988
  521MPD2    C4 7738   1.102   4.613   0.110  0.0165  0.4072 -0.5400
  521MPD2    C5 7739   1.042   4.648   0.229 -0.4485 -0.5411 -0.3274
  521MPD2     H 7740   0.851   4.721  17.599 -0.1314 -5.2531 -1.0619
  521MPD2    H1 7741   1.202   4.572   0.112 -0.1620 -0.0761 -1.2035
  521MPD2    H2 7742   0.875   4.718   0.336  1.4867 -1.3201  0.7596
  521MPD2    H3 7743   1.105   4.624   0.314  1.7789  0.4480 -1.6893
  521MPD2     N 7744   1.064   4.583  17.559  0.5435 -0.0229 -0.4342
  521MPD2    H5 7745   1.005   4.603  17.479  1.2350  1.2282 -0.6314
  521MPD2    N1 7746   0.727   0.083   0.143 -0.1401 -0.2364  0.2893
  521MPD2    H7 7747   0.680   0.095   0.232 -0.4895 -1.5562  0.2858
  522TMC3    C1 7748   1.196   4.514  17.397  0.3230  0.2415 -0.3017
  522TMC3    C2 7749   1.324   4.482  17.357  0.2053  0.3336 -0.1665
  522TMC3    C3 7750   1.335   4.424  17.231 -0.3582  0.0602  0.1419
  522TMC3    C4 7751   1.085   4.508  17.317  0.3153  0.6027  0.8823
  522TMC3    C5 7752   1.106   4.465  17.189 -0.2538 -0.0963 -0.6487
  522TMC3    C6 7753   1.226   4.416  17.144  0.5528  0.4176 -0.3393
  522TMC3     C 7754   1.181   4.521  17.536 -0.1669 -0.6420 -0.1241
  522TMC3     O 7755   1.276   4.492  17.610  0.7065  0.1583  0.1384
  522TMC3     H 7756   1.412   4.498  17.417 -0.6355  1.9386  0.6648
  522TMC3    H1 7757   0.983   4.504  17.353  0.3814 -0.5222  0.9548
  522TMC3    H2 7758   1.243   4.380  17.043  0.8291 -1.1555  0.2590
  522TMC3    C7 7759   1.000   4.415  17.105  0.4050 -0.4951 -0.3598
  522TMC3    C8 7760   1.469   4.391  17.183  0.0589  0.8372 -0.6344
  522TMC3    O1 7761   1.015   4.313  17.038  0.1006  0.1519  0.4641
  522TMC3    O2 7762   1.553   4.422  17.266  0.1025 -0.3232  0.6765
  523MPD2     C 7763   3.708   4.225  10.108 -0.0233 -0.8432 -0.5367
  523MPD2    C1 7764   3.569   4.229  10.116 -0.2702 -0.7849 -0.1027
  523MPD2    C2 7765   3.510   4.348  10.091 -0.0093  0.1774  0.1045
  523MPD2    C3 7766   3.580   4.453  10.022  0.3726 -0.1999  0.0537
  523MPD2    C4 7767   3.715   4.441  10.000 -0.3303  0.3405  0.1710
  523MPD2    C5 7768   3.781   4.331  10.055  0.5849 -0.5936 -0.3221
  523MPD2     H 7769   3.403   4.352  10.110  0.2933  1.2336  1.5896
  523MPD2    H1 7770   3.779   4.513   9.950 -1.5569 -0.1761 -2.1410
  523MPD2    H2 7771   3.758   4.133  10.136 -2.1927 -1.5701  1.0263
  523MPD2    H3 7772   3.888   4.318  10.041  0.6570 -1.0336  0.6163
  523MPD2     N 7773   3.514   4.562   9.970 -0.1768 -0.1573 -0.5188
  523MPD2    H5 7774   3.571   4.630   9.921  1.0196 -1.2163 -0.5790
  523MPD2    N1 7775   3.495   4.121  10.171 -0.4187 -0.2453 -1.0648
  523MPD2    H7 7776   3.542   4.034  10.195  1.4804  0.8386 -0.8523
  524TMC3    C1 7777   3.324   4.698   9.901 -0.1266  0.2130  0.2539
  524TMC3    C2 7778   3.370   4.713   9.777  0.3634  0.1396  0.2254
  524TMC3    C3 7779   3.289   0.060   9.687  1.4962 -0.6153 -0.0329
  524TMC3    C4 7780   3.208   0.028   9.947 -0.7067  0.5653 -0.4281
  524TMC3    C5 7781   3.130   0.080   9.852 -0.7331 -0.6100 -0.2938
  524TMC3    C6 7782   3.167   0.113   9.723  0.2650 -0.3179  0.0347
  524TMC3     C 7783   3.380   4.587   9.985  0.1624 -0.2684 -0.9715
  524TMC3     O 7784   3.292   4.533  10.049  0.4385 -0.0120  0.1837
  524TMC3     H 7785   3.449   4.649   9.739  0.9800  0.8723  0.2697
  524TMC3    H1 7786   3.160   0.007  10.042 -0.4544 -0.1930 -0.4743
  524TMC3    H2 7787   3.098   0.154   9.650  0.7391  1.5373  0.6397
  524TMC3    C7 7788   2.996   0.124   9.884  0.5593  0.2140 -0.5366
  524TMC3    C8 7789   3.346   0.097   9.557 -0.5868  0.2801 -0.1891
  524TMC3    O1 7790   2.940   0.055   9.967 -0.0271 -0.3222  0.2742
  524TMC3    O2 7791   3.441   0.022   9.529  0.5835  0.6310  0.1094
  525MPD2     C 7792   0.975   1.268  14.677 -0.0722 -0.7395  0.3497
  525MPD2    C1 7793   1.082   1.323  14.752 -0.1075  0.4579  0.6567
  525MPD2    C2 7794   1.145   1.438  14.705 -0.1497 -0.5755  0.1296
  525MPD2    C3 7795   1.090   1.512  14.603 -0.6666  0.5621  0.5577
  525MPD2    C4 7796   0.983   1.458  14.534  0.0604 -0.4606  0.1740
  525MPD2    C5 7797   0.932   1.336  14.567  0.0752 -0.0363 -0.0611
  525MPD2     H 7798   1.231   1.470  14.762 -0.0371 -0.9218  0.1534
  525MPD2    H1 7799   0.942   1.520  14.455 -0.6151  1.2362  1.8615
  525MPD2    H2 7800   0.931   1.170  14.695 -1.0528 -0.0905  1.3878
  525MPD2    H3 7801   0.849   1.293  14.513 -0.4890  1.3256 -0.2934
  525MPD2     N 7802   1.122   1.650  14.591  0.6036 -0.0002  0.3756
  525MPD2    H5 7803   1.065   1.706  14.528  3.1606  1.1057 -0.9810
  525MPD2    N1 7804   1.139   1.262  14.868 -0.6877 -0.0061 -0.0767
  525MPD2    H7 7805   1.223   1.299  14.911 -0.7426 -1.8191  1.5815
  526TMC3    C1 7806   1.127   1.126  15.057  0.1197  0.1003  0.0819
  526TMC3    C2 7807   1.037   1.078  15.152  0.9204 -0.2976  0.3279
  526TMC3    C3 7808   1.098   1.034  15.272  0.0910 -0.2925  0.0219
  526TMC3    C4 7809   1.262   1.118  15.067 -0.0274 -0.1155  0.3883
  526TMC3    C5 7810   1.313   1.068  15.189  0.5762 -0.0013 -0.0859
  526TMC3    C6 7811   1.234   1.041  15.298 -0.2207  0.3591  0.5473
  526TMC3     C 7812   1.070   1.153  14.931 -0.4441  0.8127  0.2946
  526TMC3     O 7813   0.962   1.101  14.907 -0.3719 -0.1483  0.3647
  526TMC3     H 7814   0.931   1.088  15.134  0.5549  0.3016  2.7510
  526TMC3    H1 7815   1.323   1.156  14.987  0.6105 -0.0066  0.9244
  526TMC3    H2 7816   1.273   1.007  15.393  1.8379  0.5673 -0.2195
  526TMC3    C7 7817   1.451   1.043  15.189 -0.5486  0.1934 -0.2258
  526TMC3    C8 7818   1.012   1.036  15.390  0.3376  0.5835 -0.3146
  526TMC3    O1 7819   1.500   1.027  15.302 -0.1923  0.2323  0.0206
  526TMC3    O2 7820   1.067   1.006  15.497 -0.4619 -0.6343 -0.2470
  527MPD2     C 7821   4.413   3.260   1.545 -0.9851  0.4851 -0.1956
  527MPD2    C1 7822   4.521   3.299   1.619  0.5153 -0.3876  0.5540
  527MPD2    C2 7823   4.636   3.345   1.557 -0.9654  0.2420  0.2707
  527MPD2    C3 7824   4.657   3.353   1.420 -0.0707  0.1793 -0.2914
  527MPD2    C4 7825   4.550   3.311   1.344  1.6749  0.1022 -0.3941
  527MPD2    C5 7826   4.429   3.282   1.407  0.4722 -0.5176 -0.5415
  527MPD2     H 7827   4.717   3.382   1.618 -0.0579  1.3860 -1.6394
  527MPD2    H1 7828   4.553   3.328   1.237  1.5566  1.6829 -0.1467
  527MPD2    H2 7829   4.324   3.222   1.593 -1.9032  0.6314 -1.7689
  527MPD2    H3 7830   4.352   3.250   1.337  0.2598  1.1925 -1.1004
  527MPD2     N 7831   0.064   3.382   1.377 -0.3546  0.1526  0.0069
  527MPD2    H5 7832   0.119   3.427   1.450 -0.2723 -0.5615  0.3784
  527MPD2    N1 7833   4.525   3.295   1.761  0.0020 -0.2815 -0.2571
  527MPD2    H7 7834   4.605   3.332   1.811 -0.7472 -2.7174  2.7453
  528TMC3    C1 7835   4.467   3.249   1.980  0.6893 -0.1155 -0.4420
  528TMC3    C2 7836   4.549   3.348   2.022  1.1628  0.7163  0.4053
  528TMC3    C3 7837   4.593   3.335   2.151  0.1280  0.3789 -0.2895
  528TMC3    C4 7838   4.420   3.148   2.053 -0.5706  0.1849  0.5078
  528TMC3    C5 7839   4.462   3.145   2.183  0.9716  0.0657 -0.5923
  528TMC3    C6 7840   4.554   3.235   2.236 -0.5996 -0.1953 -0.0795
  528TMC3     C 7841   4.425   3.246   1.845 -0.3091  0.3231  0.3820
  528TMC3     O 7842   4.320   3.192   1.826  1.1697  0.2247 -0.4942
  528TMC3     H 7843   4.581   3.434   1.964  1.6757 -0.8549 -1.6153
  528TMC3    H1 7844   4.377   3.066   1.996 -1.0736 -0.2005  1.4387
  528TMC3    H2 7845   4.579   3.234   2.341  1.0611  1.7432 -0.4713
  528TMC3    C7 7846   4.426   3.018   2.253  0.2437  0.3350 -0.1104
  528TMC3    C8 7847   4.665   3.449   2.205  0.4070  0.2372 -0.0786
  528TMC3    O1 7848   4.492   2.994   2.354  0.5087  0.5369 -0.1012
  528TMC3    O2 7849   4.648   3.561   2.151  0.3593 -0.0970  0.3250
  529MPD2     C 7850   1.351   2.735   0.854 -0.0519  0.5087 -0.2915
  529MPD2    C1 7851   1.394   2.629   0.780  0.0366 -0.0174 -0.2141
  529MPD2    C2 7852   1.369   2.634   0.640  0.3878 -0.5725  0.1075
  529MPD2    C3 7853   1.309   2.744   0.583  0.2304 -0.7764  0.0115
  529MPD2    C4 7854   1.268   2.850   0.664  0.7050 -0.9225 -0.4112
  529MPD2    C5 7855   1.287   2.846   0.799 -0.5932 -0.1593  0.2485
  529MPD2     H 7856   1.392   2.543   0.585  0.1160 -1.5982  1.6803
  529MPD2    H1 7857   1.216   2.932   0.615  2.0056  0.4091  0.4447
  529MPD2    H2 7858   1.365   2.743   0.961 -0.1665 -0.5929 -0.1901
  529MPD2    H3 7859   1.249   2.928   0.860 -1.4007 -0.0476 -0.3990
  529MPD2     N 7860   1.301   2.770   0.437  0.4840 -0.5935 -0.2346
  529MPD2    H5 7861   1.257   2.850   0.393  1.7632  0.3486  0.1613
  529MPD2    N1 7862   1.471   2.517   0.823 -0.0805  0.4979 -0.4093
  529MPD2    H7 7863   1.484   2.446   0.751 -1.2090 -0.0498 -0.0673
  530TMC3    C1 7864   1.583   2.380   0.978  0.9281  0.4995  0.3280
  530TMC3    C2 7865   1.686   2.399   1.065 -0.6239  0.7048 -0.1247
  530TMC3    C3 7866   1.729   2.290   1.137  0.2902 -0.2149 -0.2208
  530TMC3    C4 7867   1.505   2.264   0.975  0.1676 -0.6649  0.0661
  530TMC3    C5 7868   1.543   2.159   1.048 -0.5606 -0.5343  0.6981
  530TMC3    C6 7869   1.653   2.174   1.130 -0.7389  0.5660 -0.2970
  530TMC3     C 7870   1.519   2.504   0.952 -0.4967 -0.8052 -0.3279
  530TMC3     O 7871   1.530   2.586   1.042  0.2663 -0.0333  0.6796
  530TMC3     H 7872   1.751   2.483   1.044  0.5443 -0.7111 -2.2529
  530TMC3    H1 7873   1.414   2.258   0.916  0.0791  1.0692  0.0027
  530TMC3    H2 7874   1.676   2.093   1.198 -0.1188 -0.3629 -1.6098
  530TMC3    C7 7875   1.453   2.049   1.044  0.2111 -0.2458  0.4130
  530TMC3    C8 7876   1.851   2.306   1.214 -0.3346 -0.2757 -0.2691
  530TMC3    O1 7877   1.339   2.073   1.008 -0.2592 -0.3226  0.2085
  530TMC3    O2 7878   1.891   2.428   1.225 -0.1942  0.5798  0.5861
  531MPD2     C 7879   0.853   0.905  13.193  0.6438  0.1496 -0.1200
  531MPD2    C1 7880   0.799   0.785  13.212  1.1527 -0.1494 -0.3953
  531MPD2    C2 7881   0.781   0.703  13.099 -0.0967  0.6553 -0.6251
  531MPD2    C3 7882   0.814   0.739  12.973 -0.1906  0.4274  0.0300
  531MPD2    C4 7883   0.872   0.863  12.953 -0.1614 -0.0964 -0.4579
  531MPD2    C5 7884   0.897   0.946  13.064 -0.3762  0.0879 -0.9058
  531MPD2     H 7885   0.729   0.609  13.112  0.5910  0.2560 -0.7920
  531MPD2    H1 7886   0.905   0.890  12.854  0.4769  1.0561  0.0821
  531MPD2    H2 7887   0.845   0.979  13.272 -1.7201 -0.4912  0.2313
  531MPD2    H3 7888   0.929   1.049  13.050  0.0707 -0.0466 -0.8719
  531MPD2     N 7889   0.785   0.648  12.875  0.0037 -0.4752 -0.5952
  531MPD2    H5 7890   0.755   0.556  12.904 -0.2069 -0.5952 -1.2078
  531MPD2    N1 7891   0.739   0.738  13.324 -0.2324  0.0750  0.7643
  531MPD2    H7 7892   0.716   0.639  13.317  1.5716 -0.3573  0.9261
  532TMC3    C1 7893   0.658   0.710  13.536  0.4024  0.1994 -1.2163
  532TMC3    C2 7894   0.538   0.651  13.502  0.4363 -0.0260 -0.5979
  532TMC3    C3 7895   0.488   0.549  13.584  0.1525  1.1760  0.4424
  532TMC3    C4 7896   0.725   0.665  13.645  0.1583  0.5690  0.6809
  532TMC3    C5 7897   0.670   0.566  13.722 -0.2428  0.0967 -0.8203
  532TMC3    C6 7898   0.555   0.508  13.696 -0.6027 -0.2240 -0.1029
  532TMC3     C 7899   0.717   0.797  13.447 -0.0900 -0.1358  0.5737
  532TMC3     O 7900   0.736   0.912  13.482 -0.3539 -0.1727  0.4424
  532TMC3     H 7901   0.488   0.682  13.411 -0.5772  0.2216  0.0511
  532TMC3    H1 7902   0.823   0.704  13.672  0.3532 -0.1102  0.9597
  532TMC3    H2 7903   0.522   0.427  13.760 -3.8354  1.3751  0.2596
  532TMC3    C7 7904   0.756   0.500  13.819 -0.0227  0.3871 -0.3383
  532TMC3    C8 7905   0.413   0.442  13.511  0.1020  0.3052 -0.5553
  532TMC3    O1 7906   0.699   0.456  13.916 -0.0644 -0.3686 -0.6851
  532TMC3    O2 7907   0.369   0.352  13.588 -0.1153 -0.0359 -0.1529
  533TMC3    C1 7908   1.241   1.852  14.598  0.2381  0.3921  0.6551
  533TMC3    C2 7909   1.362   1.920  14.611  0.6162  0.0881 -0.6294
  533TMC3    C3 7910   1.360   2.060  14.611  0.5393 -0.0965 -1.1662
  533TMC3    C4 7911   1.124   1.925  14.599 -1.2692  0.1168  0.0302
  533TMC3    C5 7912   1.128   2.062  14.611 -0.1930 -0.0312 -0.0338
  533TMC3    C6 7913   1.245   2.125  14.608 -0.0005 -0.5613  0.2843
  533TMC3     C 7914   1.242   1.709  14.622 -0.2294 -0.0586 -0.5503
  533TMC3     O 7915   1.335   1.658  14.681 -0.0715 -0.0005  0.0505
  533TMC3     H 7916   1.454   1.864  14.616  1.2674  1.1680 -0.5246
  533TMC3    H1 7917   1.028   1.876  14.607 -1.1172  0.2206  2.4650
  533TMC3    H2 7918   1.254   2.232  14.596  1.6124 -0.6469  0.6962
  533TMC3    C7 7919   1.032   2.114  14.703 -0.2264 -0.5946 -0.4878
  533TMC3    C8 7920   1.480   2.139  14.642 -0.0081 -0.2507  0.1132
  533TMC3    O1 7921   0.932   2.048  14.713  0.0875  0.5848 -0.4445
  533TMC3    O2 7922   1.455   2.249  14.683  0.3632 -0.1831 -0.0459
  534MPD2     C 7923   3.893   2.052   1.990 -0.0276  0.2162  0.1506
  534MPD2    C1 7924   3.856   2.189   1.986 -0.3583  0.6726 -0.0710
  534MPD2    C2 7925   3.727   2.229   1.931  0.1971 -0.2379 -0.3689
  534MPD2    C3 7926   3.651   2.131   1.862  0.3883  0.4065  0.4475
  534MPD2    C4 7927   3.707   2.001   1.848  0.0136  0.2455 -0.4008
  534MPD2    C5 7928   3.821   1.960   1.916  0.7611  0.8512 -0.6862
  534MPD2     H 7929   3.696   2.332   1.923  0.3486 -0.3505 -2.2691
  534MPD2    H1 7930   3.661   1.918   1.796  0.0296  0.4781 -0.7851
  534MPD2    H2 7931   3.980   2.009   2.038  1.9369  0.1742 -3.4622
  534MPD2    H3 7932   3.853   1.856   1.919  0.2635  0.6691 -1.8309
  534MPD2     N 7933   3.534   2.150   1.786  0.4058  0.0616 -0.2321
  534MPD2    H5 7934   3.503   2.083   1.717  1.2745 -0.1858 -0.3851
  534MPD2    N1 7935   3.933   2.298   2.038  0.2951 -0.2739  0.0093
  534MPD2    H7 7936   3.895   2.392   2.036 -0.1645 -0.5018 -1.6534
  535TMC3    C1 7937   3.381   2.285   1.687  0.0747  1.0178 -0.3295
  535TMC3    C2 7938   3.253   2.334   1.706 -0.0571  0.5900 -0.3421
  535TMC3    C3 7939   3.190   2.363   1.591  0.6958  1.2210 -0.2287
  535TMC3    C4 7940   3.450   2.287   1.567  0.5612 -1.1781 -0.7662
  535TMC3    C5 7941   3.377   2.327   1.456 -0.6191  0.6205 -0.0729
  535TMC3    C6 7942   3.244   2.363   1.469  0.3725 -0.5959  0.1721
  535TMC3     C 7943   3.448   2.255   1.808  0.0114 -0.0174 -0.6793
  535TMC3     O 7944   3.426   2.318   1.911 -0.4251 -0.3306  0.4271
  535TMC3     H 7945   3.216   2.352   1.806  0.5554 -0.3527  0.0558
  535TMC3    H1 7946   3.558   2.286   1.557  0.6249  0.4476 -0.3262
  535TMC3    H2 7947   3.190   2.402   1.384  0.7184  0.4550  0.4263
  535TMC3    C7 7948   3.440   2.393   1.352  0.4439  0.3162 -0.1977
  535TMC3    C8 7949   3.058   2.414   1.594  0.6529  0.1013 -0.5543
  535TMC3    O1 7950   3.442   2.349   1.236  0.2817  0.0698  0.3711
  535TMC3    O2 7951   2.986   2.393   1.500  0.2561  0.2662 -0.1194
  536MPD2     C 7952   2.912   1.179  16.309  0.0160  0.3443 -0.3241
  536MPD2    C1 7953   2.791   1.143  16.362  0.6477 -0.7630 -0.2851
  536MPD2    C2 7954   2.670   1.187  16.298  0.0137  0.0049 -0.3226
  536MPD2    C3 7955   2.684   1.260  16.180  0.4449  0.4278 -0.7747
  536MPD2    C4 7956   2.807   1.292  16.125  1.0746 -0.6210  0.4695
  536MPD2    C5 7957   2.920   1.254  16.190  0.3794 -0.1119  0.4789
  536MPD2     H 7958   2.570   1.153  16.323 -0.6727 -0.0237 -3.1222
  536MPD2    H1 7959   2.816   1.356  16.039 -1.7549 -0.3176  0.3783
  536MPD2    H2 7960   2.999   1.160  16.371 -1.9857 -3.3892  1.3474
  536MPD2    H3 7961   3.016   1.291  16.155  0.4882  0.4682  1.3730
  536MPD2     N 7962   2.569   1.319  16.111  0.2291  0.1781 -0.0295
  536MPD2    H5 7963   2.584   1.380  16.031 -0.5917  1.7895  1.0399
  536MPD2    N1 7964   2.787   1.070  16.483  0.8800 -0.0522  0.2723
  536MPD2    H7 7965   2.875   1.044  16.527  1.7669  2.0804 -0.2773
  537TMC3    C1 7966   2.697   0.956  16.673  0.0127  1.1520 -0.7635
  537TMC3    C2 7967   2.762   1.032  16.763  0.0160  0.0086  0.3504
  537TMC3    C3 7968   2.742   1.009  16.896  0.3896  0.2291  0.0000
  537TMC3    C4 7969   2.620   0.850  16.709 -0.1654 -0.4480 -0.1767
  537TMC3    C5 7970   2.619   0.811  16.842  0.1623 -0.2861  0.1407
  537TMC3    C6 7971   2.679   0.892  16.938  0.5238  0.5170 -0.2335
  537TMC3     C 7972   2.673   1.014  16.538 -0.9840  0.1094  0.8242
  537TMC3     O 7973   2.556   1.016  16.511 -0.4380  0.2681  0.3223
  537TMC3     H 7974   2.822   1.116  16.731  1.1922 -0.4092  1.4796
  537TMC3    H1 7975   2.563   0.796  16.634 -1.6136  2.9254 -1.5057
  537TMC3    H2 7976   2.671   0.885  17.046  1.6170  0.7083 -0.1395
  537TMC3    C7 7977   2.546   0.684  16.866 -0.1318 -0.6649 -0.0490
  537TMC3    C8 7978   2.760   1.108  17.002  0.6078 -0.0947  0.9311
  537TMC3    O1 7979   2.485   0.639  16.769 -0.0887 -0.0356  0.2548
  537TMC3    O2 7980   2.775   1.061  17.115  0.0953 -0.1544  0.0556
  538TMC3    C1 7981   3.937   3.966  10.883  0.7632  0.0420 -0.5204
  538TMC3    C2 7982   4.061   4.025  10.875  0.1974  0.3025 -0.1928
  538TMC3    C3 7983   4.093   4.093  10.761 -0.2120 -1.0550  0.1396
  538TMC3    C4 7984   3.852   3.959  10.775 -0.4173  0.7495  0.0698
  538TMC3    C5 7985   3.893   4.027  10.662 -0.3286  0.0706  0.3043
  538TMC3    C6 7986   4.012   4.092  10.652 -0.0135 -0.0426  0.1506
  538TMC3     C 7987   3.867   3.958  11.003  0.1259  0.0414 -0.1336
  538TMC3     O 7988   3.750   3.995  10.999 -0.0178  0.2923 -0.4310
  538TMC3     H 7989   4.134   4.027  10.954 -0.2374 -1.7703  0.2500
  538TMC3    H1 7990   3.758   3.905  10.780  0.0906 -0.0852  0.4364
  538TMC3    H2 7991   4.047   4.151  10.568  1.3341 -0.7312  0.2273
  538TMC3    C7 7992   3.787   4.088  10.580  0.0644 -0.6067  0.5662
  538TMC3    C8 7993   4.231   4.157  10.764  0.3495  0.2974  0.3826
  538TMC3    O1 7994   3.684   4.024  10.583  0.1938 -0.1502 -0.2096
  538TMC3    O2 7995   4.291   4.146  10.869  0.5633 -0.3692  0.3297
  539MPD2     C 7996   3.311   3.624  12.018 -0.4142 -0.4650 -0.5223
  539MPD2    C1 7997   3.333   3.630  11.881  0.2330  0.3527 -0.3353
  539MPD2    C2 7998   3.347   3.753  11.825  0.1779 -0.4554  0.3209
  539MPD2    C3 7999   3.355   3.867  11.902  0.0082  0.3154  0.2123
  539MPD2    C4 8000   3.335   3.864  12.038  0.6848  0.1650  0.2671
  539MPD2    C5 8001   3.312   3.743  12.095 -0.0520  0.0338  0.3611
  539MPD2     H 8002   3.348   3.765  11.717  1.7985 -0.1515  0.3693
  539MPD2    H1 8003   3.318   3.948  12.105  1.9888  0.9627 -0.3838
  539MPD2    H2 8004   3.301   3.529  12.070  1.6930  0.6007  1.8782
  539MPD2    H3 8005   3.290   3.740  12.201  0.3233 -0.6743  0.4164
  539MPD2     N 8006   3.371   3.999  11.842 -0.0257  0.3417 -0.3348
  539MPD2    H5 8007   3.370   4.074  11.910 -0.9603  1.7752 -1.9278
  539MPD2    N1 8008   3.346   3.516  11.798  0.4977 -0.2108  0.9239
  539MPD2    H7 8009   3.362   3.525  11.698 -0.3301 -0.3631  0.7796
  540TMC3    C1 8010   3.403   4.177  11.695  0.2942 -0.6339 -0.9163
  540TMC3    C2 8011   3.433   4.223  11.570 -0.2032  0.6158 -0.1870
  540TMC3    C3 8012   3.429   4.358  11.546 -0.6099  0.3990 -0.3621
  540TMC3    C4 8013   3.362   4.258  11.791 -0.6650 -0.5085  0.0266
  540TMC3    C5 8014   3.354   4.391  11.764 -0.4102  0.8997  0.4968
  540TMC3    C6 8015   3.378   4.443  11.639 -0.8405 -0.3487  0.3167
  540TMC3     C 8016   3.405   4.031  11.715  0.2463  0.2239  0.1844
  540TMC3     O 8017   3.435   3.969  11.619 -0.1606 -0.7116 -0.3210
  540TMC3     H 8018   3.455   4.157  11.487 -2.7165  1.4193 -1.5065
  540TMC3    H1 8019   3.352   4.222  11.893 -3.2513 -1.8821 -0.6939
  540TMC3    H2 8020   3.363   4.548  11.617  3.7586 -0.1314 -1.9220
  540TMC3    C7 8021   3.281   4.462  11.869  0.2105 -0.5283  0.0029
  540TMC3    C8 8022   3.408   4.398  11.410  0.5129  0.0254 -0.3324
  540TMC3    O1 8023   3.208   4.386  11.932 -0.0936  0.1446  0.4363
  540TMC3    O2 8024   3.411   4.517  11.378 -0.2775  0.0127  0.1614
  541MPD2     C 8025   2.026   0.882  13.495 -0.4696  0.6485 -0.2804
  541MPD2    C1 8026   2.106   0.811  13.407 -0.4345 -0.4982  0.1127
  541MPD2    C2 8027   2.135   0.870  13.283  0.7583 -0.0265  0.6989
  541MPD2    C3 8028   2.089   0.998  13.249  0.6630  0.1892 -0.2516
  541MPD2    C4 8029   2.025   1.071  13.343 -0.6904  0.0058  0.0077
  541MPD2    C5 8030   1.986   1.009  13.463 -0.1687  0.3286  0.1979
  541MPD2     H 8031   2.183   0.812  13.206  2.3374 -0.0795  1.7132
  541MPD2    H1 8032   1.987   1.170  13.321  2.1044  0.6501 -1.9227
  541MPD2    H2 8033   1.999   0.837  13.590  2.1342 -0.9831 -0.3157
  541MPD2    H3 8034   1.934   1.073  13.533 -1.4682 -1.2692  0.6757
  541MPD2     N 8035   2.103   1.058  13.120 -0.5832  0.2838  0.4141
  541MPD2    H5 8036   2.048   1.140  13.097  1.7598  2.1401  1.4104
  541MPD2    N1 8037   2.150   0.676  13.428 -0.7769  0.0659 -0.5140
  541MPD2    H7 8038   2.210   0.634  13.358 -0.7259 -1.1710  0.2796
  542TMC3    C1 8039   2.129   1.061  12.893  0.2196 -0.8762 -0.1766
  542TMC3    C2 8040   2.135   0.984  12.785  0.2320 -0.4890  0.9611
  542TMC3    C3 8041   2.114   1.044  12.656  0.8331  0.1324 -0.0896
  542TMC3    C4 8042   2.098   1.196  12.888 -0.0081 -0.4821 -0.5826
  542TMC3    C5 8043   2.063   1.247  12.763 -0.6005 -0.1527  0.3719
  542TMC3    C6 8044   2.074   1.175  12.643 -0.1785 -0.5929 -0.8880
  542TMC3     C 8045   2.169   1.001  13.018 -0.3297  0.7474  0.1553
  542TMC3     O 8046   2.237   0.899  13.004 -0.3666 -0.7857 -0.1231
  542TMC3     H 8047   2.154   0.878  12.792  0.7740 -0.3296  1.8447
  542TMC3    H1 8048   2.107   1.266  12.970 -2.9864 -0.5965 -0.1623
  542TMC3    H2 8049   2.060   1.225  12.548 -1.9577 -0.0443 -0.3337
  542TMC3    C7 8050   2.056   1.393  12.750  0.2533 -0.0735  0.2483
  542TMC3    C8 8051   2.127   0.964  12.535 -0.3300 -0.0528 -0.2294
  542TMC3    O1 8052   2.107   1.455  12.837  0.3913  0.8396  0.0479
  542TMC3    O2 8053   2.092   1.018  12.431  0.4772 -0.2130  0.3258
  543TMC3    C1 8054   0.765   1.742  17.116  0.3137 -0.0157  0.3315
  543TMC3    C2 8055   0.670   1.649  17.119 -0.3625 -0.6221 -0.0738
  543TMC3    C3 8056   0.594   1.624  17.229  0.1523  0.5858 -0.4166
  543TMC3    C4 8057   0.798   1.815  17.232  0.3154  0.3699  0.4809
  543TMC3    C5 8058   0.706   1.802  17.328  0.3645  0.4441 -0.2758
  543TMC3    C6 8059   0.600   1.712  17.329 -0.7747 -0.2547 -0.2350
  543TMC3     C 8060   0.880   1.709  17.032  0.2150  0.1568  0.1763
  543TMC3     O 8061   0.946   1.796  16.979  0.2714  0.2416 -0.0967
  543TMC3     H 8062   0.660   1.588  17.030  0.0753  0.5713 -0.9379
  543TMC3    H1 8063   0.877   1.889  17.238  0.5722  0.1177  0.1625
  543TMC3    H2 8064   0.520   1.730  17.399  0.7855  3.4688  0.6146
  543TMC3    C7 8065   0.697   1.904  17.427  0.5290  0.4788  0.1860
  543TMC3    C8 8066   0.634   1.494  17.274  0.5342  0.0195  0.1866
  543TMC3    O1 8067   0.650   1.868  17.536 -0.0850  0.3130 -0.0538
  543TMC3    O2 8068   0.730   1.445  17.216  0.5608 -0.2565 -0.0008
  544MPD2     C 8069   0.679   1.134  17.663  0.1595  0.2190  0.4221
  544MPD2    C1 8070   0.743   1.143  17.539 -0.3129 -0.1169 -0.2881
  544MPD2    C2 8071   0.719   1.249  17.460 -0.0295 -0.2856  0.1481
  544MPD2    C3 8072   0.618   1.345  17.479 -0.0185  0.0102 -0.6566
  544MPD2    C4 8073   0.559   1.329  17.607 -0.4772  0.3880 -0.3790
  544MPD2    C5 8074   0.580   1.217   0.001  0.0609  0.2895 -0.3567
  544MPD2     H 8075   0.770   1.264  17.366 -0.5596  1.4499  0.1386
  544MPD2    H1 8076   0.487   1.399  17.649 -0.7585 -0.8375  1.2082
  544MPD2    H2 8077   0.694   1.058   0.050 -1.3372 -1.7768 -1.2805
  544MPD2    H3 8078   0.530   1.211   0.097  0.0592  1.5912 -0.2749
  544MPD2     N 8079   0.581   1.461  17.401  0.4180 -0.2526 -0.0550
  544MPD2    H5 8080   0.506   1.517  17.441 -0.3976 -0.9072 -0.6724
  544MPD2    N1 8081   0.839   1.043  17.513 -0.4184 -0.1950 -0.2661
  544MPD2    H7 8082   0.871   0.993  17.595  1.5255 -0.9539 -1.5052
  545TMC3    C1 8083   1.009   0.931  17.396 -0.1526 -0.1061  0.1097
  545TMC3    C2 8084   1.102   0.935  17.301  0.1185  0.5511  0.0172
  545TMC3    C3 8085   1.192   0.835  17.299 -0.2400 -0.1435  0.2330
  545TMC3    C4 8086   1.004   0.836  17.498  0.2222  0.1651  0.0511
  545TMC3    C5 8087   1.101   0.739  17.499  0.5765  0.0542 -0.3940
  545TMC3    C6 8088   1.201   0.745  17.403 -0.5204 -0.3107  0.9059
  545TMC3     C 8089   0.906   1.030  17.393 -0.8291 -0.2487 -0.7659
  545TMC3     O 8090   0.888   1.081  17.282 -0.2711 -0.2487 -0.0726
  545TMC3     H 8091   1.105   1.006  17.219  1.3653  0.9924  0.4373
  545TMC3    H1 8092   0.916   0.813  17.557  1.3578 -1.1362  1.2356
  545TMC3    H2 8093   1.282   0.672  17.409  0.2915  0.3927 -1.3917
  545TMC3    C7 8094   1.083   0.615  17.579 -0.0666 -0.3494  0.1552
  545TMC3    C8 8095   1.308   0.829  17.209 -0.0278 -0.9427 -0.2324
  545TMC3    O1 8096   0.967   0.589  17.605  0.0215 -0.3927  0.1582
  545TMC3    O2 8097   1.395   0.747  17.236  0.2787  0.0066 -0.2416
  546MPD2     C 8098   2.655   1.724   0.179  1.2773  0.1401 -0.0028
  546MPD2    C1 8099   2.651   1.741   0.040 -0.9208  0.5273 -0.4011
  546MPD2    C2 8100   2.695   1.864  17.676 -0.3231  0.3511 -0.0036
  546MPD2    C3 8101   2.740   1.971   0.064  0.1951  0.5966 -0.2652
  546MPD2    C4 8102   2.744   1.949   0.196 -0.4375  0.0236 -0.2263
  546MPD2    C5 8103   2.707   1.829   0.251 -0.1132 -0.4379 -0.0151
  546MPD2     H 8104   2.707   1.872  17.568 -1.5900 -0.7913 -0.2318
  546MPD2    H1 8105   2.791   2.019   0.264  1.1918 -1.2627 -0.0168
  546MPD2    H2 8106   2.614   1.636   0.227  0.3344  0.5686 -0.0153
  546MPD2    H3 8107   2.711   1.829   0.359  2.1067  0.6997 -0.0915
  546MPD2     N 8108   2.781   2.095   0.008 -0.3241 -0.6435  0.0860
  546MPD2    H5 8109   2.796   2.177   0.066  1.4958 -0.8557 -0.0840
  546MPD2    N1 8110   2.609   1.636  17.645 -0.3753  0.2702 -0.0961
  546MPD2    H7 8111   2.581   1.549   0.001  1.1587 -0.4908 -0.5984
  547TMC3    C1 8112   2.555   1.520  17.445 -0.1489  0.3514  0.7585
  547TMC3    C2 8113   2.475   1.538  17.328 -0.8780  0.6828 -0.9022
  547TMC3    C3 8114   2.389   1.433  17.300 -0.3799 -0.4624  0.0090
  547TMC3    C4 8115   2.567   1.396  17.513  0.0985 -0.0599 -0.5630
  547TMC3    C5 8116   2.479   1.295  17.474 -0.1304  0.9980  0.5619
  547TMC3    C6 8117   2.383   1.318  17.378  0.4872 -0.1902  0.5801
  547TMC3     C 8118   2.589   1.648  17.509  0.2356 -0.4094 -0.1186
  547TMC3     O 8119   2.598   1.744  17.430  0.2138  0.6867  0.3548
  547TMC3     H 8120   2.453   1.631  17.278  2.5714  1.5736 -0.7352
  547TMC3    H1 8121   2.634   1.387  17.598  0.6117  0.2519 -0.9278
  547TMC3    H2 8122   2.304   1.248  17.351  1.6762 -0.9883 -0.8213
  547TMC3    C7 8123   2.451   1.189  17.569 -0.0817  0.5137  0.0864
  547TMC3    C8 8124   2.265   1.485  17.238 -0.1877  0.2654 -0.0249
  547TMC3    O1 8125   2.333   1.155  17.567  0.2195  0.3835  0.2843
  547TMC3    O2 8126   2.275   1.569  17.151 -0.2363  0.1294 -0.0599
  548MPD2     C 8127   2.937   2.472  12.528 -0.1658 -0.0962 -0.9367
  548MPD2    C1 8128   2.856   2.366  12.560 -0.5985 -0.6301 -0.3461
  548MPD2    C2 8129   2.906   2.236  12.567 -0.5334 -0.5377 -0.0942
  548MPD2    C3 8130   3.044   2.219  12.553  0.6516  0.4398  0.4797
  548MPD2    C4 8131   3.125   2.331  12.535  0.5910  0.5504  0.4083
  548MPD2    C5 8132   3.071   2.455  12.531  0.2291 -0.6754  0.1162
  548MPD2     H 8133   2.845   2.148  12.584 -0.3418 -0.1002  2.7313
  548MPD2    H1 8134   3.231   2.323  12.513  0.2958  0.1373 -0.9127
  548MPD2    H2 8135   2.893   2.569  12.507 -2.1718 -0.6395  0.7113
  548MPD2    H3 8136   3.140   2.534  12.503  0.0245 -0.3640  0.4825
  548MPD2     N 8137   3.105   2.090  12.554  0.1238 -0.2478  0.2719
  548MPD2    H5 8138   3.201   2.084  12.521 -0.3451 -1.2281 -0.9105
  548MPD2    N1 8139   2.719   2.403  12.577 -0.3872 -0.1240 -0.3744
  548MPD2    H7 8140   2.692   2.500  12.572 -2.7968 -0.7455  0.6704
  549TMC3    C1 8141   2.502   2.364  12.650  0.2117 -0.0396  0.3698
  549TMC3    C2 8142   2.468   2.491  12.619  0.3413 -0.4186  0.0512
  549TMC3    C3 8143   2.354   2.547  12.672  0.4542  0.9251  0.0926
  549TMC3    C4 8144   2.430   2.284  12.733  0.2650 -0.3119  0.1102
  549TMC3    C5 8145   2.308   2.340  12.775  0.7466  0.2364  0.0488
  549TMC3    C6 8146   2.272   2.470  12.745  0.5922  0.8180 -0.2252
  549TMC3     C 8147   2.626   2.306  12.600 -0.3107 -0.2720 -0.6579
  549TMC3     O 8148   2.631   2.186  12.598  0.4419 -0.4424  0.6232
  549TMC3     H 8149   2.517   2.536  12.534 -0.4487 -1.2199 -0.8308
  549TMC3    H1 8150   2.465   2.184  12.758 -2.3404 -1.0927  0.6757
  549TMC3    H2 8151   2.175   2.506  12.779 -0.8107 -1.2848 -2.0035
  549TMC3    C7 8152   2.207   2.266  12.846 -0.6829 -0.1660 -0.1967
  549TMC3    C8 8153   2.287   2.650  12.593  0.3109 -0.4334 -0.0628
  549TMC3    O1 8154   2.090   2.305  12.858 -0.1250  0.3750  0.2388
  549TMC3    O2 8155   2.167   2.636  12.579  0.0064 -0.0303  0.2305
  550TMC3    C1 8156   0.746   4.365  11.385 -0.4603  0.0915 -0.4114
  550TMC3    C2 8157   0.685   4.324  11.502 -0.0221  0.3116 -0.2041
  550TMC3    C3 8158   0.747   4.357  11.615 -0.2879  0.1344  0.2626
  550TMC3    C4 8159   0.867   4.435  11.383  0.0325 -0.1144  0.0201
  550TMC3    C5 8160   0.933   4.456  11.506  0.1693 -0.0977 -0.4445
  550TMC3    C6 8161   0.872   4.413  11.622  0.3163 -0.2522  0.0124
  550TMC3     C 8162   0.645   4.390  11.287 -0.2818 -0.3315  0.2554
  550TMC3     O 8163   0.550   4.317  11.276 -0.2652 -0.3460 -0.2275
  550TMC3     H 8164   0.578   4.309  11.501 -0.1348  1.1874 -1.9668
  550TMC3    H1 8165   0.917   4.439  11.286  0.1499  2.2335  0.1775
  550TMC3    H2 8166   0.931   4.416  11.713 -1.6108  0.0069  1.2641
  550TMC3    C7 8167   0.943   4.604  11.530 -0.3102  0.3621 -0.4774
  550TMC3    C8 8168   0.677   4.369  11.740  0.3219  0.2082 -0.5487
  550TMC3    O1 8169   0.916   4.654  11.640 -0.7208  0.2922  0.7644
  550TMC3    O2 8170   0.595   4.285  11.768  0.1999 -0.0492  0.1836
  551TMC3    C1 8171   3.450   3.080  13.512 -0.1077  0.2729 -0.2571
  551TMC3    C2 8172   3.536   3.121  13.415 -0.4143  0.5352 -0.3647
  551TMC3    C3 8173   3.657   3.176  13.450  0.1801 -0.2954  0.3535
  551TMC3    C4 8174   3.470   3.105  13.648  0.1528  0.4132  1.2749
  551TMC3    C5 8175   3.588   3.163  13.676  0.2892 -0.1527 -0.0256
  551TMC3    C6 8176   3.679   3.203  13.582 -0.4222  0.5827 -0.5619
  551TMC3     C 8177   3.323   3.037  13.457 -0.5607 -0.0503  0.2908
  551TMC3     O 8178   3.275   3.090  13.356 -0.5348 -0.3859  0.0185
  551TMC3     H 8179   3.523   3.083  13.315 -0.6079  0.7826 -0.4328
  551TMC3    H1 8180   3.408   3.070  13.729 -1.5172  0.0315 -0.1505
  551TMC3    H2 8181   3.782   3.231  13.602 -0.4367 -0.8923  1.6236
  551TMC3    C7 8182   3.633   3.172  13.811 -0.0186  0.3335  0.4329
  551TMC3    C8 8183   3.758   3.171  13.348 -0.7800  0.1989  0.3647
  551TMC3    O1 8184   3.628   3.072  13.876 -0.5569 -0.1537  0.4662
  551TMC3    O2 8185   3.764   3.069  13.274  0.3559  0.1826 -0.5925
  552MPD2     C 8186   0.474   0.188  14.251 -0.2752 -0.0189  0.4195
  552MPD2    C1 8187   0.597   0.143  14.221 -0.2701 -0.3690  0.2216
  552MPD2    C2 8188   0.683   0.121  14.322 -0.0288 -0.7700  0.7556
  552MPD2    C3 8189   0.643   0.114  14.456  0.3126 -1.2112  0.1032
  552MPD2    C4 8190   0.516   0.160  14.482  0.2201  0.1421  0.0514
  552MPD2    C5 8191   0.437   0.206  14.384 -0.3699 -0.4221 -0.0762
  552MPD2     H 8192   0.786   0.093  14.303 -0.6105 -0.7820 -2.2528
  552MPD2    H1 8193   0.479   0.181  14.582  0.9955 -1.1001  0.6081
  552MPD2    H2 8194   0.399   0.208  14.175  1.0439 -1.0860 -1.1831
  552MPD2    H3 8195   0.337   0.233  14.414  0.5022  0.2823  2.1781
  552MPD2     N 8196   0.729   0.062  14.562 -0.3339 -0.4069 -0.0453
  552MPD2    H5 8197   0.705   0.071  14.660  1.0211  0.4578  0.2184
  552MPD2    N1 8198   0.637   0.125  14.090  0.0108  0.7299  0.0375
  552MPD2    H7 8199   0.726   0.078  14.073 -0.8041 -0.4120 -1.0486
  553TMC3    C1 8200   0.656   0.109  13.860 -0.3200 -0.7979 -0.2813
  553TMC3    C2 8201   0.595   0.125  13.737 -0.4169 -0.2249  0.0516
  553TMC3    C3 8202   0.658   0.072  13.628  0.1482  0.5034 -0.6356
  553TMC3    C4 8203   0.780   0.059  13.877  0.2272  0.3558 -0.7019
  553TMC3    C5 8204   0.834   4.719  13.766  0.2692 -0.7754 -0.1323
  553TMC3    C6 8205   0.765   4.711  13.649 -0.3974 -0.7945 -0.2118
  553TMC3     C 8206   0.582   0.169  13.973 -0.5276  0.1953  0.8596
  553TMC3     O 8207   0.483   0.238  13.956 -0.3050 -0.8928  0.4763
  553TMC3     H 8208   0.528   0.210  13.728  1.8776  1.5411 -0.4348
  553TMC3    H1 8209   0.842   0.080  13.964 -0.3426  0.2517 -0.2748
  553TMC3    H2 8210   0.812   4.671  13.560  2.0425 -1.2505  1.2818
  553TMC3    C7 8211   0.955   4.640  13.767  0.0735  0.4295 -0.2104
  553TMC3    C8 8212   0.682   0.165  13.517  0.3745 -0.4093  0.5831
  553TMC3    O1 8213   1.000   4.610  13.654 -0.0739  0.0968  0.0326
  553TMC3    O2 8214   0.755   0.261  13.554  0.0410 -0.7454 -0.2316
  554TMC3    C1 8215   2.354   4.064  11.435  0.3837  0.1688  1.1310
  554TMC3    C2 8216   2.295   3.972  11.358  0.1232 -0.2170 -0.0480
  554TMC3    C3 8217   2.368   3.924  11.249  0.5053 -0.2174 -0.9890
  554TMC3    C4 8218   2.483   4.114  11.407 -1.0929  0.4780 -0.5668
  554TMC3    C5 8219   2.546   4.075  11.292  0.5240 -0.4340 -0.4589
  554TMC3    C6 8220   2.486   3.982  11.207 -1.2413  0.6366 -0.0476
  554TMC3     C 8221   2.313   4.078  11.577  0.8033 -0.2708 -1.2867
  554TMC3     O 8222   2.198   4.058  11.604 -0.9219 -0.2538  0.0107
  554TMC3     H 8223   2.205   3.931  11.402  1.1805  0.0877  2.4219
  554TMC3    H1 8224   2.518   4.205  11.453 -1.3372  0.7388 -0.9021
  554TMC3    H2 8225   2.535   3.946  11.117  0.1980  0.8686  0.6414
  554TMC3    C7 8226   2.605   4.181  11.209 -0.2242 -0.8923  0.0618
  554TMC3    C8 8227   2.305   3.835  11.152  0.3854 -0.5871 -0.1049
  554TMC3    O1 8228   2.558   4.179  11.095  0.1740  0.3175  0.7168
  554TMC3    O2 8229   2.376   3.801  11.059 -0.0143  0.4607  0.6583
  555TMC3    C1 8230   1.673   3.224  14.743 -0.4905  0.2977  0.4122
  555TMC3    C2 8231   1.671   3.329  14.841  0.1610  0.5325 -0.8374
  555TMC3    C3 8232   1.722   3.297  14.963  0.2092  0.2784  0.2645
  555TMC3    C4 8233   1.732   3.103  14.776  0.9787 -0.5938  0.0529
  555TMC3    C5 8234   1.776   3.086  14.907  1.2841  0.2985  0.4688
  555TMC3    C6 8235   1.781   3.182  14.999 -0.0826  0.1068  0.5327
  555TMC3     C 8236   1.662   3.260  14.598  0.5955 -0.3721 -0.0532
  555TMC3     O 8237   1.716   3.179  14.529  0.3267  0.0405  0.1502
  555TMC3     H 8238   1.624   3.423  14.817  0.9955  0.4629 -2.7127
  555TMC3    H1 8239   1.736   3.026  14.700  1.8761  0.0968 -0.5884
  555TMC3    H2 8240   1.790   3.152  15.102  2.7082  2.4744  0.9924
  555TMC3    C7 8241   1.785   2.952  14.964 -0.1214  0.1108 -0.6842
  555TMC3    C8 8242   1.723   3.395  15.067  0.7576 -0.5933  0.1846
  555TMC3    O1 8243   1.838   2.939  15.076 -0.0593 -0.5453  0.0482
  555TMC3    O2 8244   1.622   3.467  15.076  0.9529 -0.2921  0.2642
  556MPD2     C 8245   4.478   0.656  10.832 -1.1077 -0.0554  0.0941
  556MPD2    C1 8246   4.466   0.521  10.854 -0.7535 -0.1637 -0.1367
  556MPD2    C2 8247   4.443   0.441  10.746  0.6757 -0.1707  0.1126
  556MPD2    C3 8248   4.441   0.491  10.616 -0.1000  0.1625  0.0191
  556MPD2    C4 8249   4.461   0.624  10.593  0.2289 -0.5749 -0.1211
  556MPD2    C5 8250   4.476   0.702  10.704 -0.3160  0.3173 -0.3441
  556MPD2     H 8251   4.433   0.335  10.764 -2.2907 -0.0630 -0.8051
  556MPD2    H1 8252   4.462   0.669  10.495 -0.2001  0.2168  0.2331
  556MPD2    H2 8253   4.495   0.739  10.899  0.4593 -3.0014  3.3506
  556MPD2    H3 8254   4.494   0.808  10.693 -0.4358  0.2404 -1.3094
  556MPD2     N 8255   4.426   0.396  10.516 -0.1747 -0.2519  0.4236
  556MPD2    H5 8256   4.433   0.298  10.544  0.5520 -0.2159  0.3558
  556MPD2    N1 8257   4.468   0.468  10.985 -0.5611 -0.1175  0.5738
  556MPD2    H7 8258   4.467   0.367  10.998 -1.4253 -0.4106 -1.7285
  557TMC3    C1 8259   4.403   0.287  10.312  0.5882 -0.5752  0.3476
  557TMC3    C2 8260   4.413   0.302  10.174 -0.2313 -0.5664 -0.4487
  557TMC3    C3 8261   4.428   0.195  10.091 -0.3194  0.7905  0.0222
  557TMC3    C4 8262   4.388   0.165  10.368  0.6328  0.5916  0.3522
  557TMC3    C5 8263   4.391   0.063  10.275  0.1130 -1.0040  0.6057
  557TMC3    C6 8264   4.401   0.072  10.139 -0.9794 -0.2781  0.3838
  557TMC3     C 8265   4.411   0.414  10.384  0.4559  0.6889  0.0117
  557TMC3     O 8266   4.409   0.520  10.317  0.2980  0.3561  0.7421
  557TMC3     H 8267   4.432   0.403  10.139  1.4020 -0.9476 -0.6672
  557TMC3    H1 8268   4.355   0.152  10.471  2.3408 -0.5063  0.7652
  557TMC3    H2 8269   4.417   4.699  10.089 -3.5505 -0.5825  0.1630
  557TMC3    C7 8270   4.391   4.651  10.338  0.1902  0.0836  0.8956
  557TMC3    C8 8271   4.458   0.223   9.943  0.2931  0.4106 -0.0851
  557TMC3    O1 8272   4.379   4.549  10.272 -0.0917  0.3933 -0.3341
  557TMC3    O2 8273   4.492   0.340   9.918  0.1148 -0.0952 -0.6293
  558TMC3    C1 8274   2.220   2.675   9.958 -0.1297  0.1317  0.1397
  558TMC3    C2 8275   2.148   2.573  10.008 -0.6329 -0.1386  0.1273
  558TMC3    C3 8276   2.028   2.542   9.942  0.0114  0.4388 -0.5678
  558TMC3    C4 8277   2.176   2.749   9.853  0.2295  0.4664  0.4386
  558TMC3    C5 8278   2.057   2.718   9.797  0.7111  0.6812  0.1062
  558TMC3    C6 8279   1.982   2.609   9.840  0.3283 -0.4368 -0.3412
  558TMC3     C 8280   2.349   2.708  10.026 -0.9225  0.3082  0.3240
  558TMC3     O 8281   2.450   2.723   9.957 -0.4492 -0.1977 -0.3799
  558TMC3     H 8282   2.190   2.497  10.074  0.5168  1.0539  0.7748
  558TMC3    H1 8283   2.240   2.828   9.815  0.4337 -1.5105 -3.3738
  558TMC3    H2 8284   1.887   2.578   9.798  1.0234 -0.5432 -1.8566
  558TMC3    C7 8285   2.015   2.798   9.687 -0.1933 -0.2422 -0.6664
  558TMC3    C8 8286   1.956   2.424   9.972 -1.1483 -0.1460  0.0931
  558TMC3    O1 8287   2.094   2.890   9.659  0.5327 -0.6419  0.4813
  558TMC3    O2 8288   1.917   2.361   9.876  0.8024 -0.2010 -0.4444
  559MPD2     C 8289   2.113   3.360  10.658  0.3104  1.3080  0.5003
  559MPD2    C1 8290   2.095   3.244  10.725  0.8633  0.5245 -0.1059
  559MPD2    C2 8291   2.199   3.185  10.788 -0.4286 -0.4119  0.2052
  559MPD2    C3 8292   2.317   3.252  10.796 -0.2036  0.4808 -0.1456
  559MPD2    C4 8293   2.333   3.373  10.730  0.1089  0.2082  0.4397
  559MPD2    C5 8294   2.236   3.421  10.653 -0.7554  0.3598 -0.3035
  559MPD2     H 8295   2.185   3.093  10.845  0.8524  0.4034  1.8610
  559MPD2    H1 8296   2.429   3.423  10.744 -0.2568  1.0437 -0.0422
  559MPD2    H2 8297   2.031   3.401  10.601 -0.9152 -1.4560  0.2752
  559MPD2    H3 8298   2.246   3.515  10.600 -1.5427  0.9589  0.6165
  559MPD2     N 8299   2.410   3.200  10.892  0.3182 -0.1211 -0.1290
  559MPD2    H5 8300   2.371   3.127  10.950 -0.0572  0.3033  0.1530
  559MPD2    N1 8301   1.961   3.187  10.728  0.4266  0.5955 -0.3100
  559MPD2    H7 8302   1.885   3.245  10.693 -1.1362 -0.1014  1.8836
  560TMC3    C1 8303   2.591   3.172  11.025 -0.3953  0.1293  0.9790
  560TMC3    C2 8304   2.573   3.035  11.024  0.0681 -0.5177 -0.6580
  560TMC3    C3 8305   2.641   2.966  11.120 -0.3935 -0.3705 -0.1502
  560TMC3    C4 8306   2.692   3.227  11.101  0.0226 -0.0395 -0.3116
  560TMC3    C5 8307   2.771   3.143  11.185 -0.6538  0.0831  0.6025
  560TMC3    C6 8308   2.734   3.013  11.202  0.0204  1.2564  0.7507
  560TMC3     C 8309   2.535   3.244  10.921  0.1861 -1.0559  0.0069
  560TMC3     O 8310   2.603   3.325  10.862 -0.2576 -0.0972  0.3156
  560TMC3     H 8311   2.512   2.988  10.948  1.5387 -3.9659  0.3050
  560TMC3    H1 8312   2.732   3.326  11.083 -1.3290  0.5272 -0.1759
  560TMC3    H2 8313   2.799   2.942  11.251 -0.1660  0.5952  0.0388
  560TMC3    C7 8314   2.846   3.195  11.297  0.1383  1.1056 -0.1699
  560TMC3    C8 8315   2.648   2.823  11.091 -0.5931 -0.0094  0.0587
  560TMC3    O1 8316   2.853   3.127  11.397 -0.0516 -0.1282  0.3538
  560TMC3    O2 8317   2.539   2.766  11.077 -0.1727  0.3046 -0.0615
  561TMC3    C1 8318   0.178   2.120  11.862 -0.0900 -0.1115 -0.2747
  561TMC3    C2 8319   0.088   2.112  11.962 -0.2567  0.5664 -0.3486
  561TMC3    C3 8320   0.017   2.228  11.987 -0.4257 -0.6630  0.9863
  561TMC3    C4 8321   0.211   2.228  11.786 -0.3073  0.1705 -0.4338
  561TMC3    C5 8322   0.152   2.339  11.825  0.0859 -0.2372 -0.0153
  561TMC3    C6 8323   0.046   2.343  11.919  0.8945 -0.1938  0.5024
  561TMC3     C 8324   0.212   1.991  11.805  0.8178  1.0539 -0.2588
  561TMC3     O 8325   0.132   1.905  11.819 -0.2707  0.1281 -0.1625
  561TMC3     H 8326   0.064   2.015  12.005 -2.0192  0.8617 -0.6632
  561TMC3    H1 8327   0.261   2.234  11.690  0.2111  0.7547 -0.1292
  561TMC3    H2 8328   4.701   2.428  11.919  1.8519  0.5561 -2.0350
  561TMC3    C7 8329   0.155   2.462  11.745  0.1230 -0.4482  0.5073
  561TMC3    C8 8330   4.633   2.213  12.082 -0.5467 -0.9080 -0.3173
  561TMC3    O1 8331   0.116   2.561  11.801 -0.6608  0.9801 -0.4551
  561TMC3    O2 8332   4.601   2.099  12.111  0.1248 -0.0475  0.6786
  562TMC3    C1 8333   1.467   3.639  16.262 -0.3666 -0.3491  0.3747
  562TMC3    C2 8334   1.381   3.727  16.323  0.6154  0.2721 -0.3407
  562TMC3    C3 8335   1.283   3.788  16.244  0.3982  0.9525  0.5068
  562TMC3    C4 8336   1.443   3.595  16.136 -0.2660 -0.0175 -0.3587
  562TMC3    C5 8337   1.335   3.647  16.071 -0.0331 -0.5690  0.3915
  562TMC3    C6 8338   1.256   3.747  16.121  0.9374  0.0297 -0.4747
  562TMC3     C 8339   1.583   3.581  16.336 -0.3883  0.3735  0.6183
  562TMC3     O 8340   1.647   3.497  16.272 -0.1233  0.3415 -0.5330
  562TMC3     H 8341   1.389   3.764  16.424 -1.8164  0.8473 -0.3610
  562TMC3    H1 8342   1.500   3.516  16.087 -0.7860 -1.1937  0.9291
  562TMC3    H2 8343   1.182   3.799  16.063  0.9983  2.0340  1.2193
  562TMC3    C7 8344   1.302   3.598  15.936 -0.9675  0.6946  0.0787
  562TMC3    C8 8345   1.228   3.916  16.291  0.4355 -0.6365  0.7312
  562TMC3    O1 8346   1.213   3.662  15.885  0.2536 -0.2918 -0.0174
  562TMC3    O2 8347   1.226   3.929  16.414  0.0624  0.2331  0.0566
  563MPD2     C 8348   4.362   0.122  16.608 -0.3208 -0.4961 -0.2341
  563MPD2    C1 8349   4.271   0.206  16.553 -0.2744  0.7316  0.0367
  563MPD2    C2 8350   4.303   0.262  16.429  0.1488 -0.1651  0.0729
  563MPD2    C3 8351   4.411   0.217  16.357 -0.1988  0.1499  0.3296
  563MPD2    C4 8352   4.499   0.124  16.410 -0.6060  0.1736  0.3026
  563MPD2    C5 8353   4.476   0.087  16.541  0.8734  0.6940  0.0444
  563MPD2     H 8354   4.247   0.340  16.380 -0.5594  0.2800  1.5800
  563MPD2    H1 8355   4.568   0.065  16.351 -1.3658  1.0493 -1.4592
  563MPD2    H2 8356   4.352   0.071  16.703 -2.2523 -2.0171 -1.2603
  563MPD2    H3 8357   4.544   0.018  16.589 -2.1126 -2.5930 -0.4783
  563MPD2     N 8358   4.444   0.289  16.237 -0.2578 -0.4896  0.4322
  563MPD2    H5 8359   4.371   0.356  16.217 -0.8627 -1.1480  0.4339
  563MPD2    N1 8360   4.154   0.244  16.614 -0.9981 -0.0443 -0.7493
  563MPD2    H7 8361   4.129   0.193  16.698 -0.6640 -0.5352 -0.9474
  564TMC3    C1 8362   3.938   0.318  16.662  0.0512  0.0602  0.3087
  564TMC3    C2 8363   3.807   0.341  16.618  0.2338  0.2656 -0.0802
  564TMC3    C3 8364   3.700   0.308  16.698  0.7486 -0.5913 -0.4530
  564TMC3    C4 8365   3.965   0.304  16.799  0.1517  0.0706 -0.7558
  564TMC3    C5 8366   3.857   0.265  16.873 -0.0461 -0.3389 -0.3374
  564TMC3    C6 8367   3.733   0.271  16.823  0.6106  0.5487  0.1438
  564TMC3     C 8368   4.042   0.311  16.563 -0.5157  0.3707  0.4001
  564TMC3     O 8369   4.009   0.339  16.452 -0.7238  0.5294  0.4452
  564TMC3     H 8370   3.792   0.357  16.512  1.2264  0.0269 -0.2622
  564TMC3    H1 8371   4.062   0.333  16.837  1.3381 -3.0072 -1.3854
  564TMC3    H2 8372   3.656   0.238  16.891  1.2431  1.4560  1.3030
  564TMC3    C7 8373   3.873   0.137  16.950  1.2709 -0.0149  0.1278
  564TMC3    C8 8374   3.610   0.217  16.636  0.5405  0.1415 -0.0691
  564TMC3    O1 8375   3.941   0.134  17.051 -0.8387 -0.4371  0.0277
  564TMC3    O2 8376   3.592   0.116  16.697 -0.2952  0.0747  0.2615
  565TMC3    C1 8377   4.059   0.957   9.892 -0.2766 -0.3832  0.1733
  565TMC3    C2 8378   4.058   0.921  10.020  0.4665 -0.2560  0.5507
  565TMC3    C3 8379   4.140   0.989  10.100  0.1423  0.0729  0.4659
  565TMC3    C4 8380   4.139   1.044   9.834  0.3932 -0.1096 -0.3103
  565TMC3    C5 8381   4.232   1.108   9.914 -0.1763  0.7858  0.4436
  565TMC3    C6 8382   4.229   1.086  10.052  0.7421 -0.3241 -0.6311
  565TMC3     C 8383   3.968   0.884   9.807 -0.3489 -0.7000 -0.0518
  565TMC3     O 8384   3.877   0.826   9.862  0.0599  0.1223  0.2772
  565TMC3     H 8385   3.991   0.846  10.060 -1.3040  1.5105  0.9295
  565TMC3    H1 8386   4.115   1.070   9.731  0.1765 -2.1553 -0.7836
  565TMC3    H2 8387   4.329   1.094  10.093  0.2240  2.6539  0.0349
  565TMC3    C7 8388   4.304   1.226   9.862  0.3445  0.2940 -1.1144
  565TMC3    C8 8389   4.130   0.980  10.245 -0.3851  0.0137  0.6181
  565TMC3    O1 8390   4.350   1.311   9.943 -0.5644  0.3474 -0.3560
  565TMC3    O2 8391   4.074   0.876  10.283  0.2027 -0.0654  0.2757
  566MPD2     C 8392   0.667   3.634  14.012  0.4984 -1.0266  0.4376
  566MPD2    C1 8393   0.768   3.630  13.920  0.4488  0.1537 -0.0724
  566MPD2    C2 8394   0.741   3.552  13.807 -0.2285 -0.4390  0.0977
  566MPD2    C3 8395   0.625   3.490  13.787 -0.0369  0.3475 -0.2595
  566MPD2    C4 8396   0.527   3.480  13.888  0.2669 -0.1072  0.5846
  566MPD2    C5 8397   0.554   3.559  13.995  0.1895  0.5355  0.5809
  566MPD2     H 8398   0.822   3.533  13.737  0.3049  1.9105  0.0967
  566MPD2    H1 8399   0.428   3.441  13.866  0.3349 -1.4291  2.5885
  566MPD2    H2 8400   0.682   3.683  14.108 -1.3327  3.2951 -1.5046
  566MPD2    H3 8401   0.491   3.566  14.083 -1.4736  1.2541 -0.6573
  566MPD2     N 8402   0.607   3.419  13.666 -0.0398  0.1451 -0.0612
  566MPD2    H5 8403   0.533   3.350  13.664  0.1244 -0.0363  0.1832
  566MPD2    N1 8404   0.888   3.701  13.939  0.7071  0.0676  0.3909
  566MPD2    H7 8405   0.895   3.747  14.029 -1.1980  0.9538  0.0875
  567TMC3    C1 8406   1.115   3.739  13.904  0.3749  0.0339  0.0596
  567TMC3    C2 8407   1.206   3.786  13.809  0.6535  0.4928  0.1362
  567TMC3    C3 8408   1.334   3.740  13.805 -0.6024  0.5446  0.3341
  567TMC3    C4 8409   1.167   3.654  14.002 -0.3147 -0.2895 -0.2637
  567TMC3    C5 8410   1.297   3.618  13.984  0.3100  0.4261  1.2162
  567TMC3    C6 8411   1.387   3.659  13.899  0.5174  1.1905 -0.3338
  567TMC3     C 8412   0.991   3.707  13.843 -0.8550  0.2584  0.1385
  567TMC3     O 8413   0.995   3.678  13.722 -0.3386  0.3017 -0.2163
  567TMC3     H 8414   1.173   3.842  13.722  1.5159  1.7013  0.5841
  567TMC3    H1 8415   1.088   3.597  14.050 -0.5928  0.8505  0.6260
  567TMC3    H2 8416   1.489   3.621  13.899  0.4697  1.0623  1.3710
  567TMC3    C7 8417   1.327   3.495  14.053 -0.9111 -0.0209 -0.2439
  567TMC3    C8 8418   1.403   3.767  13.679 -0.8931 -0.7446  0.0517
  567TMC3    O1 8419   1.403   3.416  14.002  0.4196 -0.0504 -1.0363
  567TMC3    O2 8420   1.339   3.761  13.575 -0.4956 -0.6824  0.5574
  568MPD2     C 8421   3.350   3.613  16.614  0.5797  0.0522 -0.0953
  568MPD2    C1 8422   3.318   3.667  16.738 -0.2272  0.3825  0.4499
  568MPD2    C2 8423   3.246   3.784  16.738 -0.0578  0.6496  0.0269
  568MPD2    C3 8424   3.205   3.852  16.626  0.1367  0.6843  0.3543
  568MPD2    C4 8425   3.240   3.793  16.504  0.2792  0.1265 -0.2699
  568MPD2    C5 8426   3.317   3.675  16.501  0.4264  0.5133 -0.0360
  568MPD2     H 8427   3.228   3.832  16.833 -0.8573 -4.1702  2.3106
  568MPD2    H1 8428   3.217   3.851  16.415 -1.3442 -0.5903 -0.3196
  568MPD2    H2 8429   3.400   3.517  16.606  1.3371  0.6037 -1.7295
  568MPD2    H3 8430   3.347   3.639  16.404 -2.1562  1.3627 -1.1673
  568MPD2     N 8431   3.139   3.981  16.631  0.2629 -0.1134  0.1615
  568MPD2    H5 8432   3.120   4.005  16.728  2.0153  1.4696  0.1089
  568MPD2    N1 8433   3.365   3.607  16.857  0.0742 -0.0332 -0.1594
  568MPD2    H7 8434   3.425   3.526  16.842 -0.5741 -0.2725 -1.4591
  569TMC3    C1 8435   3.087   4.196  16.594 -1.1065 -0.3194  0.0773
  569TMC3    C2 8436   3.074   4.218  16.729  0.4210  0.6695 -0.5366
  569TMC3    C3 8437   3.091   4.344  16.780 -0.7988  0.2038  0.2633
  569TMC3    C4 8438   3.090   4.300  16.513  0.1648  0.3018 -1.2281
  569TMC3    C5 8439   3.098   4.428  16.568  0.0198  0.3519  0.4067
  569TMC3    C6 8440   3.116   4.455  16.698 -0.5720 -0.3977  0.2667
  569TMC3     C 8441   3.122   4.070  16.533 -0.7661 -0.1670  0.6534
  569TMC3     O 8442   3.131   4.062  16.413  0.2248  0.3416  0.2272
  569TMC3     H 8443   3.086   4.140  16.804  0.2815  0.0704 -1.1429
  569TMC3    H1 8444   3.093   4.288  16.405  2.1901  2.3709 -1.4015
  569TMC3    H2 8445   3.115   4.555  16.740 -0.6999  0.3410 -1.5176
  569TMC3    C7 8446   3.128   4.541  16.473  0.2526 -0.5992 -0.6498
  569TMC3    C8 8447   3.108   4.357  16.922  0.2701 -1.6276 -1.0164
  569TMC3    O1 8448   3.060   4.551  16.368  0.4385  0.2598  0.0123
  569TMC3    O2 8449   3.045   4.271  16.982  0.4777  0.0330 -0.0139
  570TMC3    C1 8450   2.846   2.684  16.293  0.5128  0.5087 -0.0879
  570TMC3    C2 8451   2.898   2.690  16.168 -0.1537 -0.0530 -0.1046
  570TMC3    C3 8452   2.933   2.812  16.122  0.2412 -0.2329 -0.7292
  570TMC3    C4 8453   2.839   2.796  16.374  0.3520 -0.2707 -0.0690
  570TMC3    C5 8454   2.874   2.919  16.318  0.1789 -0.1230  0.0174
  570TMC3    C6 8455   2.933   2.923  16.198 -0.2133  0.0684  0.0099
  570TMC3     C 8456   2.803   2.552  16.338 -0.2177  0.2344  0.6673
  570TMC3     O 8457   2.811   2.454  16.264 -0.2106  0.4494  0.6734
  570TMC3     H 8458   2.899   2.605  16.100  0.3154  0.6093 -0.9231
  570TMC3    H1 8459   2.802   2.793  16.476  1.6968 -0.1404  0.4306
  570TMC3    H2 8460   2.952   3.022  16.158  0.7179  0.1240  0.5832
  570TMC3    C7 8461   2.876   3.027  16.415 -0.6094 -0.0079 -0.1121
  570TMC3    C8 8462   3.003   2.829  15.993  0.8629  0.5546 -0.1304
  570TMC3    O1 8463   2.841   2.998  16.528 -0.1054 -0.2649 -0.6104
  570TMC3    O2 8464   3.063   2.932  15.980 -0.2843 -0.3197 -0.5451
  571MPD2     C 8465   0.795   3.945   0.604 -0.2488 -0.1628 -0.4576
  571MPD2    C1 8466   0.790   4.022   0.491 -0.0549 -0.1649  0.0336
  571MPD2    C2 8467   0.793   4.158   0.502 -0.6764 -0.0888  0.2652
  571MPD2    C3 8468   0.801   4.217   0.631  0.4539  0.0032  0.6093
  571MPD2    C4 8469   0.816   4.135   0.740  0.4836  0.3456 -0.4159
  571MPD2    C5 8470   0.811   4.003   0.727 -0.3911 -0.1513  0.3448
  571MPD2     H 8471   0.787   4.219   0.413  3.8384  0.0239  0.0431
  571MPD2    H1 8472   0.827   4.180   0.839  2.3660  0.5567 -0.7249
  571MPD2    H2 8473   0.794   3.837   0.598  2.4349 -0.1519 -1.1079
  571MPD2    H3 8474   0.813   3.941   0.816  2.1543  0.9460  1.0482
  571MPD2     N 8475   0.789   4.357   0.663  0.1630 -0.1241 -0.2351
  571MPD2    H5 8476   0.780   4.376   0.762  2.6024  1.8473 -0.3956
  571MPD2    N1 8477   0.773   3.964   0.363  0.0076  0.3210 -0.1701
  571MPD2    H7 8478   0.773   3.862   0.364 -0.7856  0.3119 -0.4654
  572TMC3    C1 8479   0.756   4.577   0.643  0.6941 -0.6006  0.3170
  572TMC3    C2 8480   0.835   4.599   0.755  0.2302 -0.2916 -0.0570
  572TMC3    C3 8481   0.863   0.009   0.782  0.7634 -0.1513 -0.0463
  572TMC3    C4 8482   0.717   4.686   0.567 -0.4268 -0.3299 -0.4416
  572TMC3    C5 8483   0.758   0.092   0.596  0.4355  0.1741  0.5861
  572TMC3    C6 8484   0.839   0.117   0.698  0.6084 -0.6478  0.3698
  572TMC3     C 8485   0.766   4.457   0.574 -0.4301  0.2186  0.0905
  572TMC3     O 8486   0.762   4.443   0.452 -0.3671  0.4467  0.2103
  572TMC3     H 8487   0.890   4.521   0.807 -0.0392 -1.0056 -0.8463
  572TMC3    H1 8488   0.654   4.661   0.483  0.0455 -0.9644 -0.6072
  572TMC3    H2 8489   0.857   0.219   0.730  0.2121 -0.7762  1.0243
  572TMC3    C7 8490   0.733   0.190   0.495 -0.5455 -0.2079 -0.6671
  572TMC3    C8 8491   0.920   0.051   0.910  1.1492 -0.2150 -0.5133
  572TMC3    O1 8492   0.632   0.177   0.428 -0.0041  0.1072 -0.0023
  572TMC3    O2 8493   0.964   0.163   0.919 -0.2875 -0.3477 -0.3612
  573MPD2     C 8494   1.685   0.097   1.081 -0.9024  0.2225 -0.1746
  573MPD2    C1 8495   1.730   0.209   1.013  0.2388  0.0933  0.0854
  573MPD2    C2 8496   1.753   0.195   0.877 -0.6183 -0.3264  0.5665
  573MPD2    C3 8497   1.744   0.076   0.815 -0.1338 -0.1998 -0.0712
  573MPD2    C4 8498   1.688   4.686   0.885  0.0317  0.3827 -0.8584
  573MPD2    C5 8499   1.663   4.700   1.017  0.0965 -0.4650  0.7153
  573MPD2     H 8500   1.767   0.288   0.823 -1.4052 -1.0896 -0.9553
  573MPD2    H1 8501   1.680   4.587   0.842  1.4132 -0.1631  0.1433
  573MPD2    H2 8502   1.669   0.106   1.188 -1.7849  2.9465 -0.5214
  573MPD2    H3 8503   1.615   4.620   1.071  0.1307 -1.1949 -0.3459
  573MPD2     N 8504   1.763   0.054   0.674 -0.5296 -0.1453  0.5087
  573MPD2    H5 8505   1.727   4.688   0.637 -0.6910  0.2339 -0.2543
  573MPD2    N1 8506   1.722   0.333   1.086  0.7366  0.1670  0.1306
  573MPD2    H7 8507   1.698   0.339   1.185 -4.3589  1.3062 -1.1657
  574TMC3    C1 8508   1.816   0.116   0.451  0.3900  0.2458 -0.1340
  574TMC3    C2 8509   1.690   0.099   0.413  0.2191  0.1046  0.6198
  574TMC3    C3 8510   1.646   0.145   0.288  0.6635  0.3416  0.2896
  574TMC3    C4 8511   1.907   0.173   0.364 -0.7982  0.0151  0.1315
  574TMC3    C5 8512   1.867   0.215   0.241 -0.1439  0.0545  0.2254
  574TMC3    C6 8513   1.735   0.195   0.200  0.3166  0.2217  0.5524
  574TMC3     C 8514   1.841   0.135   0.596 -0.5291  0.1861 -0.1759
  574TMC3     O 8515   1.919   0.224   0.633  0.6139  0.1935 -0.1204
  574TMC3     H 8516   1.625   0.045   0.482 -0.9763  0.7586  0.0031
  574TMC3    H1 8517   1.987   0.223   0.417  1.0389 -1.2286 -1.4567
  574TMC3    H2 8518   1.710   0.234   0.102  1.9740 -0.9488 -0.3343
  574TMC3    C7 8519   1.957   0.300   0.161 -0.1361 -0.2556  0.3405
  574TMC3    C8 8520   1.501   0.148   0.266  0.4117  0.1053  0.1799
  574TMC3    O1 8521   1.910   0.351   0.059  0.1665 -0.3747  0.0797
  574TMC3    O2 8522   1.432   0.087   0.346 -0.2250 -0.2121  0.4309
  575TMC3    C1 8523   4.132   0.565  11.073  1.1148  0.4276 -0.0428
  575TMC3    C2 8524   4.118   0.436  11.027 -0.2285  0.4249 -0.0038
  575TMC3    C3 8525   4.107   0.414  10.890  0.5379 -0.0020  0.1196
  575TMC3    C4 8526   4.147   0.667  10.979 -0.2038  0.0333  0.3160
  575TMC3    C5 8527   4.126   0.641  10.849 -0.8509 -0.0783  0.1258
  575TMC3    C6 8528   4.102   0.516  10.800 -0.1592 -0.1584  0.1924
  575TMC3     C 8529   4.118   0.589  11.213 -0.5832 -0.2208  0.6444
  575TMC3     O 8530   4.055   0.504  11.278  0.0813 -0.5824 -0.1899
  575TMC3     H 8531   4.108   0.353  11.096  0.9149 -0.3714 -0.8061
  575TMC3    H1 8532   4.152   0.772  11.006  0.2776  0.1146 -0.0825
  575TMC3    H2 8533   4.081   0.507  10.694  0.4788 -1.2488  0.1577
  575TMC3    C7 8534   4.118   0.757  10.756  0.1700  0.0233 -0.7247
  575TMC3    C8 8535   4.123   0.281  10.837 -0.2423 -0.4635 -0.3862
  575TMC3    O1 8536   4.036   0.744  10.666 -0.2555  0.0043 -0.1859
  575TMC3    O2 8537   4.156   0.189  10.911 -0.0789  0.2841  0.6538
  576MPD2     C 8538   3.800   3.167  12.886 -0.3716 -0.0095  0.1299
  576MPD2    C1 8539   3.899   3.218  12.798  0.0469 -0.8934 -0.3307
  576MPD2    C2 8540   3.920   3.355  12.793 -0.3271  0.2453  0.7055
  576MPD2    C3 8541   3.842   3.442  12.865 -0.2008  0.4455  0.6701
  576MPD2    C4 8542   3.745   3.395  12.956 -0.5128  0.4070  0.2029
  576MPD2    C5 8543   3.729   3.256  12.964  0.0156 -0.2205 -0.4330
  576MPD2     H 8544   3.990   3.397  12.722 -1.3269  0.4981 -0.1401
  576MPD2    H1 8545   3.681   3.450  13.024  0.7256  0.0562  1.6681
  576MPD2    H2 8546   3.790   3.061  12.903 -0.2240  0.2083  1.6513
  576MPD2    H3 8547   3.657   3.218  13.035  3.0669  0.5131  3.0130
  576MPD2     N 8548   3.857   3.576  12.838 -0.3846 -0.5412 -0.8216
  576MPD2    H5 8549   3.915   3.603  12.759  1.2738 -1.3744  0.1091
  576MPD2    N1 8550   3.986   3.137  12.717  0.1864 -0.1199  0.3767
  576MPD2    H7 8551   4.055   3.184  12.659  1.2227 -0.4582  1.3391
  577TMC3    C1 8552   4.067   2.954  12.610 -0.1749 -0.1821 -0.9692
  577TMC3    C2 8553   4.119   2.829  12.607  0.3510 -0.0549  0.6077
  577TMC3    C3 8554   4.167   2.776  12.488 -0.3637 -0.7175  0.1500
  577TMC3    C4 8555   4.066   3.038  12.494 -0.0789 -0.8660 -0.1382
  577TMC3    C5 8556   4.113   2.974  12.381 -0.3805  0.2022 -0.1218
  577TMC3    C6 8557   4.156   2.845  12.367 -0.1693  0.0536  0.2669
  577TMC3     C 8558   3.988   3.000  12.719 -0.0482 -0.2686 -0.5371
  577TMC3     O 8559   3.948   2.921  12.805 -1.0530 -0.1114  0.1616
  577TMC3     H 8560   4.126   2.764  12.694  0.2443  0.9628  1.3710
  577TMC3    H1 8561   4.012   3.132  12.486 -0.4326 -1.1161 -0.7468
  577TMC3    H2 8562   4.169   2.802  12.268 -4.1563  0.3797 -0.3896
  577TMC3    C7 8563   4.084   3.054  12.263 -0.0962  0.4162 -0.2229
  577TMC3    C8 8564   4.225   2.644  12.499  0.2998  0.5905 -0.5234
  577TMC3    O1 8565   3.989   3.131  12.267 -0.0006  0.4034 -0.6772
  577TMC3    O2 8566   4.217   2.590  12.610 -0.2379 -0.1901 -0.6226
  578MPD2     C 8567   1.655   2.938   1.075 -0.4218 -0.0546  0.2023
  578MPD2    C1 8568   1.726   2.855   0.994 -0.2119 -0.0361  0.3605
  578MPD2    C2 8569   1.829   2.774   1.040 -0.5254  0.3503  0.2393
  578MPD2    C3 8570   1.868   2.796   1.164  0.3564  0.9333 -0.8475
  578MPD2    C4 8571   1.804   2.887   1.248  0.0061 -0.5786  0.6013
  578MPD2    C5 8572   1.691   2.954   1.202 -0.0553 -0.4692 -0.0924
  578MPD2     H 8573   1.890   2.719   0.968 -2.0059 -0.2803 -0.5274
  578MPD2    H1 8574   1.836   2.893   1.351  0.8960  0.3584  0.2671
  578MPD2    H2 8575   1.565   2.984   1.036 -1.1772  0.3808  2.4379
  578MPD2    H3 8576   1.646   3.017   1.277 -2.0880  0.3808 -2.0605
  578MPD2     N 8577   1.992   2.743   1.194 -0.3139 -0.5315  0.0305
  578MPD2    H5 8578   2.025   2.672   1.129 -3.8117 -1.4666 -0.7707
  578MPD2    N1 8579   1.686   2.856   0.853 -0.7470  0.2787  0.0237
  578MPD2    H7 8580   1.621   2.931   0.832 -0.4620  1.0167  1.8059
  579TMC3    C1 8581   2.200   2.709   1.314 -0.3813  0.7524  0.7461
  579TMC3    C2 8582   2.298   2.756   1.397 -0.2401 -0.2840 -0.6087
  579TMC3    C3 8583   2.421   2.695   1.411 -0.3225 -0.1589 -0.9345
  579TMC3    C4 8584   2.209   2.592   1.247 -0.3575 -0.1404 -0.7838
  579TMC3    C5 8585   2.324   2.521   1.270  0.0102  0.2245  0.4409
  579TMC3    C6 8586   2.430   2.574   1.345  0.3930  0.0657  0.0934
  579TMC3     C 8587   2.078   2.793   1.289 -0.1933 -0.6403  0.4471
  579TMC3     O 8588   2.077   2.907   1.333  0.0091  0.2341  0.4912
  579TMC3     H 8589   2.272   2.844   1.454  0.3727  0.0125 -0.7785
  579TMC3    H1 8590   2.127   2.551   1.189 -1.3970 -2.2585  2.1645
  579TMC3    H2 8591   2.522   2.517   1.353  1.3913  1.4297 -1.5951
  579TMC3    C7 8592   2.353   2.396   1.196  0.5779 -0.3477  0.4269
  579TMC3    C8 8593   2.482   2.709   1.546  0.2860  0.4714 -0.4847
  579TMC3    O1 8594   2.469   2.355   1.199 -0.6165  0.2555 -0.6832
  579TMC3    O2 8595   2.427   2.781   1.627 -0.8536 -0.6515  0.0771
  580TMC3    C1 8596   2.136   2.046  12.048  0.6064  0.5398  0.1956
  580TMC3    C2 8597   2.089   2.014  11.921 -0.2584  0.0138  1.0927
  580TMC3    C3 8598   2.126   1.890  11.874 -0.4344  0.6241 -0.4766
  580TMC3    C4 8599   2.214   1.970  12.123 -0.6236  0.3783 -0.5624
  580TMC3    C5 8600   2.239   1.849  12.072  0.1707 -0.2346  0.2214
  580TMC3    C6 8601   2.193   1.801  11.952 -0.1723  0.1013  0.1334
  580TMC3     C 8602   2.148   2.188  12.071 -1.0854  0.1823 -0.2762
  580TMC3     O 8603   2.253   2.230  12.113  0.0566  0.1098 -0.5986
  580TMC3     H 8604   2.027   2.082  11.864 -0.0487 -0.0678  0.7713
  580TMC3    H1 8605   2.234   1.997  12.226 -2.8015  0.3267 -0.1075
  580TMC3    H2 8606   2.215   1.702  11.913  0.2284  0.3272 -0.2176
  580TMC3    C7 8607   2.286   1.761  12.173  1.0866  0.5422 -0.3573
  580TMC3    C8 8608   2.193   1.905  11.746  0.7117  1.0394  0.6623
  580TMC3    O1 8609   2.359   1.813  12.258 -0.2672 -0.2952 -0.3627
  580TMC3    O2 8610   2.114   1.945  11.659 -0.2598 -0.4569 -0.0330
  581MPD2     C 8611   4.618   1.523  14.427 -0.3245  0.4333  0.1429
  581MPD2    C1 8612   4.599   1.566  14.556  0.0533  1.1321 -0.3006
  581MPD2    C2 8613   4.480   1.632  14.583  0.7962 -0.1039  0.4149
  581MPD2    C3 8614   4.387   1.652  14.481 -0.2700 -0.5737 -0.4907
  581MPD2    C4 8615   4.404   1.604  14.353  0.3558 -0.1181  0.2256
  581MPD2    C5 8616   4.529   1.547  14.325  0.8992 -0.0579 -1.1608
  581MPD2     H 8617   4.466   1.672  14.683 -0.7473 -3.4266  1.5358
  581MPD2    H1 8618   4.327   1.603  14.277  1.2636  0.6591 -0.7031
  581MPD2    H2 8619   4.706   1.466  14.400 -0.7778 -0.0160 -0.4114
  581MPD2    H3 8620   4.551   1.502  14.229  0.9841  0.2292 -1.2780
  581MPD2     N 8621   4.266   1.715  14.516  0.2934  0.1820 -0.0806
  581MPD2    H5 8622   4.262   1.743  14.613 -0.8373  0.6791 -0.2740
  581MPD2    N1 8623   4.706   1.552  14.648  0.0699  0.3205  0.2194
  581MPD2    H7 8624   0.066   1.492  14.638  1.2463  2.2679 -1.8182
  582TMC3    C1 8625   0.068   1.550  14.877 -0.5891 -0.2816  0.2459
  582TMC3    C2 8626   0.095   1.618  14.989 -0.0588  0.6473  0.0105
  582TMC3    C3 8627   0.155   1.559  15.096 -0.0193  0.3893  0.7361
  582TMC3    C4 8628   0.083   1.414  14.865 -0.2213  0.0029 -0.7367
  582TMC3    C5 8629   0.139   1.348  14.972 -0.5459  0.6719  0.1035
  582TMC3    C6 8630   0.183   1.426  15.082 -0.3447 -0.3924  0.3554
  582TMC3     C 8631   4.699   1.609  14.777  0.1147  0.5695 -0.2011
  582TMC3     O 8632   4.638   1.699  14.827  0.0926  0.5723  0.1059
  582TMC3     H 8633   0.051   1.717  14.990 -0.2928  0.5504 -0.5926
  582TMC3    H1 8634   0.044   1.355  14.782 -1.7436  0.6186 -0.4651
  582TMC3    H2 8635   0.243   1.369  15.152 -0.3372  0.2836  0.9026
  582TMC3    C7 8636   0.048   1.241  15.018  0.2053  0.1430  0.0410
  582TMC3    C8 8637   0.115   1.610  15.225  0.3439  0.4704  0.1309
  582TMC3    O1 8638   0.003   1.165  14.931  0.3960  0.0871 -0.0167
  582TMC3    O2 8639   0.023   1.690  15.234 -0.0388  0.1671 -0.0670
  583MPD2     C 8640   4.711   3.285  16.744  0.5796  0.7386  0.0298
  583MPD2    C1 8641   0.084   3.384  16.734 -0.2507  0.3293  0.7848
  583MPD2    C2 8642   0.088   3.482  16.837  0.6917 -0.2192  0.3970
  583MPD2    C3 8643   4.711   3.474  16.943 -0.6087 -0.5635  0.8952
  583MPD2    C4 8644   4.626   3.368  16.942  0.4885  0.8464 -0.1040
  583MPD2    C5 8645   4.617   3.280  16.842 -0.2497  0.3975 -0.0041
  583MPD2     H 8646   0.157   3.565  16.826 -2.0098  1.8255 -1.2308
  583MPD2    H1 8647   4.561   3.349  17.026  1.0213  1.6368  0.4791
  583MPD2    H2 8648   4.704   3.215  16.662  3.4054  0.8772 -0.3232
  583MPD2    H3 8649   4.543   3.201  16.843 -0.7848  0.8634 -1.7265
  583MPD2     N 8650   4.714   3.569  17.047 -0.6960 -0.5933  0.2352
  583MPD2    H5 8651   0.063   3.642  17.043 -1.5709  0.2130 -0.6084
  583MPD2    N1 8652   0.166   3.400  16.620  1.0383  0.3165 -0.6278
  583MPD2    H7 8653   0.225   3.483  16.616 -0.2540  1.2500 -0.0209
  584TMC3    C1 8654   4.665   3.672  17.260  0.1731  0.0905 -0.1457
  584TMC3    C2 8655   4.710   3.788  17.208 -0.2131 -0.4435 -0.5897
  584TMC3    C3 8656   4.709   3.894  17.296  0.1822  0.1967  0.1797
  584TMC3    C4 8657   4.639   3.653  17.393  0.3996  0.0461  0.9307
  584TMC3    C5 8658   4.653   3.760  17.482 -0.3649 -0.6894 -0.9166
  584TMC3    C6 8659   4.691   3.883  17.435 -0.0966 -0.4312  0.1451
  584TMC3     C 8660   4.649   3.558  17.169 -0.4973  1.0267  0.1601
  584TMC3     O 8661   4.572   3.467  17.214  0.5976  0.1003  0.1938
  584TMC3     H 8662   4.705   3.801  17.101 -0.5088  1.0826 -0.3940
  584TMC3    H1 8663   4.612   3.555  17.432 -0.1575 -0.7416 -1.4754
  584TMC3    H2 8664   4.677   3.970  17.498 -0.8750  0.7969 -1.7311
  584TMC3    C7 8665   4.649   3.728  17.629 -0.7270  0.2895  0.2857
  584TMC3    C8 8666   0.004   4.026  17.236 -0.9088 -0.5099 -0.5554
  584TMC3    O1 8667   4.660   3.615  17.668 -0.2289  0.6028  0.2011
  584TMC3    O2 8668   0.001   4.033  17.115  0.8262  0.8902  0.5688
  585MPD2     C 8669   3.561   2.346   0.584  0.4525  1.5004  0.3521
  585MPD2    C1 8670   3.684   2.344   0.541  0.6106  0.3933 -0.0557
  585MPD2    C2 8671   3.710   2.344   0.405  0.1021  0.3328 -0.5837
  585MPD2    C3 8672   3.610   2.359   0.315  0.4198  0.2823 -0.3243
  585MPD2    C4 8673   3.480   2.372   0.358 -0.4296 -0.8734 -0.2450
  585MPD2    C5 8674   3.459   2.360   0.493  1.0176  0.5833 -0.3263
  585MPD2     H 8675   3.812   2.351   0.370 -0.0308 -0.1204 -1.0690
  585MPD2    H1 8676   3.400   2.380   0.286 -0.1097 -2.6806 -0.8016
  585MPD2    H2 8677   3.537   2.323   0.687  0.6113 -1.1032 -0.2099
  585MPD2    H3 8678   3.358   2.357   0.532  0.9073  0.2526 -0.6373
  585MPD2     N 8679   3.641   2.372   0.177 -0.0470 -0.3451  0.6916
  585MPD2    H5 8680   3.574   2.423   0.121  0.1097  0.0587  0.8744
  585MPD2    N1 8681   3.780   2.335   0.647 -0.1229  0.1852  0.3781
  585MPD2    H7 8682   3.746   2.338   0.743  0.7127 -1.0399  0.7108
  586TMC3    C1 8683   3.759   2.350  17.663 -0.2086  0.1835  0.6351
  586TMC3    C2 8684   3.877   2.366  17.596 -0.6205 -0.0685  0.5513
  586TMC3    C3 8685   3.870   2.355  17.456 -0.5598 -0.7048 -0.3339
  586TMC3    C4 8686   3.637   2.320  17.596 -0.6651  0.0541  0.2102
  586TMC3    C5 8687   3.636   2.332  17.468 -0.3720  0.4600  0.2714
  586TMC3    C6 8688   3.751   2.352  17.395  0.1572  0.0520  0.2344
  586TMC3     C 8689   3.759   2.338   0.121 -0.2073  0.5193 -0.2997
  586TMC3     O 8690   3.861   2.280   0.160 -0.3053 -0.1169 -0.4414
  586TMC3     H 8691   3.969   2.373  17.652  1.1439  0.1458 -2.3974
  586TMC3    H1 8692   3.551   2.296  17.656 -1.9947  0.8294 -1.3815
  586TMC3    H2 8693   3.740   2.364  17.288  2.4528 -2.1868 -0.2448
  586TMC3    C7 8694   3.551   2.236  17.408  0.1350 -0.0683 -0.5067
  586TMC3    C8 8695   3.982   2.295  17.389  0.2248 -0.5852 -0.6652
  586TMC3    O1 8696   3.446   2.214  17.472  0.2901  0.0925 -0.1343
  586TMC3    O2 8697   4.081   2.258  17.451  0.7366 -0.1932 -0.1363
  587TMC3    C1 8698   1.481   0.667  16.721 -0.2996 -0.4776 -0.2449
  587TMC3    C2 8699   1.459   0.797  16.703 -0.1689 -0.1639 -0.6314
  587TMC3    C3 8700   1.541   0.863  16.613 -0.6465 -0.8075 -0.6147
  587TMC3    C4 8701   1.573   0.589  16.655  0.2727  0.1553  0.2186
  587TMC3    C5 8702   1.653   0.659  16.571  0.3567 -0.5727  0.2106
  587TMC3    C6 8703   1.641   0.795  16.544  0.3894  0.1800  0.7374
  587TMC3     C 8704   1.406   0.612  16.831 -0.2597 -0.0379  0.0902
  587TMC3     O 8705   1.442   0.504  16.872 -0.1910  0.3991  0.2591
  587TMC3     H 8706   1.393   0.858  16.764 -0.2062  1.9928 -2.7773
  587TMC3    H1 8707   1.589   0.484  16.675 -0.9156 -0.2125 -0.8229
  587TMC3    H2 8708   1.710   0.839  16.474  1.8454  1.3862  2.9387
  587TMC3    C7 8709   1.726   0.583  16.473 -0.5418  0.0682 -0.3383
  587TMC3    C8 8710   1.515   0.998  16.563 -0.2642  0.3350  0.7370
  587TMC3    O1 8711   1.692   0.462  16.467 -0.2690  0.0855 -0.3552
  587TMC3    O2 8712   1.614   1.051  16.510 -0.5605  0.0368  0.5633
  588TMC3    C1 8713   3.916   3.113   9.456 -0.1579 -0.3026  0.2554
  588TMC3    C2 8714   3.878   2.982   9.488 -0.2647  0.1380  0.0918
  588TMC3    C3 8715   3.934   2.922   9.596  0.3571  0.5080 -0.5048
  588TMC3    C4 8716   4.012   3.177   9.526  0.3214  0.1446 -0.1957
  588TMC3    C5 8717   4.056   3.125   9.642  0.3182 -0.9633 -0.1349
  588TMC3    C6 8718   4.024   2.992   9.673 -0.3752 -0.4751  0.4428
  588TMC3     C 8719   3.808   3.186   9.386  0.2974 -0.4035 -0.6978
  588TMC3     O 8720   3.722   3.109   9.339 -0.3938  0.0607  0.1699
  588TMC3     H 8721   3.796   2.932   9.437 -1.2897 -0.8382  2.6757
  588TMC3    H1 8722   4.048   3.275   9.495  0.8677  0.3389  1.0536
  588TMC3    H2 8723   4.065   2.956   9.766  0.8590  0.6624  0.3290
  588TMC3    C7 8724   4.111   3.205   9.753  0.0876 -0.0043 -0.0502
  588TMC3    C8 8725   3.866   2.799   9.642  0.3653  0.4306  1.3431
  588TMC3    O1 8726   4.172   3.160   9.852 -0.3498 -0.5687 -0.2152
  588TMC3    O2 8727   3.752   2.773   9.606  0.5799 -0.4942 -0.1425
  589TMC3    C1 8728   2.847   0.944   1.623 -0.5350  0.0108 -0.4333
  589TMC3    C2 8729   2.939   0.952   1.727 -0.7171 -0.9235  0.2231
  589TMC3    C3 8730   3.051   0.869   1.715  0.0204  0.3705 -0.0805
  589TMC3    C4 8731   2.856   0.845   1.527  0.1575 -0.1051 -0.5343
  589TMC3    C5 8732   2.973   0.776   1.509  0.1570  0.4205 -0.0748
  589TMC3    C6 8733   3.074   0.793   1.604 -0.1880  0.0180 -0.2494
  589TMC3     C 8734   2.712   0.997   1.640  0.6929 -1.1257 -0.3134
  589TMC3     O 8735   2.627   0.941   1.571  0.5272  0.4436 -0.5239
  589TMC3     H 8736   2.917   1.014   1.814  1.1117  1.0425 -0.7101
  589TMC3    H1 8737   2.780   0.837   1.450 -0.5380  2.0163 -0.0696
  589TMC3    H2 8738   3.153   0.719   1.604  2.1271  2.4874 -1.8875
  589TMC3    C7 8739   2.957   0.650   1.441  0.3268  0.6226  0.2257
  589TMC3    C8 8740   3.153   0.873   1.820 -0.4240 -0.1493 -0.4605
  589TMC3    O1 8741   2.840   0.613   1.442 -0.1766 -0.5113 -0.0558
  589TMC3    O2 8742   3.113   0.918   1.929  0.0239  0.0868  0.2364
  590MPD2     C 8743   2.236   3.814  16.358 -0.3422  0.0489 -0.2854
  590MPD2    C1 8744   2.175   3.934  16.403  0.1992 -0.5624  0.1461
  590MPD2    C2 8745   2.257   4.037  16.442 -0.5861 -0.3653 -0.1079
  590MPD2    C3 8746   2.395   4.033  16.439 -0.0865  0.2430 -0.7756
  590MPD2    C4 8747   2.450   3.908  16.415  0.9302 -0.6461  0.5522
  590MPD2    C5 8748   2.370   3.801  16.374  0.0612 -0.1090  0.2724
  590MPD2     H 8749   2.213   4.133  16.463 -1.2492 -1.0479  1.6735
  590MPD2    H1 8750   2.556   3.893  16.400  1.0090  0.1368  0.3691
  590MPD2    H2 8751   2.180   3.730  16.319 -0.8313  0.4688 -0.4918
  590MPD2    H3 8752   2.418   3.706  16.355 -0.2597 -0.1125 -0.5191
  590MPD2     N 8753   2.466   4.153  16.446  0.6424  0.6400 -0.9006
  590MPD2    H5 8754   2.418   4.243  16.451 -0.0771  0.1490  1.1759
  590MPD2    N1 8755   2.035   3.953  16.403  0.1341  0.4474  0.4687
  590MPD2    H7 8756   1.995   4.042  16.432 -1.5967 -0.1707 -0.0199
  591TMC3    C1 8757   2.646   4.277  16.367  0.5441 -0.3223 -0.0693
  591TMC3    C2 8758   2.770   4.272  16.302  0.1648  0.2059 -0.4396
  591TMC3    C3 8759   2.828   4.383  16.258 -0.7140 -0.3806  0.2236
  591TMC3    C4 8760   2.579   4.392  16.370 -0.0029 -0.5269 -0.1684
  591TMC3    C5 8761   2.644   4.508  16.329 -0.3974 -0.2211 -0.3867
  591TMC3    C6 8762   2.769   4.510  16.268 -0.2316  0.2995  0.2080
  591TMC3     C 8763   2.601   4.157  16.430 -0.3044  0.2772 -0.7228
  591TMC3     O 8764   2.682   4.067  16.437 -0.2377  0.1272 -0.1392
  591TMC3     H 8765   2.819   4.179  16.274  2.5835  1.0672  0.9488
  591TMC3    H1 8766   2.483   4.394  16.420  0.7759  1.9944  1.2091
  591TMC3    H2 8767   2.817   4.599  16.229  0.0572  0.3725  0.7272
  591TMC3    C7 8768   2.561   4.626  16.328  0.6538  0.3552  0.6279
  591TMC3    C8 8769   2.900   4.365  16.134 -0.1831 -0.1481 -0.3696
  591TMC3    O1 8770   2.459   4.614  16.397  0.2019 -0.5005 -0.6076
  591TMC3    O2 8771   2.892   4.261  16.074  0.0013 -0.0283  0.3149
  592MPD2     C 8772   3.226   1.260  11.654  0.4275 -0.0989 -0.1380
  592MPD2    C1 8773   3.159   1.331  11.753  0.2460 -0.4131 -0.1713
  592MPD2    C2 8774   3.085   1.258  11.848  0.6014  0.5518 -0.9117
  592MPD2    C3 8775   3.072   1.118  11.838  0.1234 -0.5729 -0.0219
  592MPD2    C4 8776   3.147   1.051  11.743 -0.1928 -0.8099 -0.0350
  592MPD2    C5 8777   3.216   1.125  11.648 -0.2024 -0.4425 -0.3493
  592MPD2     H 8778   3.026   1.311  11.921  2.0178  1.1376 -0.1813
  592MPD2    H1 8779   3.147   0.945  11.719 -0.0501 -0.6559 -0.7216
  592MPD2    H2 8780   3.289   1.310  11.581  0.5482 -1.7057 -1.1456
  592MPD2    H3 8781   3.258   1.072  11.563 -0.2330 -0.1573 -0.5434
  592MPD2     N 8782   2.994   1.044  11.928  0.1807  0.1182 -0.2098
  592MPD2    H5 8783   2.956   1.086  12.012 -0.1216  0.6400 -0.5999
  592MPD2    N1 8784   3.171   1.472  11.753  0.3298  0.0857  0.5071
  592MPD2    H7 8785   3.238   1.508  11.687  1.8547  0.7156  2.4068
  593TMC3    C1 8786   3.142   1.699  11.810  0.0966 -0.3218  0.0270
  593TMC3    C2 8787   3.155   1.781  11.927  0.6895 -0.0448 -0.4269
  593TMC3    C3 8788   3.228   1.899  11.912 -0.4693  0.0718 -0.0686
  593TMC3    C4 8789   3.205   1.730  11.690 -0.1493 -0.2884  0.1733
  593TMC3    C5 8790   3.282   1.844  11.690  0.0188  0.7803  0.4146
  593TMC3    C6 8791   3.292   1.931  11.794  0.5736 -0.6852 -0.2697
  593TMC3     C 8792   3.099   1.556  11.830 -0.1113 -0.1233 -0.7882
  593TMC3     O 8793   3.020   1.528  11.919  0.4124  0.2050 -0.2215
  593TMC3     H 8794   3.098   1.765  12.017  2.9763 -2.8807  0.5234
  593TMC3    H1 8795   3.176   1.668  11.605 -0.4178  0.5016 -0.3100
  593TMC3    H2 8796   3.349   2.022  11.779 -0.0081 -0.7210 -2.6419
  593TMC3    C7 8797   3.366   1.880  11.573 -0.8988  0.5164 -0.4089
  593TMC3    C8 8798   3.213   2.004  12.014  0.4422  0.6119 -0.4412
  593TMC3    O1 8799   3.387   2.002  11.570 -0.3068  0.1754 -0.0762
  593TMC3    O2 8800   3.130   1.989  12.103  0.3139 -0.0805 -0.1577
  594MPD2     C 8801   1.357   0.159  14.290  0.2801  0.6919 -0.3790
  594MPD2    C1 8802   1.375   0.179  14.425  0.0988 -0.1225 -0.1598
  594MPD2    C2 8803   1.459   0.276  14.469 -0.5848  0.3136 -0.1274
  594MPD2    C3 8804   1.538   0.343  14.377  1.4125 -0.2974  0.0025
  594MPD2    C4 8805   1.532   0.311  14.241  0.7853 -0.2595  0.2058
  594MPD2    C5 8806   1.441   0.218  14.203  0.8518  0.2524 -0.5901
  594MPD2     H 8807   1.471   0.291  14.576  1.7440 -0.5653 -0.2594
  594MPD2    H1 8808   1.589   0.361  14.164  3.1493  0.7792  2.6623
  594MPD2    H2 8809   1.287   0.085  14.255 -1.1709  2.0378 -0.3062
  594MPD2    H3 8810   1.435   0.197  14.097  0.5033  0.1934 -0.5577
  594MPD2     N 8811   1.631   0.430  14.429 -0.5053  0.5436  0.2096
  594MPD2    H5 8812   1.609   0.460  14.523 -0.7341  2.2465 -0.3792
  594MPD2    N1 8813   1.293   0.104  14.505 -0.5423 -0.0782  0.0638
  594MPD2    H7 8814   1.220   0.053  14.456 -1.6892  0.6402  1.0301
  595TMC3    C1 8815   2.021   0.652  14.504 -0.3997 -0.6128 -0.1712
  595TMC3    C2 8816   1.950   0.561  14.436 -0.4357 -0.1829  0.3380
  595TMC3    C3 8817   1.813   0.573  14.441 -0.1894 -0.1179 -0.6583
  595TMC3    C4 8818   1.962   0.751  14.577 -0.5847 -0.2516 -0.6528
  595TMC3    C5 8819   1.824   0.759  14.575  0.1850  0.0421  0.6490
  595TMC3    C6 8820   1.747   0.671  14.508 -0.5667  0.1240  0.8629
  595TMC3     C 8821   2.163   0.646  14.518  0.0291  0.1823  0.1402
  595TMC3     O 8822   2.209   0.701  14.619 -0.4102 -0.0023  0.4215
  595TMC3     H 8823   1.994   0.472  14.392 -0.6172 -0.4759  0.7504
  595TMC3    H1 8824   2.028   0.819  14.630 -0.8676  0.5683 -1.3472
  595TMC3    H2 8825   1.640   0.686  14.498 -0.3130  2.1346  1.2343
  595TMC3    C7 8826   1.755   0.822  14.683 -0.0968  0.4193  1.0831
  595TMC3    C8 8827   1.742   0.476  14.366 -0.3162 -0.6585 -0.4931
  595TMC3    O1 8828   1.653   0.767  14.720 -0.2868  0.6705  0.1502
  595TMC3    O2 8829   1.783   0.458  14.252 -0.0081  0.9021 -0.0813
  596MPD2     C 8830   1.232   3.474  16.482 -0.3639  0.6081 -0.3151
  596MPD2    C1 8831   1.099   3.505  16.496 -0.3844 -0.5921 -0.0574
  596MPD2    C2 8832   1.011   3.475  16.396 -0.4189 -0.5870 -0.1886
  596MPD2    C3 8833   1.054   3.417  16.272  0.3615  0.0355 -0.8866
  596MPD2    C4 8834   1.189   3.389  16.259  0.0974 -0.0655  0.0044
  596MPD2    C5 8835   1.271   3.414  16.363 -0.3589  0.3728 -0.1430
  596MPD2     H 8836   0.905   3.493  16.407 -0.4507 -0.7607 -0.2143
  596MPD2    H1 8837   1.230   3.346  16.168 -0.8548 -0.4463 -0.2472
  596MPD2    H2 8838   1.308   3.490  16.558 -1.0773  1.0324  0.3106
  596MPD2    H3 8839   1.373   3.381  16.346 -0.6848  0.1670 -1.7749
  596MPD2     N 8840   0.958   3.383  16.168 -0.3452 -0.3599 -0.5559
  596MPD2    H5 8841   0.861   3.413  16.176  0.2724  1.4329  0.0135
  596MPD2    N1 8842   1.072   3.561  16.620 -0.1743  0.0019  0.6805
  596MPD2    H7 8843   1.153   3.578  16.678  1.2011 -4.2325 -0.0605
  597TMC3    C1 8844   0.958   3.630  16.820  0.8809  0.0776  0.1513
  597TMC3    C2 8845   1.071   3.695  16.847  0.2810  0.1500 -0.4727
  597TMC3    C3 8846   1.088   3.738  16.971  0.0759  0.8147  0.0992
  597TMC3    C4 8847   0.849   3.631  16.913 -0.0046 -0.4737 -0.7979
  597TMC3    C5 8848   0.873   3.690  17.034  0.5024 -0.2751  0.0540
  597TMC3    C6 8849   0.988   3.750  17.067 -0.7300 -0.2442  0.2073
  597TMC3     C 8850   0.943   3.573  16.686  0.5014  0.4228  0.7498
  597TMC3     O 8851   0.834   3.514  16.661  0.2558 -0.1784  0.0352
  597TMC3     H 8852   1.164   3.679  16.794 -0.8597 -2.4521 -1.7128
  597TMC3    H1 8853   0.756   3.577  16.896  0.1938 -0.6856 -1.2120
  597TMC3    H2 8854   1.012   3.787  17.166  0.0526 -1.6053  0.5276
  597TMC3    C7 8855   0.763   3.696  17.127 -0.3256 -0.3518  0.7624
  597TMC3    C8 8856   1.217   3.702  17.024 -0.4957 -0.5707 -0.1083
  597TMC3    O1 8857   0.698   3.593  17.129 -0.1654 -0.1576 -0.9386
  597TMC3    O2 8858   1.218   3.643  17.131 -0.0310  0.1949  0.5568
  598TMC3    C1 8859   3.365   4.719  15.545 -0.3181  0.6929  0.2053
  598TMC3    C2 8860   3.268   4.631  15.547  0.2962 -0.1375  0.5293
  598TMC3    C3 8861   3.233   4.580  15.430  0.6245  0.7087 -0.5560
  598TMC3    C4 8862   3.425   0.050  15.437  0.1290 -0.0965 -0.6458
  598TMC3    C5 8863   3.373   4.719  15.315 -0.4510 -0.0370 -0.2508
  598TMC3    C6 8864   3.276   4.623  15.311  0.6914 -0.4051 -0.1237
  598TMC3     C 8865   3.384   0.068  15.666 -0.7690  0.4159 -0.3510
  598TMC3     O 8866   3.287   0.085  15.738  0.0990 -0.4308 -0.2441
  598TMC3     H 8867   3.239   4.594  15.645  3.7933 -1.1042  1.2138
  598TMC3    H1 8868   3.501   0.126  15.444  0.1150 -0.3976  2.9595
  598TMC3    H2 8869   3.229   4.592  15.218 -1.8685  0.3939  0.9052
  598TMC3    C7 8870   3.403   0.058  15.186  0.4848 -0.3271  0.1804
  598TMC3    C8 8871   3.138   4.472  15.439 -0.3429 -0.3720 -0.0712
  598TMC3    O1 8872   3.383   4.720  15.084 -0.0059 -0.0950 -0.2649
  598TMC3    O2 8873   3.141   4.399  15.341 -0.0318 -0.6145  0.1351
  599MPD2     C 8874   3.465   1.987  15.924 -0.3336 -0.1789  0.1263
  599MPD2    C1 8875   3.503   2.118  15.946  0.4745  0.6975  0.0449
  599MPD2    C2 8876   3.424   2.196  16.026  0.0700  0.8155 -1.0064
  599MPD2    C3 8877   3.306   2.150  16.071 -0.4364  0.1820  0.3053
  599MPD2    C4 8878   3.268   2.022  16.052 -0.4557 -0.9389 -0.2710
  599MPD2    C5 8879   3.346   1.943  15.978  0.1086 -0.5594  0.9135
  599MPD2     H 8880   3.454   2.300  16.039  0.2620  0.5365  0.7591
  599MPD2    H1 8881   3.183   1.977  16.102 -1.4352 -0.1438 -1.2125
  599MPD2    H2 8882   3.533   1.929  15.863 -0.7033 -0.5354  0.0498
  599MPD2    H3 8883   3.315   1.839  15.969  0.9501 -0.7401  0.0096
  599MPD2     N 8884   3.217   2.229  16.155 -0.6111  0.4544 -0.0424
  599MPD2    H5 8885   3.130   2.182  16.177 -0.4574 -0.8209 -2.1754
  599MPD2    N1 8886   3.628   2.154  15.892  0.1453 -0.3745 -0.5815
  599MPD2    H7 8887   3.690   2.089  15.845  1.7439 -0.6349  1.9041
  600TMC3    C1 8888   3.172   2.369  16.335  0.1432  0.2359  0.2499
  600TMC3    C2 8889   3.110   2.267  16.402  0.2535 -0.2757 -0.2898
  600TMC3    C3 8890   3.054   2.290  16.532 -0.0440  0.8904  0.8152
  600TMC3    C4 8891   3.177   2.491  16.394 -0.2617 -0.1280 -0.1843
  600TMC3    C5 8892   3.112   2.515  16.521  0.6451  0.2162 -0.4788
  600TMC3    C6 8893   3.047   2.413  16.583  0.3565 -0.1539 -0.1908
  600TMC3     C 8894   3.254   2.343  16.225  0.2317  0.8178  0.5182
  600TMC3     O 8895   3.347   2.422  16.207 -0.7880 -0.4323 -0.0732
  600TMC3     H 8896   3.119   2.162  16.376  0.3677 -0.3384  0.0048
  600TMC3    H1 8897   3.252   2.561  16.359  0.7902 -0.6877  0.9351
  600TMC3    H2 8898   3.003   2.426  16.681 -1.2761  1.3614 -1.1252
  600TMC3    C7 8899   3.121   2.637  16.594 -0.1407  0.4521  0.9116
  600TMC3    C8 8900   3.007   2.170  16.610  0.1036  0.3586  0.0222
  600TMC3    O1 8901   3.092   2.629  16.712  0.2976 -0.2907  0.0219
  600TMC3    O2 8902   3.002   2.190  16.732 -0.1805 -0.1449  0.2676
  601MPD2     C 8903   0.832   0.638   0.262 -0.1639 -0.2042  0.3755
  601MPD2    C1 8904   0.717   0.570   0.277 -0.5488  0.4299  0.2170
  601MPD2    C2 8905   0.707   0.445   0.336 -0.6471  0.3319  0.0984
  601MPD2    C3 8906   0.821   0.404   0.399 -0.2573 -0.4780  1.1472
  601MPD2    C4 8907   0.941   0.459   0.371 -0.1870  0.6992 -0.6544
  601MPD2    C5 8908   0.945   0.575   0.306 -0.3696  0.0864  0.1908
  601MPD2     H 8909   0.612   0.404   0.369 -0.5831 -0.0530 -0.1979
  601MPD2    H1 8910   1.032   0.433   0.425  0.2606 -0.1411 -1.8145
  601MPD2    H2 8911   0.844   0.735   0.215  0.3889 -1.6075 -2.4092
  601MPD2    H3 8912   1.043   0.616   0.282 -0.4664 -0.6234 -1.4060
  601MPD2     N 8913   0.829   0.287   0.482  0.3149 -0.6755 -0.4273
  601MPD2    H5 8914   0.917   0.263   0.527  0.8389  1.6226 -0.2119
  601MPD2    N1 8915   0.591   0.632   0.246  0.8385  0.7889 -1.1290
  601MPD2    H7 8916   0.515   0.569   0.269  0.5762  1.5328  0.0785
  602TMC3    C1 8917   0.441   0.812   0.204 -0.0717 -0.2488 -0.2435
  602TMC3    C2 8918   0.412   0.947   0.220  0.0216 -0.7163  0.0456
  602TMC3    C3 8919   0.279   0.981   0.221 -0.2956  0.4833  0.5568
  602TMC3    C4 8920   0.341   0.713   0.185  0.3671 -0.9377  0.2594
  602TMC3    C5 8921   0.209   0.754   0.201  0.3327 -0.0104 -0.6601
  602TMC3    C6 8922   0.177   0.889   0.220 -0.9312 -1.2565 -0.5412
  602TMC3     C 8923   0.579   0.769   0.216  0.3846 -0.4694  0.4440
  602TMC3     O 8924   0.659   0.858   0.223 -0.1901  0.3657 -0.3519
  602TMC3     H 8925   0.491   1.020   0.207 -0.1992 -0.3124  0.9824
  602TMC3    H1 8926   0.358   0.608   0.163 -0.4526 -0.5183 -2.3594
  602TMC3    H2 8927   0.077   0.911   0.256  0.5450  1.0637  2.1155
  602TMC3    C7 8928   0.100   0.662   0.199  0.0459 -0.2011  0.1362
  602TMC3    C8 8929   0.241   1.119   0.204 -0.1239 -0.1071  0.0032
  602TMC3    O1 8930   0.133   0.542   0.195 -0.5497  0.0083 -0.2356
  602TMC3    O2 8931   0.303   1.213   0.254 -0.2843 -0.1452  0.0819
  603TMC3    C1 8932   3.773   0.751  11.224  0.5421  0.2798  0.9105
  603TMC3    C2 8933   3.750   0.755  11.357 -0.4633  0.3013  0.1745
  603TMC3    C3 8934   3.816   0.856  11.428 -0.6512  0.2380 -0.8524
  603TMC3    C4 8935   3.868   0.833  11.162  0.1662 -0.2767  0.9082
  603TMC3    C5 8936   3.921   0.928  11.237 -0.3499  0.2279  0.4409
  603TMC3    C6 8937   3.896   0.950  11.368 -0.5733  0.0053 -0.4438
  603TMC3     C 8938   3.727   0.632  11.156  0.0083  0.8232 -0.4168
  603TMC3     O 8939   3.687   0.548  11.235  0.3715 -0.1347  0.2094
  603TMC3     H 8940   3.680   0.692  11.412  0.4370 -2.9243 -2.3905
  603TMC3    H1 8941   3.892   0.810  11.059  2.1142 -1.5349  1.6327
  603TMC3    H2 8942   3.969   1.008  11.423 -1.1191 -1.6670  2.0076
  603TMC3    C7 8943   3.984   1.040  11.173 -0.2059  0.6946  0.7867
  603TMC3    C8 8944   3.813   0.844  11.572  0.2001 -0.0683  0.1515
  603TMC3    O1 8945   4.062   1.107  11.243 -0.0454 -0.4993 -0.0292
  603TMC3    O2 8946   3.763   0.746  11.624  0.1564  0.8482 -0.1248
  604MPD2     C 8947   4.696   3.993  16.792  0.5303  0.6873 -0.0070
  604MPD2    C1 8948   4.599   4.091  16.807  0.8004  0.3766 -0.2017
  604MPD2    C2 8949   4.563   4.156  16.690  0.8491 -0.4557  0.0036
  604MPD2    C3 8950   4.629   4.150  16.569  0.3763 -0.4009 -0.3315
  604MPD2    C4 8951   0.009   4.061  16.567  0.0069  0.4356  0.6424
  604MPD2    C5 8952   0.037   3.985  16.673  0.4398 -0.4678 -0.6296
  604MPD2     H 8953   4.484   4.229  16.703  2.5840  1.7056 -1.5018
  604MPD2    H1 8954   0.069   4.059  16.476 -1.9302  0.2691 -0.6380
  604MPD2    H2 8955   0.004   3.924  16.871 -0.2246 -0.0234 -0.3429
  604MPD2    H3 8956   0.102   3.901  16.650  3.0006  0.0821  4.5976
  604MPD2     N 8957   4.584   4.229  16.461  0.3816  0.0456  0.2876
  604MPD2    H5 8958   4.522   4.306  16.480  0.7883  0.3186  0.4978
  604MPD2    N1 8959   4.540   4.122  16.930 -0.2277  0.1232 -0.3327
  604MPD2    H7 8960   4.582   4.074  17.008  0.1226  3.8800  1.7601
  605TMC3    C1 8961   4.377   4.206  17.086  0.1012  0.2069  0.6309
  605TMC3    C2 8962   4.474   4.290  17.141  0.4356  0.1985 -0.3942
  605TMC3    C3 8963   4.428   4.389  17.213  0.0388  0.5796 -0.3538
  605TMC3    C4 8964   4.244   4.230  17.115  0.8595 -0.3413  0.5828
  605TMC3    C5 8965   4.203   4.320  17.214 -0.3049  0.1231 -0.1134
  605TMC3    C6 8966   4.301   4.401  17.258  0.0712  0.0289 -0.6156
  605TMC3     C 8967   4.413   4.171  16.948  0.5280 -0.0461  0.3150
  605TMC3     O 8968   4.326   4.187  16.865 -0.7754 -0.5170  0.3552
  605TMC3     H 8969   4.576   4.283  17.105  0.3279 -2.4267 -0.1906
  605TMC3    H1 8970   4.167   4.176  17.061  2.1210  0.9894 -2.5374
  605TMC3    H2 8971   4.288   4.485  17.325  0.0704  0.6301 -1.3673
  605TMC3    C7 8972   4.102   4.409  17.165  0.1311  0.2504 -0.3525
  605TMC3    C8 8973   4.496   4.517  17.197 -0.0384  0.1034 -0.3744
  605TMC3    O1 8974   4.148   4.519  17.139  0.5696  0.0320 -0.2221
  605TMC3    O2 8975   4.620   4.514  17.195  0.1201  0.0364 -0.0576
  606TMC3    C1 8976   1.020   2.357  16.819  0.3357  0.4310  0.3423
  606TMC3    C2 8977   1.123   2.371  16.905  0.6522 -0.2901  0.2759
  606TMC3    C3 8978   1.103   2.328  17.032  0.7010  0.4137  0.4797
  606TMC3    C4 8979   0.903   2.301  16.852 -0.6140  0.4209  0.2352
  606TMC3    C5 8980   0.890   2.257  16.979 -0.0271 -0.1794 -0.0876
  606TMC3    C6 8981   0.990   2.273  17.070 -0.4848 -0.6680 -0.1816
  606TMC3     C 8982   1.040   2.386  16.677  0.2921 -0.3180 -0.5581
  606TMC3     O 8983   0.965   2.325  16.599 -0.1973  0.6348  0.7384
  606TMC3     H 8984   1.220   2.411  16.878  1.6495 -1.4339  2.2002
  606TMC3    H1 8985   0.836   2.272  16.771  0.1627 -0.5703 -0.0525
  606TMC3    H2 8986   0.983   2.239  17.173 -0.1961  0.8823  0.3467
  606TMC3    C7 8987   0.780   2.180  17.011 -0.0161  0.1426  0.2692
  606TMC3    C8 8988   1.202   2.349  17.138  0.3628  0.4861  1.0097
  606TMC3    O1 8989   0.800   2.090  17.094 -0.1523  0.2078 -0.3803
  606TMC3    O2 8990   1.169   2.346  17.255  0.1923  0.1871 -0.1717
  607MPD2     C 8991   3.283   0.691  11.923 -0.1386  0.0240 -0.0842
  607MPD2    C1 8992   3.267   0.792  12.014 -0.0476  0.6677  0.0428
  607MPD2    C2 8993   3.205   0.775  12.133  0.2187 -0.2253 -0.5759
  607MPD2    C3 8994   3.143   0.652  12.163  0.3894  0.3410 -0.1940
  607MPD2    C4 8995   3.147   0.553  12.071 -0.1187  0.4584  0.2049
  607MPD2    C5 8996   3.219   0.573  11.955 -0.3174 -0.6292  0.2172
  607MPD2     H 8997   3.190   0.850  12.209  1.4602 -1.4440  0.8860
  607MPD2    H1 8998   3.109   0.455  12.099 -0.4588  0.7548  0.7744
  607MPD2    H2 8999   3.353   0.702  11.841  0.2635 -1.8126  0.0090
  607MPD2    H3 9000   3.214   0.486  11.891  1.3431 -0.5446 -0.0185
  607MPD2     N 9001   3.083   0.635  12.290 -0.3151  0.3853  0.1619
  607MPD2    H5 9002   3.072   0.723  12.338  0.6744  0.8366 -0.4245
  607MPD2    N1 9003   3.326   0.922  12.003  0.6285  0.1895 -0.1014
  607MPD2    H7 9004   3.311   0.982  12.084 -2.0688  0.1925 -0.6042
  608TMC3    C1 9005   3.449   1.100  11.911  0.3014 -0.2947 -0.2904
  608TMC3    C2 9006   3.394   1.177  12.013  0.7840  0.7227 -0.1653
  608TMC3    C3 9007   3.470   1.282  12.056  0.7609 -0.0101  0.3697
  608TMC3    C4 9008   3.565   1.133  11.855 -0.0328 -1.1050 -0.5581
  608TMC3    C5 9009   3.636   1.247  11.895 -0.5959  0.3396 -0.0568
  608TMC3    C6 9010   3.587   1.320  11.995 -0.1759  0.4906 -0.5410
  608TMC3     C 9011   3.415   0.962  11.905  0.2729  0.3913  0.0147
  608TMC3     O 9012   3.471   0.891  11.828 -0.1748 -0.0960 -0.0164
  608TMC3     H 9013   3.287   1.170  12.031  0.5209 -0.7189 -2.2419
  608TMC3    H1 9014   3.614   1.076  11.778 -1.6046 -0.3742 -2.0910
  608TMC3    H2 9015   3.630   1.414  12.029  1.2297 -0.1904 -0.4561
  608TMC3    C7 9016   3.728   1.317  11.809 -0.0531 -0.1086  0.1294
  608TMC3    C8 9017   3.461   1.304  12.194 -0.0697 -0.4631 -0.3882
  608TMC3    O1 9018   3.748   1.275  11.697 -0.6024  0.5351  0.5642
  608TMC3    O2 9019   3.511   1.407  12.244 -0.1425  0.0877 -0.1750
  609TMC3    C1 9020   2.400   0.449   9.126 -0.5387  0.0967 -0.0015
  609TMC3    C2 9021   2.462   0.571   9.097 -0.3320  0.1319 -0.4262
  609TMC3    C3 9022   2.600   0.562   9.095 -0.1144  0.1193  0.4071
  609TMC3    C4 9023   2.481   0.341   9.164 -0.0139 -0.0623  0.0435
  609TMC3    C5 9024   2.617   0.340   9.155  0.0756  0.0448 -0.2830
  609TMC3    C6 9025   2.672   0.452   9.104 -0.7129  0.8378 -0.0595
  609TMC3     C 9026   2.255   0.456   9.138 -0.6442  0.1681  0.1186
  609TMC3     O 9027   2.199   0.564   9.130  0.1188 -0.0613  0.3961
  609TMC3     H 9028   2.409   0.652   9.049  1.7997  2.0430  0.4384
  609TMC3    H1 9029   2.434   0.250   9.198 -3.5075  1.3777 -0.8735
  609TMC3    H2 9030   2.778   0.471   9.121 -0.7694  1.0383  0.0624
  609TMC3    C7 9031   2.702   0.249   9.232 -0.5889 -0.2536 -0.3653
  609TMC3    C8 9032   2.670   0.690   9.063  0.0011 -0.2404 -0.0454
  609TMC3    O1 9033   2.644   0.174   9.315  0.6234 -0.1046 -0.5142
  609TMC3    O2 9034   2.749   0.687   8.965  0.3914  0.1706 -0.5142
  610TMC3    C1 9035   3.501   1.033  12.981 -0.2981  0.0331 -0.7100
  610TMC3    C2 9036   3.525   1.042  12.848  0.3262 -0.0884  0.1202
  610TMC3    C3 9037   3.555   0.928  12.786 -0.2528  0.0249  0.3458
  610TMC3    C4 9038   3.515   0.911  13.048  0.6900  0.7355 -0.3683
  610TMC3    C5 9039   3.543   0.798  12.976 -0.3029 -0.1721  0.5107
  610TMC3    C6 9040   3.575   0.800  12.841 -0.6816  0.6050 -0.0983
  610TMC3     C 9041   3.398   1.118  13.037 -0.2541  0.8569  0.7611
  610TMC3     O 9042   3.336   1.071  13.129  0.5854  0.5779  0.2501
  610TMC3     H 9043   3.517   1.133  12.789 -1.9741  1.8639  3.4454
  610TMC3    H1 9044   3.498   0.908  13.155  0.4556 -1.5943 -0.4810
  610TMC3    H2 9045   3.615   0.714  12.790  1.7005  0.8794  1.3032
  610TMC3    C7 9046   3.623   0.702  13.044 -0.9086 -0.5407 -0.1975
  610TMC3    C8 9047   3.571   0.933  12.637 -0.3254 -0.7134 -0.1348
  610TMC3    O1 9048   3.703   0.749  13.128 -0.6971 -0.3113 -0.6737
  610TMC3    O2 9049   3.635   1.029  12.594  0.1542 -0.5356  0.0960
  611MPD2     C 9050   3.313   0.677  10.095  0.1771 -0.1119  0.0416
  611MPD2    C1 9051   3.288   0.766  10.199 -0.1753 -0.2565 -0.6485
  611MPD2    C2 9052   3.394   0.860  10.220  0.1186 -0.1134 -0.2426
  611MPD2    C3 9053   3.507   0.863  10.140  0.4405 -0.7081 -0.4303
  611MPD2    C4 9054   3.528   0.766  10.041 -0.4520  0.7382  0.4144
  611MPD2    C5 9055   3.429   0.675  10.024  0.8321 -0.2144  0.4395
  611MPD2     H 9056   3.379   0.925  10.305  0.3482  1.9849 -1.7975
  611MPD2    H1 9057   3.617   0.756   9.980  0.0217  0.5331  1.1477
  611MPD2    H2 9058   3.238   0.605  10.066 -0.3949 -0.1716  1.6467
  611MPD2    H3 9059   3.425   0.601   9.945  0.7670  0.6280 -0.3542
  611MPD2     N 9060   3.602   0.964  10.155  0.4915 -0.5794 -0.0766
  611MPD2    H5 9061   3.662   0.982  10.075 -0.9327 -0.8341 -1.2044
  611MPD2    N1 9062   3.164   0.757  10.267 -1.0369  0.2597  0.1306
  611MPD2    H7 9063   3.100   0.681  10.247 -0.3948 -0.5597  1.1511
  612TMC3    C1 9064   3.736   1.136  10.258  0.4997 -0.5070 -0.0924
  612TMC3    C2 9065   3.798   1.175  10.373  0.2043 -0.2494 -0.4999
  612TMC3    C3 9066   3.904   1.262  10.360  0.5048  0.5818  0.9737
  612TMC3    C4 9067   3.760   1.191  10.136 -1.1027  0.3345 -0.2912
  612TMC3    C5 9068   3.868   1.268  10.127 -0.2002 -0.3643  0.0054
  612TMC3    C6 9069   3.946   1.303  10.235 -0.5344 -0.3384 -0.6202
  612TMC3     C 9070   3.626   1.034  10.265 -0.1083  0.1500  0.4239
  612TMC3     O 9071   3.586   1.010  10.376  0.5281  0.1839  0.5135
  612TMC3     H 9072   3.762   1.147  10.471  2.9661 -0.9318  0.3144
  612TMC3    H1 9073   3.691   1.178  10.054 -2.0510 -0.0689  0.5636
  612TMC3    H2 9074   4.038   1.360  10.230  1.5805 -3.6891 -0.0261
  612TMC3    C7 9075   3.934   1.298  10.000 -0.5240 -0.3352 -0.7136
  612TMC3    C8 9076   3.990   1.302  10.480  0.2666 -0.6630 -0.0927
  612TMC3    O1 9077   4.033   1.368  10.005 -0.0079 -0.1344 -0.1433
  612TMC3    O2 9078   4.077   1.383  10.465  0.1831 -0.0616 -0.0284
  613MPD2     C 9079   2.318   2.770  15.920 -0.2210 -0.2108  0.1991
  613MPD2    C1 9080   2.252   2.883  15.896  0.4893 -0.2223  0.2180
  613MPD2    C2 9081   2.126   2.880  15.840 -0.2994  0.1461 -0.3851
  613MPD2    C3 9082   2.066   2.753  15.815  0.1265 -0.1338  0.0537
  613MPD2    C4 9083   2.130   2.637  15.848 -0.6040 -1.0524 -0.2054
  613MPD2    C5 9084   2.257   2.649  15.894  0.1504 -0.1548 -0.1081
  613MPD2     H 9085   2.066   2.963  15.807 -1.3963 -0.2949  0.4914
  613MPD2    H1 9086   2.086   2.541  15.825 -1.2830 -0.9090  0.5015
  613MPD2    H2 9087   2.424   2.775  15.942  0.1288  1.3009 -1.8386
  613MPD2    H3 9088   2.307   2.554  15.908 -1.8705 -0.9564  1.6894
  613MPD2     N 9089   1.950   2.751  15.735 -0.5850  0.0818 -0.0938
  613MPD2    H5 9090   1.936   2.665  15.682 -0.9255  0.4090 -0.5345
  613MPD2    N1 9091   2.320   3.008  15.933 -0.6408  0.1250  0.0249
  613MPD2    H7 9092   2.419   3.002  15.953 -0.9978 -1.5466  1.3069
  614TMC3    C1 9093   2.326   3.239  15.880 -0.4716  0.1093 -0.5660
  614TMC3    C2 9094   2.414   3.201  15.781 -0.2520 -0.0214 -0.1004
  614TMC3    C3 9095   2.404   3.260  15.664 -0.0625 -0.2022 -0.2180
  614TMC3    C4 9096   2.238   3.344  15.866 -0.4598  0.0097 -0.1422
  614TMC3    C5 9097   2.237   3.399  15.742 -0.5282 -0.1776 -0.6899
  614TMC3    C6 9098   2.319   3.368  15.643 -0.1632 -0.0372 -0.1618
  614TMC3     C 9099   2.251   3.125  15.923 -0.1581 -0.7202  0.1063
  614TMC3     O 9100   2.136   3.140  15.966 -0.1474 -0.1444 -0.8251
  614TMC3     H 9101   2.480   3.115  15.783 -0.9481 -0.6079 -2.7790
  614TMC3    H1 9102   2.163   3.370  15.939  0.9277  0.5337  1.1095
  614TMC3    H2 9103   2.312   3.413  15.545  0.5363 -1.2937 -0.7893
  614TMC3    C7 9104   2.097   3.439  15.697 -0.1432  0.2918 -0.1744
  614TMC3    C8 9105   2.398   3.166  15.556  1.4978  0.3337 -0.5631
  614TMC3    O1 9106   2.040   3.498  15.785 -0.2769  0.0235 -0.9045
  614TMC3    O2 9107   2.361   3.054  15.588  0.5597  0.1966 -0.1041
  615MPD2     C 9108   1.719   4.456  16.377 -0.9864  0.1604  0.1639
  615MPD2    C1 9109   1.619   4.502  16.450  0.0486  0.8375  0.4209
  615MPD2    C2 9110   1.496   4.522  16.390  0.1055  0.2514 -0.6364
  615MPD2    C3 9111   1.474   4.477  16.259 -0.2367 -0.5097  0.0937
  615MPD2    C4 9112   1.580   4.423  16.190  0.2783 -0.4090  0.3524
  615MPD2    C5 9113   1.702   4.418  16.246  0.2187 -0.9108  0.7248
  615MPD2     H 9114   1.421   4.560  16.458  0.2997 -0.9885  0.2772
  615MPD2    H1 9115   1.567   4.384  16.090  1.0138 -3.2087  1.3510
  615MPD2    H2 9116   1.823   4.462  16.408 -1.7485 -0.1426  2.8003
  615MPD2    H3 9117   1.794   4.401  16.191  0.3854  0.4419  0.6052
  615MPD2     N 9118   1.360   4.502  16.175  0.3188 -0.2959  0.3246
  615MPD2    H5 9119   1.365   4.471  16.079  1.4130  1.0065 -0.0446
  615MPD2    N1 9120   1.630   4.546  16.586 -0.1961  0.0391 -0.2696
  615MPD2    H7 9121   1.546   4.589  16.623  0.3119  1.2109 -0.4849
  616TMC3    C1 9122   1.710   4.628  16.794  0.2929 -0.1556 -0.3314
  616TMC3    C2 9123   1.799   0.009  16.812 -0.0286 -0.0472  0.1551
  616TMC3    C3 9124   1.749   0.115  16.891 -0.2619  0.2249 -0.7412
  616TMC3    C4 9125   1.582   4.631  16.844 -0.2110  0.1747  0.5198
  616TMC3    C5 9126   1.551   0.010  16.931  0.2134  0.3779 -0.2006
  616TMC3    C6 9127   1.634   0.114  16.965  0.2362  0.3519  0.2636
  616TMC3     C 9128   1.744   4.553  16.663 -0.4668  0.3349 -0.0237
  616TMC3     O 9129   1.856   4.517  16.640 -0.7922 -0.4139  0.1646
  616TMC3     H 9130   1.888   4.720  16.752 -0.6117  1.0439 -0.8927
  616TMC3    H1 9131   1.508   4.555  16.822 -0.2497 -0.5246  3.0392
  616TMC3    H2 9132   1.598   0.201  17.018  1.2847  1.7246 -1.2693
  616TMC3    C7 9133   1.425   0.005  16.986 -0.9320  0.1343  0.3229
  616TMC3    C8 9134   1.791   0.248  16.860 -0.5381 -0.0233  0.5333
  616TMC3    O1 9135   1.333   4.662  16.934  0.2598  0.9639  0.6341
  616TMC3    O2 9136   1.712   0.340  16.854  0.0004  0.4695 -0.8214
  617MPD2     C 9137   4.434   2.986  13.861  0.1863  0.2355  0.0433
  617MPD2    C1 9138   4.411   2.911  13.973 -0.3937  0.3568 -0.7199
  617MPD2    C2 9139   4.281   2.905  14.017  0.0778  0.1372  0.3935
  617MPD2    C3 9140   4.181   2.982  13.957  0.5879  0.3987  0.6318
  617MPD2    C4 9141   4.204   3.039  13.838 -0.2225 -0.7783 -0.0529
  617MPD2    C5 9142   4.331   3.046  13.794 -0.5106 -0.5506  0.6147
  617MPD2     H 9143   4.255   2.848  14.106 -2.7102 -2.2098 -1.9197
  617MPD2    H1 9144   4.130   3.107  13.798 -0.5184 -1.3713 -0.5096
  617MPD2    H2 9145   4.532   2.995  13.815 -1.1011  1.0739 -2.5398
  617MPD2    H3 9146   4.360   3.106  13.709 -1.8129 -1.2613 -0.3313
  617MPD2     N 9147   4.046   2.998  14.005  0.7178  0.0436  0.0971
  617MPD2    H5 9148   3.982   3.042  13.940  0.6316 -0.7104 -0.3299
  617MPD2    N1 9149   4.512   2.828  14.021 -0.4369  0.1091  0.1787
  617MPD2    H7 9150   4.604   2.861  13.996 -0.4896 -1.2632 -1.8118
  618TMC3    C1 9151   4.633   2.659  14.123  0.5444  0.3592 -0.2327
  618TMC3    C2 9152   4.645   2.526  14.117  0.1626 -0.5321 -0.4716
  618TMC3    C3 9153   0.038   2.482  14.050 -0.4262  0.1464  0.1408
  618TMC3    C4 9154   0.004   2.742  14.077  0.3498 -0.0345 -0.1809
  618TMC3    C5 9155   0.115   2.704  14.013 -0.4095  0.8259 -0.0207
  618TMC3    C6 9156   0.135   2.568  13.999  0.0661 -0.4752 -0.2720
  618TMC3     C 9157   4.499   2.719  14.105 -0.0360 -0.4928  0.1087
  618TMC3     O 9158   4.404   2.663  14.151 -0.0347 -0.3867 -0.3095
  618TMC3     H 9159   4.568   2.464  14.162 -0.1896  0.8416  0.8271
  618TMC3    H1 9160   4.715   2.844  14.114 -0.7672  0.1857 -1.0939
  618TMC3    H2 9161   0.219   2.528  13.944  1.4050 -0.2851  1.6059
  618TMC3    C7 9162   0.152   2.792  13.906 -0.4453  0.0616 -0.7405
  618TMC3    C8 9163   0.051   2.340  14.041 -0.6543 -0.5317  0.7550
  618TMC3    O1 9164   0.087   2.897  13.908  0.6016 -0.1769  0.1532
  618TMC3    O2 9165   4.702   2.267  14.104 -0.3209  0.4090 -0.0471
  619MPD2     C 9166   1.105   4.169  13.471 -0.7674 -0.2815  0.3572
  619MPD2    C1 9167   1.060   4.301  13.484 -0.7286 -0.0476  0.5266
  619MPD2    C2 9168   0.923   4.321  13.511 -0.4419 -0.4792  0.3597
  619MPD2    C3 9169   0.835   4.211  13.508 -1.0472 -0.4516 -0.2235
  619MPD2    C4 9170   0.882   4.088  13.490 -0.6204 -0.3820 -0.2890
  619MPD2    C5 9171   1.015   4.063  13.480 -0.6672  0.4141  0.6460
  619MPD2     H 9172   0.885   4.417  13.543 -0.1992 -0.0051 -0.8014
  619MPD2    H1 9173   0.813   4.005  13.494 -2.2548  0.9980 -0.0743
  619MPD2    H2 9174   1.210   4.158  13.448 -0.8293 -0.9676  0.4148
  619MPD2    H3 9175   1.041   3.959  13.462 -1.0603 -0.0071  2.5550
  619MPD2     N 9176   0.692   4.222  13.517  0.0359 -0.6750  0.5522
  619MPD2    H5 9177   0.648   4.131  13.512 -0.4355 -0.3731 -0.5865
  619MPD2    N1 9178   1.139   4.416  13.490  0.2417 -0.5464 -0.0360
  619MPD2    H7 9179   1.095   4.503  13.519 -2.4324 -0.9311 -2.9487
  620TMC3    C1 9180   1.308   4.566  13.501 -0.5160  0.3811 -0.9368
  620TMC3    C2 9181   1.270   4.643  13.390  0.2250  0.1241 -0.3926
  620TMC3    C3 9182   1.297   0.056  13.396  0.4019 -0.0993  0.7229
  620TMC3    C4 9183   1.380   4.617  13.610  0.3905  0.0076  0.2938
  620TMC3    C5 9184   1.396   0.032  13.610 -0.4088  0.3971  0.5823
  620TMC3    C6 9185   1.357   0.110  13.506  0.2876  0.1830 -0.2547
  620TMC3     C 9186   1.276   4.427  13.499 -0.1341  0.5696  0.0123
  620TMC3     O 9187   1.363   4.342  13.523 -0.0803 -0.0484  0.1826
  620TMC3     H 9188   1.226   4.599  13.301 -3.2120  2.3119  0.2198
  620TMC3    H1 9189   1.405   4.558  13.698  0.8015  1.2208  0.9887
  620TMC3    H2 9190   1.380   0.216  13.513 -0.8571  0.5182 -1.6760
  620TMC3    C7 9191   1.337   0.086  13.736 -0.0155 -0.2926  0.3556
  620TMC3    C8 9192   1.185   0.133  13.356 -0.1016 -0.6428 -0.2010
  620TMC3    O1 9193   1.378   0.035  13.839  0.2220 -0.1509  0.3273
  620TMC3    O2 9194   1.150   0.227  13.422  0.0139  0.1117  0.4007
  621MPD2     C 9195   1.627   4.475   9.414 -0.6578  0.6639  0.4614
  621MPD2    C1 9196   1.587   4.441   9.537  0.2908  0.5523 -0.2950
  621MPD2    C2 9197   1.664   4.486   9.641  0.2294 -0.3648 -0.8586
  621MPD2    C3 9198   1.774   4.564   9.623  0.7248  0.7391  0.7667
  621MPD2    C4 9199   1.806   4.610   9.503  0.1390  0.3722  0.1163
  621MPD2    C5 9200   1.737   4.553   9.400  0.3633  0.3365  0.2638
  621MPD2     H 9201   1.639   4.474   9.746  0.4261 -0.2328 -0.7948
  621MPD2    H1 9202   1.904   4.654   9.489  0.5576 -0.4011  0.6073
  621MPD2    H2 9203   1.572   4.443   9.326  1.6227 -0.4360 -0.5649
  621MPD2    H3 9204   1.769   4.581   9.300 -1.2934 -1.3265 -0.7369
  621MPD2     N 9205   1.847   4.598   9.742  0.2430  0.0237 -0.1063
  621MPD2    H5 9206   1.820   4.552   9.829  0.0756  1.8757  0.8381
  621MPD2    N1 9207   1.473   4.363   9.568  0.5422 -0.3118 -0.1556
  621MPD2    H7 9208   1.457   4.346   9.667  1.1191  0.9775  0.1659
  622TMC3    C1 9209   1.288   4.223   9.536  0.0661  0.4562 -1.2230
  622TMC3    C2 9210   1.228   4.263   9.649 -0.3996  0.3793  0.0013
  622TMC3    C3 9211   1.123   4.192   9.685 -0.3385  0.2982 -0.3089
  622TMC3    C4 9212   1.235   4.125   9.448  0.5848  0.3909 -0.1835
  622TMC3    C5 9213   1.122   4.071   9.488  0.3992  0.2443  0.7909
  622TMC3    C6 9214   1.070   4.089   9.613 -0.2561  0.1401 -0.1463
  622TMC3     C 9215   1.395   4.303   9.471 -0.1812 -0.1402 -0.4163
  622TMC3     O 9216   1.398   4.309   9.347 -0.3870  0.0114  0.1064
  622TMC3     H 9217   1.278   4.330   9.718 -1.4269  0.5662  0.5553
  622TMC3    H1 9218   1.276   4.097   9.352  0.3209 -2.0272  0.4209
  622TMC3    H2 9219   0.988   4.023   9.639  0.7897 -0.9149  0.4565
  622TMC3    C7 9220   1.058   3.972   9.408 -0.5351 -0.6158 -0.4667
  622TMC3    C8 9221   1.072   4.223   9.816 -1.0106 -0.2496  0.3863
  622TMC3    O1 9222   1.049   3.857   9.448 -0.3079 -0.1473  0.5092
  622TMC3    O2 9223   1.032   4.130   9.889 -0.6560 -0.0106  0.6175
  623MPD2     C 9224   0.381   0.614  16.269 -0.5103 -0.0097  0.3051
  623MPD2    C1 9225   0.257   0.608  16.332  0.4772  0.2641  0.4403
  623MPD2    C2 9226   0.261   0.584  16.472  0.2814 -0.1377  0.2056
  623MPD2    C3 9227   0.376   0.547  16.538 -0.3474 -0.1668  0.1149
  623MPD2    C4 9228   0.498   0.559  16.470 -0.3777  0.3271  0.0517
  623MPD2    C5 9229   0.502   0.607  16.338  0.3089 -0.0950 -0.0884
  623MPD2     H 9230   0.164   0.578  16.519  1.2673  1.9046  2.5086
  623MPD2    H1 9231   0.592   0.537  16.519 -1.5130 -1.3202  1.4899
  623MPD2    H2 9232   0.381   0.651  16.167 -1.5261  2.4743  1.2111
  623MPD2    H3 9233   0.601   0.622  16.296  0.4190 -0.8196 -0.0920
  623MPD2     N 9234   0.384   0.497  16.672 -0.0396 -0.6660  0.0461
  623MPD2    H5 9235   0.473   0.457  16.697  0.0065 -1.4487 -1.3369
  623MPD2    N1 9236   0.145   0.607  16.249  0.3709  0.4000 -0.5929
  623MPD2    H7 9237   0.163   0.600  16.150 -2.9465 -0.9840 -1.0639
  624TMC3    C1 9238   0.423   0.223  16.963  0.4848  0.5724 -0.1957
  624TMC3    C2 9239   0.305   0.191  17.037  0.0707 -0.7055  0.7394
  624TMC3    C3 9240   0.195   0.275  17.027 -0.1516  0.2795  0.3175
  624TMC3    C4 9241   0.417   0.332  16.881  0.2130 -0.3740 -0.2270
  624TMC3    C5 9242   0.302   0.406  16.870 -0.7159 -0.8980 -0.2280
  624TMC3    C6 9243   0.191   0.375  16.939  0.1168 -0.1648  0.4977
  624TMC3     C 9244   0.533   0.132  16.956  0.0328  0.1883 -0.5330
  624TMC3     O 9245   0.641   0.182  16.926 -0.2791 -0.1825 -0.0278
  624TMC3     H 9246   0.313   0.116  17.115 -0.1935 -2.3995 -0.8693
  624TMC3    H1 9247   0.497   0.339  16.808 -0.9965 -2.8918 -1.7865
  624TMC3    H2 9248   0.117   0.451  16.961  0.5814  0.4442 -0.0447
  624TMC3    C7 9249   0.280   0.491  16.755 -0.2157  0.8632 -0.2081
  624TMC3    C8 9250   0.074   0.231  17.094 -0.2803 -0.4817 -0.2701
  624TMC3    O1 9251   0.167   0.530  16.739 -0.0675  0.5760  0.4596
  624TMC3    O2 9252   0.084   0.173  17.204 -0.2236  0.1640  0.1235
  625MPD2     C 9253   0.145   1.359   0.877  0.3470 -0.9131  0.0512
  625MPD2    C1 9254   0.171   1.485   0.819 -0.5021  0.2311 -0.8598
  625MPD2    C2 9255   0.297   1.512   0.768 -0.3947  0.4474 -0.5706
  625MPD2    C3 9256   0.400   1.422   0.785 -0.7658  0.1034 -0.4146
  625MPD2    C4 9257   0.379   1.305   0.859 -0.8633 -0.7950 -0.2593
  625MPD2    C5 9258   0.251   1.273   0.890  0.5179 -0.2714  0.4945
  625MPD2     H 9259   0.310   1.614   0.732 -0.2388  0.4268 -0.5699
  625MPD2    H1 9260   0.454   1.232   0.887 -0.2512 -0.6453 -1.4914
  625MPD2    H2 9261   0.046   1.322   0.900 -1.1479  2.8661 -0.3527
  625MPD2    H3 9262   0.224   1.173   0.919  0.0302 -0.4117 -0.4451
  625MPD2     N 9263   0.533   1.455   0.735  0.0201 -0.4271 -0.5685
  625MPD2    H5 9264   0.542   1.543   0.684 -0.2397 -0.1542 -0.1484
  625MPD2    N1 9265   0.067   1.579   0.793  0.3853  0.5775  0.2125
  625MPD2    H7 9266   0.087   1.651   0.724 -0.0197  0.2834 -0.2103
  626TMC3    C1 9267   4.578   1.676   0.773 -0.0202 -0.0588  0.0694
  626TMC3    C2 9268   4.600   1.702   0.644  0.4255 -0.0362  0.4975
  626TMC3    C3 9269   4.506   1.781   0.581 -0.1746 -0.3532 -0.0840
  626TMC3    C4 9270   4.488   1.734   0.852  0.1649  1.1028 -0.1711
  626TMC3    C5 9271   4.403   1.818   0.789  0.1854  0.1388 -0.1101
  626TMC3    C6 9272   4.400   1.844   0.653  0.1116  0.4308  0.4452
  626TMC3     C 9273   4.663   1.577   0.845 -0.3796  0.4341  0.1939
  626TMC3     O 9274   4.609   1.513   0.935 -0.0654 -0.6532 -0.1959
  626TMC3     H 9275   4.691   1.670   0.596  0.6403  1.7176 -0.2756
  626TMC3    H1 9276   4.472   1.709   0.956  1.3516  0.1831 -0.2169
  626TMC3    H2 9277   4.328   1.911   0.606  0.4471  1.2470  1.0912
  626TMC3    C7 9278   4.291   1.855   0.875  0.0202 -0.1257  0.2163
  626TMC3    C8 9279   4.497   1.757   0.440  0.3608  0.4416  0.2993
  626TMC3    O1 9280   4.307   1.845   0.995 -0.1491  0.2331 -0.0078
  626TMC3    O2 9281   4.597   1.714   0.377  0.4683 -0.4513  0.8079
  627MPD2     C 9282   3.426   1.743  14.372  0.1389  0.3230  0.4037
  627MPD2    C1 9283   3.524   1.668  14.433  0.1524  0.0836 -0.7469
  627MPD2    C2 9284   3.485   1.543  14.475  0.1831  0.0711 -0.6392
  627MPD2    C3 9285   3.355   1.488  14.459  0.3132 -0.5470 -0.1196
  627MPD2    C4 9286   3.263   1.556  14.375  0.2136 -0.8880  0.2778
  627MPD2    C5 9287   3.306   1.686  14.340 -0.3556 -0.2136  0.9492
  627MPD2     H 9288   3.560   1.485  14.528  0.7819  2.0780  0.6814
  627MPD2    H1 9289   3.160   1.525  14.359 -0.7804  1.6253  1.8465
  627MPD2    H2 9290   3.446   1.845  14.339 -0.2860 -0.8985 -3.5394
  627MPD2    H3 9291   3.242   1.746  14.276 -1.4032  0.6435  2.7896
  627MPD2     N 9292   3.329   1.368  14.526 -0.3887  0.3418 -0.5124
  627MPD2    H5 9293   3.414   1.333  14.569  0.1076 -1.6056 -3.0545
  627MPD2    N1 9294   3.651   1.723  14.471 -0.7763  0.1164  0.0451
  627MPD2    H7 9295   3.716   1.659  14.516 -1.0610 -1.1910 -1.4149
  628TMC3    C1 9296   3.834   1.889  14.495 -0.2138 -1.0937 -0.8385
  628TMC3    C2 9297   3.933   1.800  14.454 -0.0356  0.2754 -0.7267
  628TMC3    C3 9298   4.058   1.829  14.496 -0.5583 -0.0088 -1.0790
  628TMC3    C4 9299   3.853   2.000  14.566 -0.3797  0.0963 -0.6402
  628TMC3    C5 9300   3.978   2.022  14.610 -0.5138 -0.0197  0.4545
  628TMC3    C6 9301   4.084   1.936  14.585 -0.3779 -0.2865 -0.2857
  628TMC3     C 9302   3.692   1.853  14.462 -0.3074  0.2221 -0.1747
  628TMC3     O 9303   3.621   1.953  14.453  0.3138  0.0624  0.0022
  628TMC3     H 9304   3.906   1.739  14.368  2.6603 -2.0368  0.0720
  628TMC3    H1 9305   3.770   2.066  14.590 -0.9082 -0.0052 -2.1473
  628TMC3    H2 9306   4.182   1.981  14.595 -0.6003  0.1991 -0.3110
  628TMC3    C7 9307   4.002   2.151  14.673 -0.4966  0.5066 -0.5736
  628TMC3    C8 9308   4.163   1.760  14.428  1.0608  0.6229  0.0709
  628TMC3    O1 9309   4.100   2.164  14.749  0.2930 -0.7146 -0.1144
  628TMC3    O2 9310   4.147   1.759  14.305  0.1154  0.0580 -0.3415
  629MPD2     C 9311   2.151   0.536  16.646  0.0830 -0.4561  0.8375
  629MPD2    C1 9312   2.204   0.411  16.666  0.0768 -0.3493  0.1325
  629MPD2    C2 9313   2.120   0.315  16.714  0.3509  0.0532  0.9130
  629MPD2    C3 9314   1.986   0.341  16.749  0.6341  0.4256  0.9168
  629MPD2    C4 9315   1.941   0.463  16.727 -0.4085 -1.0587 -0.2870
  629MPD2    C5 9316   2.022   0.559  16.682  0.6078 -0.5004 -0.1140
  629MPD2     H 9317   2.156   0.213  16.721  1.1912  0.4215  1.9214
  629MPD2    H1 9318   1.834   0.478  16.736 -0.0651 -0.4900  2.7059
  629MPD2    H2 9319   2.214   0.621  16.622  0.5560 -0.3210  2.5594
  629MPD2    H3 9320   1.981   0.658  16.664  2.7011  0.1264 -1.4374
  629MPD2     N 9321   1.919   0.242  16.812  0.1717 -0.5158  0.7389
  629MPD2    H5 9322   1.967   0.153  16.826 -0.9275 -0.8319  2.4338
  629MPD2    N1 9323   2.336   0.391  16.630  0.1363  0.3196 -0.1277
  629MPD2    H7 9324   2.386   0.477  16.612  0.0023  0.0010 -1.9956
  630TMC3    C1 9325   2.540   0.293  16.614 -0.2739  0.0400  0.7525
  630TMC3    C2 9326   2.585   0.401  16.542  0.0178 -0.7208 -0.0803
  630TMC3    C3 9327   2.704   0.458  16.585 -0.6207 -0.4490 -0.2029
  630TMC3    C4 9328   2.612   0.236  16.716 -0.5663  0.1019  0.2612
  630TMC3    C5 9329   2.721   0.304  16.762  0.3375 -0.1063  0.3408
  630TMC3    C6 9330   2.772   0.413  16.696  0.7025 -0.3014  0.4616
  630TMC3     C 9331   2.404   0.272  16.636  0.1442  0.1594  0.9985
  630TMC3     O 9332   2.367   0.161  16.671 -0.0063 -0.0185  0.3162
  630TMC3     H 9333   2.543   0.432  16.447  0.8857  0.4515 -0.0769
  630TMC3    H1 9334   2.565   0.153  16.767 -0.7448 -0.1120 -0.2524
  630TMC3    H2 9335   2.855   0.477  16.723  0.1103  0.6820 -0.0526
  630TMC3    C7 9336   2.773   0.271  16.895 -0.5255  0.4479  0.5834
  630TMC3    C8 9337   2.764   0.579  16.514 -0.0714  0.5362 -0.9201
  630TMC3    O1 9338   2.716   0.174  16.937  0.2116  0.1063 -0.1752
  630TMC3    O2 9339   2.879   0.603  16.546 -0.1808  0.4599 -0.1888
  631MPD2     C 9340   0.820   0.606  16.003 -0.4826  0.1319  0.1012
  631MPD2    C1 9341   0.822   0.543  15.881  0.0600  0.0351 -0.3247
  631MPD2    C2 9342   0.825   0.407  15.883  0.3301 -0.0053  0.6776
  631MPD2    C3 9343   0.833   0.334  16.002 -0.3472 -0.1293 -0.3589
  631MPD2    C4 9344   0.828   0.396  16.121  0.8829 -0.1335  0.4708
  631MPD2    C5 9345   0.820   0.531  16.120  0.5957  0.0064  0.4720
  631MPD2     H 9346   0.851   0.350  15.795 -0.8088 -0.4419  0.6239
  631MPD2    H1 9347   0.842   0.334  16.209  1.7652 -2.5760 -1.4145
  631MPD2    H2 9348   0.816   0.715  16.005 -4.2596  0.0246 -1.3605
  631MPD2    H3 9349   0.829   0.596  16.206  1.4937  0.3935  0.0826
  631MPD2     N 9350   0.864   0.201  15.980 -0.1016 -0.4087 -0.4115
  631MPD2    H5 9351   0.858   0.178  15.881  1.6170 -0.4320 -0.4992
  631MPD2    N1 9352   0.815   0.629  15.769  0.7075 -0.1244 -0.6492
  631MPD2    H7 9353   0.833   0.728  15.783  0.3345  0.0191 -1.1542
  632TMC3    C1 9354   0.778   0.684  15.543 -0.7168  0.7416 -0.2977
  632TMC3    C2 9355   0.735   0.808  15.578  0.2676  0.2998 -0.6513
  632TMC3    C3 9356   0.672   0.882  15.479 -0.5486  0.5012  0.9715
  632TMC3    C4 9357   0.779   0.641  15.413  0.0587  0.0664  0.2492
  632TMC3    C5 9358   0.732   0.732  15.317 -0.5177 -0.3086  0.1407
  632TMC3    C6 9359   0.667   0.846  15.352  0.7850 -0.3658  0.8856
  632TMC3     C 9360   0.794   0.584  15.642  0.2287  0.7510 -0.0493
  632TMC3     O 9361   0.781   0.469  15.596 -0.7406  0.2280 -0.4056
  632TMC3     H 9362   0.717   0.832  15.682  0.0467  2.5926 -1.2188
  632TMC3    H1 9363   0.817   0.542  15.388  0.3522  0.7523 -2.0323
  632TMC3    H2 9364   0.636   0.916  15.274 -1.1585 -1.0187  1.0966
  632TMC3    C7 9365   0.759   0.700  15.177  0.4118  0.6956 -0.2606
  632TMC3    C8 9366   0.565   0.972  15.529 -0.3798 -0.9461 -0.0138
  632TMC3    O1 9367   0.679   0.731  15.091  0.0997  0.2585  0.3472
  632TMC3    O2 9368   0.572   0.999  15.650 -0.0452 -0.2399  0.3704
  633MPD2     C 9369   0.164   2.927  17.176 -0.5019 -0.8616  0.6200
  633MPD2    C1 9370   0.127   2.934  17.044 -0.1349  0.5141  0.6967
  633MPD2    C2 9371   0.056   2.836  16.981  0.0954  0.2429 -0.4715
  633MPD2    C3 9372   0.002   2.731  17.053  0.3225  0.3015  0.3106
  633MPD2    C4 9373   0.028   2.729  17.186  0.5550  0.1237 -0.1283
  633MPD2    C5 9374   0.115   2.819  17.245 -0.1292  0.1635 -0.1303
  633MPD2     H 9375   0.050   2.842  16.873 -1.5853  0.2869 -0.3816
  633MPD2    H1 9376   4.710   2.645  17.243 -1.6207  1.1066 -0.1817
  633MPD2    H2 9377   0.227   2.991  17.237 -0.6870  0.7351 -0.8744
  633MPD2    H3 9378   0.143   2.813  17.349 -0.5795 -0.0969 -0.0208
  633MPD2     N 9379   4.659   2.619  16.998 -0.0728  0.0092  0.2871
  633MPD2    H5 9380   4.630   2.540  17.054 -1.9957  0.5378  0.0177
  633MPD2    N1 9381   0.171   3.043  16.963 -0.1538  0.2684  0.4249
  633MPD2    H7 9382   0.161   3.036  16.862  1.0747 -1.1920  0.4230
  634TMC3    C1 9383   0.311   3.216  16.912  0.1609  0.1986  0.8426
  634TMC3    C2 9384   0.378   3.134  16.827  0.1210  0.0320 -0.1368
  634TMC3    C3 9385   0.485   3.181  16.748  0.4023 -0.2373 -0.1643
  634TMC3    C4 9386   0.361   3.340  16.934 -0.0455  0.4003  0.2850
  634TMC3    C5 9387   0.473   3.387  16.868 -0.2525 -0.7962 -0.3004
  634TMC3    C6 9388   0.522   3.311  16.764  0.2208 -0.0685  0.1414
  634TMC3     C 9389   0.223   3.165  17.008 -0.1090 -0.1874  0.5251
  634TMC3     O 9390   0.210   3.219  17.112 -0.3214  0.0937 -0.1894
  634TMC3     H 9391   0.348   3.032  16.807  1.2170 -0.1885 -0.6620
  634TMC3    H1 9392   0.307   3.394  17.010 -1.5857  0.5278 -0.9026
  634TMC3    H2 9393   0.598   3.361  16.707  0.5268  1.7065  2.1139
  634TMC3    C7 9394   0.471   3.529  16.844 -0.4107 -0.0904 -0.0801
  634TMC3    C8 9395   0.517   3.116  16.625 -0.3657 -0.1091 -0.1950
  634TMC3    O1 9396   0.496   3.561  16.728  0.4273 -0.6468  0.9254
  634TMC3    O2 9397   0.437   3.027  16.594  0.4399  0.0478 -0.5064
  635TMC3    C1 9398   0.755   3.922   0.132  0.0525  0.0482 -0.0784
  635TMC3    C2 9399   0.694   3.799   0.154  0.3794 -0.4122 -0.3703
  635TMC3    C3 9400   0.709   3.702   0.058  0.6298  0.2637  0.1521
  635TMC3    C4 9401   0.823   3.950   0.018  0.2503 -0.4234 -0.1972
  635TMC3    C5 9402   0.833   3.853  17.612  0.5735  1.0734 -0.8334
  635TMC3    C6 9403   0.773   3.724  17.624  0.5133  0.0714  0.4946
  635TMC3     C 9404   0.770   4.019   0.239 -0.2975 -0.7557  0.1586
  635TMC3     O 9405   0.786   4.134   0.202 -0.4044  0.6681 -0.1593
  635TMC3     H 9406   0.633   3.780   0.242  0.5142  0.7071 -0.0382
  635TMC3    H1 9407   0.860   4.051   0.006 -2.2419  0.3922 -0.8944
  635TMC3    H2 9408   0.785   3.651  17.546  0.3845 -0.0103  0.5521
  635TMC3    C7 9409   0.932   3.872  17.505 -0.0468  0.2396  0.3440
  635TMC3    C8 9410   0.670   3.565   0.074 -0.1330 -1.2374  0.4067
  635TMC3    O1 9411   0.920   3.803  17.409  0.1419 -0.4964  0.0237
  635TMC3    O2 9412   0.657   3.494  17.663 -0.4127 -0.0681 -0.1479
  636MPD2     C 9413   1.324   3.533  15.642 -0.6023 -0.3699  0.9338
  636MPD2    C1 9414   1.389   3.464  15.746  0.4391 -0.1139  0.0360
  636MPD2    C2 9415   1.469   3.356  15.716 -0.2981 -1.1777 -0.4316
  636MPD2    C3 9416   1.487   3.318  15.590  0.5220  0.2654 -0.5264
  636MPD2    C4 9417   1.427   3.385  15.484  0.2872  0.0104  0.5866
  636MPD2    C5 9418   1.351   3.494  15.511  0.7117  0.0047  0.4299
  636MPD2     H 9419   1.506   3.308  15.806  0.1676 -1.4942 -0.7932
  636MPD2    H1 9420   1.428   3.348  15.383  1.8558 -3.6898  1.9331
  636MPD2    H2 9421   1.262   3.618  15.667 -2.4039 -1.4327  0.1233
  636MPD2    H3 9422   1.309   3.547  15.426 -1.3113 -2.0864  0.1176
  636MPD2     N 9423   1.580   3.214  15.579 -0.3933 -0.4069  0.3155
  636MPD2    H5 9424   1.627   3.167  15.655 -0.7790 -0.4899  0.5025
  636MPD2    N1 9425   1.384   3.507  15.879 -0.8074  0.5021 -0.0202
  636MPD2    H7 9426   1.448   3.452  15.936 -0.1941  0.1099 -1.0937
  637TMC3    C1 9427   1.693   3.030  15.479 -0.1387  0.7193  0.5008
  637TMC3    C2 9428   1.693   2.955  15.598 -0.4151 -0.4866 -0.2283
  637TMC3    C3 9429   1.775   2.843  15.606  0.5518  0.4042 -0.9947
  637TMC3    C4 9430   1.774   2.990  15.378 -0.3965  0.7813 -0.1489
  637TMC3    C5 9431   1.861   2.887  15.392 -0.4465 -0.6727  0.1123
  637TMC3    C6 9432   1.852   2.802  15.501  0.5448  0.3450  0.0173
  637TMC3     C 9433   1.614   3.152  15.461  0.6038  0.5468 -0.5415
  637TMC3     O 9434   1.570   3.168  15.349  0.2977  0.3545  0.6204
  637TMC3     H 9435   1.627   2.976  15.682 -1.1489 -0.1005 -0.8989
  637TMC3    H1 9436   1.787   3.073  15.309  1.8392  0.7642  0.2710
  637TMC3    H2 9437   1.921   2.720  15.496  0.7564  0.5462 -0.3593
  637TMC3    C7 9438   2.002   2.925  15.365  0.7328 -0.2427  0.4740
  637TMC3    C8 9439   1.853   2.846  15.732  0.2677  0.0785  0.8674
  637TMC3    O1 9440   2.088   2.877  15.435 -0.1783 -0.3352  0.5398
  637TMC3    O2 9441   1.825   2.936  15.809 -0.1180 -0.0538  0.1047
  638MPD2     C 9442   1.209   2.270  14.981 -0.2540 -0.0260  0.2832
  638MPD2    C1 9443   1.128   2.185  14.914  0.2088  0.6205  0.2659
  638MPD2    C2 9444   1.091   2.066  14.973 -0.2970  0.0719 -0.0349
  638MPD2    C3 9445   1.138   2.033  15.097  0.0733  0.8498  0.2232
  638MPD2    C4 9446   1.204   2.131  15.167 -0.3514 -0.7127 -0.1658
  638MPD2    C5 9447   1.244   2.249  15.109 -0.4436  0.0968 -0.7618
  638MPD2     H 9448   1.024   1.995  14.925 -0.3103 -0.2067  0.3906
  638MPD2    H1 9449   1.245   2.122  15.267 -0.5394  1.0802  0.0776
  638MPD2    H2 9450   1.229   2.365  14.931 -1.1895  0.0256  0.0055
  638MPD2    H3 9451   1.300   2.318  15.171 -1.5814 -0.5585  0.9709
  638MPD2     N 9452   1.118   1.903  15.151 -0.4572 -0.2602 -0.5335
  638MPD2    H5 9453   1.063   1.835  15.099  2.8499 -3.3613  0.0103
  638MPD2    N1 9454   1.092   2.209  14.781 -0.1955  0.1620 -0.4300
  638MPD2    H7 9455   1.159   2.276  14.745 -2.8191  2.3099 -1.2684
  639TMC3    C1 9456   1.125   1.719  15.296 -0.3506  0.1238  0.8310
  639TMC3    C2 9457   1.008   1.677  15.243  0.0198  0.1830 -0.9925
  639TMC3    C3 9458   0.968   1.548  15.284 -0.0357 -0.9616 -0.2308
  639TMC3    C4 9459   1.204   1.643  15.380 -0.1972 -0.6564 -0.5876
  639TMC3    C5 9460   1.156   1.519  15.426 -0.2372 -0.5929 -0.4564
  639TMC3    C6 9461   1.047   1.470  15.365 -0.3273  0.5066  0.6492
  639TMC3     C 9462   1.184   1.854  15.260 -0.0851  0.0643  0.4519
  639TMC3     O 9463   1.277   1.895  15.327 -0.0083  0.5721 -0.3742
  639TMC3     H 9464   0.958   1.736  15.168 -0.1388 -0.7041 -1.5793
  639TMC3    H1 9465   1.284   1.694  15.433  0.7232 -2.0957 -0.6022
  639TMC3    H2 9466   1.030   1.363  15.372 -1.7003  0.7235  0.6650
  639TMC3    C7 9467   1.256   1.415  15.445 -0.6173  0.0201  0.4243
  639TMC3    C8 9468   0.888   1.474  15.190  0.1300  0.0259 -0.3194
  639TMC3    O1 9469   1.236   1.319  15.523  0.1584 -0.0529 -0.7662
  639TMC3    O2 9470   0.912   1.358  15.159  0.1145 -0.1365 -0.2828
  640MPD2     C 9471   1.646   0.564   9.668  0.2230 -0.1655 -0.7655
  640MPD2    C1 9472   1.736   0.628   9.590  0.0430 -0.4910  0.7358
  640MPD2    C2 9473   1.705   0.759   9.551  0.0367  0.7131  0.2508
  640MPD2    C3 9474   1.589   0.823   9.599 -0.6547  0.2718 -0.1530
  640MPD2    C4 9475   1.503   0.756   9.678  0.0215  0.1422  0.4425
  640MPD2    C5 9476   1.534   0.630   9.712  0.0633 -0.7240 -0.4410
  640MPD2     H 9477   1.767   0.822   9.489  1.3920 -0.1450  0.7313
  640MPD2    H1 9478   1.411   0.798   9.717 -0.6037 -1.5831  0.8359
  640MPD2    H2 9479   1.656   0.460   9.695 -0.3584  0.0401  0.2368
  640MPD2    H3 9480   1.461   0.569   9.765 -0.4071  1.5804  1.5706
  640MPD2     N 9481   1.560   0.960   9.583  1.1018 -0.8243  0.0679
  640MPD2    H5 9482   1.504   0.993   9.662  0.9165  0.3680 -0.5660
  640MPD2    N1 9483   1.859   0.563   9.562 -0.3426  0.9392 -0.3938
  640MPD2    H7 9484   1.878   0.471   9.600  2.6515  1.5013 -0.5287
  641TMC3    C1 9485   2.083   0.541   9.500  1.2810  0.4929  0.3493
  641TMC3    C2 9486   2.090   0.451   9.606  0.5981  0.1594 -0.8268
  641TMC3    C3 9487   2.218   0.425   9.651  0.5860 -0.0970  0.0315
  641TMC3    C4 9488   2.199   0.599   9.454 -0.0696  0.5464 -0.1519
  641TMC3    C5 9489   2.317   0.567   9.506 -0.0885  0.3384 -0.4102
  641TMC3    C6 9490   2.336   0.475   9.606  0.2681  0.2043 -0.1847
  641TMC3     C 9491   1.960   0.617   9.493  0.2388 -0.1579 -0.6091
  641TMC3     O 9492   1.966   0.723   9.438  0.2139 -0.1117  0.1020
  641TMC3     H 9493   2.002   0.405   9.647  1.0857 -0.8512 -0.9074
  641TMC3    H1 9494   2.193   0.667   9.370 -2.1502  1.3580  0.6406
  641TMC3    H2 9495   2.426   0.464   9.666 -1.0037  1.8922  2.0703
  641TMC3    C7 9496   2.435   0.639   9.466  0.3906 -0.5771 -0.3193
  641TMC3    C8 9497   2.218   0.329   9.763  0.1408  0.3446 -0.5526
  641TMC3    O1 9498   2.427   0.742   9.400 -0.6249  0.6466  0.0269
  641TMC3    O2 9499   2.127   0.337   9.844 -0.2709  0.2439  0.0767
  642TMC3    C1 9500   3.141   1.861  12.523 -0.3132  0.4486 -0.2684
  642TMC3    C2 9501   3.235   1.899  12.424 -0.3675  0.4701  0.2095
  642TMC3    C3 9502   3.286   1.792  12.352 -0.4647  0.8286 -0.5960
  642TMC3    C4 9503   3.101   1.732  12.541  0.4169  0.4595  0.3362
  642TMC3    C5 9504   3.154   1.634  12.468 -0.1625 -0.7058 -0.4404
  642TMC3    C6 9505   3.251   1.662  12.373  0.3899  0.2534 -0.6442
  642TMC3     C 9506   3.047   1.969  12.566  0.0704  0.1858 -0.7977
  642TMC3     O 9507   2.944   1.945  12.623  0.1765  0.0321 -0.4565
  642TMC3     H 9508   3.265   2.002  12.406 -1.8269  0.9553  0.5752
  642TMC3    H1 9509   3.008   1.714  12.593  1.1260 -1.8853  0.7893
  642TMC3    H2 9510   3.308   1.581  12.329 -0.0818 -1.2682  1.5070
  642TMC3    C7 9511   3.110   1.495  12.474  0.5777 -0.3829  0.0482
  642TMC3    C8 9512   3.391   1.818  12.262  0.1201 -0.0633  0.5373
  642TMC3    O1 9513   3.137   1.423  12.376 -0.3588 -0.6063 -0.5598
  642TMC3    O2 9514   3.454   1.919  12.290  0.5699 -0.1216  0.0422
  643TMC3    C1 9515   1.973   0.816   0.512 -0.5012  0.6641  0.2674
  643TMC3    C2 9516   1.850   0.814   0.455 -0.6787 -0.2404 -0.2366
  643TMC3    C3 9517   1.843   0.818   0.321 -0.4006 -0.0771 -0.0304
  643TMC3    C4 9518   2.086   0.822   0.438  0.6051 -0.1588 -0.3301
  643TMC3    C5 9519   2.084   0.808   0.301  0.5818 -0.6273 -0.2431
  643TMC3    C6 9520   1.957   0.818   0.239  0.5601 -0.5199 -0.1716
  643TMC3     C 9521   1.978   0.830   0.653 -0.7650  0.1458  1.1029
  643TMC3     O 9522   1.888   0.894   0.713 -0.1627  0.5893  0.6595
  643TMC3     H 9523   1.761   0.830   0.516 -1.1147  1.8405 -1.4085
  643TMC3    H1 9524   2.179   0.859   0.480 -1.4180  3.3384  1.1008
  643TMC3    H2 9525   1.960   0.827   0.131 -0.2969  0.6048 -0.0976
  643TMC3    C7 9526   2.183   0.885   0.229 -0.6170 -0.0946  0.2368
  643TMC3    C8 9527   1.742   0.910   0.265  0.1336 -0.1464  0.7688
  643TMC3    O1 9528   2.141   0.946   0.132 -0.0997 -0.0705 -0.3941
  643TMC3    O2 9529   1.689   0.874   0.161  0.9711 -0.0786 -0.5590
  644MPD2     C 9530   3.167   1.053   9.913 -0.2067 -0.6933  0.1474
  644MPD2    C1 9531   3.057   1.123   9.874  0.0055  0.5366  0.1283
  644MPD2    C2 9532   3.062   1.255   9.892  0.0409 -0.1048  0.2346
  644MPD2    C3 9533   3.170   1.327   9.942  0.0736 -0.4081  0.0736
  644MPD2    C4 9534   3.278   1.249   9.980  0.0444 -0.0420  0.3253
  644MPD2    C5 9535   3.274   1.112   9.960 -0.3854 -0.6055  0.7487
  644MPD2     H 9536   2.978   1.312   9.854  0.2804  0.6070  0.7676
  644MPD2    H1 9537   3.368   1.292  10.023  0.6929  1.3567 -2.4739
  644MPD2    H2 9538   3.169   0.949   9.886  0.9907 -0.5737 -0.2361
  644MPD2    H3 9539   3.361   1.051   9.986  1.1330  0.4817 -1.7785
  644MPD2     N 9540   3.171   1.472   9.937  0.6292 -0.6793 -0.0664
  644MPD2    H5 9541   3.087   1.521   9.908  2.0074  2.2117  0.8603
  644MPD2    N1 9542   2.946   1.059   9.814  0.1252 -0.0784  0.2073
  644MPD2    H7 9543   2.952   0.957   9.816  0.2010 -0.0523  1.2018
  645TMC3    C1 9544   3.248   1.687   9.941 -0.2273  0.5767 -0.2114
  645TMC3    C2 9545   3.304   1.774  10.033 -0.8690 -0.4363 -0.4810
  645TMC3    C3 9546   3.276   1.904  10.021 -0.0640  0.5949 -0.0943
  645TMC3    C4 9547   3.172   1.733   9.837  0.1843  0.3043  0.0313
  645TMC3    C5 9548   3.143   1.865   9.828 -0.5112 -0.0768  0.2592
  645TMC3    C6 9549   3.199   1.956   9.916  0.0002 -0.0046  1.0075
  645TMC3     C 9550   3.276   1.547   9.964 -0.4366  0.0832  0.1558
  645TMC3     O 9551   3.371   1.512  10.030  0.0047 -0.7154  0.8091
  645TMC3     H 9552   3.379   1.735  10.100  0.1990  1.7040 -0.4231
  645TMC3    H1 9553   3.141   1.666   9.758 -0.6252  0.1521  0.4789
  645TMC3    H2 9554   3.182   2.063   9.913 -2.3744 -0.4506 -1.5421
  645TMC3    C7 9555   3.063   1.916   9.724  0.5927 -0.5131 -0.0493
  645TMC3    C8 9556   3.351   1.996  10.100  0.6725 -0.9771  0.2568
  645TMC3    O1 9557   3.101   2.020   9.674 -0.0522  0.2673 -0.0607
  645TMC3    O2 9558   3.371   2.111  10.058 -0.2444  0.2400 -0.1173
  646MPD2     C 9559   1.197   0.594  14.615  0.5833 -0.3976 -0.4499
  646MPD2    C1 9560   1.165   0.677  14.726  0.3220 -0.2770 -0.1647
  646MPD2    C2 9561   1.076   0.789  14.708 -0.0593  0.5775  0.3370
  646MPD2    C3 9562   1.023   0.810  14.585  0.0077 -0.1547  0.4898
  646MPD2    C4 9563   1.058   0.725  14.482 -0.5082  0.5786  0.4416
  646MPD2    C5 9564   1.149   0.626  14.491  0.1868  0.7163 -0.2814
  646MPD2     H 9565   1.047   0.852  14.791  0.5176  1.3443 -0.0506
  646MPD2    H1 9566   1.013   0.736  14.383 -0.2590 -0.7066  0.1769
  646MPD2    H2 9567   1.258   0.505  14.617  0.1965 -0.6563 -0.1138
  646MPD2    H3 9568   1.173   0.571  14.401 -2.3317 -1.4807  0.3669
  646MPD2     N 9569   0.915   0.897  14.571  0.5726 -0.2745  0.0547
  646MPD2    H5 9570   0.864   0.934  14.651 -1.4505  0.4149 -1.5645
  646MPD2    N1 9571   1.223   0.636  14.845 -0.1322  0.5250 -0.0747
  646MPD2    H7 9572   1.290   0.560  14.844  1.4764  1.9092  2.4089
  647TMC3    C1 9573   1.334   0.691  15.046  0.7832  0.1111 -0.2795
  647TMC3    C2 9574   1.315   0.711  15.178  0.0345  0.0086  0.0253
  647TMC3    C3 9575   1.417   0.705  15.265 -0.2084 -0.2428  0.0714
  647TMC3    C4 9576   1.459   0.685  14.988  0.0890 -1.0710  0.5015
  647TMC3    C5 9577   1.561   0.675  15.078  0.5178  0.5435 -0.4285
  647TMC3    C6 9578   1.546   0.694  15.219  0.1484 -0.2012 -0.7923
  647TMC3     C 9579   1.218   0.714  14.956 -0.0433  0.0902  0.5856
  647TMC3     O 9580   1.133   0.788  14.999 -0.2937 -0.0590  0.0405
  647TMC3     H 9581   1.213   0.710  15.214  0.6222  0.4149  1.7258
  647TMC3    H1 9582   1.473   0.662  14.882  1.0196 -0.6908  0.5443
  647TMC3    H2 9583   1.628   0.665  15.284  0.0562  1.9175  0.2497
  647TMC3    C7 9584   1.685   0.609  15.038 -0.6551  0.1290  0.9153
  647TMC3    C8 9585   1.391   0.598  15.359  0.6867 -0.3254  0.0602
  647TMC3    O1 9586   1.786   0.631  15.105  0.7297  0.4080  0.5887
  647TMC3    O2 9587   1.302   0.519  15.326  0.5477  0.3382  0.2483
  648TMC3    C1 9588   0.866   3.267  15.981  0.1427  0.7656  0.0834
  648TMC3    C2 9589   0.854   3.142  15.923 -0.2482  0.5415 -0.2732
  648TMC3    C3 9590   0.755   3.134  15.829  0.0814  0.0233 -0.0215
  648TMC3    C4 9591   0.792   3.378  15.960 -0.1354  0.2535 -0.5746
  648TMC3    C5 9592   0.690   3.358  15.876 -0.1896 -0.0895 -0.3812
  648TMC3    C6 9593   0.674   3.241  15.807  0.3205  0.0488 -0.1554
  648TMC3     C 9594   0.977   3.289  16.068  0.6645 -0.1915 -0.2715
  648TMC3     O 9595   1.072   3.210  16.058  0.8466  0.7465  0.1184
  648TMC3     H 9596   0.910   3.059  15.966  1.0602  1.8749  0.6186
  648TMC3    H1 9597   0.819   3.473  16.004 -1.7080  0.2973  0.2550
  648TMC3    H2 9598   0.600   3.239  15.727 -0.3686  1.7543  0.4322
  648TMC3    C7 9599   0.591   3.461  15.849 -0.2808 -0.5900  0.1531
  648TMC3    C8 9600   0.742   3.022  15.736  0.4811  0.5540 -0.7031
  648TMC3    O1 9601   0.527   3.460  15.745  0.1256 -0.3702  0.0024
  648TMC3    O2 9602   0.639   3.001  15.670  0.5024 -0.7745 -0.1187
  649TMC3    C1 9603   4.571   4.361  12.850 -0.5698  0.4707 -0.5792
  649TMC3    C2 9604   4.670   4.461  12.871  0.1181  0.8895  0.0993
  649TMC3    C3 9605   0.004   4.466  12.998 -0.3757  0.1064  0.5775
  649TMC3    C4 9606   4.528   4.275  12.952  0.1223 -0.2521 -0.0000
  649TMC3    C5 9607   4.590   4.287  13.076  0.5588  0.8734 -0.6546
  649TMC3    C6 9608   4.688   4.381  13.093 -0.2772  0.6848  0.3363
  649TMC3     C 9609   4.519   4.320  12.718  0.0053  0.6893 -0.0462
  649TMC3     O 9610   4.440   4.230  12.722  0.2402  0.0352  0.4356
  649TMC3     H 9611   4.678   4.538  12.796  1.1362 -1.4068 -2.1589
  649TMC3    H1 9612   4.452   4.198  12.945 -0.9864  1.0219 -1.9198
  649TMC3    H2 9613   0.020   4.378  13.188 -1.1264  2.3561  0.8778
  649TMC3    C7 9614   4.570   4.198  13.190  0.4228  0.6775  0.3437
  649TMC3    C8 9615   0.130   4.532  13.005  0.2818  0.3136 -0.0506
  649TMC3    O1 9616   4.638   4.224  13.287  0.1692  0.4509  0.6505
  649TMC3    O2 9617   0.177   4.547  13.119  0.9779  0.4019 -0.1959
  650TMC3    C1 9618   2.571   1.355  13.004 -0.6580  0.0312 -0.6095
  650TMC3    C2 9619   2.523   1.475  13.043 -0.5478  0.4102  0.9642
  650TMC3    C3 9620   2.436   1.543  12.961  0.7706  0.1696 -0.4622
  650TMC3    C4 9621   2.540   1.315  12.874  0.1402 -0.6377 -0.0820
  650TMC3    C5 9622   2.464   1.395  12.792  0.2962  0.5584 -0.4508
  650TMC3    C6 9623   2.400   1.510  12.831 -0.0991 -0.2296  0.4922
  650TMC3     C 9624   2.675   1.292  13.083 -0.2120  0.1881  0.5429
  650TMC3     O 9625   2.731   1.365  13.165 -0.7009 -0.0379 -0.2690
  650TMC3     H 9626   2.531   1.513  13.144 -0.4082 -0.1675  1.1686
  650TMC3    H1 9627   2.602   1.237  12.831  1.3225  1.0216 -1.3723
  650TMC3    H2 9628   2.329   1.557  12.764  1.5249 -1.6921 -2.2645
  650TMC3    C7 9629   2.468   1.353  12.654 -0.2178 -0.3953 -0.2483
  650TMC3    C8 9630   2.388   1.663  13.027 -0.4577 -0.4264  0.1474
  650TMC3    O1 9631   2.514   1.239  12.628  0.1529  0.1057  0.3525
  650TMC3    O2 9632   2.446   1.729  13.109 -0.5072 -0.5726  0.1344
  651MPD2     C 9633   1.079   2.543  10.732  0.0797  0.4475 -0.4828
  651MPD2    C1 9634   1.053   2.660  10.805 -0.3051  0.4282 -0.4399
  651MPD2    C2 9635   1.157   2.750  10.829  0.7983 -0.8947 -0.2468
  651MPD2    C3 9636   1.284   2.721  10.783  0.3216  0.0484  0.8502
  651MPD2    C4 9637   1.309   2.596  10.728  0.1101  0.1679 -0.3565
  651MPD2    C5 9638   1.208   2.514  10.690  0.0445 -0.0253 -0.0754
  651MPD2     H 9639   1.143   2.841  10.885  0.0926 -0.9857 -0.2675
  651MPD2    H1 9640   1.406   2.560  10.693  0.2719  1.0835 -0.8449
  651MPD2    H2 9641   1.005   2.472  10.698  0.8943  0.2192 -1.7961
  651MPD2    H3 9642   1.229   2.433  10.622 -0.4008  0.3880 -0.7067
  651MPD2     N 9643   1.393   2.812  10.804 -0.4301  0.5128 -1.2934
  651MPD2    H5 9644   1.370   2.902  10.845  2.6615  0.5007  0.4126
  651MPD2    N1 9645   0.927   2.704  10.851  0.1164 -0.3084  0.0599
  651MPD2    H7 9646   0.938   2.794  10.897 -0.1372 -0.6814  0.8497
  652TMC3    C1 9647   1.788   3.062  10.802  0.5170 -0.5029  0.0546
  652TMC3    C2 9648   1.730   2.940  10.789 -0.1036  0.1916 -0.1987
  652TMC3    C3 9649   1.591   2.934  10.784  0.5200  0.6436 -0.5929
  652TMC3    C4 9650   1.715   3.187  10.814  0.5177 -0.0097 -0.5123
  652TMC3    C5 9651   1.584   3.174  10.801 -0.3899  0.2502  0.3608
  652TMC3    C6 9652   1.520   3.053  10.780  0.1414 -0.0366  0.5126
  652TMC3     C 9653   1.926   3.063  10.785 -0.3065  0.1770 -0.0368
  652TMC3     O 9654   1.990   2.972  10.836 -0.2027 -0.1066 -0.0508
  652TMC3     H 9655   1.790   2.850  10.778  1.7964  1.3107  0.8952
  652TMC3    H1 9656   1.761   3.279  10.846 -0.0685  0.8188 -2.0565
  652TMC3    H2 9657   1.413   3.062  10.776  0.2246  0.7884  0.0775
  652TMC3    C7 9658   1.502   3.279  10.854 -0.1064 -0.2691 -0.6167
  652TMC3    C8 9659   1.523   2.810  10.751  0.0214  0.0303 -0.0853
  652TMC3    O1 9660   1.394   3.255  10.900 -0.0317  0.3226 -0.5829
  652TMC3    O2 9661   1.574   2.719  10.689  0.0301 -0.3874  0.0876
  653MPD2     C 9662   0.059   2.945   0.113 -0.0370 -0.3293 -0.3085
  653MPD2    C1 9663   0.060   3.046   0.015 -0.0313 -0.0060 -0.8227
  653MPD2    C2 9664   4.704   3.034  17.585 -0.0584  0.1233 -0.7233
  653MPD2    C3 9665   4.636   2.921  17.567  0.2465 -1.0916  0.0790
  653MPD2    C4 9666   4.632   2.822  17.669 -0.5502 -0.3835 -0.1349
  653MPD2    C5 9667   4.709   2.832   0.094 -0.4281 -0.3819  0.9943
  653MPD2     H 9668   4.704   3.118  17.516 -0.8307  0.2084 -0.6152
  653MPD2    H1 9669   4.567   2.736  17.657 -4.0390  2.0632  1.1260
  653MPD2    H2 9670   0.135   2.947   0.191 -2.0550  1.5285  1.5860
  653MPD2    H3 9671   0.005   2.754   0.168 -0.4364 -0.1055  1.2852
  653MPD2     N 9672   4.552   2.912  17.455 -0.1397  0.0896  0.2832
  653MPD2    H5 9673   4.572   2.992  17.397  3.0248 -1.0715 -0.2047
  653MPD2    N1 9674   0.137   3.163   0.054 -0.2685  0.5515 -0.4340
  653MPD2    H7 9675   0.160   3.173   0.152 -1.2784 -1.6076  0.0168
  654TMC3    C1 9676   4.415   2.818  17.283 -0.4825  0.2082 -0.4702
  654TMC3    C2 9677   4.373   2.941  17.255 -0.0031  0.3337  0.0118
  654TMC3    C3 9678   4.289   2.957  17.149  0.1570 -0.8443  0.0667
  654TMC3    C4 9679   4.380   2.709  17.211 -0.1628 -0.5363 -0.4807
  654TMC3    C5 9680   4.293   2.731  17.110 -0.4274 -0.3436  0.3314
  654TMC3    C6 9681   4.242   2.849  17.072  0.5321  0.2618  0.0566
  654TMC3     C 9682   4.487   2.798  17.412 -0.5692  0.0532 -0.1965
  654TMC3     O 9683   4.490   2.679  17.444 -0.5108  0.4191  0.0037
  654TMC3     H 9684   4.388   3.024  17.322 -0.5186  1.0775 -0.8016
  654TMC3    H1 9685   4.409   2.610  17.245 -1.6907 -1.1914 -1.0703
  654TMC3    H2 9686   4.204   2.874  16.974  4.1276  1.7799 -0.9504
  654TMC3    C7 9687   4.271   2.618  17.019  0.0180 -0.3962  0.1065
  654TMC3    C8 9688   4.272   3.095  17.097  0.1514  0.3233 -0.6515
  654TMC3    O1 9689   4.232   2.645  16.905 -0.0713  0.1526 -0.6608
  654TMC3    O2 9690   4.375   3.158  17.103 -0.2765 -0.4522 -0.1727
  655MPD2     C 9691   1.266   3.885  15.420  0.6251 -0.4808 -0.5125
  655MPD2    C1 9692   1.137   3.839  15.422  0.1266  0.2773  0.0525
  655MPD2    C2 9693   1.085   3.763  15.319  0.2160  0.2030  0.3442
  655MPD2    C3 9694   1.165   3.719  15.219 -0.3800 -0.2114 -0.4125
  655MPD2    C4 9695   1.294   3.757  15.215  0.0089 -0.3527 -0.6706
  655MPD2    C5 9696   1.339   3.842  15.310  0.0024 -0.0564 -0.4371
  655MPD2     H 9697   0.985   3.723  15.328  0.0212  0.3661 -1.2202
  655MPD2    H1 9698   1.364   3.717  15.143  0.9004  0.3445 -0.1985
  655MPD2    H2 9699   1.307   3.943  15.502  2.5567 -1.0128 -1.0939
  655MPD2    H3 9700   1.446   3.851  15.320 -0.2105  2.0247 -0.1211
  655MPD2     N 9701   1.127   3.621  15.125 -0.5359  0.0930 -0.0872
  655MPD2    H5 9702   1.200   3.594  15.060  0.5353 -0.3491  1.2841
  655MPD2    N1 9703   1.046   3.878  15.526  0.0327  0.1396  0.0593
  655MPD2    H7 9704   0.951   3.844  15.522  0.4563 -0.7083 -2.6025
  656TMC3    C1 9705   0.968   3.972  15.730  0.0536 -0.1681  0.3214
  656TMC3    C2 9706   0.969   3.924  15.860 -0.3483  0.3854  0.4243
  656TMC3    C3 9707   0.868   3.959  15.945  0.1123  0.5911 -1.0576
  656TMC3    C4 9708   0.874   4.055  15.683 -0.2622  0.0523 -0.4962
  656TMC3    C5 9709   0.770   4.084  15.763  0.3590 -0.0169 -0.3667
  656TMC3    C6 9710   0.763   4.039  15.895 -0.2648 -0.1918  0.3909
  656TMC3     C 9711   1.080   3.932  15.650  0.2049 -0.6646  0.2422
  656TMC3     O 9712   1.185   3.962  15.697  0.2054 -0.0700  0.6494
  656TMC3     H 9713   1.046   3.851  15.883 -2.0468 -1.0890  1.5133
  656TMC3    H1 9714   0.884   4.083  15.579 -0.8239 -1.7349 -1.0367
  656TMC3    H2 9715   0.685   4.054  15.970 -0.2181  0.8545  0.2354
  656TMC3    C7 9716   0.657   4.150  15.703 -0.0693  0.2961 -0.0296
  656TMC3    C8 9717   0.857   3.882  16.062  0.3968  0.1003 -0.1341
  656TMC3    O1 9718   0.657   4.152  15.583 -0.5736 -0.1231 -0.0388
  656TMC3    O2 9719   0.887   3.763  16.047 -0.0869  0.4572 -0.1565
  657TMC3    C1 9720   0.051   2.794  14.985 -0.0796 -0.1124  0.0851
  657TMC3    C2 9721   0.048   2.700  15.080 -0.1566  0.3627 -0.5531
  657TMC3    C3 9722   4.714   2.730  15.202 -0.3226 -0.6874 -0.2540
  657TMC3    C4 9723   4.717   2.919  14.995  0.0541  0.4115 -0.7309
  657TMC3    C5 9724   4.649   2.940  15.109  0.8091 -0.3474 -0.0087
  657TMC3    C6 9725   4.654   2.856  15.217  0.2137  0.3661 -0.0152
  657TMC3     C 9726   0.142   2.781  14.869 -0.0791  0.4209 -1.2291
  657TMC3     O 9727   0.141   2.853  14.765 -0.4328  0.6340  0.1707
  657TMC3     H 9728   0.083   2.600  15.057 -1.0392 -0.4833  1.7887
  657TMC3    H1 9729   4.717   2.982  14.906 -0.3487  0.1222 -0.9397
  657TMC3    H2 9730   4.615   2.887  15.313  1.5670 -0.5125  0.8276
  657TMC3    C7 9731   4.562   3.054  15.119  0.6625  0.1280 -0.0012
  657TMC3    C8 9732   4.640   2.622  15.272  0.1346  0.1823  0.0075
  657TMC3    O1 9733   4.511   3.067  15.229 -0.3120 -0.0629  0.3214
  657TMC3    O2 9734   4.696   2.513  15.282 -0.0978 -0.0313 -0.4861
  658MPD2     C 9735   1.271   3.188  14.456 -0.2890  0.5636  0.2199
  658MPD2    C1 9736   1.221   3.312  14.487 -0.2790  0.1065 -1.1293
  658MPD2    C2 9737   1.234   3.418  14.401  0.1313 -0.0497  0.4373
  658MPD2    C3 9738   1.286   3.396  14.276  0.1497  0.1500  0.0059
  658MPD2    C4 9739   1.335   3.275  14.244  0.6730  0.5013  0.1150
  658MPD2    C5 9740   1.331   3.175  14.338 -0.5098 -0.0592  0.1614
  658MPD2     H 9741   1.192   3.513  14.429 -0.2119  0.6962 -2.5685
  658MPD2    H1 9742   1.390   3.261  14.151  2.0754 -0.6403  1.1109
  658MPD2    H2 9743   1.270   3.105  14.525 -3.0968  1.1330  0.8847
  658MPD2    H3 9744   1.373   3.079  14.311 -0.7887 -0.1076 -0.0967
  658MPD2     N 9745   1.282   3.503  14.185  0.3124 -0.3331  0.1500
  658MPD2    H5 9746   1.228   3.583  14.216 -2.8810 -1.6079 -2.1532
  658MPD2    N1 9747   1.165   3.325  14.614 -0.2483 -0.2115 -0.0861
  658MPD2    H7 9748   1.145   3.234  14.654  0.8512  0.1214  1.2344
  659TMC3    C1 9749   1.048   3.411  14.791 -0.0092  0.4105  0.3899
  659TMC3    C2 9750   1.066   3.493  14.896  0.2017  1.0138 -0.2895
  659TMC3    C3 9751   0.986   3.476  15.007 -0.2375 -0.0403 -0.1640
  659TMC3    C4 9752   0.942   3.326  14.786  0.8025  0.7151  0.0909
  659TMC3    C5 9753   0.854   3.325  14.892  0.2296 -1.0966  0.3881
  659TMC3    C6 9754   0.871   3.399  15.007  0.2489  0.5791 -0.3702
  659TMC3     C 9755   1.133   3.438  14.679  0.0450 -0.6956 -0.7323
  659TMC3     O 9756   1.195   3.541  14.668 -0.3223 -0.6909 -0.1571
  659TMC3     H 9757   1.152   3.558  14.895  2.7139 -2.3349 -0.8804
  659TMC3    H1 9758   0.918   3.281  14.690  1.9022 -1.4007  0.7969
  659TMC3    H2 9759   0.806   3.402  15.093  0.5514 -1.4443 -0.0900
  659TMC3    C7 9760   0.725   3.257  14.874  0.3727 -0.2540  0.3230
  659TMC3    C8 9761   0.997   3.566  15.118 -0.8376  0.1655 -0.3067
  659TMC3    O1 9762   0.653   3.278  14.966  0.6179 -0.1337  0.2408
  659TMC3    O2 9763   0.906   3.565  15.198 -0.1135 -0.8218 -0.5403
  660MPD2     C 9764   4.050   1.952  12.729  0.6175 -0.2001  0.2223
  660MPD2    C1 9765   3.946   2.044  12.731  0.5541 -0.0419 -0.0632
  660MPD2    C2 9766   3.849   2.029  12.826  0.4317  0.5733 -0.7356
  660MPD2    C3 9767   3.838   1.905  12.902  0.2111 -0.4048  0.4640
  660MPD2    C4 9768   3.940   1.815  12.893  0.0530  0.3389  0.3510
  660MPD2    C5 9769   4.046   1.845  12.811  0.0185  0.5405  0.2324
  660MPD2     H 9770   3.775   2.109  12.833  0.3228  0.5235 -1.3401
  660MPD2    H1 9771   3.949   1.731  12.961  1.5819 -0.1695 -0.4647
  660MPD2    H2 9772   4.134   1.959  12.661  1.0994 -1.0494  0.7288
  660MPD2    H3 9773   4.132   1.780  12.809  0.3194  0.9045  1.7458
  660MPD2     N 9774   3.732   1.874  12.992  0.1959  0.3619 -0.0493
  660MPD2    H5 9775   3.727   1.780  13.029 -0.6076  0.2920 -0.3505
  660MPD2    N1 9776   3.962   2.151  12.642  0.5326  0.1038  0.3485
  660MPD2    H7 9777   4.031   2.132  12.570 -0.4510  1.6647 -1.0197
  661TMC3    C1 9778   3.925   2.362  12.534 -0.5929  0.0310  0.7042
  661TMC3    C2 9779   4.025   2.327  12.446 -0.3101  0.4099  0.2768
  661TMC3    C3 9780   4.014   2.361  12.311 -0.0082  0.0534  0.5282
  661TMC3    C4 9781   3.817   2.436  12.492 -0.1350  1.1722  0.0069
  661TMC3    C5 9782   3.808   2.480  12.361  0.6315 -0.1298 -0.0192
  661TMC3    C6 9783   3.907   2.442  12.270  0.5700  0.7174 -0.6573
  661TMC3     C 9784   3.895   2.272  12.647 -0.5667  0.4363  0.1095
  661TMC3     O 9785   3.814   2.314  12.730 -0.2230  0.7989 -1.1919
  661TMC3     H 9786   4.120   2.285  12.475  0.8418  1.8763 -1.3370
  661TMC3    H1 9787   3.732   2.451  12.556 -1.1505  1.4889 -1.4188
  661TMC3    H2 9788   3.901   2.474  12.167 -0.2931 -0.7934 -1.0806
  661TMC3    C7 9789   3.667   2.484  12.322  0.9326  0.8135  0.5361
  661TMC3    C8 9790   4.100   2.323  12.203  0.3847  0.7064 -0.2886
  661TMC3    O1 9791   3.601   2.567  12.380  0.4819 -0.0268  0.2758
  661TMC3    O2 9792   4.096   2.390  12.105 -0.6702  0.7908  0.4311
  662MPD2     C 9793   4.040   1.924  17.038  0.4630  0.0134  0.1261
  662MPD2    C1 9794   4.013   1.923  17.171  0.2606 -0.3522  0.3678
  662MPD2    C2 9795   3.994   2.041  17.235  1.1114 -0.0202 -0.1110
  662MPD2    C3 9796   3.996   2.165  17.175  0.6460  0.0070  0.3231
  662MPD2    C4 9797   4.008   2.169  17.042 -0.4413 -0.2527 -0.4412
  662MPD2    C5 9798   4.027   2.048  16.977  0.3787 -0.3537  0.3284
  662MPD2     H 9799   3.985   2.033  17.343 -1.7226  0.5257 -0.3013
  662MPD2    H1 9800   4.012   2.261  16.985  1.9209  0.5547  1.0629
  662MPD2    H2 9801   4.081   1.840  16.983  0.5149  0.4034 -0.4359
  662MPD2    H3 9802   4.057   2.047  16.873  1.8775  1.7048  0.7455
  662MPD2     N 9803   3.968   2.286  17.251 -0.5554 -0.4931  0.5586
  662MPD2    H5 9804   3.941   2.367  17.197  1.0904 -1.2744 -1.4134
  662MPD2    N1 9805   4.015   1.811  17.259  0.2022 -0.2313 -0.4263
  662MPD2    H7 9806   4.008   1.826  17.359  0.1511 -1.6991 -0.2119
  663TMC3    C1 9807   4.027   1.583  17.315  0.2147  0.2578  0.2953
  663TMC3    C2 9808   3.942   1.602  17.422  0.6724 -0.3222  0.2927
  663TMC3    C3 9809   3.912   1.504  17.517 -0.1619 -0.2970  0.1310
  663TMC3    C4 9810   4.048   1.457  17.270  0.7511 -0.0691  0.1410
  663TMC3    C5 9811   3.984   1.359  17.345 -0.0665  0.2623  0.0049
  663TMC3    C6 9812   3.930   1.375  17.471  0.3787  0.3101  0.1155
  663TMC3     C 9813   4.042   1.685  17.217 -0.0609  0.1589 -0.5086
  663TMC3     O 9814   4.056   1.648  17.103 -0.2761  0.0442 -0.3057
  663TMC3     H 9815   3.945   1.703  17.463 -0.2390 -0.9538  1.8999
  663TMC3    H1 9816   4.095   1.438  17.174  0.8993  1.8879 -0.1664
  663TMC3    H2 9817   3.869   1.293  17.506 -0.4175  0.0331 -1.8862
  663TMC3    C7 9818   3.988   1.226  17.285  0.2229  0.1492  0.0983
  663TMC3    C8 9819   3.774   1.512  17.567 -0.0721 -0.0334 -0.0074
  663TMC3    O1 9820   4.043   1.216  17.174 -0.5695  0.3309  0.1131
  663TMC3    O2 9821   3.688   1.551  17.487  0.3171 -0.9269 -0.2325
  664MPD2     C 9822   2.147   4.617   0.093 -0.4858  0.9578  0.6664
  664MPD2    C1 9823   2.238   4.694   0.157  0.0559 -0.2521  0.3792
  664MPD2    C2 9824   2.227   4.704   0.296  0.6011 -0.4977 -0.2979
  664MPD2    C3 9825   2.146   4.633   0.377 -0.3576 -0.6421  0.2804
  664MPD2    C4 9826   2.064   4.547   0.306  0.2782  0.3107  0.3644
  664MPD2    C5 9827   2.063   4.544   0.167 -0.2888  0.4991  0.4700
  664MPD2     H 9828   2.299   0.054   0.333 -0.3234  0.5876 -0.5946
  664MPD2    H1 9829   1.987   4.493   0.359 -0.8250  0.4987 -1.0459
  664MPD2    H2 9830   2.147   4.613  17.673 -0.0427 -0.5029  0.7175
  664MPD2    H3 9831   1.992   4.480   0.115 -0.9751  1.9789 -0.3824
  664MPD2     N 9832   2.139   4.657   0.512 -0.0102 -0.0041 -0.7440
  664MPD2    H5 9833   2.204   0.001   0.553 -1.1480  1.1746 -0.8189
  664MPD2    N1 9834   2.332   0.053   0.091  0.4292  0.6173 -0.1316
  664MPD2    H7 9835   2.376   0.125   0.147 -1.1990  2.8323 -1.6672
  665TMC3    C1 9836   2.083   4.634   0.740 -0.0179  0.6810  0.1943
  665TMC3    C2 9837   2.001   4.569   0.830  0.6126  0.0564 -1.2522
  665TMC3    C3 9838   2.020   4.591   0.962  0.8536  0.2573 -0.5447
  665TMC3    C4 9839   2.183   4.715   0.780  0.0075 -0.0231  0.0259
  665TMC3    C5 9840   2.200   0.012   0.915 -0.0810 -0.2803 -0.3377
  665TMC3    C6 9841   2.119   4.676   1.006  0.1753  0.9238 -0.5260
  665TMC3     C 9842   2.070   4.585   0.602 -0.0279 -0.6513  1.0118
  665TMC3     O 9843   2.006   4.485   0.573 -0.7567  0.5530  0.4455
  665TMC3     H 9844   1.918   4.506   0.798  0.3487  0.3726 -1.1874
  665TMC3    H1 9845   2.251   0.039   0.710 -0.7564  1.3313  0.1573
  665TMC3    H2 9846   2.122   4.687   1.114 -1.9028 -3.8154  0.0227
  665TMC3    C7 9847   2.308   0.098   0.955  0.1165 -0.0834 -0.6757
  665TMC3    C8 9848   1.945   4.508   1.063 -0.2416  0.6420 -0.0032
  665TMC3    O1 9849   2.394   0.117   0.867  0.3403  0.1494  0.5735
  665TMC3    O2 9850   1.899   4.399   1.032 -1.1693  0.2271 -0.2256
  666TMC3    C1 9851   1.998   0.006   9.888  0.4602  0.5265  0.4351
  666TMC3    C2 9852   2.023   4.622   9.978  0.6232  0.0219  0.4267
  666TMC3    C3 9853   2.005   4.647  10.112  0.3825  0.4590  0.2801
  666TMC3    C4 9854   1.947   0.127   9.938 -0.2942 -0.5911 -0.6204
  666TMC3    C5 9855   1.939   0.148  10.074  0.5273  0.8329  0.2545
  666TMC3    C6 9856   1.977   0.052  10.159  0.6252 -0.3119 -0.3024
  666TMC3     C 9857   1.942   4.699   9.751  0.2088  0.0668 -0.3574
  666TMC3     O 9858   1.965   0.067   9.669  0.1980 -0.1247  0.2450
  666TMC3     H 9859   2.033   4.524   9.933 -1.6471 -0.0628  0.0777
  666TMC3    H1 9860   1.908   0.198   9.866  0.2114 -1.7513 -2.0206
  666TMC3    H2 9861   1.981   0.068  10.267  2.1984 -0.5091 -0.3427
  666TMC3    C7 9862   1.902   0.283  10.112  0.4742  0.4930 -0.0577
  666TMC3    C8 9863   2.037   4.541  10.207  0.6808 -0.5709  0.4422
  666TMC3    O1 9864   1.851   0.292  10.222 -0.5016 -0.1375 -0.5503
  666TMC3    O2 9865   2.003   4.555  10.326  0.3049 -0.1544  0.2691
  667MPD2     C 9866   2.661   4.295  14.823 -0.3696 -0.2807 -0.2327
  667MPD2    C1 9867   2.566   4.353  14.904 -0.4510 -0.0481  0.1536
  667MPD2    C2 9868   2.438   4.343  14.880 -0.4278  0.1360 -1.0822
  667MPD2    C3 9869   2.402   4.277  14.757  0.4629  0.0550 -0.6850
  667MPD2    C4 9870   2.495   4.202  14.691  0.1218  0.8307 -0.9207
  667MPD2    C5 9871   2.625   4.216  14.719  0.1751  0.6759 -0.1423
  667MPD2     H 9872   2.365   4.384  14.949 -1.0561 -1.3840 -0.8563
  667MPD2    H1 9873   2.475   4.133  14.610  1.1435 -1.4742  0.8233
  667MPD2    H2 9874   2.768   4.312  14.834 -0.5448 -0.5534  1.7640
  667MPD2    H3 9875   2.702   4.173  14.657  0.2361 -0.4628  0.7141
  667MPD2     N 9876   2.275   4.253  14.703  0.4268 -0.3491  0.4085
  667MPD2    H5 9877   2.269   4.192  14.622  0.0676  2.8636 -2.0040
  667MPD2    N1 9878   2.601   4.425  15.019 -0.0773  0.5058 -0.2374
  667MPD2    H7 9879   2.525   4.445  15.084  0.0438 -0.2691  0.1378
  668TMC3    C1 9880   2.726   4.516  15.191 -0.4142 -0.0776  0.2626
  668TMC3    C2 9881   2.820   4.613  15.226 -0.1369 -0.2833  0.1648
  668TMC3    C3 9882   2.808   4.653  15.357  0.0737 -0.9468  0.4841
  668TMC3    C4 9883   2.649   4.450  15.281  0.3472  0.6427 -0.2507
  668TMC3    C5 9884   2.656   4.492  15.411 -0.4962  1.0617  0.9223
  668TMC3    C6 9885   2.731   4.588  15.455 -0.3472  0.9896  0.4998
  668TMC3     C 9886   2.716   4.480  15.048  0.2894  0.3013  0.9617
  668TMC3     O 9887   2.818   4.501  14.981  0.2666 -0.0747  0.0575
  668TMC3     H 9888   2.872   4.664  15.146 -0.1415  2.3756  1.8805
  668TMC3    H1 9889   2.590   4.362  15.257  1.2517 -0.0651  0.1169
  668TMC3    H2 9890   2.736   4.600  15.562 -0.5181 -0.2530  0.6478
  668TMC3    C7 9891   2.550   4.451  15.504  0.4188  0.5141 -0.1142
  668TMC3    C8 9892   2.896   0.036  15.413 -0.5206  0.6782  0.3145
  668TMC3    O1 9893   2.505   4.338  15.497  0.1596 -0.0204  0.5523
  668TMC3    O2 9894   2.910   0.032  15.534 -0.1408  0.3896 -0.3658
  669TMC3    C1 9895   1.023   4.677  14.868  0.4025 -0.6180  0.0032
  669TMC3    C2 9896   0.920   4.688  14.782 -0.3174 -0.0072 -0.4672
  669TMC3    C3 9897   0.939   0.006  14.650  0.4797 -0.0271  0.2143
  669TMC3    C4 9898   1.149   4.718  14.819 -0.5049  0.3528 -0.9196
  669TMC3    C5 9899   1.163   0.040  14.689 -0.2031  0.1083  0.0708
  669TMC3    C6 9900   1.062   0.045  14.604  0.2086 -0.0420  0.6371
  669TMC3     C 9901   1.005   4.629  15.007 -0.1791  0.0276 -0.0693
  669TMC3     O 9902   0.900   4.648  15.062  0.0842  0.0307  0.4185
  669TMC3     H 9903   0.823   4.648  14.807  0.6016 -1.6401  0.4774
  669TMC3    H1 9904   1.235   0.006  14.885 -1.6003  0.8352  0.4357
  669TMC3    H2 9905   1.064   0.047  14.496 -3.4555 -0.3805  0.5497
  669TMC3    C7 9906   1.287   0.104  14.643 -0.3650  0.3537  0.1143
  669TMC3    C8 9907   0.837   4.700  14.546 -0.3701  0.0161 -0.2121
  669TMC3    O1 9908   1.363   0.147  14.731  0.3068 -1.1814 -0.2659
  669TMC3    O2 9909   0.874   4.655  14.438  0.4229  0.1172 -0.0073
  670MPD2     C 9910   4.080   2.721  13.416  0.8126 -0.1660  0.0770
  670MPD2    C1 9911   4.170   2.788  13.504  0.5475 -0.1107  0.0833
  670MPD2    C2 9912   4.168   2.758  13.639 -0.0185 -0.3956  0.1098
  670MPD2    C3 9913   4.070   2.679  13.693 -0.1985 -0.2357  0.5374
  670MPD2    C4 9914   3.964   2.633  13.616  0.1473  0.7014  0.8024
  670MPD2    C5 9915   3.976   2.648  13.479  0.4812  0.7361 -0.2222
  670MPD2     H 9916   4.238   2.799  13.711 -1.9680  0.9123  1.2492
  670MPD2    H1 9917   3.880   2.572  13.646  0.0359 -0.3465 -1.6713
  670MPD2    H2 9918   4.100   2.724  13.310 -0.8167 -1.8877 -0.2883
  670MPD2    H3 9919   3.894   2.610  13.418 -0.0019 -1.5135  1.8328
  670MPD2     N 9920   4.073   2.650  13.836  0.3945  0.1458  0.3762
  670MPD2    H5 9921   4.149   2.677  13.898  1.9764  1.1449 -1.9853
  670MPD2    N1 9922   4.281   2.867  13.465  0.1298 -0.4214 -0.3875
  670MPD2    H7 9923   4.352   2.874  13.537  0.5876 -0.8422 -0.7918
  671TMC3    C1 9924   4.014   2.558  14.049 -0.3760  0.5474 -0.1199
  671TMC3    C2 9925   4.141   2.524  14.091  0.1367 -0.4766 -0.3077
  671TMC3    C3 9926   4.155   2.453  14.205  0.0415  0.0889  0.1034
  671TMC3    C4 9927   3.903   2.501  14.112  1.0096 -0.7041  0.2341
  671TMC3    C5 9928   3.927   2.426  14.225 -0.3170 -0.3812 -0.2977
  671TMC3    C6 9929   4.050   2.408  14.278 -0.1181  0.1916 -0.0791
  671TMC3     C 9930   3.990   2.575  13.906  0.1062  0.4081  0.3732
  671TMC3     O 9931   3.891   2.511  13.873 -0.2386  0.3996 -0.2559
  671TMC3     H 9932   4.223   2.524  14.020  1.1911 -1.7443  0.9038
  671TMC3    H1 9933   3.803   2.521  14.075  0.0387 -1.4741  2.4663
  671TMC3    H2 9934   4.059   2.363  14.376  1.8124  0.3420 -0.2001
  671TMC3    C7 9935   3.848   2.308  14.240  0.4776 -0.8356 -0.5240
  671TMC3    C8 9936   4.272   2.359  14.198 -0.0457  0.0627 -0.2289
  671TMC3    O1 9937   3.851   2.246  14.345 -0.0005  0.2201 -0.1400
  671TMC3    O2 9938   4.292   2.319  14.083 -0.3867  0.3026  0.0788
  672MPD2     C 9939   4.367   2.533   1.481 -0.6644  0.2811  0.5856
  672MPD2    C1 9940   4.495   2.478   1.476  0.5842 -0.0830 -0.2924
  672MPD2    C2 9941   4.583   2.499   1.580  1.0954  0.2538  0.3143
  672MPD2    C3 9942   4.552   2.582   1.682  0.5977 -0.3523 -0.6777
  672MPD2    C4 9943   4.428   2.646   1.682 -0.3387 -0.1661  0.2955
  672MPD2    C5 9944   4.336   2.615   1.588  0.3963 -0.6391 -0.4924
  672MPD2     H 9945   4.679   2.451   1.563  1.8912  1.5970  1.0034
  672MPD2    H1 9946   4.413   2.710   1.769  1.2128  1.4140 -0.5822
  672MPD2    H2 9947   4.303   2.511   1.396 -0.9315  0.3396  0.7723
  672MPD2    H3 9948   4.239   2.663   1.596  0.2597 -0.9213 -0.4535
  672MPD2     N 9949   4.638   2.618   1.789 -0.3754 -0.2475 -0.0155
  672MPD2    H5 9950   4.614   2.701   1.842 -2.4336 -0.2176 -1.0062
  672MPD2    N1 9951   4.554   2.429   1.357  0.2842 -0.8177 -0.0804
  672MPD2    H7 9952   4.648   2.390   1.368  1.0515  1.4328  1.3524
  673TMC3    C1 9953   4.583   2.382   1.125  0.0668  0.0738  0.1936
  673TMC3    C2 9954   4.649   2.265   1.153  0.7663 -0.1597 -0.8508
  673TMC3    C3 9955   0.021   2.228   1.055  0.4295  0.6849 -0.6133
  673TMC3    C4 9956   4.607   2.460   1.017 -0.0809 -0.2904  1.0095
  673TMC3    C5 9957   4.695   2.411   0.924 -0.0911 -0.0278  0.2483
  673TMC3    C6 9958   0.045   2.299   0.948 -0.7015  0.8979  0.0505
  673TMC3     C 9959   4.495   2.435   1.231  0.5217 -0.6293  0.5596
  673TMC3     O 9960   4.396   2.497   1.198  0.3326  0.7423  0.8251
  673TMC3     H 9961   4.599   2.202   1.225  0.0581 -1.3076 -2.3559
  673TMC3    H1 9962   4.549   2.551   1.011 -0.4079 -0.5535  0.1788
  673TMC3    H2 9963   0.137   2.267   0.901  0.2413  0.9553  1.8335
  673TMC3    C7 9964   4.720   2.481   0.795  0.1746 -0.5841  0.2465
  673TMC3    C8 9965   0.063   2.086   1.051  0.5370 -0.3878  0.3516
  673TMC3    O1 9966   0.072   2.420   0.718  0.2041  0.2267 -0.1891
  673TMC3    O2 9967   0.089   2.039   0.942 -0.1109 -0.1589  0.2565
  674MPD2     C 9968   4.634   2.069   0.502  0.1513 -0.2434  0.3029
  674MPD2    C1 9969   4.523   2.137   0.452 -0.2769 -0.2375 -0.0482
  674MPD2    C2 9970   4.439   2.203   0.541  0.0765  0.4709  0.0305
  674MPD2    C3 9971   4.455   2.198   0.670 -0.3368 -0.6072  0.3683
  674MPD2    C4 9972   4.562   2.126   0.725  0.2304  0.3911  0.1610
  674MPD2    C5 9973   4.646   2.056   0.638 -0.0944  0.4317 -0.3726
  674MPD2     H 9974   4.358   2.263   0.499  0.8908  1.9632  0.6070
  674MPD2    H1 9975   4.583   2.123   0.831 -0.1432  2.3334  0.2917
  674MPD2    H2 9976   4.693   2.004   0.438  2.0854  0.8129  1.0435
  674MPD2    H3 9977   0.005   1.995   0.678 -1.6299 -0.5841  1.1169
  674MPD2     N 9978   4.366   2.281   0.742  0.0223  1.0462 -0.5550
  674MPD2    H5 9979   4.319   2.350   0.685  0.7064  1.5633 -0.4882
  674MPD2    N1 9980   4.491   2.125   0.315  0.0276  0.3241  0.2822
  674MPD2    H7 9981   4.562   2.080   0.258  1.9801 -0.0786  3.0231
  675TMC3    C1 9982   4.363   2.097   0.117  0.1171  0.0534  0.5440
  675TMC3    C2 9983   4.239   2.048   0.088  0.4000 -1.2152 -0.0146
  675TMC3    C3 9984   4.192   2.041  17.650  0.0374 -0.4424  0.4240
  675TMC3    C4 9985   4.449   2.137   0.021  0.0022 -0.4529 -0.3546
  675TMC3    C5 9986   4.409   2.125  17.581  0.0763  0.1547  0.1417
  675TMC3    C6 9987   4.279   2.076  17.549 -0.3498  0.2834 -0.5004
  675TMC3     C 9988   4.368   2.145   0.254 -0.0024  0.0241  0.3540
  675TMC3     O 9989   4.265   2.190   0.306  0.4215 -0.0212 -0.2812
  675TMC3     H 9990   4.187   1.997   0.169  0.5551  0.3192  1.0555
  675TMC3    H1 9991   4.539   2.188   0.053 -0.7011  0.1736  0.6400
  675TMC3    H2 9992   4.246   2.050  17.449 -2.6667 -1.1164  0.6180
  675TMC3    C7 9993   4.511   2.127  17.473 -0.0793 -0.1786  0.0564
  675TMC3    C8 9994   4.064   1.979  17.622  0.1242  0.1899 -0.5057
  675TMC3    O1 9995   4.487   2.162  17.357  0.7910  0.4807  0.8159
  675TMC3    O2 9996   4.048   1.922  17.514 -0.7561 -0.9382 -1.0045
  676MPD2     C 9997   2.790   0.577  11.052 -0.8184 -0.1909  0.6154
  676MPD2    C1 9998   2.666   0.616  11.101  0.1954  0.2252 -0.2011
  676MPD2    C2 9999   2.553   0.529  11.074  0.0498 -0.3616  0.0929
  676MPD2    C310000   2.580   0.411  10.998  0.2206  0.0833  0.2133
  676MPD2    C410001   2.707   0.386  10.953  0.1066 -0.0319 -0.1292
  676MPD2    C510002   2.814   0.464  10.978  0.6727  0.4516 -0.3682
  676MPD2     H10003   2.453   0.543  11.113  0.0156 -1.4296  0.3879
  676MPD2    H110004   2.725   0.315  10.873 -0.1390 -1.2362  0.8818
  676MPD2    H210005   2.872   0.646  11.068  0.5029 -1.7096  0.4032
  676MPD2    H310006   2.908   0.441  10.930 -0.6066 -1.2945 -2.0058
  676MPD2     N10007   2.475   0.330  10.947 -0.4415 -0.4070 -0.5663
  676MPD2    H510008   2.499   0.267  10.871 -1.7777 -3.3358  1.4162
  676MPD2    N110009   2.633   0.734  11.164  0.4148 -0.3937 -0.2877
  676MPD2    H710010   2.535   0.732  11.191  0.4368  2.0535 -0.0084
  677TMC3    C110011   2.613   0.956  11.221 -0.1188 -0.1507 -0.4887
  677TMC3    C210012   2.524   0.921  11.322 -0.2707 -0.3012 -0.1376
  677TMC3    C310013   2.476   1.026  11.403  0.5836 -0.4133  0.2411
  677TMC3    C410014   2.650   1.089  11.201 -0.5923  0.0072 -0.1025
  677TMC3    C510015   2.597   1.182  11.281  0.6260  0.0793 -0.8769
  677TMC3    C610016   2.517   1.150  11.389  0.2832 -0.3131 -0.0474
  677TMC3     C10017   2.706   0.849  11.184  0.0319  0.3824  1.0468
  677TMC3     O10018   2.822   0.878  11.151 -0.3885  0.3009 -0.2400
  677TMC3     H10019   2.498   0.819  11.347 -0.2955 -0.2449  0.0657
  677TMC3    H110020   2.733   1.124  11.140 -2.0893  0.4781 -1.8753
  677TMC3    H210021   2.484   1.218  11.466 -0.0092  1.4548 -1.7366
  677TMC3    C710022   2.655   1.312  11.272 -0.5567  0.3021 -0.4779
  677TMC3    C810023   2.465   0.983  11.543 -0.0988 -0.1278  0.2026
  677TMC3    O110024   2.773   1.325  11.235 -0.3410 -0.0691 -0.2899
  677TMC3    O210025   2.514   0.875  11.573 -0.2848  0.6804 -0.5448
  678MPD2     C10026   3.641   0.943   1.966  0.0110  0.2293 -0.0832
  678MPD2    C110027   3.643   0.909   1.832 -0.2779  0.1732  0.3207
  678MPD2    C210028   3.523   0.879   1.775  1.3255  0.4955  0.3581
  678MPD2    C310029   3.403   0.887   1.844  0.4158  0.0085  0.7637
  678MPD2    C410030   3.403   0.906   1.979  0.4734 -0.2785  0.0213
  678MPD2    C510031   3.528   0.929   2.040  0.1259 -0.4645  0.1091
  678MPD2     H10032   3.515   0.849   1.670  1.9223  0.0522  0.4381
  678MPD2    H110033   3.318   0.913   2.045  1.9013  0.0218  1.8506
  678MPD2    H210034   3.725   0.971   2.029 -0.7976 -0.9905  1.5186
  678MPD2    H310035   3.539   0.923   2.148  2.2247  1.3312  0.0080
  678MPD2     N10036   3.283   0.862   1.774  0.2381 -0.4985 -0.1552
  678MPD2    H510037   3.294   0.829   1.679 -1.2083  0.6815 -0.7311
  678MPD2    N110038   3.759   0.902   1.748  0.2190  0.3309 -0.4963
  678MPD2    H710039   3.743   0.877   1.651  2.4802 -1.6515 -0.3675
  679TMC3    C110040   4.213   0.854   1.631  1.0945 -0.0985 -0.2240
  679TMC3    C210041   4.118   0.854   1.729  0.7396 -0.4182  0.0207
  679TMC3    C310042   3.992   0.903   1.694 -0.0487 -0.5546 -0.8083
  679TMC3    C410043   4.196   0.907   1.509  0.2423 -0.1862  0.7603
  679TMC3    C510044   4.068   0.957   1.481 -0.4501  0.0112 -0.2660
  679TMC3    C610045   3.965   0.965   1.573  0.4578  0.3269 -0.3939
  679TMC3     C10046   4.342   0.797   1.675 -0.4918 -0.4098  0.8578
  679TMC3     O10047   4.336   0.711   1.764 -0.2044  0.6942  0.4578
  679TMC3     H10048   4.131   0.794   1.819 -0.9421  1.4299  1.4948
  679TMC3    H110049   4.274   0.898   1.435 -1.6736 -0.0303 -1.2526
  679TMC3    H210050   3.867   1.005   1.549 -0.4834 -2.8889 -1.9845
  679TMC3    C710051   4.032   0.993   1.345  0.3945 -0.1044  0.1904
  679TMC3    C810052   3.885   0.897   1.793 -0.1639  0.3479  0.3836
  679TMC3    O110053   3.908   0.987   1.331  0.0827  0.4041 -0.2979
  679TMC3    O210054   3.921   0.877   1.906 -0.2758  0.1158  0.4489
  680MPD2     C10055   0.213   4.386  13.918 -0.5795  0.7420 -0.1127
  680MPD2    C110056   0.104   4.380  14.005 -0.0764  0.4062 -0.2858
  680MPD2    C210057   0.075   4.491  14.083 -0.9954  0.3257 -0.1901
  680MPD2    C310058   0.155   4.606  14.080  0.4861  0.3751  0.5669
  680MPD2    C410059   0.263   4.612  13.997  0.0673  0.4181  0.2180
  680MPD2    C510060   0.283   4.500  13.914 -0.3062 -0.8088  0.4587
  680MPD2     H10061   4.705   4.501  14.142  0.1042  2.0140  1.2343
  680MPD2    H110062   0.321   4.703  13.981 -0.8825  0.5496 -2.5223
  680MPD2    H210063   0.233   4.305  13.849  1.1178 -0.0006  1.2692
  680MPD2    H310064   0.360   4.509  13.838 -1.4437 -0.6492 -0.6803
  680MPD2     N10065   0.122   0.007  14.156  0.4864  0.0766 -0.1997
  680MPD2    H510066   0.183   0.083  14.129  0.8572 -1.0138 -2.3966
  680MPD2    N110067   0.016   4.268  14.018  0.0822  0.8178 -0.0335
  680MPD2    H710068   4.660   4.275  14.082 -1.6722 -1.9978 -1.8562
  681TMC3    C110069   4.642   4.060  13.956  0.1213 -0.4009 -1.0148
  681TMC3    C210070   4.578   4.042  14.083  0.0130  0.0190 -0.2553
  681TMC3    C310071   4.475   3.950  14.082  0.3696 -0.6601 -0.5606
  681TMC3    C410072   4.618   3.989  13.846 -0.5774 -0.7674 -0.2323
  681TMC3    C510073   4.510   3.899  13.851 -0.4266 -0.9576 -0.1202
  681TMC3    C610074   4.440   3.878  13.970  0.3323 -0.3878 -0.1123
  681TMC3     C10075   0.034   4.147  13.960  0.1915 -0.7150  0.0398
  681TMC3     O10076   0.137   4.099  13.912 -0.2875 -0.5866  0.0287
  681TMC3     H10077   4.618   4.084  14.174  0.8019  1.3657 -1.2354
  681TMC3    H110078   4.687   3.995  13.763 -1.3731 -0.3834 -0.8708
  681TMC3    H210079   4.359   3.806  13.974 -0.0037 -0.1053 -1.9787
  681TMC3    C710080   4.474   3.838  13.725 -0.1941  0.4683 -0.3193
  681TMC3    C810081   4.389   3.939  14.198 -0.1094  0.0132  1.0722
  681TMC3    O110082   4.419   3.726  13.731  0.0285  1.0744  0.3533
  681TMC3    O210083   4.305   3.847  14.200 -1.0067  0.2016  0.2217
  682MPD2     C10084   0.863   1.036  10.551  0.1729 -0.0268  0.6765
  682MPD2    C110085   0.997   1.046  10.542  0.1304 -0.2915  0.0011
  682MPD2    C210086   1.062   1.139  10.621 -0.0151 -0.0472  0.9705
  682MPD2    C310087   0.991   1.229  10.695  0.8263  0.2974  0.8382
  682MPD2    C410088   0.854   1.219  10.695  0.5864  0.1097 -0.6100
  682MPD2    C510089   0.794   1.118  10.631 -0.1798  1.0383 -0.1559
  682MPD2     H10090   1.168   1.150  10.604 -0.3010  0.7152 -0.2679
  682MPD2    H110091   0.798   1.285  10.760 -0.2644 -1.0481 -0.1758
  682MPD2    H210092   0.805   0.976  10.481  0.1123  2.2078 -1.2004
  682MPD2    H310093   0.686   1.115  10.640 -0.1015  0.5478  0.6480
  682MPD2     N10094   1.048   1.332  10.783 -0.1202 -0.3971 -0.4799
  682MPD2    H510095   0.980   1.401  10.815  0.4023 -0.5805  1.0260
  682MPD2    N110096   1.076   0.955  10.471 -0.0957 -0.2462  0.8497
  682MPD2    H710097   1.174   0.981  10.464 -0.7671  2.0031 -0.3432
  683TMC3    C110098   1.363   1.444  11.115 -0.1543 -0.4069  0.0026
  683TMC3    C210099   1.268   1.439  11.214  0.5846 -0.3597  0.2109
  683TMC3    C310100   1.143   1.401  11.175  0.2981 -0.3065 -0.5660
  683TMC3    C410101   1.331   1.423  10.983  0.0848  0.1816  0.1583
  683TMC3    C510102   1.199   1.396  10.952 -0.8033 -0.3326  0.0733
  683TMC3    C610103   1.102   1.387  11.049 -0.7474  0.4031  0.1107
  683TMC3     C10104   1.508   1.454  11.142 -0.3861  0.4423 -0.9873
  683TMC3     O10105   1.585   1.444  11.044  0.0924 -0.4399 -0.2406
  683TMC3     H10106   1.288   1.443  11.321 -1.6601  0.1720  0.6311
  683TMC3    H110107   1.405   1.425  10.904  0.6411 -0.9127  0.6499
  683TMC3    H210108   1.000   1.358  11.027 -0.4526 -0.6124  0.0729
  683TMC3    C710109   1.174   1.323  10.830  0.9180  0.3662 -0.2318
  683TMC3    C810110   1.064   1.344  11.279  0.0466 -0.1348 -0.6832
  683TMC3    O110111   1.273   1.254  10.797  0.0710  0.0409 -0.3056
  683TMC3    O210112   1.059   1.398  11.392  0.1005 -0.1206 -0.2778
  684MPD2     C10113   4.036   0.638  16.341  0.1036  0.0335 -0.0362
  684MPD2    C110114   4.118   0.736  16.277  0.1086  0.7393  0.0059
  684MPD2    C210115   4.090   0.872  16.285 -0.6148 -0.1328  0.3797
  684MPD2    C310116   3.974   0.906  16.349 -0.2949  0.7100  0.2507
  684MPD2    C410117   3.889   0.819  16.405  0.1247  0.2259 -0.6155
  684MPD2    C510118   3.926   0.685  16.407 -1.0910 -0.5572  0.2865
  684MPD2     H10119   4.163   0.942  16.245 -0.6620 -1.0126 -1.2584
  684MPD2    H110120   3.814   0.859  16.472 -0.6086 -3.5297  0.8398
  684MPD2    H210121   4.053   0.532  16.323 -0.5697 -0.0407 -0.2246
  684MPD2    H310122   3.865   0.603  16.445 -1.6392  0.2188  1.0759
  684MPD2     N10123   3.939   1.042  16.364 -0.0784 -0.4490 -0.3604
  684MPD2    H510124   3.864   1.072  16.426  1.5385 -0.0177  1.3734
  684MPD2    N110125   4.241   0.702  16.213  0.0761 -0.1833 -0.0714
  684MPD2    H710126   4.296   0.783  16.183 -2.0276  0.7283 -1.4764
  685TMC3    C110127   4.421   0.568  16.131  0.4720 -0.3126  0.4073
  685TMC3    C210128   4.447   0.449  16.067 -0.5114 -0.5710  0.5458
  685TMC3    C310129   4.567   0.388  16.073 -0.3045 -0.1954 -0.3154
  685TMC3    C410130   4.510   0.631  16.209 -0.2991  0.4429 -0.6540
  685TMC3    C510131   4.635   0.571  16.208  0.2583 -0.3640  0.6663
  685TMC3    C610132   4.667   0.458  16.134  0.5484 -0.3944 -0.6684
  685TMC3     C10133   4.282   0.575  16.180  0.1869  0.3689 -0.5068
  685TMC3     O10134   4.212   0.476  16.172  0.6109 -0.0522 -0.4270
  685TMC3     H10135   4.367   0.404  16.009 -0.2028 -0.2320 -0.1450
  685TMC3    H110136   4.492   0.712  16.279 -4.6482 -1.6457  0.6152
  685TMC3    H210137   0.044   0.413  16.141  0.8583  0.4314  0.3909
  685TMC3    C710138   0.017   0.622  16.294 -0.0787  0.6375 -0.4879
  685TMC3    C810139   4.551   0.271  16.155  0.0115  1.0141 -0.5577
  685TMC3    O110140   4.692   0.665  16.401  0.6210 -0.3749  0.3876
  685TMC3    O210141   4.648   0.201  16.164 -0.2609  0.2465 -0.0389
  686MPD2     C10142   1.156   0.444  15.783 -0.3111 -0.4373 -0.0520
  686MPD2    C110143   1.204   0.350  15.871  0.3838 -0.0575 -0.0099
  686MPD2    C210144   1.203   0.217  15.836 -0.9517 -0.4315  0.5047
  686MPD2    C310145   1.164   0.185  15.707 -0.3236  0.2349 -0.8004
  686MPD2    C410146   1.120   0.279  15.613 -0.6215  0.3381 -0.2482
  686MPD2    C510147   1.111   0.405  15.657  0.7191  0.5917 -1.0165
  686MPD2     H10148   1.239   0.140  15.903 -0.4321 -1.1058 -0.5638
  686MPD2    H110149   1.070   0.240  15.525 -1.0625  1.8560 -0.6811
  686MPD2    H210150   1.155   0.551  15.803 -0.8766 -0.2181 -1.2827
  686MPD2    H310151   1.067   0.480  15.592  0.0888  1.3916  0.3471
  686MPD2     N10152   1.167   0.055  15.657 -0.2335 -0.2152 -0.5992
  686MPD2    H510153   1.173   0.049  15.556  0.6074 -0.2648 -0.5457
  686MPD2    N110154   1.223   0.392  16.003  0.3364 -0.5249  0.1890
  686MPD2    H710155   1.205   0.489  16.025  3.7739 -0.1256  1.1365
  687TMC3    C110156   1.134   4.648  15.868 -0.3801  0.1371  0.2599
  687TMC3    C210157   1.013   4.710  15.898  0.5121  0.4271  0.2047
  687TMC3    C310158   0.972   4.712  16.027  0.4905  0.0157  0.2865
  687TMC3    C410159   1.215   4.596  15.962  0.2073  0.0430 -0.0726
  687TMC3    C510160   1.175   4.612  16.093  0.6064 -0.2977  0.0377
  687TMC3    C610161   1.054   4.667  16.127 -0.0497 -0.4150  0.0840
  687TMC3     C10162   1.194   4.658  15.730  0.3569  0.3774  0.9510
  687TMC3     O10163   1.235   4.547  15.694  0.4752  0.7199  0.0363
  687TMC3     H10164   0.944   0.027  15.825 -0.8855 -1.9383  0.2888
  687TMC3    H110165   1.315   4.562  15.938  0.0654 -1.2680  1.2351
  687TMC3    H210166   1.021   4.656  16.230  0.5210 -0.8393  0.2231
  687TMC3    C710167   1.257   4.572  16.208  0.3256 -0.0767 -0.5307
  687TMC3    C810168   0.893   0.106  16.074 -0.4653  0.1653  0.0675
  687TMC3    O110169   1.223   4.598  16.321 -0.4227  0.5501 -0.5745
  687TMC3    O210170   0.880   0.108  16.196 -0.1284  0.2829  0.2173
  688MPD2     C10171   0.401   3.926  17.396  0.4321 -0.1645  0.5816
  688MPD2    C110172   0.452   3.803  17.414 -0.3724 -0.1864 -0.8687
  688MPD2    C210173   0.561   3.762  17.337  0.6072  0.3047  1.0471
  688MPD2    C310174   0.626   3.857  17.254 -0.1059 -0.9960  0.4389
  688MPD2    C410175   0.588   3.986  17.259 -0.0636 -0.0643  0.1877
  688MPD2    C510176   0.467   4.020  17.315 -0.1840  0.6958  0.5449
  688MPD2     H10177   0.619   3.672  17.355 -2.2436 -1.8265 -0.4089
  688MPD2    H110178   0.636   4.057  17.192  0.8604 -2.1644 -1.3574
  688MPD2    H210179   0.312   3.960  17.448  1.2300  0.6557  1.4252
  688MPD2    H310180   0.425   4.120  17.305 -0.4961  0.4762 -0.3553
  688MPD2     N10181   0.734   3.824  17.164 -0.2449  0.2469 -0.1057
  688MPD2    H510182   0.787   3.899  17.121  0.5375  0.4008  1.1572
  688MPD2    N110183   0.392   3.710  17.500  0.4538 -0.2010 -0.3535
  688MPD2    H710184   0.439   3.620  17.495 -0.5033 -0.8177  1.6429
  689TMC3    C110185   0.262   3.621  17.684  0.0027  0.5594  0.1097
  689TMC3    C210186   0.258   3.636   0.129  0.6527 -0.4411  0.0994
  689TMC3    C310187   0.249   3.524   0.205  1.1631  0.2221 -1.1385
  689TMC3    C410188   0.239   3.497  17.618 -0.5918  0.7106  0.2624
  689TMC3    C510189   0.221   3.388   0.014 -0.6046 -0.2091  0.0164
  689TMC3    C610190   0.234   3.400   0.150 -0.3787 -0.0456 -0.2056
  689TMC3     C10191   0.300   3.736  17.599  0.5168 -0.2591  0.0294
  689TMC3     O10192   0.275   3.847  17.645 -0.2757  0.5742  0.3702
  689TMC3     H10193   0.270   3.734   0.173 -0.3413 -1.5226  2.7791
  689TMC3    H110194   0.210   3.491  17.513  0.8151 -1.1326 -0.0292
  689TMC3    H210195   0.249   3.313   0.213  0.3027  0.6063  0.5295
  689TMC3    C710196   0.171   3.264  17.650 -0.5784  0.5354  0.9680
  689TMC3    C810197   0.268   3.528   0.351  0.0256  0.0624 -0.3614
  689TMC3    O110198   0.176   3.268  17.527 -0.1715 -0.3432  0.2024
  689TMC3    O210199   0.223   3.431   0.409 -0.2555 -0.0714  0.7577
  690MPD2     C10200   2.433   1.053  15.897  0.3970  0.7761  0.2429
  690MPD2    C110201   2.360   1.037  15.781  0.0038 -0.0918 -0.6540
  690MPD2    C210202   2.413   1.075  15.664  0.3381  0.3960 -0.2980
  690MPD2    C310203   2.537   1.124  15.653  0.2999 -0.4481  0.1333
  690MPD2    C410204   2.613   1.130  15.767 -0.3546  0.5804 -0.7668
  690MPD2    C510205   2.562   1.091  15.888 -0.0524 -0.4015 -0.4029
  690MPD2     H10206   2.355   1.077  15.572 -1.0132 -0.9278  0.5208
  690MPD2    H110207   2.714   1.169  15.767  0.5507 -1.7770  0.1850
  690MPD2    H210208   2.397   1.017  15.993  0.9405  0.7371  0.4278
  690MPD2    H310209   2.629   1.107  15.972  1.1701  1.3455 -1.7095
  690MPD2     N10210   2.582   1.163  15.524 -0.1097  0.2856 -0.2475
  690MPD2    H510211   2.512   1.168  15.450  0.8868 -0.3751 -1.2203
  690MPD2    N110212   2.238   0.965  15.782  0.2744 -0.3429  0.4162
  690MPD2    H710213   2.197   0.932  15.695  2.3785 -2.5779  0.2841
  691TMC3    C110214   2.070   0.831  15.849  0.5122  0.0143 -0.7751
  691TMC3    C210215   1.959   0.820  15.940 -0.8870 -1.0752  0.0894
  691TMC3    C310216   1.881   0.707  15.943  0.6650 -0.1628 -0.4189
  691TMC3    C410217   2.095   0.732  15.756  1.0513  0.8162 -0.3258
  691TMC3    C510218   2.014   0.625  15.763  0.1747 -0.2449  0.3091
  691TMC3    C610219   1.912   0.608  15.856  0.6170  0.3199 -0.0669
  691TMC3     C10220   2.179   0.906  15.886  0.2122  0.6617 -0.2564
  691TMC3     O10221   2.194   0.934  16.006 -0.3793 -0.7805 -0.9249
  691TMC3     H10222   1.957   0.886  16.026  2.2533 -1.6716  0.6139
  691TMC3    H110223   2.167   0.754  15.678  1.3893  1.5444  0.1891
  691TMC3    H210224   1.848   0.521  15.864  0.1557  0.7180  0.5204
  691TMC3    C710225   2.089   0.509  15.736 -0.1742  0.3191 -0.1857
  691TMC3    C810226   1.769   0.683  16.035  0.0117  0.4059  0.1895
  691TMC3    O110227   2.207   0.511  15.763 -0.2312  0.6675 -0.2526
  691TMC3    O210228   1.696   0.584  16.018 -0.5410 -0.1646 -0.1539
  692TMC3    C110229   3.806   2.296  15.817  0.0411 -0.5268 -0.5574
  692TMC3    C210230   3.847   2.413  15.753  0.0111 -0.8282 -0.7548
  692TMC3    C310231   3.978   2.435  15.728  0.3638 -0.1547 -0.2829
  692TMC3    C410232   3.896   2.199  15.839 -0.5997 -0.0740  0.1133
  692TMC3    C510233   4.021   2.215  15.787 -0.3592 -0.2629 -0.1784
  692TMC3    C610234   4.059   2.328  15.725 -0.0334 -0.5735 -0.9247
  692TMC3     C10235   3.673   2.289  15.878  0.1290  0.1059  0.1039
  692TMC3     O10236   3.605   2.391  15.889  0.0037  0.1247  0.4643
  692TMC3     H10237   3.771   2.488  15.739 -0.7590 -1.2555  1.1352
  692TMC3    H110238   3.861   2.117  15.900 -1.4679  1.0538  1.1125
  692TMC3    H210239   4.166   2.338  15.706  0.4467 -0.5887  1.8826
  692TMC3    C710240   4.117   2.103  15.778 -0.1896  0.4656 -0.4528
  692TMC3    C810241   4.035   2.525  15.830  0.2961 -0.8153 -0.2315
  692TMC3    O110242   4.190   2.097  15.679 -0.2318 -0.0500 -0.3092
  692TMC3    O210243   4.161   2.531  15.828  0.0571 -0.6275 -0.2591
  693MPD2     C10244   3.564   4.523  10.381  0.7667  0.0973 -0.8302
  693MPD2    C110245   3.502   4.404  10.417  0.3618 -0.0369  0.5266
  693MPD2    C210246   3.584   4.297  10.461 -0.1399 -0.1734  0.8617
  693MPD2    C310247   3.721   4.306  10.465 -0.0918  0.3984  0.2388
  693MPD2    C410248   3.779   4.417  10.413 -0.0077  0.0241  0.5504
  693MPD2    C510249   3.698   4.517  10.363  0.4171 -0.0100 -0.0924
  693MPD2     H10250   3.536   4.207  10.498  1.9357 -1.9856 -0.8172
  693MPD2    H110251   3.885   4.432  10.425  0.1980 -0.5712 -0.6319
  693MPD2    H210252   3.509   4.597  10.325  0.4579 -0.0713 -0.7486
  693MPD2    H310253   3.742   4.602  10.313  3.6845 -1.0000  1.0997
  693MPD2     N10254   3.816   4.206  10.516  0.5184 -0.1498 -0.3400
  693MPD2    H510255   3.911   4.238  10.506  0.7980 -1.3221 -1.5565
  693MPD2    N110256   3.360   4.410  10.426 -0.6090  0.0978  0.1932
  693MPD2    H710257   3.314   4.496  10.400  0.2429  1.0397  1.8247
  694TMC3    C110258   3.141   4.325  10.463  0.1657  0.4254 -0.7077
  694TMC3    C210259   3.059   4.229  10.422  0.3606 -0.4866  0.3306
  694TMC3    C310260   2.928   4.230  10.470  0.0343  0.8533  0.2115
  694TMC3    C410261   3.113   4.409  10.563  0.2148 -0.2357  0.0120
  694TMC3    C510262   2.988   4.406  10.613 -0.3351 -0.2136  0.3919
  694TMC3    C610263   2.891   4.317  10.572  0.0290 -0.1255  0.1382
  694TMC3     C10264   3.284   4.299  10.453 -0.1282  0.4420 -0.8559
  694TMC3     O10265   3.309   4.183  10.456  0.4501 -0.0406  0.3719
  694TMC3     H10266   3.093   4.155  10.351  0.8338 -0.3652  0.4295
  694TMC3    H110267   3.187   4.473  10.611  0.4058 -2.4290  2.6559
  694TMC3    H210268   2.787   4.324  10.603 -0.4149 -1.0423 -1.1470
  694TMC3    C710269   2.973   4.465  10.747 -0.3672 -1.2662  0.2092
  694TMC3    C810270   2.830   4.137  10.423  0.3655 -0.3000  0.4325
  694TMC3    O110271   3.036   4.566  10.768 -0.3347  0.4496  0.2272
  694TMC3    O210272   2.745   4.093  10.496 -0.8729  0.3806 -0.4573
  695MPD2     C10273   4.337   1.732  13.419 -0.5397  0.4763 -0.8286
  695MPD2    C110274   4.268   1.740  13.542 -0.1852  0.5189 -0.1532
  695MPD2    C210275   4.136   1.789  13.548 -0.9230  0.0833 -0.5261
  695MPD2    C310276   4.081   1.846  13.437 -0.1458 -0.2922 -0.1282
  695MPD2    C410277   4.154   1.852  13.318  0.3493 -0.1499  0.4875
  695MPD2    C510278   4.277   1.788  13.307 -0.1688 -0.4139  0.0438
  695MPD2     H10279   4.084   1.792  13.643 -0.6078  1.9292 -0.4200
  695MPD2    H110280   4.108   1.892  13.229  0.0200 -0.2380  0.6154
  695MPD2    H210281   4.435   1.688  13.403 -1.3308 -1.9434  1.0554
  695MPD2    H310282   4.330   1.778  13.213 -1.6249  2.7195 -1.0859
  695MPD2     N10283   3.951   1.897  13.454 -0.5493 -0.1895  0.0021
  695MPD2    H510284   3.900   1.867  13.536 -0.9606 -1.1745 -0.6248
  695MPD2    N110285   4.322   1.696  13.667 -0.4228  0.0559  0.3233
  695MPD2    H710286   4.251   1.680  13.738  0.0859  1.8056  1.2142
  696TMC3    C110287   3.752   2.013  13.405  0.0194  0.4354  0.2548
  696TMC3    C210288   3.682   1.943  13.498  0.0651 -0.0902 -0.5987
  696TMC3    C310289   3.589   2.015  13.571  0.8858  1.0034  0.6567
  696TMC3    C410290   3.718   2.142  13.364 -0.0664 -0.0867 -0.3714
  696TMC3    C510291   3.618   2.202  13.438  0.1611  0.0244  0.4912
  696TMC3    C610292   3.565   2.152  13.552 -0.2941  0.4771 -0.1082
  696TMC3     C10293   3.887   1.978  13.361 -0.7143  0.1470 -0.3650
  696TMC3     O10294   3.933   2.026  13.258 -0.2849  0.1687  0.0760
  696TMC3     H10295   3.695   1.839  13.527  2.4615 -0.0336 -1.5151
  696TMC3    H110296   3.785   2.208  13.310  0.8867  0.0943  1.0183
  696TMC3    H210297   3.474   2.199  13.587  0.0612  0.6429  0.5871
  696TMC3    C710298   3.610   2.336  13.414  0.0542  0.0055  0.5534
  696TMC3    C810299   3.543   1.957  13.693  0.4004  0.8306  0.4469
  696TMC3    O110300   3.642   2.375  13.303 -0.1101 -0.0920 -0.4030
  696TMC3    O210301   3.544   1.837  13.702 -0.1446 -0.1998 -0.0318
  697MPD2     C10302   3.801   3.562  15.758  0.3994  0.2577  0.0531
  697MPD2    C110303   3.729   3.527  15.648  0.2656  0.0823  0.3014
  697MPD2    C210304   3.685   3.627  15.568 -0.4507  0.4367 -0.0922
  697MPD2    C310305   3.725   3.757  15.576 -0.3867 -0.1705  0.2464
  697MPD2    C410306   3.776   3.799  15.694 -0.6378  0.0812  0.0212
  697MPD2    C510307   3.819   3.701  15.782  0.4977 -0.0898  0.2581
  697MPD2     H10308   3.642   3.601  15.473  1.2264 -1.9587 -0.1916
  697MPD2    H110309   3.797   3.900  15.726 -1.7293 -0.1297  1.3906
  697MPD2    H210310   3.829   3.487  15.831  1.3817  0.2271 -0.3549
  697MPD2    H310311   3.863   3.739  15.873  1.5078  0.8092 -0.5919
  697MPD2     N10312   3.689   3.847  15.474  0.2544  0.0544 -0.3428
  697MPD2    H510313   3.638   3.807  15.396 -0.1325  0.8651 -0.5097
  697MPD2    N110314   3.685   3.394  15.617  0.1735 -0.3477 -0.1770
  697MPD2    H710315   3.622   3.375  15.541  2.6634  0.0327 -2.3463
  698TMC3    C110316   3.677   4.032  15.340 -0.4034  0.2599  0.0878
  698TMC3    C210317   3.606   4.156  15.327  0.1242  0.0312 -0.0542
  698TMC3    C310318   3.507   4.165  15.238  0.5824 -0.0379 -0.2432
  698TMC3    C410319   3.671   3.949  15.232 -0.9369  0.3675 -0.1326
  698TMC3    C510320   3.572   3.960  15.143 -0.6618  0.5924  0.0737
  698TMC3    C610321   3.485   4.062  15.144  0.3855  0.0362  0.2868
  698TMC3     C10322   3.701   3.984  15.476  0.5088 -0.3831  0.3126
  698TMC3     O10323   3.719   4.061  15.571 -0.1203 -0.1232  0.5412
  698TMC3     H10324   3.598   4.216  15.418 -0.2396 -1.3339  0.8143
  698TMC3    H110325   3.725   3.855  15.230  1.5473  1.7672  0.0835
  698TMC3    H210326   3.416   4.087  15.065 -0.6994  0.4619  1.3639
  698TMC3    C710327   3.593   3.910  15.011  0.0538  0.5512  1.0695
  698TMC3    C810328   3.491   4.291  15.166  0.2589 -0.1751  0.4302
  698TMC3    O110329   3.497   3.896  14.935  0.2601  0.7063  0.0870
  698TMC3    O210330   3.393   4.304  15.088  0.2390  0.7253 -0.2792
  699TMC3    C110331   3.553   1.897  13.138 -0.2809  0.4185 -0.1837
  699TMC3    C210332   3.596   1.788  13.214 -0.2383 -0.3389  0.4984
  699TMC3    C310333   3.501   1.700  13.266  0.5750  0.4416 -0.0003
  699TMC3    C410334   3.424   1.930  13.133 -0.1317  0.5602 -0.0650
  699TMC3    C510335   3.333   1.833  13.174 -0.0811 -0.0992  0.2314
  699TMC3    C610336   3.369   1.716  13.246  0.5922  0.2089 -0.1863
  699TMC3     C10337   3.645   1.965  13.046 -0.2512 -0.1997 -0.6796
  699TMC3     O10338   3.617   2.076  13.011 -0.3653  0.1891  0.1318
  699TMC3     H10339   3.701   1.764  13.212  0.0882  1.2633 -1.3637
  699TMC3    H110340   3.400   2.012  13.066 -1.1550  0.8577  0.6549
  699TMC3    H210341   3.288   1.652  13.279 -0.5940  1.3236 -0.9691
  699TMC3    C710342   3.196   1.872  13.178 -0.1552  0.6536  0.2244
  699TMC3    C810343   3.524   1.611  13.387 -0.3222 -0.2063  0.5647
  699TMC3    O110344   3.116   1.793  13.223  0.3429 -0.6234  0.2345
  699TMC3    O210345   3.437   1.595  13.466  0.3754 -0.3874 -0.0095
  700TMC3    C110346   2.598   3.971   0.065  0.5966 -0.2344 -0.1795
  700TMC3    C210347   2.653   3.849   0.050  0.4336  0.7142  0.3477
  700TMC3    C310348   2.781   3.842   0.098 -0.3321  0.5121 -0.4825
  700TMC3    C410349   2.650   4.070   0.142 -0.4190 -0.4472 -0.1889
  700TMC3    C510350   2.774   4.054   0.192 -0.5845 -0.2408  0.1282
  700TMC3    C610351   2.841   3.943   0.159  0.0721  0.3507 -0.2993
  700TMC3     C10352   2.550   4.027  17.624  0.0737  0.5784  0.0243
  700TMC3     O10353   2.492   3.953  17.550 -1.0492 -0.2298  0.0576
  700TMC3     H10354   2.626   3.784  17.657  1.0945 -0.9077  1.4301
  700TMC3    H110355   2.598   4.165   0.150  1.1823  0.4772 -0.6584
  700TMC3    H210356   2.939   3.927   0.203 -0.1938 -0.2083  0.0962
  700TMC3    C710357   2.837   4.169   0.250  0.4893  1.3752 -0.1937
  700TMC3    C810358   2.862   3.747   0.033 -0.7964  0.2940  0.1361
  700TMC3    O110359   2.957   4.173   0.234  0.5414  0.1860  0.2804
  700TMC3    O210360   2.983   3.770   0.031 -0.1482  0.1733  0.7831
  701TMC3    C110361   2.802   2.983  15.705 -0.0841  1.3570 -0.0627
  701TMC3    C210362   2.761   2.965  15.569 -0.1882 -0.8409 -0.0201
  701TMC3    C310363   2.837   3.020  15.470 -0.7692 -0.2278 -0.0913
  701TMC3    C410364   2.911   3.062  15.733 -0.0380 -1.1062 -0.0046
  701TMC3    C510365   2.974   3.121  15.628 -0.1318 -0.9409 -1.0013
  701TMC3    C610366   2.936   3.102  15.504  0.3377 -0.3498 -0.1387
  701TMC3     C10367   2.728   2.930  15.817  0.3094 -0.4086 -0.9200
  701TMC3     O10368   2.675   2.826  15.796  0.0995  0.0009 -0.0621
  701TMC3     H10369   2.676   2.901  15.550  0.6407 -1.8680 -0.2698
  701TMC3    H110370   2.928   3.092  15.836 -1.7203 -0.0364 -0.0287
  701TMC3    H210371   3.000   3.141  15.426  0.0664 -0.7703 -0.5668
  701TMC3    C710372   3.066   3.232  15.644 -0.1391 -0.5470  0.2443
  701TMC3    C810373   2.810   2.998  15.332  0.1311  0.2323 -0.0204
  701TMC3    O110374   3.055   3.320  15.560 -0.4375  0.0527 -0.9032
  701TMC3    O210375   2.891   3.032  15.244 -0.1992 -0.1360  0.2695
  702MPD2     C10376   2.260   0.354  10.264 -0.4529 -0.5285  0.5879
  702MPD2    C110377   2.357   0.351  10.363  0.4212 -0.2031 -0.1677
  702MPD2    C210378   2.453   0.444  10.361  1.2776 -0.6493 -0.1605
  702MPD2    C310379   2.473   0.539  10.260 -0.2824  0.0311  0.3157
  702MPD2    C410380   2.367   0.549  10.176 -0.4451  0.5842  0.0741
  702MPD2    C510381   2.261   0.459  10.176 -0.3070 -0.1880  0.6752
  702MPD2     H10382   2.525   0.445  10.442 -0.4813 -2.0336  1.4288
  702MPD2    H110383   2.369   0.621  10.096  1.9845  1.1128  0.6028
  702MPD2    H210384   2.173   0.289  10.271 -1.8881  1.3185 -0.3759
  702MPD2    H310385   2.177   0.481  10.111  0.8250 -0.5929 -0.8997
  702MPD2     N10386   2.577   0.636  10.256 -0.3473  0.0243 -0.2797
  702MPD2    H510387   2.556   0.726  10.214  0.9895  0.1636 -0.6298
  702MPD2    N110388   2.349   0.276  10.483  0.0800  0.1004 -0.2983
  702MPD2    H710389   2.430   0.273  10.545  1.3202 -1.4080 -1.9998
  703TMC3    C110390   2.775   0.740  10.341 -0.4600  0.1590  0.6237
  703TMC3    C210391   2.711   0.852  10.399 -0.4112 -0.0563 -0.2609
  703TMC3    C310392   2.795   0.953  10.443 -0.0194 -0.5611  0.0469
  703TMC3    C410393   2.908   0.726  10.342 -0.1083  1.1754  0.5120
  703TMC3    C510394   2.983   0.834  10.382  0.1080  0.1139  0.5579
  703TMC3    C610395   2.924   0.948  10.444  0.0916 -0.5940 -0.4578
  703TMC3     C10396   2.697   0.617  10.316 -0.3477 -0.3698 -0.9908
  703TMC3     O10397   2.741   0.519  10.372  0.3399  0.0184 -1.0631
  703TMC3     H10398   2.603   0.857  10.392 -0.5806 -0.6338  2.0088
  703TMC3    H110399   2.952   0.630  10.315 -0.2713  1.0234  0.7857
  703TMC3    H210400   2.981   1.036  10.470 -0.1690 -0.7336  0.5872
  703TMC3    C710401   3.126   0.849  10.363  0.0969 -0.2947  0.1124
  703TMC3    C810402   2.739   1.087  10.467 -0.3216  0.4938 -0.6716
  703TMC3    O110403   3.188   0.943  10.405  0.1678  0.2663  0.0584
  703TMC3    O210404   2.809   1.183  10.440 -0.1085 -0.3447 -0.1364
  704TMC3    C110405   4.705   3.683  12.198  0.0658 -0.3498  0.5709
  704TMC3    C210406   0.108   3.729  12.159 -0.3114 -0.2108  0.0866
  704TMC3    C310407   0.212   3.706  12.248  0.3133 -0.5361 -0.3159
  704TMC3    C410408   4.680   3.648  12.324 -0.2370 -0.4722 -0.3325
  704TMC3    C510409   0.065   3.605  12.404 -0.6117  0.2095 -0.2732
  704TMC3    C610410   0.187   3.646  12.368 -0.2835  0.0005  0.8593
  704TMC3     C10411   4.632   3.598  12.104 -0.1212 -0.8031  0.1897
  704TMC3     O10412   4.518   3.568  12.135  0.3186 -0.5159  0.5549
  704TMC3     H10413   0.131   3.785  12.069 -0.6220 -0.3713 -0.0906
  704TMC3    H110414   4.581   3.610  12.344 -0.8400  0.9631 -0.6556
  704TMC3    H210415   0.266   3.625  12.439  0.1547 -1.6904 -0.1334
  704TMC3    C710416   0.081   3.458  12.425  0.8265 -0.1299 -0.3022
  704TMC3    C810417   0.346   3.691  12.181 -0.1537  0.5140  0.3208
  704TMC3    O110418   0.185   3.403  12.392 -0.1896 -0.1809 -0.8210
  704TMC3    O210419   0.358   3.726  12.066 -0.4224  0.1762  0.3724
  705MPD2     C10420   4.317   1.752  16.516 -0.5927  0.5121  0.0416
  705MPD2    C110421   4.238   1.840  16.433 -0.7940  0.3972  0.1699
  705MPD2    C210422   4.117   1.890  16.485  0.1974 -0.2269 -0.1224
  705MPD2    C310423   4.072   1.851  16.614  0.3029  0.2528 -0.4443
  705MPD2    C410424   4.157   1.777  16.689  0.6327 -0.2642  0.7361
  705MPD2    C510425   4.276   1.720  16.646 -0.5957 -0.4145  0.3598
  705MPD2     H10426   4.056   1.952  16.420 -0.5266  0.5093  1.2635
  705MPD2    H110427   4.131   1.768  16.794 -1.1236  1.7844  0.4547
  705MPD2    H210428   4.417   1.716  16.494 -0.8463 -0.9752  1.3303
  705MPD2    H310429   4.341   1.662  16.710 -0.2597  0.5660  0.9068
  705MPD2     N10430   3.947   1.889  16.669 -0.4759  0.1546  0.6607
  705MPD2    H510431   3.925   1.826  16.745 -1.6621 -0.4940 -0.2114
  705MPD2    N110432   4.285   1.881  16.306  0.4134  0.6374  0.7584
  705MPD2    H710433   4.220   1.946  16.262  1.1208 -0.7023 -2.2485
  706TMC3    C110434   4.553   1.800  15.910  0.3528  0.4255  0.1570
  706TMC3    C210435   4.528   1.927  15.868  0.4580  1.2043 -0.3839
  706TMC3    C310436   4.446   2.017  15.938 -0.4431  0.6190  0.2615
  706TMC3    C410437   4.505   1.779  16.041  0.3384  0.1793  0.5603
  706TMC3    C510438   4.418   1.857  16.105 -0.4625  0.2067  0.9163
  706TMC3    C610439   4.383   1.983  16.057 -0.8409 -0.2155  0.6804
  706TMC3     C10440   4.670   1.731  15.862 -0.5340  0.3695  0.7423
  706TMC3     O10441   0.021   1.698  15.955  0.7483 -0.3262 -0.3139
  706TMC3     H10442   4.555   1.961  15.768  1.1383 -0.9054 -0.9180
  706TMC3    H110443   4.534   1.683  16.082  1.8887 -0.1647 -1.3527
  706TMC3    H210444   4.316   2.052  16.108 -0.0574 -0.2101  1.6929
  706TMC3    C710445   4.372   1.803  16.233  0.2684  0.0914 -0.5984
  706TMC3    C810446   4.441   2.153  15.897 -0.0350  0.1118  0.1603
  706TMC3    O110447   4.401   1.686  16.254 -0.3901  0.5764 -0.3149
  706TMC3    O210448   4.349   2.218  15.950 -0.0990 -0.0523 -0.0034
  707TMC3    C110449   0.855   0.844   1.424  0.1983 -0.0957 -0.6396
  707TMC3    C210450   0.866   0.805   1.553 -0.4645 -0.0844 -0.0011
  707TMC3    C310451   0.763   0.782   1.638 -0.0444 -0.0507  0.5979
  707TMC3    C410452   0.733   0.882   1.385 -0.4975 -0.1641  0.8830
  707TMC3    C510453   0.626   0.851   1.466  0.1903 -0.1968  0.3942
  707TMC3    C610454   0.641   0.792   1.592  0.0192  0.1278 -0.5563
  707TMC3     C10455   0.979   0.840   1.339  0.1686 -0.7961  0.1864
  707TMC3     O10456   1.074   0.792   1.398  0.3571 -0.3961  0.3718
  707TMC3     H10457   0.969   0.802   1.586 -0.7871 -1.7131  0.8612
  707TMC3    H110458   0.720   0.922   1.285  1.8953 -0.1601  0.5626
  707TMC3    H210459   0.560   0.753   1.653  0.9823  0.8966  1.2094
  707TMC3    C710460   0.492   0.839   1.416 -0.1142  0.1789 -1.6596
  707TMC3    C810461   0.793   0.714   1.765 -0.2187  0.6237  0.2002
  707TMC3    O110462   0.403   0.802   1.491 -0.3372 -0.2467  0.2250
  707TMC3    O210463   0.696   0.674   1.830  0.0428 -0.4033 -0.0657
  708MPD2     C10464   3.033   4.625  14.119 -0.4236 -0.4638 -0.1350
  708MPD2    C110465   2.916   4.690  14.134  0.2315 -0.1649  0.6960
  708MPD2    C210466   2.831   4.646  14.238  0.3276 -0.4922  0.3290
  708MPD2    C310467   2.868   4.558  14.333  0.1496  0.1514 -0.6645
  708MPD2    C410468   2.997   4.502  14.320 -0.1760  0.0261  0.2720
  708MPD2    C510469   3.076   4.544  14.214  0.3804  0.7182 -0.1092
  708MPD2     H10470   2.730   4.685  14.244  0.0297 -0.7398 -2.8009
  708MPD2    H110471   3.042   4.438  14.395 -2.1086 -2.1150 -0.4005
  708MPD2    H210472   3.099   4.652  14.037  1.4111 -2.1926  0.7826
  708MPD2    H310473   3.175   4.502  14.225 -0.0859 -0.0034  1.3089
  708MPD2     N10474   2.778   4.522  14.435  0.0414  0.1850  0.6138
  708MPD2    H510475   2.819   4.488  14.522  1.1839  0.9418  0.3704
  708MPD2    N110476   2.863   0.059  14.046  0.3440 -0.8226 -0.0106
  708MPD2    H710477   2.784   0.108  14.086 -0.2315 -1.3199 -0.5403
  709TMC3    C110478   2.847   0.215  13.883 -0.2687  0.3579  0.1415
  709TMC3    C210479   2.779   0.188  13.764 -0.2850  0.5128  0.1899
  709TMC3    C310480   2.644   0.218  13.749  0.2160 -0.6682 -0.3065
  709TMC3    C410481   2.777   0.271  13.983  0.0570  0.9001  0.4955
  709TMC3    C510482   2.645   0.292  13.967  0.0913 -0.4419  0.3021
  709TMC3    C610483   2.573   0.270  13.847 -0.0592  0.0351  0.2440
  709TMC3     C10484   2.924   0.104  13.929  0.1313 -0.1588  0.7449
  709TMC3     O10485   3.004   0.051  13.851  0.1916 -0.0415  0.1905
  709TMC3     H10486   2.827   0.124  13.691  0.1097 -0.6759  1.4833
  709TMC3    H110487   2.825   0.299  14.076 -0.5318  0.9444  0.7883
  709TMC3    H210488   2.472   0.311  13.843  0.0340  0.1730 -0.7879
  709TMC3    C710489   2.570   0.247  14.085  0.4917 -0.1551  0.2664
  709TMC3    C810490   2.571   0.153  13.648  0.6103 -0.9807 -0.4337
  709TMC3    O110491   2.638   0.184  14.172 -0.7295  0.3927 -0.4092
  709TMC3    O210492   2.462   0.106  13.672 -0.4235  0.4062  0.0666
  710TMC3    C110493   3.439   1.199   0.772  0.5854 -0.0165 -0.9838
  710TMC3    C210494   3.463   1.276   0.660  0.2989  0.6395  0.2445
  710TMC3    C310495   3.594   1.279   0.612 -1.0088  0.0750  0.3506
  710TMC3    C410496   3.537   1.149   0.843 -0.0527 -0.3678 -0.2671
  710TMC3    C510497   3.666   1.153   0.802 -0.0968  0.2620 -0.0725
  710TMC3    C610498   3.694   1.212   0.682  1.0709  0.0823  0.6437
  710TMC3     C10499   3.310   1.198   0.838  0.2508 -0.7315 -0.2346
  710TMC3     O10500   3.278   1.099   0.900  0.5424 -0.1113 -0.0707
  710TMC3     H10501   3.373   1.310   0.611  0.9286  0.3342 -1.1325
  710TMC3    H110502   3.510   1.092   0.931  0.6551 -0.2521  0.0274
  710TMC3    H210503   3.795   1.215   0.643  0.6278  1.9711 -0.3785
  710TMC3    C710504   3.773   1.091   0.884  0.5120 -0.2601  0.1375
  710TMC3    C810505   3.629   1.322   0.475 -0.2556 -0.0367 -0.3661
  710TMC3    O110506   3.736   1.019   0.974  0.9965  0.4592 -1.1050
  710TMC3    O210507   3.742   1.304   0.441 -0.3903 -0.0044 -0.4955
  711TMC3    C110508   3.397   2.403  14.864  0.3582  0.3825  0.1013
  711TMC3    C210509   3.381   2.468  14.985 -0.2026 -0.2500 -0.4730
  711TMC3    C310510   3.494   2.482  15.063  0.1414 -0.1647 -0.2018
  711TMC3    C410511   3.524   2.355  14.830 -0.4947  0.3956  0.2404
  711TMC3    C510512   3.627   2.359  14.922 -0.3875 -0.0926  0.5221
  711TMC3    C610513   3.617   2.424  15.041 -0.3935  0.5316  0.2055
  711TMC3     C10514   3.300   2.352  14.772 -0.2182  0.9852 -0.0326
  711TMC3     O10515   3.335   2.272  14.688 -0.4471  0.3061  0.1677
  711TMC3     H10516   3.291   2.525  15.006 -0.1830 -0.9859  1.5602
  711TMC3    H110517   3.539   2.310  14.732  1.5118 -0.3160  0.8786
  711TMC3    H210518   3.692   2.425  15.119 -0.2642  0.8132  0.0746
  711TMC3    C710519   3.716   2.245  14.937 -0.1003  0.1906 -0.4906
  711TMC3    C810520   3.472   2.542  15.190 -0.1752  0.1002 -0.2466
  711TMC3    O110521   3.828   2.261  14.993  0.6401  0.1632 -0.0536
  711TMC3    O210522   3.358   2.552  15.225  0.1810 -0.3827 -0.1854
  712MPD2     C10523   0.268   3.527  13.594 -0.2898 -0.3484 -0.3637
  712MPD2    C110524   0.212   3.614  13.684  0.6792  0.5317  0.6960
  712MPD2    C210525   0.236   3.747  13.666 -0.1860 -0.1836  0.5021
  712MPD2    C310526   0.301   3.800  13.552 -0.3020 -0.2997 -0.5302
  712MPD2    C410527   0.352   3.707  13.464 -0.5881  0.5564  0.2590
  712MPD2    C510528   0.338   3.571  13.486 -0.2742  0.5381 -0.3380
  712MPD2     H10529   0.208   3.808  13.750 -0.4556  1.1885 -0.5915
  712MPD2    H110530   0.402   3.731  13.371 -0.6697 -0.0994  0.0425
  712MPD2    H210531   0.259   3.421  13.613 -1.0284 -0.0931  0.6759
  712MPD2    H310532   0.399   3.506  13.426  2.3806  0.1992  2.7468
  712MPD2     N10533   0.322   3.941  13.536 -0.4796  0.2761 -0.1268
  712MPD2    H510534   0.400   3.973  13.479  0.1678 -2.2371 -0.6486
  712MPD2    N110535   0.149   3.571  13.804 -0.4597  0.0790 -0.2116
  712MPD2    H710536   0.129   3.650  13.864  1.3783  0.7784 -0.5381
  713TMC3    C110537   0.291   4.160  13.589 -0.2741  0.3468 -0.4749
  713TMC3    C210538   0.433   4.184  13.594  0.6449 -0.0946 -0.5095
  713TMC3    C310539   0.485   4.315  13.583 -0.6181  0.2694  0.5711
  713TMC3    C410540   0.203   4.259  13.566  0.1792  0.1058 -0.4851
  713TMC3    C510541   0.258   4.389  13.559  0.0520  0.0266 -0.0416
  713TMC3    C610542   0.393   4.418  13.566 -0.1331 -0.1002  0.2547
  713TMC3     C10543   0.233   4.028  13.574 -0.1515  0.0252 -0.4508
  713TMC3     O10544   0.114   4.003  13.583  0.3709 -0.1493  0.0259
  713TMC3     H10545   0.507   4.107  13.615 -0.4341 -0.8466  0.4955
  713TMC3    H110546   0.100   4.232  13.550 -0.2459 -0.0932  2.6890
  713TMC3    H210547   0.430   4.514  13.532 -1.1875  0.5476  0.9159
  713TMC3    C710548   0.177   4.498  13.514  0.1522 -0.3608 -0.5607
  713TMC3    C810549   0.619   4.339  13.546  0.1164 -0.9671  0.0941
  713TMC3    O110550   0.241   4.600  13.498  0.5414 -0.0698  0.3724
  713TMC3    O210551   0.652   4.454  13.530  0.0652  0.3410 -0.2831
  714MPD2     C10552   2.192   2.132   1.558  0.7125  0.5983  0.7359
  714MPD2    C110553   2.139   2.027   1.489  0.6568  0.8219 -0.8951
  714MPD2    C210554   2.053   2.044   1.383  0.9482  0.5857  0.5653
  714MPD2    C310555   2.006   2.170   1.361  0.0704 -0.5699 -0.7643
  714MPD2    C410556   2.049   2.279   1.431 -0.3211 -0.6205 -0.1403
  714MPD2    C510557   2.142   2.258   1.536  0.0274 -0.3518 -0.4207
  714MPD2     H10558   2.005   1.957   1.341  1.4079  0.1805  0.8755
  714MPD2    H110559   2.020   2.381   1.410 -0.1587 -0.6553 -0.5334
  714MPD2    H210560   2.274   2.117   1.628  1.7189  1.2640 -0.2911
  714MPD2    H310561   2.178   2.342   1.595 -2.7640  0.2104  0.4920
  714MPD2     N10562   1.898   2.184   1.266 -0.0615 -0.2099  0.2502
  714MPD2    H510563   1.859   2.096   1.238  0.5952 -0.1583 -0.8220
  714MPD2    N110564   2.193   1.897   1.514 -0.0717 -0.1851  0.0774
  714MPD2    H710565   2.254   1.907   1.594  0.8269 -0.7830 -0.5428
  715TMC3    C110566   2.243   1.658   1.525 -0.3710 -0.4524  0.6339
  715TMC3    C210567   2.287   1.546   1.450 -0.4163 -0.5448  0.1098
  715TMC3    C310568   2.378   1.471   1.519 -0.6964  0.5376 -0.7755
  715TMC3    C410569   2.279   1.685   1.654 -0.4065 -0.6577  0.3084
  715TMC3    C510570   2.358   1.594   1.717 -1.0534 -0.8470 -0.2075
  715TMC3    C610571   2.425   1.500   1.646  0.0789  0.2573  0.0944
  715TMC3     C10572   2.180   1.775   1.451  0.7033  0.2719 -0.2916
  715TMC3     O10573   2.155   1.760   1.331 -0.5181  0.0372 -0.0787
  715TMC3     H10574   2.255   1.536   1.347  1.4290 -2.0843 -0.3033
  715TMC3    H110575   2.244   1.774   1.706  0.4477 -0.2134  0.1161
  715TMC3    H210576   2.496   1.434   1.694  0.9218 -0.6900 -2.4437
  715TMC3    C710577   2.458   1.653   1.804  0.2845  0.1605  0.1521
  715TMC3    C810578   2.460   1.386   1.440 -0.1928 -0.6438  0.1630
  715TMC3    O110579   2.575   1.629   1.773  0.0082  0.0608 -0.1051
  715TMC3    O210580   2.420   1.343   1.332  1.1544 -0.4353  1.2595
  716MPD2     C10581   2.306   0.135   9.980 -0.4354 -0.6429 -0.1530
  716MPD2    C110582   2.361   0.157   9.859  0.0505 -0.0567  0.9813
  716MPD2    C210583   2.456   0.075   9.820 -0.2656  0.0927  0.9617
  716MPD2    C310584   2.511   4.693   9.897 -1.0941  0.2313 -0.1367
  716MPD2    C410585   2.452   4.672  10.019 -0.4610 -0.4702  0.2632
  716MPD2    C510586   2.357   0.033  10.058  0.6131 -0.0702 -0.5049
  716MPD2     H10587   2.483   0.092   9.716  1.5733 -2.5657  0.9850
  716MPD2    H110588   2.474   4.594  10.092 -0.6936 -0.7926 -0.0098
  716MPD2    H210589   2.219   0.188  10.016  0.2536  0.6160 -0.3548
  716MPD2    H310590   2.317   0.017  10.158  0.2029  0.2190 -0.6233
  716MPD2     N10591   2.604   4.608   9.830  0.6828 -0.3725 -0.3666
  716MPD2    H510592   2.646   4.638   9.742  0.2159 -1.9755 -1.1283
  716MPD2    N110593   2.330   0.262   9.772  0.2696 -0.3991 -0.3262
  716MPD2    H710594   2.378   0.281   9.684 -2.5602 -0.5183 -1.8901
  717TMC3    C110595   2.772   4.454   9.831 -0.3327 -0.0061  0.2666
  717TMC3    C210596   2.827   4.534   9.739 -0.1441 -0.0355  0.3008
  717TMC3    C310597   2.887   4.476   9.633 -0.6358  0.0298 -0.2756
  717TMC3    C410598   2.804   4.318   9.835 -0.3025  0.1486 -0.3962
  717TMC3    C510599   2.853   4.267   9.716  0.3852 -0.1838  0.3224
  717TMC3    C610600   2.895   4.347   9.613 -0.5133  0.0944  0.2297
  717TMC3     C10601   2.648   4.494   9.889  0.1209  0.0946 -0.1333
  717TMC3     O10602   2.591   4.424   9.967 -0.0890  0.4697 -0.1830
  717TMC3     H10603   2.830   4.641   9.760 -0.6349  0.0591 -0.1026
  717TMC3    H110604   2.767   4.256   9.917 -0.2496 -2.5112 -2.3610
  717TMC3    H210605   2.924   4.311   9.514 -0.8787  0.5355 -0.0332
  717TMC3    C710606   2.875   4.123   9.699 -0.0999 -0.2590 -0.5880
  717TMC3    C810607   2.880   4.570   9.520  0.6317  0.6365 -1.0756
  717TMC3    O110608   2.969   4.092   9.630 -0.2796  0.4183 -0.0772
  717TMC3    O210609   2.775   4.635   9.526 -0.2568  0.1557  0.9716
  718MPD2     C10610   1.780   3.564  13.166 -0.1401  0.5024 -0.6137
  718MPD2    C110611   1.784   3.549  13.028 -0.3620 -0.5627 -0.1172
  718MPD2    C210612   1.675   3.486  12.965  0.3531 -0.0489  0.4787
  718MPD2    C310613   1.571   3.433  13.037 -0.5015 -0.2505 -0.2449
  718MPD2    C410614   1.573   3.447  13.174  0.0184 -0.4054  0.2713
  718MPD2    C510615   1.669   3.520  13.236 -0.0026  0.0085  0.0489
  718MPD2     H10616   1.666   3.473  12.858  0.3987  2.3560  0.1814
  718MPD2    H110617   1.501   3.407  13.245 -0.2687 -1.6344 -0.7091
  718MPD2    H210618   1.850   3.629  13.216  0.0408  1.3673 -1.9859
  718MPD2    H310619   1.664   3.531  13.344  0.8835  0.0204  0.0857
  718MPD2     N10620   1.472   3.374  12.959  0.1610  0.9791 -0.1707
  718MPD2    H510621   1.480   3.382  12.858  0.3424 -0.8872 -0.3017
  718MPD2    N110622   1.887   3.584  12.938  0.1108  0.1333  0.1286
  718MPD2    H710623   1.876   3.547  12.844 -0.8123  0.9742 -0.0937
  719TMC3    C110624   2.068   3.704  12.848 -0.4468 -0.3920 -0.5242
  719TMC3    C210625   2.013   3.635  12.743 -0.2772  0.9609  0.2793
  719TMC3    C310626   1.955   3.712  12.638 -0.2201  0.2588  0.3710
  719TMC3    C410627   2.083   3.842  12.847  0.3156  0.1294 -0.0297
  719TMC3    C510628   2.044   3.910  12.735 -0.3914 -0.5945 -0.6104
  719TMC3    C610629   1.975   3.847  12.636  0.2134 -0.3839 -0.2296
  719TMC3     C10630   1.997   3.655  12.966  0.5106 -0.0383 -0.5667
  719TMC3     O10631   2.036   3.692  13.077  0.0320  0.0910  0.4894
  719TMC3     H10632   2.010   3.527  12.741  0.7382  0.9345  0.0581
  719TMC3    H110633   2.128   3.889  12.933  0.3777  0.8984 -0.4724
  719TMC3    H210634   1.941   3.899  12.548 -0.6343  1.7178  1.3301
  719TMC3    C710635   2.109   4.030  12.699  0.4119  0.1108  0.7052
  719TMC3    C810636   1.823   3.661  12.592 -0.0306 -0.0676  0.1676
  719TMC3    O110637   2.122   4.053  12.581  0.0688  0.3310 -0.6460
  719TMC3    O210638   1.785   3.560  12.650  0.0523 -0.3309  0.5899
  720MPD2     C10639   4.716   0.705  14.231  0.1370  0.4462 -0.2266
  720MPD2    C110640   0.073   0.655  14.128  0.1184  0.6067  0.4378
  720MPD2    C210641   0.176   0.568  14.161 -0.0094 -0.4923  0.1451
  720MPD2    C310642   0.211   0.568  14.293 -0.0028  0.0052  0.0704
  720MPD2    C410643   0.131   0.606  14.394 -0.1868 -0.3672  0.3789
  720MPD2    C510644   0.010   0.663  14.366  0.1889 -0.3016 -0.4541
  720MPD2     H10645   0.241   0.528  14.084  1.3216  2.0793 -0.0642
  720MPD2    H110646   0.160   0.594  14.498  0.0221 -0.2901  0.3290
  720MPD2    H210647   4.628   0.767  14.217  0.4747  0.8526 -0.5410
  720MPD2    H310648   4.662   0.690  14.445 -0.7986  0.0047 -1.4312
  720MPD2     N10649   0.342   0.526  14.321 -0.5719  0.6229 -0.9513
  720MPD2    H510650   0.402   0.495  14.245 -0.8271 -2.2068  0.0075
  720MPD2    N110651   0.034   0.674  13.990  0.6623 -0.5681  0.3711
  720MPD2    H710652   0.089   0.621  13.923  0.2580 -0.6241  0.0770
  721TMC3    C110653   0.556   0.516  14.415  0.2339 -0.2241  0.2742
  721TMC3    C210654   0.638   0.449  14.501  0.0365 -0.0501  0.1039
  721TMC3    C310655   0.771   0.441  14.473 -0.0438 -0.7275 -0.9002
  721TMC3    C410656   0.608   0.579  14.298  0.1896 -0.3616 -0.0754
  721TMC3    C510657   0.749   0.567  14.288  0.3112  0.5486  0.1151
  721TMC3    C610658   0.827   0.495  14.364 -0.2787 -0.1121  0.4674
  721TMC3     C10659   0.409   0.519  14.445 -0.1352 -0.3938  0.0034
  721TMC3     O10660   0.370   0.524  14.559 -0.6085 -0.2738  0.5429
  721TMC3     H10661   0.587   0.418  14.592  0.0203 -0.3619 -0.0149
  721TMC3    H110662   0.551   0.651  14.239 -1.8502 -2.3417 -0.5111
  721TMC3    H210663   0.933   0.493  14.343 -0.7105  1.2361 -1.8165
  721TMC3    C710664   0.814   0.648  14.187 -0.2046  0.0066 -0.5037
  721TMC3    C810665   0.861   0.400  14.582  0.9203  0.3627  0.4652
  721TMC3    O110666   0.937   0.632  14.178  0.0787  0.1205 -0.0539
  721TMC3    O210667   0.964   0.339  14.556  0.2300  0.6533  0.1352
  722MPD2     C10668   3.625   4.387  13.656  1.2061 -0.0373 -0.1166
  722MPD2    C110669   3.630   4.440  13.532  0.5401 -0.4844 -0.3296
  722MPD2    C210670   3.513   4.453  13.457  0.4195  0.3510 -0.0596
  722MPD2    C310671   3.392   4.414  13.506 -0.3718 -1.4989  0.2422
  722MPD2    C410672   3.385   4.367  13.634  0.7554  0.4900  0.8332
  722MPD2    C510673   3.499   4.353  13.704 -0.4461  0.1909  0.4553
  722MPD2     H10674   3.514   4.484  13.353 -4.0247 -0.3565 -0.3353
  722MPD2    H110675   3.288   4.340  13.674  0.0250  1.3205 -0.3954
  722MPD2    H210676   3.714   4.373  13.716  1.0843 -0.8214 -0.1179
  722MPD2    H310677   3.490   4.297  13.797  0.1109  0.6774  0.8025
  722MPD2     N10678   3.276   4.429  13.422  0.3509 -0.2482  0.5388
  722MPD2    H510679   3.288   4.474  13.332  3.0588  2.8217  2.4439
  722MPD2    N110680   3.741   4.478  13.450 -0.1866 -0.4933 -0.2463
  722MPD2    H710681   3.715   4.525  13.364 -0.7286 -0.0033  0.1815
  723TMC3    C110682   3.076   4.416  13.326  0.7314  0.4360 -0.0880
  723TMC3    C210683   3.054   4.327  13.229  0.6164 -0.0649  0.2933
  723TMC3    C310684   3.011   4.369  13.111 -0.0542  0.0933 -0.2880
  723TMC3    C410685   3.081   4.550  13.294  0.2237 -0.8658  0.9275
  723TMC3    C510686   3.048   4.586  13.163  0.1563 -0.2983  0.9873
  723TMC3    C610687   3.006   4.495  13.074 -0.0437  0.2788 -0.3284
  723TMC3     C10688   3.158   4.367  13.435  0.6678 -0.6183 -0.3432
  723TMC3     O10689   3.135   4.262  13.498  0.3532  0.5768 -0.3785
  723TMC3     H10690   3.053   4.223  13.260 -1.0317 -1.0333 -2.9574
  723TMC3    H110691   3.106   4.621  13.372  1.7583 -0.4215  0.0428
  723TMC3    H210692   2.977   4.531  12.976  0.4000  0.6950 -0.3123
  723TMC3    C710693   3.094   4.710  13.114  0.0595 -0.1482 -0.3885
  723TMC3    C810694   2.976   4.269  13.006  0.1012 -0.2839  0.2105
  723TMC3    O110695   3.059   0.030  13.004 -0.0202  0.0297 -0.7982
  723TMC3    O210696   2.910   4.311  12.910  0.2183  0.3847  0.1272
  724TMC3    C110697   4.380   2.532   9.993 -0.0990  0.4139  0.2650
  724TMC3    C210698   4.356   2.616   9.893 -0.3066 -0.5429 -0.5294
  724TMC3    C310699   4.305   2.560   9.781 -0.0612 -0.1671 -0.5675
  724TMC3    C410700   4.319   2.408  10.004 -0.1950 -0.6413  0.0052
  724TMC3    C510701   4.230   2.368   9.906  0.8993  0.3454  0.0060
  724TMC3    C610702   4.228   2.445   9.795  0.4490  0.4225  0.5738
  724TMC3     C10703   4.464   2.572  10.109  0.0722  0.4648 -0.0773
  724TMC3     O10704   4.490   2.481  10.186  0.2531  0.6728 -0.1102
  724TMC3     H10705   4.422   2.702   9.886 -0.3611 -0.4188  0.4321
  724TMC3    H110706   4.339   2.354  10.096 -0.2579 -0.0103  0.3854
  724TMC3    H210707   4.167   2.405   9.715  0.6426  0.1733  0.5500
  724TMC3    C710708   4.146   2.258   9.902 -0.5165  0.7622 -0.3617
  724TMC3    C810709   4.288   2.637   9.656  0.2992  0.0552 -1.4022
  724TMC3    O110710   4.131   2.209   9.789  0.2032  0.4835  0.1340
  724TMC3    O210711   4.232   2.579   9.563  0.3143 -0.2160  0.3574
  725TMC3    C110712   0.793   0.569  12.064 -0.3432 -0.4077 -0.3434
  725TMC3    C210713   0.837   0.620  11.950  0.6504 -0.0093  0.0599
  725TMC3    C310714   0.863   0.534  11.845  0.0422  0.6178  0.0928
  725TMC3    C410715   0.794   0.438  12.099 -0.3101  0.4270 -0.5035
  725TMC3    C510716   0.836   0.355  11.999 -0.1040  0.7395 -0.6979
  725TMC3    C610717   0.878   0.401  11.875  0.2513  0.0965  0.5755
  725TMC3     C10718   0.758   0.660  12.174 -0.5481  0.0920  0.2703
  725TMC3     O10719   0.805   0.642  12.288  0.1097  0.4397 -0.2332
  725TMC3     H10720   0.821   0.727  11.943 -0.8389 -0.2124  0.3738
  725TMC3    H110721   0.749   0.413  12.194 -0.8035  2.7425 -0.1322
  725TMC3    H210722   0.896   0.331  11.795 -1.9602 -0.6054  0.6816
  725TMC3    C710723   0.834   0.211  12.013 -0.8228  0.5586  0.0133
  725TMC3    C810724   0.944   0.595  11.746  0.6715  0.0903  0.0705
  725TMC3    O110725   0.926   0.155  11.950 -0.1114 -0.1745 -0.1551
  725TMC3    O210726   1.010   0.525  11.670 -0.5943 -0.4369  0.4546
  726MPD2     C10727   3.705   2.870  10.193 -0.3616 -0.2647 -0.9596
  726MPD2    C110728   3.621   2.812  10.101  0.3834 -0.6966  0.8900
  726MPD2    C210729   3.541   2.712  10.147  0.0822 -0.1155 -0.0399
  726MPD2    C310730   3.558   2.654  10.275 -0.3329  0.6663 -0.1880
  726MPD2    C410731   3.648   2.713  10.362  0.0613  0.4387  0.4822
  726MPD2    C510732   3.728   2.820  10.323 -0.3070 -0.3490 -0.2203
  726MPD2     H10733   3.471   2.677  10.072  0.4347  0.0589 -0.4471
  726MPD2    H110734   3.644   2.687  10.468  1.2779 -1.9138 -0.0362
  726MPD2    H210735   3.741   2.971  10.177  0.9401 -0.2943  1.6936
  726MPD2    H310736   3.771   2.878  10.404 -0.3984 -0.8244  0.1660
  726MPD2     N10737   3.476   2.546  10.324  0.3434  0.8758  0.1344
  726MPD2    H510738   3.500   2.504  10.414 -2.0684  1.5705  1.0899
  726MPD2    N110739   3.582   2.878   9.980  0.2720  0.1417  0.2248
  726MPD2    H710740   3.494   2.859   9.933  1.0645 -1.2406 -0.7147
  727TMC3    C110741   3.614   3.034   9.794 -0.3586 -0.9064 -0.4728
  727TMC3    C210742   3.682   3.144   9.753 -0.2920 -0.7942  0.0115
  727TMC3    C310743   3.612   3.239   9.687  0.5278 -0.0002 -0.4339
  727TMC3    C410744   3.492   3.008   9.740  0.3305  0.3803  0.0084
  727TMC3    C510745   3.429   3.104   9.658 -0.0655 -0.3860 -0.3955
  727TMC3    C610746   3.482   3.228   9.641 -0.5702  0.8495  0.9514
  727TMC3     C10747   3.666   2.963   9.908  0.6404  0.0579  0.6279
  727TMC3     O10748   3.787   2.978   9.930  0.5484 -0.5670  0.0181
  727TMC3     H10749   3.784   3.156   9.788 -1.1831  1.9393  1.6285
  727TMC3    H110750   3.458   2.905   9.750 -3.5411  1.7994  1.5129
  727TMC3    H210751   3.430   3.305   9.586 -0.2009  0.4185  0.0086
  727TMC3    C710752   3.323   3.081   9.569 -0.6137 -0.4865  0.5736
  727TMC3    C810753   3.646   3.372   9.718 -0.2399  0.9420  0.0933
  727TMC3    O110754   3.327   3.125   9.457 -0.4995 -0.3043 -0.3675
  727TMC3    O210755   3.768   3.390   9.733 -0.1076 -0.9788 -0.6123
  728TMC3    C110756   2.739   1.253  15.363 -1.3292  0.0380  0.7404
  728TMC3    C210757   2.844   1.332  15.349  0.4644 -0.3412  0.0634
  728TMC3    C310758   2.860   1.401  15.236 -0.7479 -0.2944  0.4866
  728TMC3    C410759   2.652   1.232  15.257 -0.0703  0.3244  0.1281
  728TMC3    C510760   2.674   1.301  15.149  0.7701 -0.7053 -0.0420
  728TMC3    C610761   2.774   1.388  15.133  0.9513  0.0316  0.1750
  728TMC3     C10762   2.713   1.203  15.501  0.4470 -0.1230 -0.4313
  728TMC3     O10763   2.810   1.197  15.574 -0.0549  0.9647  0.0450
  728TMC3     H10764   2.910   1.353  15.433  1.1694 -1.3663 -0.2422
  728TMC3    H110765   2.573   1.158  15.261 -1.6955  2.1566  2.0511
  728TMC3    H210766   2.784   1.460  15.053  0.8860 -0.8205 -0.6071
  728TMC3    C710767   2.592   1.265  15.034  0.6644  0.1905 -0.3410
  728TMC3    C810768   2.982   1.483  15.228 -0.0554  0.1964  0.3620
  728TMC3    O110769   2.492   1.198  15.060 -0.6686  0.2001  0.0122
  728TMC3    O210770   3.040   1.510  15.339  0.1452 -0.1261 -0.5416
  729MPD2     C10771   0.126   2.160  16.072 -0.0291 -0.4788  0.4659
  729MPD2    C110772   0.147   2.276  16.139  0.1327  0.1140  0.1286
  729MPD2    C210773   0.076   2.304  16.253 -0.3651 -0.0916 -0.3762
  729MPD2    C310774   4.713   2.212  16.309 -0.1605 -0.3126 -0.4072
  729MPD2    C410775   4.699   2.086  16.250  0.3757  0.3978  0.1988
  729MPD2    C510776   0.042   2.064  16.132 -0.1099  0.2965 -0.0739
  729MPD2     H10777   0.096   2.397  16.305  0.3463 -1.0085  0.9716
  729MPD2    H110778   4.637   2.010  16.296  2.0318 -1.1236 -0.0629
  729MPD2    H210779   0.174   2.142  15.977  0.9336  1.1541  0.6567
  729MPD2    H310780   0.026   1.972  16.077  0.1131 -0.4236  1.0577
  729MPD2     N10781   4.641   2.232  16.431  0.5875 -0.6365  0.1046
  729MPD2    H510782   4.590   2.150  16.463 -1.3869 -0.0851 -1.5972
  729MPD2    N110783   0.241   2.372  16.086 -0.1624 -0.5754  0.5357
  729MPD2    H710784   0.289   2.330  16.007  1.7975  0.7133  1.0339
  730TMC3    C110785   4.603   2.323  16.646 -0.8160 -0.1212 -0.3603
  730TMC3    C210786   4.650   2.217  16.715  0.9543  0.4016 -0.0680
  730TMC3    C310787   4.688   2.247  16.848  0.0074 -0.5310  0.6957
  730TMC3    C410788   4.584   2.445  16.709 -0.1035  0.4999 -0.4377
  730TMC3    C510789   4.625   2.473  16.832  0.3660 -0.3651 -0.5816
  730TMC3    C610790   4.685   2.373  16.902  0.2301 -0.1337 -0.0361
  730TMC3     C10791   4.654   2.339  16.512 -0.1806  0.3313  0.0588
  730TMC3     O10792   4.701   2.447  16.479  0.9407 -0.0335 -0.1965
  730TMC3     H10793   4.661   2.120  16.668 -0.6433 -0.6088  1.6033
  730TMC3    H110794   4.540   2.532  16.661  0.0243 -0.4923 -2.3710
  730TMC3    H210795   0.013   2.396  16.996 -0.8192  0.2909  0.4050
  730TMC3    C710796   4.633   2.609  16.869  0.7754 -0.9373 -0.0201
  730TMC3    C810797   0.056   2.151  16.915  0.5292  0.3454  0.1196
  730TMC3    O110798   4.627   2.692  16.775 -0.4601 -0.4190 -0.1984
  730TMC3    O210799   0.014   2.036  16.916  0.0154  0.6574 -0.0624
  731MPD2     C10800   0.172   0.743  12.101 -0.1281  0.2404  0.9562
  731MPD2    C110801   0.286   0.677  12.052  0.8395 -0.0081  0.5372
  731MPD2    C210802   0.372   0.629  12.145  0.5030  0.1175 -0.4112
  731MPD2    C310803   0.348   0.639  12.286 -0.1156  0.2853 -0.3674
  731MPD2    C410804   0.241   0.711  12.328  0.0269 -0.2318  0.1914
  731MPD2    C510805   0.153   0.761  12.237  1.0727  0.2020  0.8055
  731MPD2     H10806   0.455   0.569  12.110  0.2639 -1.3145  1.4323
  731MPD2    H110807   0.221   0.733  12.432 -0.6010 -0.4925  0.1267
  731MPD2    H210808   0.103   0.789  12.030 -0.8115 -1.5203  0.4817
  731MPD2    H310809   0.064   0.818  12.262  0.8473  0.4832 -0.6527
  731MPD2     N10810   0.444   0.585  12.379 -0.1775  0.5375  0.6764
  731MPD2    H510811   0.532   0.553  12.340  0.0134 -0.6648  2.1318
  731MPD2    N110812   0.305   0.667  11.917  0.5931 -0.1608  0.0458
  731MPD2    H710813   0.231   0.701  11.857  0.9606 -1.6226 -1.2499
  732TMC3    C110814   0.425   0.593  11.719 -0.3914 -0.5446 -1.2161
  732TMC3    C210815   0.322   0.509  11.698  0.2581  0.0164 -0.0901
  732TMC3    C310816   0.339   0.407  11.609 -0.3543 -0.1112 -0.0640
  732TMC3    C410817   0.543   0.587  11.656  0.3012 -0.0728  0.1238
  732TMC3    C510818   0.564   0.485  11.561 -0.3510  0.3581  0.2966
  732TMC3    C610819   0.461   0.392  11.540  0.0525  0.4093  0.1031
  732TMC3     C10820   0.428   0.644  11.852 -0.2056  0.6345  0.1508
  732TMC3     O10821   0.540   0.651  11.899  0.3762  0.3716 -0.3474
  732TMC3     H10822   0.228   0.520  11.750 -0.5069  0.9100 -1.6735
  732TMC3    H110823   0.617   0.665  11.668 -1.6267  1.7753  0.0336
  732TMC3    H210824   0.478   0.321  11.460 -2.1644 -0.6017  0.5074
  732TMC3    C710825   0.688   0.472  11.488  0.0156  0.5113 -0.0801
  732TMC3    C810826   0.243   0.294  11.599  0.3186 -0.0654  0.3885
  732TMC3    O110827   0.736   0.573  11.434  0.5467  0.2902  0.0432
  732TMC3    O210828   0.243   0.236  11.491  0.6101 -0.5343  0.6682
  733TMC3    C110829   1.061   3.220  12.804  0.4229 -0.1085 -0.2142
  733TMC3    C210830   1.152   3.230  12.911  0.4567  0.4514 -0.1226
  733TMC3    C310831   1.259   3.310  12.891  1.0197  0.0992  0.2345
  733TMC3    C410832   1.080   3.283  12.686 -0.4286 -0.4208 -0.1370
  733TMC3    C510833   1.197   3.363  12.675 -0.3750 -0.7437  0.4356
  733TMC3    C610834   1.282   3.383  12.779 -0.4784 -0.0107  0.3387
  733TMC3     C10835   0.921   3.166  12.826  0.3742 -0.0613  0.1174
  733TMC3     O10836   0.840   3.226  12.755  0.2033 -0.2287  0.1864
  733TMC3     H10837   1.143   3.177  13.005 -2.0655 -0.4517 -0.8838
  733TMC3    H110838   1.008   3.274  12.606 -1.0105  2.1778  0.0679
  733TMC3    H210839   1.335   3.478  12.785 -1.4529  0.4641  1.4644
  733TMC3    C710840   1.211   3.445  12.563 -0.0123 -0.6983  0.5515
  733TMC3    C810841   1.350   3.324  13.000 -0.2003  0.1439  0.2774
  733TMC3    O110842   1.115   3.465  12.491 -0.1246  0.0108  0.2311
  733TMC3    O210843   1.307   3.308  13.114  0.2738  0.0045 -0.2524
  734MPD2     C10844   3.286   1.178  12.658 -0.3563 -0.0876 -0.2864
  734MPD2    C110845   3.257   1.071  12.582  0.0527 -0.5355 -0.3930
  734MPD2    C210846   3.308   1.080  12.446  1.3870 -0.6377  0.1384
  734MPD2    C310847   3.373   1.190  12.403 -0.4216  0.0830 -0.4494
  734MPD2    C410848   3.399   1.301  12.486  0.1218  0.0289  0.6910
  734MPD2    C510849   3.355   1.289  12.609 -0.1963  0.0076  0.5173
  734MPD2     H10850   3.293   0.997  12.379 -0.4373 -0.5814  0.4717
  734MPD2    H110851   3.455   1.391  12.462 -2.4112  1.2309 -0.6251
  734MPD2    H210852   3.251   1.182  12.760 -2.0473 -1.0651 -0.8185
  734MPD2    H310853   3.361   1.377  12.672 -0.6350 -0.0970  0.7065
  734MPD2     N10854   3.409   1.193  12.263 -0.4210 -0.2247  0.3015
  734MPD2    H510855   3.399   1.108  12.208  1.1240 -0.7030  0.7742
  734MPD2    N110856   3.200   0.950  12.635 -0.2447  0.0145  0.6816
  734MPD2    H710857   3.193   0.943  12.736  0.3047 -1.5283  0.6025
  735TMC3    C110858   3.093   0.743  12.618 -0.4557 -0.5694  0.0909
  735TMC3    C210859   3.011   0.669  12.535  0.2616  0.1573 -0.1768
  735TMC3    C310860   3.039   0.541  12.504  0.4746 -0.7040 -0.0557
  735TMC3    C410861   3.193   0.675  12.696 -0.5357 -0.0768 -0.1960
  735TMC3    C510862   3.201   0.539  12.678  0.8807  0.1492 -0.1350
  735TMC3    C610863   3.134   0.476  12.584  0.6509  0.6382  0.2514
  735TMC3     C10864   3.139   0.864  12.554 -0.0541 -0.7895  0.4292
  735TMC3     O10865   3.110   0.882  12.440 -0.0962 -0.5092 -0.1947
  735TMC3     H10866   2.940   0.729  12.480  0.4862  0.5193 -0.0673
  735TMC3    H110867   3.255   0.728  12.768 -0.2539  1.6353 -1.7210
  735TMC3    H210868   3.156   0.377  12.544 -1.5093  0.0927  0.4108
  735TMC3    C710869   3.334   0.485  12.705  0.1512 -0.1782 -0.5718
  735TMC3    C810870   3.060   0.518  12.362 -0.5214 -0.1959 -0.4414
  735TMC3    O110871   3.421   0.568  12.703  0.1446  0.3766  0.1345
  735TMC3    O210872   3.097   0.406  12.328 -0.3568  0.0738 -0.2770
  736MPD2     C10873   3.442   0.135  12.693 -0.7365  0.1342 -1.0999
  736MPD2    C110874   3.460   0.273  12.690  0.2603  0.0615 -0.0854
  736MPD2    C210875   3.585   0.327  12.669  0.1443  0.0302 -0.0537
  736MPD2    C310876   3.693   0.242  12.634 -1.2925  0.0944  0.5913
  736MPD2    C410877   3.676   0.105  12.645  0.1984  0.5531  0.6855
  736MPD2    C510878   3.556   0.057  12.686  0.0539 -0.4450  0.1719
  736MPD2     H10879   3.592   0.433  12.649 -1.4204  0.2730  0.6996
  736MPD2    H110880   3.765   0.046  12.626 -0.5008 -0.0857 -0.6173
  736MPD2    H210881   3.345   0.088  12.698  0.4882 -2.2031  1.0631
  736MPD2    H310882   3.550   4.671  12.698  0.3283 -0.3873  0.8108
  736MPD2     N10883   3.803   0.296  12.568  0.3222 -0.2504 -0.6076
  736MPD2    H510884   3.860   0.224  12.524  0.1369 -1.4179  1.0710
  736MPD2    N110885   3.344   0.347  12.709  0.2245  0.2977 -0.1612
  736MPD2    H710886   3.257   0.295  12.713  0.0596  0.7882  2.5498
  737TMC3    C110887   3.892   0.453  12.411  0.1721  0.1114  0.0591
  737TMC3    C210888   3.888   0.587  12.373  0.4168 -0.3241  0.2525
  737TMC3    C310889   3.958   0.617  12.261 -0.5293  0.3625  0.0803
  737TMC3    C410890   3.944   0.349  12.337 -0.4942 -0.2113  0.4636
  737TMC3    C510891   4.003   0.385  12.219 -0.0688  0.1923 -0.0509
  737TMC3    C610892   4.012   0.515  12.185 -0.3453  0.3794  1.7477
  737TMC3     C10893   3.811   0.426  12.529  0.6381 -0.3191  0.8834
  737TMC3     O10894   3.792   0.527  12.603 -0.6111 -0.1356  0.3337
  737TMC3     H10895   3.847   0.664  12.438  1.2303  0.0778  0.2871
  737TMC3    H110896   3.948   0.246  12.368  1.5528 -0.2466  0.0937
  737TMC3    H210897   4.063   0.533  12.091  0.6502 -2.5477  1.6993
  737TMC3    C710898   4.034   0.275  12.131 -0.4058 -0.7169 -0.7440
  737TMC3    C810899   3.963   0.758  12.212  0.5265  0.8717 -0.3789
  737TMC3    O110900   3.990   0.161  12.164 -0.5621  0.0812 -0.4522
  737TMC3    O210901   3.963   0.852  12.291  0.1560 -0.2430  0.1765
  738MPD2     C10902   3.590   4.469  14.967 -0.1597 -0.5120 -0.4408
  738MPD2    C110903   3.632   4.485  15.096 -0.3011 -0.2952  0.3361
  738MPD2    C210904   3.716   4.587  15.135  0.1735 -0.0936 -0.1144
  738MPD2    C310905   3.759   4.674  15.040 -0.6392 -0.6431  0.7245
  738MPD2    C410906   3.731   4.643  14.916  0.7020  0.9707  0.7363
  738MPD2    C510907   3.665   4.536  14.879 -0.6902 -0.5171  0.2145
  738MPD2     H10908   3.756   4.587  15.236  1.5467  1.1653 -0.6685
  738MPD2    H110909   3.771   4.698  14.831  1.1338 -1.8987 -0.9493
  738MPD2    H210910   3.532   4.385  14.932  2.5739 -1.5437 -2.4912
  738MPD2    H310911   3.660   4.525  14.771  0.2102  0.7758  0.0458
  738MPD2     N10912   3.835   0.063  15.065 -0.3147  0.0543 -0.4311
  738MPD2    H510913   3.872   0.116  14.987 -0.4576 -0.3545 -0.7783
  738MPD2    N110914   3.588   4.390  15.190 -0.3087  0.5687  0.2658
  738MPD2    H710915   3.644   4.391  15.274  1.0295 -1.7736 -0.5838
  739TMC3    C110916   3.924   0.238  15.187  0.1277 -0.4654  1.2357
  739TMC3    C210917   4.022   0.245  15.090 -0.1256  0.6822 -0.9582
  739TMC3    C310918   4.114   0.349  15.100 -0.4902  0.6280  0.1550
  739TMC3    C410919   3.922   0.332  15.284 -1.0499 -0.5094 -0.0959
  739TMC3    C510920   4.010   0.434  15.284 -0.2896 -0.8322 -0.3255
  739TMC3    C610921   4.108   0.452  15.189  0.1355  0.2969  0.4134
  739TMC3     C10922   3.840   0.121  15.188 -0.0242 -0.7268  0.8442
  739TMC3     O10923   3.802   0.083  15.297 -0.2850  0.0233 -0.3119
  739TMC3     H10924   4.051   0.163  15.026  1.0492  0.7390 -0.4995
  739TMC3    H110925   3.831   0.323  15.342 -1.6069  0.5584 -0.8131
  739TMC3    H210926   4.175   0.538  15.194 -0.1164  0.6242 -2.0849
  739TMC3    C710927   4.006   0.538  15.393 -0.1601 -0.0565  0.2586
  739TMC3    C810928   4.214   0.357  14.999 -1.0748  0.2929  0.3054
  739TMC3    O110929   4.070   0.639  15.367  0.2693  0.1040 -0.7046
  739TMC3    O210930   4.199   0.300  14.894 -0.7206  0.3571 -0.6496
  740TMC3    C110931   0.055   1.033  14.482 -0.3566  0.6438 -0.2932
  740TMC3    C210932   0.111   1.001  14.608  0.1984 -0.9804 -0.1612
  740TMC3    C310933   0.219   0.920  14.599 -0.4456 -0.3596 -0.1433
  740TMC3    C410934   0.107   0.991  14.360  0.5859  0.1460  0.3404
  740TMC3    C510935   0.239   0.940  14.364 -0.0952 -0.5183  0.3911
  740TMC3    C610936   0.291   0.899  14.481  0.3339 -0.1028  0.0114
  740TMC3     C10937   4.646   1.096  14.482 -0.3608  0.3016 -0.2806
  740TMC3     O10938   4.629   1.162  14.381  0.2805  0.7344  0.4318
  740TMC3     H10939   0.059   1.037  14.696 -0.2569  1.8462 -1.5979
  740TMC3    H110940   0.050   1.015  14.271  1.5482  0.3654 -0.2158
  740TMC3    H210941   0.383   0.842  14.478  1.5306  1.9406 -2.2600
  740TMC3    C710942   0.312   0.914  14.237 -0.2388 -0.3152  0.4000
  740TMC3    C810943   0.280   0.869  14.722  0.4751  0.1933 -0.3629
  740TMC3    O110944   0.402   0.829  14.242  0.0641 -0.4943  0.1237
  740TMC3    O210945   0.395   0.826  14.718 -0.1062  0.1568  0.2015
  741TMC3    C110946   4.210   0.155  14.166 -0.8516 -0.7004 -0.4003
  741TMC3    C210947   4.162   0.097  14.281 -0.2111  0.5356  0.0348
  741TMC3    C310948   4.072   0.173  14.354  0.3943 -0.0829 -0.3785
  741TMC3    C410949   4.170   0.278  14.121 -0.1954 -0.6098 -0.0284
  741TMC3    C510950   4.085   0.354  14.204  0.2528  0.5176  0.3553
  741TMC3    C610951   4.038   0.300  14.312 -0.1817 -0.0037 -0.3764
  741TMC3     C10952   4.233   0.047  14.066  0.0794 -0.3644  0.3381
  741TMC3     O10953   4.192   4.656  14.085 -0.5914  0.4980 -0.4464
  741TMC3     H10954   4.211   0.004  14.308 -1.1364  0.2939  0.8468
  741TMC3    H110955   4.226   0.326  14.041 -0.5802  0.8533  0.5942
  741TMC3    H210956   3.946   0.342  14.351 -1.0639  0.4831 -2.9866
  741TMC3    C710957   4.039   0.480  14.147  0.7440 -0.0574  0.1596
  741TMC3    C810958   3.975   0.093  14.430  0.1826  0.5128  0.0081
  741TMC3    O110959   4.054   0.490  14.026 -0.3241  0.4095 -0.4368
  741TMC3    O210960   3.892   0.146  14.505 -0.0324  0.0361 -0.4584
  742TMC3    C110961   4.245   3.983  15.386 -0.4288 -0.4414 -0.0908
  742TMC3    C210962   4.153   3.932  15.291  0.1668  0.2739 -0.2599
  742TMC3    C310963   4.201   3.889  15.170 -0.5247 -0.6364  0.4337
  742TMC3    C410964   4.377   3.958  15.370 -0.4172  0.1904  0.0247
  742TMC3    C510965   4.423   3.903  15.250  0.0351  0.3103  0.7290
  742TMC3    C610966   4.333   3.880  15.150 -0.7584 -0.2485 -0.5073
  742TMC3     C10967   4.189   4.059  15.494  0.4437 -0.2117 -0.2527
  742TMC3     O10968   4.076   4.041  15.529 -0.2946 -0.1547  0.0121
  742TMC3     H10969   4.048   3.956  15.288  0.6655  2.1755 -2.3350
  742TMC3    H110970   4.445   3.976  15.452 -0.6564  0.2196  0.2146
  742TMC3    H210971   4.365   3.859  15.048  5.2550 -0.2145  1.3750
  742TMC3    C710972   4.545   3.836  15.237 -0.0116 -0.6713  0.9580
  742TMC3    C810973   4.119   3.800  15.101 -0.7046 -0.4517  0.8064
  742TMC3    O110974   4.562   3.755  15.149  0.2285  0.3757  0.0309
  742TMC3    O210975   4.133   3.788  14.978 -0.0720 -0.1429  0.3021
  743MPD2     C10976   1.717   0.354   2.384  0.1336  0.4960 -0.0546
  743MPD2    C110977   1.785   0.302   2.267 -0.1072  0.0447 -0.0490
  743MPD2    C210978   1.922   0.302   2.263 -0.3462  0.2489  0.4746
  743MPD2    C310979   1.992   0.364   2.364 -0.2281  0.4049  0.1714
  743MPD2    C410980   1.928   0.403   2.480 -0.0056 -0.0417  0.4371
  743MPD2    C510981   1.792   0.392   2.491 -0.5962 -0.3003 -0.4464
  743MPD2     H10982   1.975   0.276   2.173  0.2829  2.8885  0.1004
  743MPD2    H110983   1.980   0.442   2.567  0.5180 -0.7775  0.4537
  743MPD2    H210984   1.610   0.367   2.394 -0.0080  0.4994 -1.6663
  743MPD2    H310985   1.741   0.415   2.584  1.3417  0.4189  0.4412
  743MPD2     N10986   2.135   0.378   2.339 -0.5827  0.0251 -0.0864
  743MPD2    H510987   2.180   0.333   2.260 -1.1217  0.0394 -0.4039
  743MPD2    N110988   1.704   0.270   2.153 -0.1748  0.4408  0.4081
  743MPD2    H710989   1.605   0.289   2.145 -0.0864  0.3563 -0.8659
  744TMC3    C110990   1.667   0.223   1.915 -0.0234 -0.0043 -0.1314
  744TMC3    C210991   1.547   0.297   1.920  0.1299  0.3863  0.4841
  744TMC3    C310992   1.493   0.327   1.800  0.2117 -0.1975 -0.0549
  744TMC3    C410993   1.718   0.163   1.802  0.4432  0.3870 -0.5712
  744TMC3    C510994   1.639   0.185   1.693 -0.6327 -0.1526  0.1360
  744TMC3    C610995   1.543   0.280   1.685  0.1258  0.7140  0.1958
  744TMC3     C10996   1.753   0.211   2.038  0.1884 -0.0900  0.2142
  744TMC3     O10997   1.854   0.148   2.025  0.2233  0.2326  0.3099
  744TMC3     H10998   1.515   0.352   2.008 -2.1102 -0.0810 -0.0478
  744TMC3    H110999   1.806   0.099   1.805 -0.3574 -0.7872 -2.3502
  744TMC3    H211000   1.510   0.325   1.591  1.0240  0.5862 -0.1785
  744TMC3    C711001   1.674   0.120   1.565  0.5668 -0.2976  0.6346
  744TMC3    C811002   1.359   0.387   1.800  0.2246  0.0809 -0.1617
  744TMC3    O111003   1.640   0.175   1.460  0.3590 -0.9647 -0.1434
  744TMC3    O211004   1.322   0.432   1.694 -0.1232  0.7371  0.1175
  745TMC3    C111005   0.042   3.407  13.954  0.0648  0.0337 -0.8898
  745TMC3    C211006   0.022   3.511  14.036  0.1404 -0.8134 -0.0615
  745TMC3    C311007   4.613   3.528  14.086  0.3227  0.3638 -0.4830
  745TMC3    C411008   4.660   3.317  13.927  1.1388  0.2748 -0.2801
  745TMC3    C511009   4.533   3.352  13.962  0.6302  0.9252 -0.0831
  745TMC3    C611010   4.511   3.457  14.050 -0.3220 -0.4562 -0.6590
  745TMC3     C11011   0.117   3.434  13.832  0.1314  0.2499 -0.5672
  745TMC3     O11012   0.110   3.342  13.751  0.0406  0.8693 -0.3640
  745TMC3     H11013   0.115   3.550  14.076 -0.4768 -1.8926  2.3728
  745TMC3    H111014   4.683   3.217  13.890 -0.0283  0.6733 -2.0879
  745TMC3    H211015   4.414   3.477  14.096 -0.2332  1.3235 -1.2381
  745TMC3    C711016   4.454   3.363  13.844  0.1716 -0.4449  0.4551
  745TMC3    C811017   4.602   3.617  14.199 -0.1470 -0.1867  0.0203
  745TMC3    O111018   4.333   3.350  13.858  0.4390 -0.0399 -0.1221
  745TMC3    O211019   4.499   3.604  14.264  0.6429 -0.2263 -0.3782
  746TMC3    C111020   2.254   0.267  10.877 -0.4676  0.4601  0.0178
  746TMC3    C211021   2.312   0.228  10.756  0.9599  0.7971  0.0632
  746TMC3    C311022   2.234   0.158  10.661 -0.6039  0.4659 -0.6156
  746TMC3    C411023   2.123   0.232  10.920  0.5796 -0.5151 -0.2281
  746TMC3    C511024   2.053   0.158  10.822 -0.3736 -0.1266  0.0736
  746TMC3    C611025   2.101   0.121  10.695  0.7037  0.2364  0.1429
  746TMC3     C11026   2.340   0.350  10.969 -0.7004 -0.9334  0.1849
  746TMC3     O11027   2.280   0.418  11.050 -0.1192  0.2228  0.2576
  746TMC3     H11028   2.399   0.276  10.712  3.3408 -1.2140  2.5643
  746TMC3    H111029   2.076   0.258  11.014 -1.1404 -1.8143 -0.7166
  746TMC3    H211030   2.061   0.041  10.634 -0.6351  1.0359 -0.0398
  746TMC3    C711031   1.914   0.122  10.840 -0.5537  0.0081  0.7647
  746TMC3    C811032   2.235   0.206  10.523 -0.2133 -0.2314  0.3975
  746TMC3    O111033   1.858   0.074  10.741  0.6165  0.7803 -0.1254
  746TMC3    O211034   2.130   0.194  10.460  0.1338 -0.7844  0.0023
  747TMC3    C111035   4.521   0.458  11.208 -0.4056 -0.1378  0.4637
  747TMC3    C211036   4.425   0.386  11.275  0.1774 -0.7932  0.1004
  747TMC3    C311037   4.454   0.357  11.403  0.6663  0.6041 -0.1247
  747TMC3    C411038   4.628   0.517  11.268 -0.1063  0.5780 -0.3577
  747TMC3    C511039   4.646   0.485  11.400  0.2919  0.4382 -0.1138
  747TMC3    C611040   4.562   0.400  11.471 -0.2134 -0.2302 -0.8627
  747TMC3     C11041   4.481   0.545  11.097  0.3668  0.0499  0.0208
  747TMC3     O11042   4.479   0.668  11.111  0.3777  0.1314 -0.2538
  747TMC3     H11043   4.326   0.375  11.232  1.3750 -0.8272 -2.6127
  747TMC3    H111044   4.678   0.603  11.225  1.6817 -0.6259 -0.6727
  747TMC3    H211045   4.566   0.365  11.573 -0.8415  3.9921  0.5842
  747TMC3    C711046   0.026   0.564  11.472 -0.5421 -0.3113 -0.3320
  747TMC3    C811047   4.356   0.270  11.480 -0.6275 -0.1650  0.9169
  747TMC3    O111048   0.015   0.572  11.593  0.2437 -0.1006  0.2536
  747TMC3    O211049   4.296   0.206  11.401  0.3217 -0.1148 -0.1661
  748MPD2     C11050   0.431   1.199   1.300 -0.3928 -0.1360  0.3690
  748MPD2    C111051   0.493   1.189   1.425  0.6071 -0.4813 -0.1857
  748MPD2    C211052   0.630   1.193   1.432  0.4999 -0.3960 -0.5370
  748MPD2    C311053   0.709   1.218   1.319 -0.6271 -0.0679 -0.3874
  748MPD2    C411054   0.642   1.229   1.196 -0.6253 -0.2917  0.8540
  748MPD2    C511055   0.505   1.220   1.186  0.4344 -0.1706 -0.0584
  748MPD2     H11056   0.691   1.180   1.521 -0.9174 -0.0508  0.4772
  748MPD2    H111057   0.688   1.248   1.100  0.0302  1.1873  1.4523
  748MPD2    H211058   0.324   1.200   1.283 -0.4620 -2.5506  0.7274
  748MPD2    H311059   0.453   1.245   1.094 -2.0043 -2.3753  0.7384
  748MPD2     N11060   0.848   1.222   1.336  0.7891 -0.2678 -0.3551
  748MPD2    H511061   0.874   1.229   1.434 -0.7001  0.5385 -0.0152
  748MPD2    N111062   0.415   1.159   1.537 -0.9914  0.4635  0.1026
  748MPD2    H711063   0.316   1.167   1.518 -0.4747 -1.4288 -3.1790
  749TMC3    C111064   1.074   1.233   1.257  0.3830 -0.2554 -0.2464
  749TMC3    C211065   1.124   1.169   1.370 -0.0810  0.4533  0.4836
  749TMC3    C311066   1.259   1.129   1.371  0.2347  0.1001  0.2069
  749TMC3    C411067   1.161   1.268   1.153 -0.0638 -0.4391 -0.0602
  749TMC3    C511068   1.288   1.228   1.160 -0.1114  1.2208 -0.2791
  749TMC3    C611069   1.342   1.166   1.268 -0.9765  0.2888 -0.6183
  749TMC3     C11070   0.933   1.249   1.232 -0.6527 -1.0552 -0.6678
  749TMC3     O11071   0.910   1.284   1.118  0.4528 -0.8064 -0.9188
  749TMC3     H11072   1.055   1.140   1.448 -0.7011 -1.5026 -0.7963
  749TMC3    H111073   1.130   1.337   1.076 -2.1386 -0.2815  0.9204
  749TMC3    H211074   1.444   1.131   1.266 -1.1818 -0.4752  1.8844
  749TMC3    C711075   1.373   1.293   1.063 -0.6986  0.2250  0.3136
  749TMC3    C811076   1.310   1.108   1.503 -0.1433 -0.0763 -0.3973
  749TMC3    O111077   1.327   1.369   0.980  0.3539 -0.6233 -0.0434
  749TMC3    O211078   1.232   1.095   1.595  0.1274  0.0155  0.0328
  750MPD2     C11079   2.839   2.549  11.305  0.2724  0.3658  0.3587
  750MPD2    C111080   2.712   2.514  11.334  0.0166 -0.0380  0.4397
  750MPD2    C211081   2.653   2.400  11.280 -0.4775  1.2836  0.6177
  750MPD2    C311082   2.726   2.329  11.182 -0.4477 -0.1456 -0.3323
  750MPD2    C411083   2.860   2.369  11.153  0.7153 -0.1771  0.1691
  750MPD2    C511084   2.912   2.476  11.220  0.1691 -0.0584 -0.2637
  750MPD2     H11085   2.553   2.373  11.311 -0.3754  0.7929  0.5209
  750MPD2    H111086   2.927   2.334  11.076  1.0769 -1.7167  1.1842
  750MPD2    H211087   2.884   2.635  11.353  0.3940  0.0571  0.7916
  750MPD2    H311088   3.011   2.501  11.183 -0.0605  0.4601 -0.5127
  750MPD2     N11089   2.687   2.207  11.122 -0.0837 -0.1693 -0.7039
  750MPD2    H511090   2.744   2.163  11.051 -0.9524 -0.1344 -1.4152
  750MPD2    N111091   2.644   2.611  11.418 -0.4714  0.1415 -0.1558
  750MPD2    H711092   2.683   2.703  11.433  1.3575 -0.4631 -1.1267
  751TMC3    C111093   2.549   2.030  11.059  0.6190  0.3634  0.0898
  751TMC3    C211094   2.424   1.982  11.040 -0.6559 -0.1581  0.8205
  751TMC3    C311095   2.402   1.858  10.992  0.0458 -0.1083  0.0971
  751TMC3    C411096   2.657   1.951  11.034  0.5765  0.6647  0.7817
  751TMC3    C511097   2.627   1.820  10.997  0.1408  0.9188  0.4384
  751TMC3    C611098   2.503   1.769  10.970  0.2384 -0.6005 -0.0200
  751TMC3     C11099   2.564   2.149  11.138 -0.8704 -0.4028  0.4725
  751TMC3     O11100   2.465   2.202  11.181  0.0607 -0.1710 -0.7672
  751TMC3     H11101   2.340   2.049  11.057 -0.9189 -0.0845 -0.8585
  751TMC3    H111102   2.761   1.974  11.054  0.6063  0.9619  0.2918
  751TMC3    H211103   2.483   1.672  10.925  0.2506 -0.5493 -0.1342
  751TMC3    C711104   2.735   1.716  10.978  0.3041  0.1239  0.2499
  751TMC3    C811105   2.272   1.818  10.947  0.3834 -0.0343 -0.1602
  751TMC3    O111106   2.845   1.761  10.948 -0.3924 -0.1418  0.3889
  751TMC3    O211107   2.265   1.729  10.865 -0.4347 -0.2944 -0.0055
  752TMC3    C111108   1.048   2.068  16.431  0.3876 -0.1753 -0.5498
  752TMC3    C211109   0.921   2.026  16.456  0.0315  0.2785  0.1878
  752TMC3    C311110   0.898   1.979  16.582 -0.4049  0.0767 -0.3862
  752TMC3    C411111   1.156   2.068  16.520  0.2953 -0.3133  1.0241
  752TMC3    C511112   1.128   2.021  16.643 -0.1264  0.2179  0.4334
  752TMC3    C611113   0.999   1.975  16.681  0.5624 -0.1761 -0.2304
  752TMC3     C11114   1.073   2.103  16.292  0.4297 -0.1964 -0.1579
  752TMC3     O11115   1.182   2.058  16.250  0.2286  0.2725 -0.3239
  752TMC3     H11116   0.839   2.023  16.386 -1.0612 -0.9935  1.5153
  752TMC3    H111117   1.250   2.113  16.489 -0.6037  0.0160 -1.2256
  752TMC3    H211118   0.969   1.945  16.781 -2.0917  0.3211 -0.8938
  752TMC3    C711119   1.236   2.023  16.740 -0.0765 -0.6087 -0.7149
  752TMC3    C811120   0.761   1.973  16.621  1.4193 -0.2441  0.8673
  752TMC3    O111121   1.331   2.097  16.705 -0.2046  0.2341  0.1561
  752TMC3    O211122   0.731   1.872  16.682 -0.1058 -0.1241  0.2437
  753TMC3    C111123   2.945   3.120  13.452  0.1250 -0.4113 -0.6407
  753TMC3    C211124   2.995   3.103  13.576 -0.5242 -0.0363 -0.2398
  753TMC3    C311125   3.000   2.976  13.629  0.2923  0.6562 -0.3074
  753TMC3    C411126   2.900   3.019  13.379 -0.1691 -0.0364 -0.1508
  753TMC3    C511127   2.894   2.894  13.438  0.2147  0.9998  0.9670
  753TMC3    C611128   2.946   2.871  13.560 -0.0285  0.4330 -0.5548
  753TMC3     C11129   2.919   3.257  13.409 -0.3240  0.3183 -0.0133
  753TMC3     O11130   2.823   3.279  13.336  0.0751 -0.7380  0.0601
  753TMC3     H11131   3.024   3.196  13.624  2.4619 -0.1335 -1.8027
  753TMC3    H111132   2.860   3.032  13.279 -0.8671 -0.5713  0.0613
  753TMC3    H211133   2.945   2.773  13.606  2.4843  1.3700  1.5139
  753TMC3    C711134   2.846   2.777  13.368  0.1965 -0.1193  0.4932
  753TMC3    C811135   3.097   2.938  13.732 -0.6545 -0.5866 -0.5563
  753TMC3    O111136   2.844   2.673  13.432  0.0996  0.3110  0.0406
  753TMC3    O211137   3.125   2.820  13.740 -0.0424  0.1388 -0.0142
  754MPD2     C11138   1.698   1.084  12.964  0.3458  0.5784  0.6921
  754MPD2    C111139   1.650   1.209  12.941  0.0888 -0.8779  0.7476
  754MPD2    C211140   1.526   1.224  12.881  0.1298  0.8460 -0.0147
  754MPD2    C311141   1.448   1.117  12.837  0.4563 -0.2465 -0.5482
  754MPD2    C411142   1.495   0.990  12.875  0.6640 -0.0169 -0.6743
  754MPD2    C511143   1.619   0.980  12.927 -0.5125  0.2246  0.1839
  754MPD2     H11144   1.488   1.323  12.858 -4.0173 -0.8955 -0.6527
  754MPD2    H111145   1.436   0.899  12.871 -2.5877  2.0783 -0.3760
  754MPD2    H211146   1.792   1.062  13.014  1.3932  1.1626 -1.0642
  754MPD2    H311147   1.661   0.887  12.964  0.2910  1.4271  2.2233
  754MPD2     N11148   1.314   1.124  12.790  0.1168 -0.0212  0.6036
  754MPD2    H511149   1.255   1.041  12.789  0.2154 -0.0402 -2.5465
  754MPD2    N111150   1.723   1.327  12.969  0.0024  0.2537 -0.5104
  754MPD2    H711151   1.673   1.410  12.939  1.2603  0.9689 -0.6153
  755MPD2     C11152   0.418   1.697  13.002 -0.4436 -0.4372  0.1409
  755MPD2    C111153   0.554   1.705  13.044  0.0561 -0.3442  0.4975
  755MPD2    C211154   0.647   1.622  12.992 -0.0356  0.0923 -0.2290
  755MPD2    C311155   0.609   1.528  12.897  0.0012  0.3221 -1.0048
  755MPD2    C411156   0.473   1.518  12.865 -0.0924  0.1264  0.4591
  755MPD2    C511157   0.377   1.592  12.923 -0.1598  0.1449 -0.2392
  755MPD2     H11158   0.749   1.631  13.026  0.9030  0.5611 -3.1419
  755MPD2    H111159   0.432   1.450  12.791  0.1775 -0.8093  1.1622
  755MPD2    H211160   0.340   1.763  13.039  0.0565  0.3595 -0.2245
  755MPD2    H311161   0.274   1.584  12.889 -0.6299  1.7235  0.7996
  755MPD2     N11162   0.699   1.432  12.844 -0.6872 -0.0633 -0.4238
  755MPD2    H511163   0.659   1.361  12.784 -4.8376  0.6728  1.4285
  755MPD2    N111164   0.606   1.794  13.135 -0.0780  0.1262  0.8198
  755MPD2    H711165   0.706   1.788  13.149  0.2758  1.5047 -1.0997
  756MPD2     C11166   1.872   2.905   9.436 -0.1990 -0.6727  0.0617
  756MPD2    C111167   1.853   2.776   9.493  0.2755 -0.6470 -1.0916
  756MPD2    C211168   1.759   2.687   9.437 -0.6095 -0.6045  0.8342
  756MPD2    C311169   1.686   2.733   9.324 -0.3369 -1.0488 -0.1974
  756MPD2    C411170   1.704   2.858   9.277 -0.6083  0.2057 -0.2357
  756MPD2    C511171   1.798   2.941   9.329  0.6410 -0.1920 -0.4088
  756MPD2     H11172   1.733   2.586   9.467 -0.0226 -1.0949 -0.3412
  756MPD2    H111173   1.643   2.899   9.197  2.9083 -2.6684 -4.3816
  756MPD2    H211174   1.936   2.977   9.485 -1.5314  0.5063  0.0738
  756MPD2    H311175   1.814   3.038   9.281 -0.2795 -0.4660 -1.2580
  756MPD2     N11176   1.594   2.638   9.262  0.0285  0.7821  0.2634
  756MPD2    H511177   1.589   2.547   9.306 -1.8109  0.3479 -0.8753
  756MPD2    N111178   1.920   2.730   9.615  0.1994 -0.0260  0.0120
  756MPD2    H711179   1.900   2.637   9.648 -2.4534  0.8488  0.8805
  757MPD2     C11180   1.517   1.827   9.548  0.4903 -0.2148  0.6491
  757MPD2    C111181   1.614   1.926   9.553 -0.2292 -0.1861 -0.1061
  757MPD2    C211182   1.621   2.030   9.462 -0.6160  0.5286 -0.5971
  757MPD2    C311183   1.527   2.039   9.361 -0.2883  0.0727 -0.3692
  757MPD2    C411184   1.431   1.939   9.357 -0.0710  0.3746  0.0943
  757MPD2    C511185   1.425   1.828   9.443 -0.5018 -0.5813 -0.0615
  757MPD2     H11186   1.699   2.105   9.458 -1.6204  1.4910 -2.2720
  757MPD2    H111187   1.357   1.936   9.277 -0.4859  0.8939  0.4604
  757MPD2    H211188   1.520   1.744   9.618  1.3366 -0.5641  0.2070
  757MPD2    H311189   1.352   1.750   9.431 -1.8478  0.5100  0.9952
  757MPD2     N11190   1.523   2.156   9.282 -0.3084 -0.0054  0.0285
  757MPD2    H511191   1.589   2.227   9.310  0.6124 -1.8058  2.4333
  757MPD2    N111192   1.715   1.905   9.655  0.2307 -0.1910  0.4125
  757MPD2    H711193   1.700   1.821   9.710  0.5523  0.7242  1.8884
  758MPD2     C11194   1.701   1.642  16.013 -0.1815 -0.1955 -0.2345
  758MPD2    C111195   1.797   1.614  16.104  0.4846 -0.2173 -0.2866
  758MPD2    C211196   1.763   1.624  16.241 -0.2657 -0.5810  0.2501
  758MPD2    C311197   1.655   1.698  16.283 -0.4651 -0.4047 -0.1111
  758MPD2    C411198   1.566   1.729  16.191  0.1498 -0.5028 -1.1209
  758MPD2    C511199   1.583   1.698  16.052 -0.9115 -0.0521 -0.1657
  758MPD2     H11200   1.836   1.598  16.317  2.3464 -1.5010 -2.5419
  758MPD2    H111201   1.477   1.787  16.214 -0.3445 -2.0140  0.7720
  758MPD2    H211202   1.711   1.610  15.910  1.2415  1.4884 -0.6046
  758MPD2    H311203   1.515   1.728  15.973  0.5600  1.2939 -0.9233
  758MPD2     N11204   1.637   1.735  16.417 -0.0770  0.4069  0.2256
  758MPD2    H511205   1.561   1.800  16.434 -0.5980 -0.3984  0.9967
  758MPD2    N111206   1.916   1.556  16.055  0.4555 -0.0656 -0.1036
  758MPD2    H711207   1.924   1.521  15.960  2.4998  1.0320 -0.3430
  759MPD2     C11208   0.884   0.764   9.741 -0.1518  0.1972  0.3727
  759MPD2    C111209   0.896   0.638   9.693 -0.0961  0.7497  0.5597
  759MPD2    C211210   0.996   0.607   9.609 -0.3311 -0.2627  0.5499
  759MPD2    C311211   1.080   0.707   9.572  0.0094  0.4991 -0.5432
  759MPD2    C411212   1.076   0.825   9.641 -0.1128 -0.1262  0.4556
  759MPD2    C511213   0.965   0.861   9.711 -0.5331  0.2499 -1.1737
  759MPD2     H11214   1.019   0.507   9.575 -1.2282  0.1151 -1.2014
  759MPD2    H111215   1.155   0.899   9.631  1.4869 -1.7242  1.1954
  759MPD2    H211216   0.807   0.787   9.814 -0.7600  0.4174 -0.3501
  759MPD2    H311217   0.967   0.950   9.773 -0.0350 -0.3538 -0.3263
  759MPD2     N11218   1.183   0.683   9.476  0.0001  0.0533  0.5133
  759MPD2    H511219   1.192   0.588   9.439 -1.1770 -0.2390  0.9726
  759MPD2    N111220   0.821   0.537   9.753 -0.4976 -0.0815  0.4724
  759MPD2    H711221   0.831   0.449   9.704  0.8332  0.0795  0.4433
  760MPD2     C11222   0.568   1.848  11.989 -0.3430 -0.3798  0.5517
  760MPD2    C111223   0.691   1.915  12.007 -0.4199 -0.1809  0.1088
  760MPD2    C211224   0.808   1.841  12.025  0.0798  0.1294 -0.4941
  760MPD2    C311225   0.810   1.699  12.007 -0.0101 -1.1027 -0.5360
  760MPD2    C411226   0.687   1.633  12.001 -0.3484  0.2542  0.2501
  760MPD2    C511227   0.571   1.710  11.983  0.1288 -0.3559  0.7275
  760MPD2     H11228   0.897   1.892  12.058 -0.3667 -0.7044  2.0443
  760MPD2    H111229   0.677   1.528  11.976  1.5333  0.7313 -2.5688
  760MPD2    H211230   0.474   1.901  11.982 -0.0270  0.1892  0.5491
  760MPD2    H311231   0.474   1.667  11.965  0.2426 -0.4139  0.2322
  760MPD2     N11232   0.927   1.620  12.007 -0.2547  0.0637 -0.5059
  760MPD2    H511233   0.913   1.524  11.976  1.4058 -0.9529  1.9238
  760MPD2    N111234   0.703   2.061  12.014 -0.4119 -0.2510 -0.1023
  760MPD2    H711235   0.801   2.088  12.011 -0.8477  1.4972  1.2875
  761MPD2     C11236   1.799   1.699  11.097  0.1148 -0.3867 -0.1958
  761MPD2    C111237   1.873   1.658  10.985  0.2584  0.0170  0.9049
  761MPD2    C211238   1.990   1.721  10.955 -0.5619  0.2631 -0.0531
  761MPD2    C311239   2.042   1.813  11.040  1.4174  0.2087  0.3806
  761MPD2    C411240   1.965   1.860  11.146  0.5028 -0.1683 -0.5821
  761MPD2    C511241   1.842   1.806  11.176  0.1031 -0.6740 -0.3461
  761MPD2     H11242   2.047   1.688  10.869 -0.7565  3.3897 -1.4081
  761MPD2    H111243   1.996   1.943  11.208 -2.3546 -0.1734  0.8613
  761MPD2    H211244   1.705   1.649  11.121 -0.5999  1.2184  0.3293
  761MPD2    H311245   1.785   1.851  11.256  2.8935 -0.3158  1.4285
  761MPD2     N11246   2.178   1.858  11.040 -0.5210 -0.1046 -0.0667
  761MPD2    H511247   2.199   1.931  11.107 -0.2906 -0.6385  0.4502
  761MPD2    N111248   1.830   1.537  10.913  0.4120  0.4719 -0.3832
  761MPD2    H711249   1.744   1.492  10.942 -0.0460  2.1907  0.9209
  762MPD2     C11250   2.380   1.380  10.679 -0.5134  0.4024  0.1522
  762MPD2    C111251   2.319   1.267  10.635  0.3038 -0.5198  0.9546
  762MPD2    C211252   2.403   1.163  10.579  0.0731  0.5425 -0.2301
  762MPD2    C311253   2.535   1.183  10.560  0.2182 -0.6819 -0.5884
  762MPD2    C411254   2.590   1.308  10.582  0.3983 -0.0690 -0.6617
  762MPD2    C511255   2.511   1.400  10.652 -0.2773 -1.1819  1.0608
  762MPD2     H11256   2.355   1.069  10.552  1.0472 -0.4711  1.5385
  762MPD2    H111257   2.696   1.329  10.580  0.0075  1.9809  0.7008
  762MPD2    H211258   2.327   1.460  10.729 -0.4204  1.5677 -1.6115
  762MPD2    H311259   2.561   1.494  10.672 -1.3210 -0.1834 -1.0432
  762MPD2     N11260   2.613   1.074  10.516  0.5444  0.0922  0.2512
  762MPD2    H511261   2.577   0.983  10.542  1.0574 -0.0455  0.4709
  762MPD2    N111262   2.180   1.262  10.641  0.4094 -0.3293 -0.0595
  762MPD2    H711263   2.134   1.352  10.653 -0.5327 -0.7995 -0.2025
  763MPD2     C11264   3.369   1.800  16.361 -0.1739 -0.8589 -0.0068
  763MPD2    C111265   3.481   1.854  16.303  0.3107 -1.0755 -0.0347
  763MPD2    C211266   3.505   1.987  16.333  0.5488 -0.1124  0.9571
  763MPD2    C311267   3.444   2.053  16.440 -0.3987 -0.6666 -0.0826
  763MPD2    C411268   3.331   1.993  16.496  0.0544 -0.2133  0.5843
  763MPD2    C511269   3.291   1.870  16.456 -0.0835  0.5576  0.4672
  763MPD2     H11270   3.581   2.037  16.275  0.0183  1.1858  1.3704
  763MPD2    H111271   3.262   2.030  16.572  0.4682  0.8984  0.4206
  763MPD2    H211272   3.321   1.705  16.338  1.1745 -1.4076 -0.5579
  763MPD2    H311273   3.195   1.830  16.485  0.4771  0.9895  2.8916
  763MPD2     N11274   3.487   2.183  16.457  0.0986 -0.0056  0.2135
  763MPD2    H511275   3.556   2.223  16.394  0.2620  3.7480  2.8256
  763MPD2    N111276   3.568   1.782  16.213 -0.1698 -0.1531 -0.2118
  763MPD2    H711277   3.654   1.830  16.191 -0.0447  1.5279  3.8990
  764MPD2     C11278   1.801   3.387  17.544  0.0913 -0.3276  0.1895
  764MPD2    C111279   1.869   3.268  17.548 -0.3793  0.5153 -0.8063
  764MPD2    C211280   1.805   3.152  17.580 -0.2466  0.0729  0.2389
  764MPD2    C311281   1.678   3.151  17.616 -0.7810  0.4545  0.4390
  764MPD2    C411282   1.606   3.271  17.615 -0.1695  0.6709  0.5419
  764MPD2    C511283   1.670   3.386  17.576  0.0400 -0.3661 -0.9314
  764MPD2     H11284   1.869   3.064  17.581 -1.7811 -1.0450 -0.6927
  764MPD2    H111285   1.502   3.281  17.645 -0.0634  1.7162  0.5586
  764MPD2    H211286   1.844   3.482  17.513 -1.8393  0.4799 -0.0036
  764MPD2    H311287   1.621   3.483  17.577 -1.4460 -1.1538  1.3793
  764MPD2     N11288   1.615   3.035  17.658  0.0939  0.4369 -0.4667
  764MPD2    H511289   1.675   2.955  17.672 -2.7083 -1.5096  0.4287
  764MPD2    N111290   2.000   3.254  17.495 -0.3734 -0.3229 -0.2256
  764MPD2    H711291   2.036   3.160  17.508  0.0986  0.0066  0.7884
  765MPD2     C11292   1.353   0.889  16.248  0.3429  0.1521 -0.3127
  765MPD2    C111293   1.416   0.990  16.179  0.1422  0.2993 -0.4587
  765MPD2    C211294   1.539   0.953  16.140  0.1006  0.1877  0.5348
  765MPD2    C311295   1.598   0.824  16.146  0.5233  0.3913 -0.2007
  765MPD2    C411296   1.525   0.728  16.212  0.4174  0.4671  0.3171
  765MPD2    C511297   1.401   0.763  16.269 -0.6839  0.5603  0.7008
  765MPD2     H11298   1.597   1.027  16.086  0.4561 -0.4284  0.0756
  765MPD2    H111299   1.552   0.623  16.210 -3.2470 -0.4759  0.5198
  765MPD2    H211300   1.256   0.906  16.293 -0.5493 -1.7289 -1.5514
  765MPD2    H311301   1.334   0.699  16.325 -0.2421 -0.6736 -0.1983
  765MPD2     N11302   1.724   0.803  16.084 -0.0005 -0.0746 -0.4308
  765MPD2    H511303   1.785   0.882  16.068  0.5221 -0.0946  1.5275
  765MPD2    N111304   1.347   1.109  16.158 -0.3981 -0.2121  0.0556
  765MPD2    H711305   1.258   1.118  16.206 -0.5545  1.6266 -0.5620
  766MPD2     C11306   0.756   1.415  15.623  0.5312 -1.1276  0.2543
  766MPD2    C111307   0.856   1.330  15.670 -0.1065 -0.4509  1.0440
  766MPD2    C211308   0.908   1.236  15.582  0.0530  0.2335  0.7029
  766MPD2    C311309   0.850   1.214  15.456 -0.1231 -0.5654 -0.3530
  766MPD2    C411310   0.745   1.287  15.415 -0.3289 -0.2953  0.7185
  766MPD2    C511311   0.698   1.388  15.500 -0.2082 -0.1771 -0.6629
  766MPD2     H11312   0.991   1.175  15.616 -0.5113 -0.0514  1.5854
  766MPD2    H111313   0.700   1.272  15.318 -0.6442 -0.3877  0.8793
  766MPD2    H211314   0.715   1.494  15.685 -1.9387 -1.4507 -0.9518
  766MPD2    H311315   0.613   1.449  15.471 -0.8940  0.4794  2.8139
  766MPD2     N11316   0.908   1.124  15.362  0.3792  0.1314  0.4833
  766MPD2    H511317   0.891   1.154  15.267  0.6143 -1.8010 -0.1700
  766MPD2    N111318   0.915   1.352  15.796  0.5169 -0.1975  0.2837
  766MPD2    H711319   0.902   1.444  15.837 -0.8897  0.2178 -1.0562
  767MPD2     C11320   0.573   1.577  15.041  1.1681 -0.5781  0.3042
  767MPD2    C111321   0.688   1.504  15.051  0.5917  0.0177 -0.1867
  767MPD2    C211322   0.705   1.397  14.960  0.0329  0.3812  0.7519
  767MPD2    C311323   0.611   1.367  14.864  0.1450  0.2705  0.2252
  767MPD2    C411324   0.491   1.433  14.870  0.1159 -0.1498  0.0578
  767MPD2    C511325   0.474   1.538  14.955  0.5995  0.4750  0.6230
  767MPD2     H11326   0.800   1.344  14.969 -0.3426 -0.6258 -1.3539
  767MPD2    H111327   0.404   1.417  14.807  0.0637  0.3844 -0.0105
  767MPD2    H211328   0.575   1.669  15.099  0.2600  0.6196 -1.5612
  767MPD2    H311329   0.380   1.590  14.944 -0.5226 -1.1607  2.4688
  767MPD2     N11330   0.638   1.270  14.757  0.8416  0.2882 -0.4211
  767MPD2    H511331   0.738   1.252  14.748  0.5649 -0.6297 -1.5238
  767MPD2    N111332   0.782   1.539  15.149  0.4102 -0.1561  0.6355
  767MPD2    H711333   0.768   1.623  15.204 -0.6471  0.6020 -0.7819
  768MPD2     C11334   1.848   4.415  10.707  0.4693 -0.5103  0.4312
  768MPD2    C111335   1.785   4.422  10.833 -0.4384 -0.0424  0.0487
  768MPD2    C211336   1.851   4.476  10.945 -0.7130 -1.4443 -0.5772
  768MPD2    C311337   1.985   4.501  10.932 -0.2156  0.2736 -0.3596
  768MPD2    C411338   2.045   4.497  10.805  0.5627 -0.1151 -0.2111
  768MPD2    C511339   1.977   4.461  10.696 -0.0340  0.4210 -0.0087
  768MPD2     H11340   1.814   4.472  11.047 -3.0596 -1.8706 -1.4683
  768MPD2    H111341   2.151   4.520  10.802  0.3582  0.8121 -0.2469
  768MPD2    H211342   1.805   4.381  10.613  1.1386  1.2553 -0.5143
  768MPD2    H311343   2.045   4.460  10.611 -0.9244 -1.9439 -0.6763
  768MPD2     N11344   2.074   4.536  11.037  0.4059  0.0476 -0.2043
  768MPD2    H511345   2.159   4.583  11.008  0.1608  0.2781 -0.5361
  768MPD2    N111346   1.657   4.379  10.859  0.6643  0.3464 -0.2960
  768MPD2    H711347   1.628   4.388  10.956  1.3340  2.4095 -0.2852
  769MPD2     C11348   2.472   2.975  14.934  0.6211  1.6558 -0.5905
  769MPD2    C111349   2.416   2.896  15.035 -0.0897 -0.9782 -0.0223
  769MPD2    C211350   2.493   2.893  15.156  0.1242 -0.0489 -0.1885
  769MPD2    C311351   2.621   2.953  15.168  0.4538 -0.3718 -0.4613
  769MPD2    C411352   2.675   3.027  15.065 -0.4035 -0.4201 -0.0281
  769MPD2    C511353   2.596   3.041  14.951 -0.2518  0.8028  0.0465
  769MPD2     H11354   2.447   2.842  15.240  0.1653 -0.4435 -0.4064
  769MPD2    H111355   2.767   3.084  15.071 -0.0979 -0.7899 -1.2026
  769MPD2    H211356   2.428   2.997  14.838 -2.0042 -2.5740 -0.3646
  769MPD2    H311357   2.630   3.104  14.871  1.9918  0.0272  0.3779
  769MPD2     N11358   2.683   2.951  15.299  0.2130 -0.6883 -0.2128
  769MPD2    H511359   2.641   2.910  15.382 -0.4995  2.4702  0.9629
  769MPD2    N111360   2.293   2.827  15.015  0.0504  0.2801  0.1574
  769MPD2    H711361   2.242   2.849  14.930 -0.7679 -1.3938  0.2261
  770MPD2     C11362   1.909   1.931  15.366 -0.2588  0.0085 -0.1724
  770MPD2    C111363   1.955   1.951  15.240 -0.7271 -0.0104 -0.3619
  770MPD2    C211364   1.984   2.078  15.192 -0.6314 -0.2582  0.8187
  770MPD2    C311365   1.957   2.191  15.266  1.3063  0.0854 -0.6788
  770MPD2    C411366   1.906   2.176  15.390  0.5737 -0.3541  0.0911
  770MPD2    C511367   1.885   2.046  15.435  0.0397 -0.3513  0.0344
  770MPD2     H11368   2.021   2.082  15.090 -0.4908  1.6029  0.9491
  770MPD2    H111369   1.870   2.263  15.442  0.7500 -0.8081  0.9691
  770MPD2    H211370   1.895   1.832  15.409  1.0835 -0.2039 -0.2272
  770MPD2    H311371   1.854   2.038  15.538  0.6002 -0.8000  0.1698
  770MPD2     N11372   1.965   2.316  15.192  0.1538  0.4710 -0.0362
  770MPD2    H511373   1.994   2.310  15.095  0.7662 -1.8270  0.3049
  770MPD2    N111374   1.976   1.836  15.167  0.0155 -0.0764 -0.1710
  770MPD2    H711375   1.952   1.747  15.210  1.5399  0.2558  1.3719
  771MPD2     C11376   3.330   0.706  14.183  0.1973  0.9089  0.4246
  771MPD2    C111377   3.417   0.787  14.117 -0.4062  0.7321  0.1761
  771MPD2    C211378   3.506   0.725  14.030 -0.2085  0.3368 -0.0159
  771MPD2    C311379   3.485   0.591  13.994 -0.2867  0.3140  0.0140
  771MPD2    C411380   3.385   0.515  14.057  0.2020  0.3405 -0.4764
  771MPD2    C511381   3.313   0.578  14.151 -0.2620 -0.5536  0.0847
  771MPD2     H11382   3.598   0.774  13.999  0.6448 -1.6079 -0.5516
  771MPD2    H111383   3.351   0.417  14.024  2.2503 -0.8501  0.9682
  771MPD2    H211384   3.274   0.748  14.266 -0.8432 -0.0162  0.1897
  771MPD2    H311385   3.246   0.523  14.216 -0.3640 -2.5514 -1.7083
  771MPD2     N11386   3.579   0.546  13.899  0.7244  0.0739 -0.1401
  771MPD2    H511387   3.642   0.609  13.851 -0.2937  0.5838 -0.7956
  771MPD2    N111388   3.446   0.926  14.135 -0.0427  0.2478  0.1698
  771MPD2    H711389   3.530   0.959  14.088  1.4026 -0.0473  2.5344
  772MPD2     C11390   2.860   1.480  14.050  0.2275 -0.4368 -0.3240
  772MPD2    C111391   2.901   1.399  14.156  0.2429  0.3303 -0.4977
  772MPD2    C211392   2.805   1.329  14.231 -0.0927 -0.1865 -0.3458
  772MPD2    C311393   2.672   1.333  14.203  0.4419  0.1072 -0.1725
  772MPD2    C411394   2.630   1.402  14.094  0.1536 -0.0921 -0.1087
  772MPD2    C511395   2.725   1.475  14.019 -0.3874  0.8181 -0.4815
  772MPD2     H11396   2.845   1.265  14.309 -0.9061  2.1351  1.9833
  772MPD2    H111397   2.525   1.416  14.068 -0.0819 -0.7197  0.5165
  772MPD2    H211398   2.921   1.553  14.000 -2.5957  1.7108 -0.6665
  772MPD2    H311399   2.687   1.533  13.936  0.5042  1.1077 -0.6767
  772MPD2     N11400   2.580   1.236  14.253 -0.1817  0.1413  0.1575
  772MPD2    H511401   2.489   1.232  14.208 -1.3875  1.3535  2.5336
  772MPD2    N111402   3.044   1.380  14.179 -0.0181  0.6040 -0.5367
  772MPD2    H711403   3.075   1.324  14.258  3.1852  1.7468 -0.9773
  773MPD2     C11404   2.040   2.158   0.507  0.4472 -0.1808  0.4429
  773MPD2    C111405   2.035   2.025   0.507  0.1755 -0.7466  0.4660
  773MPD2    C211406   2.140   1.948   0.549 -0.1634 -0.2894 -0.3061
  773MPD2    C311407   2.264   2.006   0.578  0.7301 -0.8072 -0.2166
  773MPD2    C411408   2.276   2.143   0.585 -0.2482 -0.1906 -0.4130
  773MPD2    C511409   2.166   2.211   0.537 -0.2640 -0.3799  0.1298
  773MPD2     H11410   2.130   1.840   0.557  3.4530 -0.5611  0.5664
  773MPD2    H111411   2.368   2.193   0.612 -0.6019 -0.2976  0.9728
  773MPD2    H211412   1.952   2.218   0.489  0.9667 -0.6747 -3.6612
  773MPD2    H311413   2.176   2.319   0.532  0.3920 -0.5784 -2.9002
  773MPD2     N11414   2.366   1.924   0.625 -0.9602 -0.5015 -0.3612
  773MPD2    H511415   2.342   1.826   0.635 -2.6629 -0.0773 -0.1863
  773MPD2    N111416   1.907   1.971   0.478  0.4848  0.4771 -0.3200
  773MPD2    H711417   1.840   2.041   0.448 -0.0948 -1.4971 -3.5873
  774MPD2     C11418   1.888   1.274  13.821  0.4911 -0.0842 -0.4793
  774MPD2    C111419   1.778   1.321  13.751 -0.3891 -0.6267 -0.0310
  774MPD2    C211420   1.786   1.378  13.631 -0.7690  0.1501  0.1932
  774MPD2    C311421   1.910   1.398  13.570 -0.5374 -0.7504 -0.4366
  774MPD2    C411422   2.022   1.350  13.635  0.2369  0.4471 -0.6381
  774MPD2    C511423   2.010   1.289  13.756  0.4176  0.1931 -0.5479
  774MPD2     H11424   1.700   1.415  13.576 -1.3750 -1.1644  0.2462
  774MPD2    H111425   2.119   1.343  13.587  0.6024  1.9024 -0.1009
  774MPD2    H211426   1.891   1.226  13.918 -0.4563 -0.3104 -0.5627
  774MPD2    H311427   2.088   1.245  13.816  3.8030  0.5742 -4.5855
  774MPD2     N11428   1.911   1.463  13.445  0.1273  0.4736 -0.0533
  774MPD2    H511429   1.827   1.509  13.411 -0.3504 -0.1857  0.2503
  774MPD2    N111430   1.653   1.315  13.816  0.0999 -0.3708  0.0614
  774MPD2    H711431   1.666   1.290  13.913  1.3490  0.8545  0.2047
  775MPD2     C11432   2.978   2.645  15.682  0.0052 -0.0680 -0.1790
  775MPD2    C111433   3.024   2.736  15.767 -0.9323  0.3062 -0.2836
  775MPD2    C211434   3.137   2.812  15.726 -0.0005  0.2374 -0.4673
  775MPD2    C311435   3.183   2.811  15.596  0.6824  0.5849  0.6526
  775MPD2    C411436   3.119   2.728  15.507  0.4389 -0.5334 -1.0637
  775MPD2    C511437   3.015   2.643  15.549  1.0760 -0.0193 -0.2611
  775MPD2     H11438   3.166   2.891  15.794  0.7209 -2.4987  2.4145
  775MPD2    H111439   3.157   2.712  15.406  1.8421  2.5765 -1.0028
  775MPD2    H211440   2.904   2.574  15.717  0.5726  0.7764  2.7596
  775MPD2    H311441   2.979   2.567  15.481 -0.7727  2.0839 -1.6272
  775MPD2     N11442   3.285   2.899  15.542  0.6856 -0.1522 -0.6999
  775MPD2    H511443   3.301   2.899  15.442 -0.4470  4.6687 -0.9008
  775MPD2    N111444   2.964   2.745  15.895  0.6593  0.3559  0.2986
  775MPD2    H711445   2.909   2.662  15.913  2.0013 -0.2606  1.5721
  776MPD2     C11446   2.149   3.249  11.266 -0.1266 -0.0580  0.3366
  776MPD2    C111447   2.268   3.221  11.315  0.1282  0.0642  0.7461
  776MPD2    C211448   2.366   3.320  11.282  0.0984 -1.1286  0.0928
  776MPD2    C311449   2.349   3.434  11.197  0.5182  0.7699  0.1132
  776MPD2    C411450   2.223   3.448  11.143  0.6309 -0.4822 -0.3733
  776MPD2    C511451   2.125   3.360  11.183 -0.2150  0.2082 -0.6846
  776MPD2     H11452   2.467   3.297  11.315  0.6935 -0.4436 -1.2820
  776MPD2    H111453   2.205   3.529  11.073  0.0804 -0.5999 -0.3684
  776MPD2    H211454   2.061   3.187  11.282  0.5664 -0.7261  1.6335
  776MPD2    H311455   2.026   3.369  11.140 -0.5039 -0.1908 -0.1028
  776MPD2     N11456   2.451   3.523  11.162 -0.2723  0.0199 -0.1450
  776MPD2    H511457   2.431   3.597  11.095  1.0331  1.0144  0.5428
  776MPD2    N111458   2.292   3.100  11.392 -0.2005  0.3980 -0.0693
  776MPD2    H711459   2.211   3.040  11.406 -0.4887  0.6424 -0.7165
  777MPD2     C11460   2.534   0.453   1.246  0.1997 -0.2461  0.8052
  777MPD2    C111461   2.402   0.439   1.280  0.6527  0.1393  0.3416
  777MPD2    C211462   2.318   0.340   1.220  0.1431 -0.3751  0.0270
  777MPD2    C311463   2.372   0.265   1.121  0.0570  0.2123  0.6714
  777MPD2    C411464   2.499   0.296   1.068  0.9029 -0.0013 -0.5766
  777MPD2    C511465   2.570   0.393   1.133 -0.2918 -0.1992 -0.4439
  777MPD2     H11466   2.213   0.329   1.241  0.2981  1.8825  1.9701
  777MPD2    H111467   2.541   0.251   0.979  0.2835  0.3094 -1.0312
  777MPD2    H211468   2.603   0.523   1.293 -0.2462  1.2621 -0.7883
  777MPD2    H311469   2.674   0.397   1.102 -0.4351  2.0273 -0.6375
  777MPD2     N11470   2.289   0.165   1.069 -0.2822  0.2832 -0.2905
  777MPD2    H511471   2.216   0.134   1.133 -0.1051  2.2491  0.8623
  777MPD2    N111472   2.360   0.532   1.379  1.0421 -0.2132  0.1004
  777MPD2    H711473   2.426   0.590   1.430  2.4117 -1.5473 -0.1908
  778MPD2     C11474   3.127   0.230  15.469 -0.7100 -0.1707  0.1146
  778MPD2    C111475   3.064   0.217  15.348  0.1299  0.5100 -0.0880
  778MPD2    C211476   3.103   0.311  15.254 -0.4316 -0.4156  1.3269
  778MPD2    C311477   3.195   0.413  15.282  0.2108  0.4918  0.3767
  778MPD2    C411478   3.251   0.419  15.409  0.7007 -0.2592  0.2309
  778MPD2    C511479   3.215   0.335  15.499 -0.0489  0.5182 -0.1670
  778MPD2     H11480   3.062   0.299  15.154  0.4784  2.0725  0.6603
  778MPD2    H111481   3.325   0.492  15.440 -0.7051  2.0308 -1.7859
  778MPD2    H211482   3.088   0.176  15.554 -0.3677 -0.5410  0.0376
  778MPD2    H311483   3.245   0.346  15.603  1.3805 -1.0158 -0.4308
  778MPD2     N11484   3.227   0.505  15.179  0.6012  0.4405  0.0274
  778MPD2    H511485   3.172   0.503  15.093 -1.6399  2.6574  1.4007
  778MPD2    N111486   2.964   0.116  15.322  0.5086 -0.2449 -0.1395
  778MPD2    H711487   2.926   0.108  15.228  2.4511 -1.5559 -0.8101
  779MPD2     C11488   3.023   3.956  14.589 -0.0294  0.5849 -0.2143
  779MPD2    C111489   3.139   3.999  14.522 -0.4343  0.1725 -0.2401
  779MPD2    C211490   3.173   4.127  14.524  0.2250  0.2361  0.3817
  779MPD2    C311491   3.104   4.223  14.595  0.0754  0.4276  0.3147
  779MPD2    C411492   2.990   4.179  14.660 -0.0336  0.3298  0.7113
  779MPD2    C511493   2.949   4.050  14.657  0.6562 -0.1764 -1.0419
  779MPD2     H11494   3.264   4.154  14.473  0.3284 -1.8357 -0.5199
  779MPD2    H111495   2.925   4.247  14.715 -1.4633  0.3233 -0.9755
  779MPD2    H211496   2.992   3.853  14.579  0.4352  0.2159  2.2848
  779MPD2    H311497   2.854   4.017  14.696  0.6251  0.7999 -0.3099
  779MPD2     N11498   3.147   4.353  14.595 -0.3658 -0.4519 -0.3355
  779MPD2    H511499   3.232   4.372  14.543  0.4494  1.9824  1.8508
  779MPD2    N111500   3.219   3.909  14.453 -0.4518  1.1276  0.1455
  779MPD2    H711501   3.297   3.952  14.403  1.8670 -1.9103  1.1764
  780MPD2     C11502   2.436   3.927   1.428 -1.1446 -0.3420 -0.1247
  780MPD2    C111503   2.407   3.914   1.299 -0.5099  0.0400 -0.3705
  780MPD2    C211504   2.464   3.996   1.203  0.0952  0.1406  0.3721
  780MPD2    C311505   2.552   4.096   1.244 -0.0033 -0.4357  0.3540
  780MPD2    C411506   2.575   4.112   1.374  0.3871 -0.3964 -0.3535
  780MPD2    C511507   2.524   4.020   1.467 -0.3403  0.0250  0.2403
  780MPD2     H11508   2.453   3.981   1.097 -2.3728  0.0623  0.6399
  780MPD2    H111509   2.645   4.187   1.411 -0.9900  0.1945  1.0729
  780MPD2    H211510   2.397   3.858   1.502 -1.6336 -1.1574 -1.1405
  780MPD2    H311511   2.534   4.031   1.575 -0.6463  0.5397  0.2146
  780MPD2     N11512   2.615   4.173   1.143  0.6194  0.6102  0.1689
  780MPD2    H511513   2.601   4.138   1.049 -2.0092 -0.8646  1.1188
  780MPD2    N111514   2.308   3.814   1.264 -0.1725 -0.1782  0.2780
  780MPD2    H711515   2.262   3.765   1.340 -1.2501 -1.4246 -1.1726
  781MPD2     C11516   4.344   0.791  12.101 -0.4632  0.1546  1.1016
  781MPD2    C111517   4.420   0.850  12.198 -0.2320  0.4640  0.3554
  781MPD2    C211518   4.538   0.913  12.164 -0.1986  0.7797 -0.1755
  781MPD2    C311519   4.576   0.920  12.034 -0.6814  0.0763 -0.2417
  781MPD2    C411520   4.502   0.857  11.931 -0.0093  0.7403  0.0261
  781MPD2    C511521   4.383   0.796  11.971  0.0507 -0.0204 -0.2257
  781MPD2     H11522   4.606   0.956  12.236  1.5471 -0.2186 -1.2190
  781MPD2    H111523   4.525   0.866  11.826 -1.6652  2.2137 -0.2078
  781MPD2    H211524   4.250   0.744  12.127 -0.1250 -0.4874  1.1705
  781MPD2    H311525   4.334   0.730  11.899 -3.6791  0.6590  1.6991
  781MPD2     N11526   4.680   1.002  11.987 -0.6438  0.3591 -0.9696
  781MPD2    H511527   4.705   0.992  11.890 -0.9280  1.5216 -1.1638
  781MPD2    N111528   4.384   0.837  12.336 -0.4416  0.3769 -0.6309
  781MPD2    H711529   4.439   0.900  12.393 -0.6998 -0.8823  1.0273
  782MPD2     C11530   2.889   1.675  10.139  0.0143 -0.9375  0.2559
  782MPD2    C111531   3.001   1.679  10.217  0.2727 -1.0840 -0.8750
  782MPD2    C211532   3.033   1.800  10.273 -0.4112  0.0475  1.0285
  782MPD2    C311533   2.982   1.914  10.220  0.4426 -0.9573  0.1018
  782MPD2    C411534   2.887   1.914  10.117 -0.2000 -0.0345  0.3429
  782MPD2    C511535   2.830   1.793  10.087 -0.2231 -0.3790 -0.4802
  782MPD2     H11536   3.108   1.803  10.351  0.1592 -0.3795  0.4952
  782MPD2    H111537   2.857   2.005  10.067  0.2863  0.0827  0.2577
  782MPD2    H211538   2.848   1.581  10.106 -0.8875 -0.8488  1.1289
  782MPD2    H311539   2.737   1.796  10.032 -0.7866 -2.6395  0.3228
  782MPD2     N11540   3.017   2.034  10.287  0.2751 -0.2841  0.0758
  782MPD2    H511541   3.083   2.022  10.362 -0.9550 -1.3572  0.9887
  782MPD2    N111542   3.067   1.556  10.245 -0.2055 -0.0358  0.5721
  782MPD2    H711543   3.035   1.462  10.226  0.3630 -0.1740  0.2806
  783MPD2     C11544   2.688   1.350  10.932  0.4888 -0.0052 -0.5292
  783MPD2    C111545   2.737   1.474  10.911  0.4420  0.8489 -0.1544
  783MPD2    C211546   2.857   1.475  10.836 -0.2522 -0.3375 -0.8112
  783MPD2    C311547   2.904   1.359  10.776  0.0597  0.3751 -0.3596
  783MPD2    C411548   2.843   1.234  10.797  0.3749 -0.0046 -0.7345
  783MPD2    C511549   2.737   1.228  10.879 -0.1347 -0.2884 -0.0742
  783MPD2     H11550   2.903   1.572  10.818 -1.5290  0.2187 -1.0733
  783MPD2    H111551   2.875   1.145  10.745  0.0571 -1.8315  2.2092
  783MPD2    H211552   2.601   1.329  10.994  2.1400 -1.5637  1.2784
  783MPD2    H311553   2.694   1.133  10.910  0.4133 -0.1740  1.0212
  783MPD2     N11554   3.012   1.372  10.692 -0.3115  0.2033  0.2506
  783MPD2    H511555   3.041   1.464  10.661  0.9912  0.6787  2.8651
  783MPD2    N111556   2.683   1.586  10.971 -0.2355  0.5363  0.2571
  783MPD2    H711557   2.597   1.573  11.024  0.4906  1.1121  1.5827
  784MPD2     C11558   0.172   1.639   1.294 -0.4569 -0.5671  0.1785
  784MPD2    C111559   0.177   1.742   1.382 -0.5415 -0.7294 -0.4004
  784MPD2    C211560   0.136   1.866   1.343  0.3524 -0.1004  0.0038
  784MPD2    C311561   0.099   1.895   1.214  0.2472 -0.4849 -0.6538
  784MPD2    C411562   0.100   1.786   1.128  0.4801 -0.3743 -0.0075
  784MPD2    C511563   0.130   1.657   1.167  0.0544 -0.3614  0.4792
  784MPD2     H11564   0.143   1.951   1.411 -2.6334  1.3567 -1.5106
  784MPD2    H111565   0.054   1.790   1.030 -1.3449 -0.2428  0.8646
  784MPD2    H211566   0.193   1.537   1.324 -0.9038  0.2618  3.2614
  784MPD2    H311567   0.121   1.570   1.103  1.1733  1.5660 -2.3116
  784MPD2     N11568   0.074   2.033   1.179  0.1877  0.1944 -0.1464
  784MPD2    H511569   0.071   2.096   1.258 -3.8404 -1.1793  0.7943
  784MPD2    N111570   0.238   1.732   1.509  0.1911 -0.5248  0.2964
  784MPD2    H711571   0.259   1.817   1.561 -2.7088 -0.8505  2.0255
  785MPD2     C11572   0.512   1.032  10.981 -0.3949  0.3775  0.0607
  785MPD2    C111573   0.455   1.061  10.858 -0.1525 -0.1478  0.3821
  785MPD2    C211574   0.411   0.967  10.772  0.2073  0.4032 -0.4471
  785MPD2    C311575   0.417   0.830  10.814 -0.5175 -0.4505 -0.5064
  785MPD2    C411576   0.463   0.801  10.945 -0.3955 -0.5586 -0.1978
  785MPD2    C511577   0.506   0.905  11.027  0.1041  0.7985  0.4667
  785MPD2     H11578   0.353   0.998  10.686  0.4943  0.0714 -0.7632
  785MPD2    H111579   0.449   0.702  10.985  2.7277 -0.9614 -0.1464
  785MPD2    H211580   0.546   1.103  11.056 -0.1852 -1.4324  1.6924
  785MPD2    H311581   0.554   0.889  11.123  1.0338  1.6868  0.1516
  785MPD2     N11582   0.365   0.741  10.726  0.3532  0.6319 -0.0394
  785MPD2    H511583   0.313   0.784  10.650 -0.8475 -0.1142  0.3460
  785MPD2    N111584   0.435   1.190  10.811 -0.8025 -0.4540 -0.5350
  785MPD2    H711585   0.403   1.193  10.715  1.5134  2.0410 -1.2312
  786MPD2     C11586   3.726   3.458  15.094 -0.5231  0.0578 -0.5925
  786MPD2    C111587   3.810   3.492  14.991  0.2381  0.1466 -0.8000
  786MPD2    C211588   3.917   3.582  15.018  0.3392  0.6456  0.2524
  786MPD2    C311589   3.942   3.632  15.151  0.0424 -0.0649 -0.0363
  786MPD2    C411590   3.853   3.596  15.245 -0.1028  0.7171  0.4560
  786MPD2    C511591   3.753   3.509  15.218 -0.3162 -0.1188 -1.1942
  786MPD2     H11592   3.993   3.607  14.945 -0.2435 -1.5313 -1.0838
  786MPD2    H111593   3.852   3.634  15.347  0.1727 -1.9323  1.4424
  786MPD2    H211594   3.648   3.383  15.090 -1.5720  1.1379  0.1290
  786MPD2    H311595   3.697   3.476  15.305  0.2472  0.0459 -0.7619
  786MPD2     N11596   4.033   3.731  15.186 -0.2120  0.4032 -0.1978
  786MPD2    H511597   4.048   3.760  15.282  1.8446 -0.1866 -0.3496
  786MPD2    N111598   3.801   3.435  14.867  0.3578  0.6163  0.3597
  786MPD2    H711599   3.883   3.450  14.809 -0.9052 -0.7542 -1.7647
  787MPD2     C11600   4.146   2.916  15.012  0.2096  0.4514 -0.3492
  787MPD2    C111601   4.157   2.951  14.877 -0.5901  0.9354 -0.9040
  787MPD2    C211602   4.249   2.879  14.810 -0.2950  0.0263  0.4347
  787MPD2    C311603   4.341   2.784  14.865  0.6635  0.1684 -0.4682
  787MPD2    C411604   4.336   2.769  15.001  0.5391  0.0430  0.9569
  787MPD2    C511605   4.242   2.836  15.072 -0.7660 -0.8862 -0.3311
  787MPD2     H11606   4.261   2.897  14.704 -1.7369  0.3420  0.3330
  787MPD2    H111607   4.406   2.703  15.052  0.6679 -0.3985  0.2248
  787MPD2    H211608   4.074   2.966  15.077  1.2967  1.2145  0.2755
  787MPD2    H311609   4.225   2.817  15.178 -1.6288 -1.6213 -0.5985
  787MPD2     N11610   4.439   2.728  14.782  0.5051 -0.5293 -0.0017
  787MPD2    H511611   4.460   2.780  14.697 -1.7760 -0.5060 -0.5459
  787MPD2    N111612   4.060   3.036  14.826 -0.3167 -0.1069 -0.6234
  787MPD2    H711613   4.007   3.085  14.897 -0.7214 -0.9046 -0.3741
  788MPD2     C11614   0.909   2.013   0.368  0.5444 -0.1354  0.4245
  788MPD2    C111615   0.964   1.890   0.333  0.1870 -0.3006  0.5004
  788MPD2    C211616   1.008   1.875   0.197  0.4677 -0.2910 -0.1051
  788MPD2    C311617   0.988   1.971   0.098 -0.4073  0.4281 -0.2421
  788MPD2    C411618   0.934   2.094   0.140 -0.1984  0.2692 -1.6180
  788MPD2    C511619   0.898   2.110   0.268  0.1893  0.1789 -0.3632
  788MPD2     H11620   1.064   1.786   0.172 -0.0805 -0.3733 -1.0633
  788MPD2    H111621   0.900   2.165   0.065  2.4095  2.6283 -0.5760
  788MPD2    H211622   0.875   2.054   0.463  0.2363  0.6147 -0.0059
  788MPD2    H311623   0.853   2.207   0.282  0.8538  0.5988 -1.1636
  788MPD2     N11624   0.995   1.946  17.642  0.3106 -0.5014  0.5353
  788MPD2    H511625   0.977   2.025  17.582 -0.8556  0.5750  2.2927
  788MPD2    N111626   0.960   1.775   0.417 -0.2298 -0.6258 -0.3186
  788MPD2    H711627   1.010   1.691   0.389  0.6362 -0.3289  0.3178
  789MPD2     C11628   1.396   1.254  16.470 -0.1470  0.3948 -0.0668
  789MPD2    C111629   1.329   1.167  16.549  0.0324  0.5091  0.1716
  789MPD2    C211630   1.201   1.195  16.594  0.0629 -0.2585  0.3970
  789MPD2    C311631   1.138   1.310  16.560  0.6673  0.2093  0.0292
  789MPD2    C411632   1.204   1.397  16.472  0.7932  0.1818 -0.4514
  789MPD2    C511633   1.334   1.372  16.435 -0.4751  0.3437  0.6272
  789MPD2     H11634   1.149   1.128  16.661 -0.5359  1.2567  1.4607
  789MPD2    H111635   1.164   1.493  16.440 -0.4413  1.3447  4.5842
  789MPD2    H211636   1.497   1.240  16.434 -0.0132 -0.3321  0.5999
  789MPD2    H311637   1.396   1.443  16.381  0.0478 -0.1231  0.6197
  789MPD2     N11638   1.013   1.363  16.617 -0.6227 -0.2283 -0.2605
  789MPD2    H511639   0.982   1.446  16.568 -2.8816 -0.8260  0.1947
  789MPD2    N111640   1.386   1.043  16.586 -0.0972 -0.1366 -0.3921
  789MPD2    H711641   1.328   0.971  16.628 -1.2100  0.5695 -0.7377
  790MPD2     C11642   1.813   2.972  13.713  0.0724  0.8195 -0.0784
  790MPD2    C111643   1.952   2.959  13.697 -0.4101 -0.1401  0.2101
  790MPD2    C211644   2.008   2.931  13.571  0.8065  0.4119  0.1048
  790MPD2    C311645   1.919   2.914  13.465  0.5307 -0.3509 -0.6107
  790MPD2    C411646   1.783   2.925  13.492  0.4738  0.0931 -1.0692
  790MPD2    C511647   1.730   2.958  13.608  0.1651 -0.6746  0.0855
  790MPD2     H11648   2.113   2.920  13.548  0.8449  1.4790 -0.2399
  790MPD2    H111649   1.716   2.919  13.407  0.5371  2.1827 -1.2473
  790MPD2    H211650   1.762   2.974  13.808 -0.7960 -0.7580 -0.5092
  790MPD2    H311651   1.623   2.963  13.623  0.3798  2.7062  0.3967
  790MPD2     N11652   1.959   2.886  13.335 -0.0527 -0.4814 -0.0684
  790MPD2    H511653   1.879   2.852  13.282 -1.4613  2.1040  0.4096
  790MPD2    N111654   2.024   2.978  13.818 -0.5334 -0.0056  0.4142
  790MPD2    H711655   1.975   3.008  13.901 -3.3831  2.2296 -2.0339
  791MPD2     C11656   1.745   2.930  12.552 -0.1100 -1.0871  0.2660
  791MPD2    C111657   1.744   2.834  12.649 -0.0302 -0.4431  0.4337
  791MPD2    C211658   1.636   2.743  12.654 -0.5650 -0.8539  0.3868
  791MPD2    C311659   1.534   2.747  12.568  0.4498 -0.1996 -0.7591
  791MPD2    C411660   1.538   2.850  12.473 -0.0565 -0.2022 -0.0777
  791MPD2    C511661   1.639   2.946  12.469  0.0863 -0.0588  0.4053
  791MPD2     H11662   1.638   2.661  12.725  0.0619 -0.8294  0.3989
  791MPD2    H111663   1.460   2.884  12.406 -0.0743  0.8308  0.4784
  791MPD2    H211664   1.815   3.012  12.562 -0.2686 -0.5569 -3.2314
  791MPD2    H311665   1.636   3.033  12.404 -0.1084 -0.3568  0.0185
  791MPD2     N11666   1.423   2.664  12.575  0.4603 -0.1840  0.7308
  791MPD2    H511667   1.413   2.594  12.647 -1.3058 -1.6653 -0.9454
  791MPD2    N111668   1.847   2.845  12.746  0.0927 -0.0891 -0.0798
  791MPD2    H711669   1.925   2.905  12.720 -1.2986  1.2606 -1.1471
  792MPD2     C11670   2.930   2.682  10.913 -0.1953  0.0447  0.0704
  792MPD2    C111671   2.804   2.681  10.966  0.3424 -0.8952  0.1244
  792MPD2    C211672   2.713   2.579  10.938 -0.5985 -0.6044 -0.6011
  792MPD2    C311673   2.755   2.482  10.850  0.3071 -0.1476  0.0466
  792MPD2    C411674   2.883   2.480  10.795  0.2709  0.3686  0.0774
  792MPD2    C511675   2.962   2.586  10.823 -0.4215  0.1405 -0.4878
  792MPD2     H11676   2.616   2.578  10.986 -0.2681 -0.6196  0.0686
  792MPD2    H111677   2.914   2.414  10.714  0.5898 -0.0519  0.5450
  792MPD2    H211678   2.995   2.767  10.930  0.4849 -0.1831 -1.4011
  792MPD2    H311679   3.056   2.589  10.770  0.4466 -0.0206  1.0416
  792MPD2     N11680   2.663   2.379  10.805  0.6033  0.2071  0.1919
  792MPD2    H511681   2.697   2.323  10.727 -1.6538  0.9918 -1.3455
  792MPD2    N111682   2.773   2.793  11.045 -0.1416  0.0723  0.2399
  792MPD2    H711683   2.847   2.860  11.065 -0.1264  0.7867 -2.2667
  793MPD2     C11684   1.912   2.167  10.122 -0.2762  0.0299  0.2095
  793MPD2    C111685   1.983   2.270  10.167  0.6021  0.5537  0.7942
  793MPD2    C211686   2.045   2.262  10.290 -0.5863  0.0309 -0.4068
  793MPD2    C311687   2.049   2.141  10.361  0.7040 -0.1532  0.0375
  793MPD2    C411688   1.990   2.028  10.309 -0.5488 -0.6368 -0.3983
  793MPD2    C511689   1.912   2.043  10.191 -0.2852 -0.6201  0.2821
  793MPD2     H11690   2.087   2.354  10.329  0.2735 -0.3282 -0.4934
  793MPD2    H111691   1.990   1.931  10.357 -0.6991 -0.9964 -1.1321
  793MPD2    H211692   1.868   2.173  10.023  0.9345  1.1249 -0.2514
  793MPD2    H311693   1.865   1.960  10.141 -0.4526 -1.5542  1.9785
  793MPD2     N11694   2.127   2.128  10.482  0.5280  0.2258 -0.3248
  793MPD2    H511695   2.134   2.036  10.524  1.3085  0.1741 -0.5694
  793MPD2    N111696   1.991   2.394  10.101  0.3078 -0.0961  0.1660
  793MPD2    H711697   2.029   2.473  10.153 -0.7023 -0.3434  1.3010
  794MPD2     C11698   1.353   2.034  17.679 -0.3745  0.8673 -0.0749
  794MPD2    C111699   1.470   2.078   0.046 -0.4447 -0.3919  0.6990
  794MPD2    C211700   1.568   2.128  17.646 -0.4224  0.6013 -0.3423
  794MPD2    C311701   1.544   2.143  17.507 -0.4563 -0.1755 -0.7415
  794MPD2    C411702   1.421   2.103  17.462 -0.2758  0.4054  0.2353
  794MPD2    C511703   1.329   2.043  17.547 -0.0993  0.2669 -0.1242
  794MPD2     H11704   1.670   2.140  17.679 -1.0131 -0.8154  1.9861
  794MPD2    H111705   1.385   2.117  17.360  0.9516 -0.7319 -0.3477
  794MPD2    H211706   1.266   1.998   0.046 -0.2469  0.5315 -0.0921
  794MPD2    H311707   1.234   2.015  17.503  0.9648  1.4800 -3.2683
  794MPD2     N11708   1.637   2.199  17.410  0.7084 -0.0017 -0.4824
  794MPD2    H511709   1.601   2.206  17.316 -0.3863 -0.4125 -0.0899
  794MPD2    N111710   1.510   2.046   0.178  0.2238 -0.1002  0.0515
  794MPD2    H711711   1.607   2.051   0.205  1.1399 -0.2984 -3.2894
  795MPD2     C11712   4.507   4.673  13.244  0.2967  0.4308 -0.0963
  795MPD2    C111713   4.467   4.553  13.303  0.1776  0.9460  0.4856
  795MPD2    C211714   4.551   4.494  13.397  0.3974 -0.9396  0.2164
  795MPD2    C311715   4.681   4.540  13.421  0.0001  0.3206 -0.2212
  795MPD2    C411716   4.720   4.654  13.354 -0.3165 -0.7405  0.1469
  795MPD2    C511717   4.634   0.003  13.277 -0.1533  0.5302  0.2902
  795MPD2     H11718   4.518   4.400  13.440 -0.0145  0.6118  3.2545
  795MPD2    H111719   0.091   4.705  13.379 -1.6872  1.2812  1.0672
  795MPD2    H211720   4.439   0.012  13.185  1.0750  1.0952 -0.3250
  795MPD2    H311721   4.660   0.094  13.224 -0.2675  1.2564  1.4781
  795MPD2     N11722   0.046   4.464  13.500  0.1597  0.0142 -0.2563
  795MPD2    H511723   0.016   4.375  13.539  3.0225 -0.9242 -0.1555
  795MPD2    N111724   4.337   4.502  13.283 -0.2685  0.2209  0.2258
  795MPD2    H711725   4.306   4.435  13.354 -0.2139 -0.6402 -0.5646
  796MPD2     C11726   4.216   1.613  15.902  0.7133 -0.8721 -0.1232
  796MPD2    C111727   4.129   1.663  15.992  0.0781 -0.2677 -0.2419
  796MPD2    C211728   4.097   1.795  15.983  0.0741  0.0214  0.3692
  796MPD2    C311729   4.139   1.876  15.882  0.2120 -0.8109  0.2265
  796MPD2    C411730   4.217   1.820  15.780 -0.5347 -0.4348 -0.5357
  796MPD2    C511731   4.268   1.692  15.795  0.9494 -0.2198 -0.0410
  796MPD2     H11732   4.048   1.860  16.056 -0.3358  0.1848 -0.0513
  796MPD2    H111733   4.242   1.871  15.688  1.4461 -2.2591 -1.0324
  796MPD2    H211734   4.250   1.510  15.902  1.1955 -0.7147  1.0285
  796MPD2    H311735   4.340   1.658  15.722  0.0563  2.4396 -2.1489
  796MPD2     N11736   4.094   2.009  15.874  0.4141  0.4352  0.2831
  796MPD2    H511737   4.038   2.045  15.951 -1.1196  3.1131 -2.0850
  796MPD2    N111738   4.075   1.573  16.091 -0.0225 -0.4880  0.5294
  796MPD2    H711739   4.118   1.482  16.084  0.6441  0.1808 -3.8766
  797MPD2     C11740   4.580   0.526   0.076  0.0129 -0.6731 -0.5903
  797MPD2    C111741   4.604   0.662   0.086 -0.3658 -0.2877 -0.6775
  797MPD2    C211742   4.520   0.752   0.020 -0.1504  0.3673  0.4324
  797MPD2    C311743   4.420   0.708  17.621  0.2999  0.0845 -0.0616
  797MPD2    C411744   4.403   0.576  17.615 -0.7709  0.1931 -0.3952
  797MPD2    C511745   4.471   0.483   0.000  0.1831  0.2954 -0.2018
  797MPD2     H11746   4.547   0.856   0.029  1.7227 -0.3037  2.5875
  797MPD2    H111747   4.320   0.531  17.562  0.7318 -3.8326  0.6431
  797MPD2    H211748   4.637   0.462   0.142 -0.8457 -1.2109 -0.3677
  797MPD2    H311749   4.467   0.375  17.675  1.9963  0.1787  0.0813
  797MPD2     N11750   4.345   0.799  17.545 -0.0733 -0.4770 -0.2105
  797MPD2    H511751   4.285   0.756  17.474 -1.0085 -0.5862  0.6491
  797MPD2    N111752   4.708   0.721   0.159  1.2489  0.7736 -0.2912
  797MPD2    H711753   4.707   0.822   0.154  1.3555  0.8581  1.4656
  798MPD2     C11754   4.622   1.419  17.660 -0.0698  0.3919  0.0670
  798MPD2    C111755   4.590   1.292  17.631 -0.1987  0.4230 -0.2241
  798MPD2    C211756   4.670   1.187  17.675 -0.8038  0.3344  0.2586
  798MPD2    C311757   0.060   1.219   0.062 -0.7996  1.0036  0.7263
  798MPD2    C411758   0.097   1.353   0.089 -0.2938 -0.2191  0.5749
  798MPD2    C511759   0.013   1.452   0.039  0.2619  0.2848  0.0709
  798MPD2     H11760   4.646   1.082  17.670  0.1390  0.0008  2.4762
  798MPD2    H111761   0.189   1.387   0.134  0.2345 -2.6293  1.2854
  798MPD2    H211762   4.542   1.491  17.648 -1.1803 -1.0682 -1.2453
  798MPD2    H311763   0.031   1.556   0.067 -0.8496  0.6120 -0.4307
  798MPD2     N11764   0.140   1.111   0.112 -0.3344  0.1242  0.4167
  798MPD2    H511765   0.115   1.021   0.072 -0.2318 -0.4045  1.5397
  798MPD2    N111766   4.469   1.260  17.568 -0.0615 -0.3148 -0.0734
  798MPD2    H711767   4.449   1.161  17.582  1.3496 -0.6319 -0.3704
  799MPD2     C11768   3.993   2.430  14.762  0.0325 -0.0298  0.3303
  799MPD2    C111769   3.916   2.382  14.657  0.3668  0.7855  0.2479
  799MPD2    C211770   3.857   2.469  14.567  0.3688  0.1109 -0.2988
  799MPD2    C311771   3.870   2.607  14.580  0.3024 -0.2749 -0.3048
  799MPD2    C411772   3.954   2.657  14.681 -0.3572 -0.1177  0.7887
  799MPD2    C511773   4.015   2.568  14.768 -0.6542 -0.6037 -0.3887
  799MPD2     H11774   3.793   2.434  14.487  3.1798  0.3174 -2.5899
  799MPD2    H111775   3.979   2.762  14.692  1.6822 -0.5252  0.0715
  799MPD2    H211776   4.056   2.375  14.830 -0.0129 -0.5196 -0.0238
  799MPD2    H311777   4.088   2.602  14.841  0.2499  0.8255 -1.9688
  799MPD2     N11778   3.828   2.697  14.483 -0.2517  0.1953 -0.3998
  799MPD2    H511779   3.856   2.794  14.495 -1.9084  0.4615  1.2921
  799MPD2    N111780   3.911   2.247  14.624  0.2119 -0.5110 -0.1181
  799MPD2    H711781   3.849   2.220  14.548  1.0789  0.6606 -1.2377
  800MPD2     C11782   4.685   4.027  14.492 -0.1704  0.4187  0.0658
  800MPD2    C111783   0.056   4.022  14.385 -0.3684 -0.8809 -0.7066
  800MPD2    C211784   0.058   3.914  14.300  0.4884  0.7758  0.4353
  800MPD2    C311785   4.697   3.807  14.318  0.0638 -0.5899 -0.3246
  800MPD2    C411786   4.618   3.807  14.433  0.1957  0.2272 -0.6846
  800MPD2    C511787   4.625   3.912  14.523  0.3748  0.6278 -0.3885
  800MPD2     H11788   0.114   3.912  14.207 -1.7833 -2.2842 -0.8870
  800MPD2    H111789   4.561   3.720  14.461  2.8128 -1.7916 -1.6410
  800MPD2    H211790   4.679   4.113  14.557  1.2345  0.6811 -0.1355
  800MPD2    H311791   4.565   3.891  14.611 -0.1971  1.6920 -0.5226
  800MPD2     N11792   4.695   3.716  14.210 -0.0033 -0.3435  0.1104
  800MPD2    H511793   0.035   3.732  14.131  1.0595  0.9541  1.1967
  800MPD2    N111794   0.134   4.141  14.368 -0.3041 -0.4771 -0.1867
  800MPD2    H711795   0.109   4.219  14.428  2.0846 -0.1369  0.3612
  801MPD2     C11796   0.226   4.683  14.750  0.0056 -0.7456  0.6382
  801MPD2    C111797   0.146   4.652  14.641  0.6486 -0.4849  0.1228
  801MPD2    C211798   0.006   4.654  14.665 -0.0925 -0.2474 -0.2014
  801MPD2    C311799   4.675   4.699  14.785  0.3335  0.4603 -0.2955
  801MPD2    C411800   0.036   0.024  14.886 -0.7038 -0.6735 -0.2848
  801MPD2    C511801   0.174   0.011  14.866 -0.3819  0.6315 -0.0854
  801MPD2     H11802   4.663   4.632  14.581 -0.3066 -0.6631  0.0694
  801MPD2    H111803   4.711   0.052  14.980  1.6647 -0.4002  0.7924
  801MPD2    H211804   0.333   4.674  14.742 -0.3099 -1.6572 -2.5369
  801MPD2    H311805   0.238   0.055  14.942 -1.0927 -1.2906  1.6207
  801MPD2     N11806   4.540   4.721  14.803  0.0749  0.4543 -0.5796
  801MPD2    H511807   4.515   0.021  14.899  0.3670 -0.2946 -0.3332
  801MPD2    N111808   0.198   4.594  14.520  0.1527  0.4930 -0.2820
  801MPD2    H711809   0.125   4.582  14.450 -1.4085 -0.5285  1.5039
  802MPD2     C11810   4.110   4.422   0.956 -0.2896 -0.6954  0.2843
  802MPD2    C111811   4.102   4.503   0.843  0.2960 -0.1852 -0.4923
  802MPD2    C211812   4.164   4.455   0.725 -0.1746 -0.7268 -0.0179
  802MPD2    C311813   4.237   4.339   0.728  0.3416  0.0532  0.1063
  802MPD2    C411814   4.242   4.262   0.844 -0.4936 -0.1367 -0.4007
  802MPD2    C511815   4.188   4.310   0.959 -0.8716 -0.4751 -0.0715
  802MPD2     H11816   4.149   4.500   0.628  0.1453  0.3659  0.4443
  802MPD2    H111817   4.308   4.178   0.861  0.1621  0.0810 -1.8035
  802MPD2    H211818   4.074   4.463   1.050 -1.7958 -2.4605  0.4609
  802MPD2    H311819   4.180   4.244   1.044  3.4642  1.1098  1.5673
  802MPD2     N11820   4.314   4.303   0.613  0.3807  0.1474  0.9397
  802MPD2    H511821   4.289   4.354   0.528 -1.7075 -0.5127  1.1750
  802MPD2    N111822   4.019   4.612   0.854 -0.1410  0.3761 -0.4417
  802MPD2    H711823   3.965   4.622   0.940  0.8570 -0.2646  0.2531
  803MPD2     C11824   0.574   3.008  11.503 -0.2131 -0.6562 -1.1290
  803MPD2    C111825   0.603   3.048  11.630  0.0822  0.2594  0.4100
  803MPD2    C211826   0.538   2.995  11.735  0.5330  0.4117 -0.0183
  803MPD2    C311827   0.441   2.901  11.724  0.1983 -0.4970  0.2233
  803MPD2    C411828   0.409   2.859  11.598  0.2859  0.0639 -0.6253
  803MPD2    C511829   0.475   2.908  11.490  0.2341  0.0389 -0.1365
  803MPD2     H11830   0.553   3.041  11.832 -1.1301 -0.9926  0.9186
  803MPD2    H111831   0.337   2.784  11.569  0.1112 -0.7223  1.8046
  803MPD2    H211832   0.618   3.050  11.413  0.9459 -0.1112 -0.3274
  803MPD2    H311833   0.458   2.873  11.389  0.5382  1.0045 -0.5278
  803MPD2     N11834   0.370   2.840  11.834 -0.3234  0.0341  0.4163
  803MPD2    H511835   0.308   2.766  11.801  0.5098 -0.5658  0.2123
  803MPD2    N111836   0.700   3.149  11.657  0.1879  0.2724 -0.3916
  803MPD2    H711837   0.715   3.168  11.755 -0.4887 -2.2879  0.2123
  804MPD2     C11838   0.148   4.281  17.160 -0.0636 -0.3379 -0.1615
  804MPD2    C111839   0.136   4.227  17.287  0.4170  0.1009  0.0234
  804MPD2    C211840   0.194   4.303  17.387 -0.1230 -0.4853  0.4841
  804MPD2    C311841   0.264   4.418  17.365  0.5089 -0.6194  0.4753
  804MPD2    C411842   0.287   4.462  17.232 -0.2632 -0.9193  0.5401
  804MPD2    C511843   0.229   4.391  17.136 -0.2058 -0.2259  0.0849
  804MPD2     H11844   0.176   4.262  17.486 -1.9553 -1.7459 -0.3741
  804MPD2    H111845   0.337   4.556  17.213 -0.2272 -0.9412  0.5275
  804MPD2    H211846   0.107   4.218  17.082 -0.8861  0.4811 -0.3936
  804MPD2    H311847   0.242   4.427  17.035  0.2322 -1.4018 -0.2742
  804MPD2     N11848   0.316   4.483  17.480 -0.3311 -0.4621  0.3661
  804MPD2    H511849   0.316   4.426  17.564 -0.3245  0.0549  0.7187
  804MPD2    N111850   0.064   4.113  17.324 -0.3618  0.1905 -0.1875
  804MPD2    H711851   0.049   4.085  17.421 -0.3819 -0.1917 -0.3007
  805MPD2     C11852   3.499   2.634  15.472 -0.5198  0.5211 -0.0550
  805MPD2    C111853   3.602   2.630  15.379 -0.3639  0.3226  0.3979
  805MPD2    C211854   3.728   2.676  15.423 -0.6663  0.5672 -0.4602
  805MPD2    C311855   3.756   2.720  15.553 -0.1308 -0.2633  0.5552
  805MPD2    C411856   3.649   2.720  15.641 -0.6478 -0.4289  0.3268
  805MPD2    C511857   3.530   2.673  15.599  0.2043 -0.6584  1.0434
  805MPD2     H11858   3.802   2.665  15.345  0.4698 -0.3084  0.7346
  805MPD2    H111859   3.643   2.765  15.740  0.1632 -0.3422  0.3351
  805MPD2    H211860   3.401   2.590  15.461 -0.2054 -0.4901  1.1218
  805MPD2    H311861   3.450   2.667  15.672 -1.1759 -1.3500 -0.5350
  805MPD2     N11862   3.886   2.759  15.591  0.2361 -0.7116 -0.3342
  805MPD2    H511863   3.957   2.749  15.519 -1.6871  0.6386 -2.4076
  805MPD2    N111864   3.588   2.578  15.254  0.3030 -1.1988  0.4777
  805MPD2    H711865   3.675   2.567  15.202  0.6643  2.8723  0.2065
  806MPD2     C11866   3.584   1.796   0.054  0.2028  0.4512  0.0948
  806MPD2    C111867   3.660   1.833   0.166 -0.7282  0.0498  0.6068
  806MPD2    C211868   3.781   1.902   0.154  0.6601 -0.0655  0.6003
  806MPD2    C311869   3.836   1.919   0.032  0.2317 -0.7291  0.4255
  806MPD2    C411870   3.755   1.888  17.612 -0.6254  0.5916  0.0814
  806MPD2    C511871   3.631   1.829  17.620 -0.5262  0.9176  0.5601
  806MPD2     H11872   3.841   1.935   0.238 -0.8073 -1.1284  2.0616
  806MPD2    H111873   3.796   1.907  17.514  0.3513 -0.0519  0.3734
  806MPD2    H211874   3.497   1.734   0.073  0.3895  0.0472 -0.3605
  806MPD2    H311875   3.584   1.807  17.525 -1.0995  0.8737  0.8519
  806MPD2     N11876   3.977   1.975   0.036  0.3740  0.8317 -0.5850
  806MPD2    H511877   4.008   2.012   0.125  1.8823 -2.2636  0.1640
  806MPD2    N111878   3.594   1.804   0.289  0.1434 -0.4273  0.3286
  806MPD2    H711879   3.498   1.772   0.280 -0.1616  0.9319 -1.0977
  807MPD2     C11880   3.535   1.459   0.982  0.0752  0.1524  0.0611
  807MPD2    C111881   3.427   1.545   0.989 -0.5796  0.0223  0.2157
  807MPD2    C211882   3.356   1.552   1.110 -0.5271 -0.1657  0.1966
  807MPD2    C311883   3.397   1.475   1.219  0.1996 -0.0543  0.3945
  807MPD2    C411884   3.507   1.398   1.216  0.3485 -0.6063  0.0001
  807MPD2    C511885   3.572   1.384   1.098 -0.6013 -0.6304 -0.0114
  807MPD2     H11886   3.274   1.622   1.117  1.3841  2.1880 -1.0651
  807MPD2    H111887   3.551   1.356   1.306 -0.1779 -0.9611  0.0987
  807MPD2    H211888   3.603   1.459   0.897 -1.0433 -1.7685 -0.8365
  807MPD2    H311889   3.664   1.328   1.101 -0.0100  0.4002  1.1052
  807MPD2     N11890   3.330   1.509   1.336 -0.4173  0.2311 -0.2663
  807MPD2    H511891   3.257   1.579   1.330 -0.5482 -0.0498 -1.7353
  807MPD2    N111892   3.393   1.642   0.892  0.3947  0.0612 -0.7762
  807MPD2    H711893   3.317   1.706   0.917  0.9758 -0.6187  2.7554
  808MPD2     C11894   4.276   3.931   9.272  0.2892 -0.3860  0.0648
  808MPD2    C111895   4.345   3.950   9.393  0.3132  0.1895 -0.5898
  808MPD2    C211896   4.395   4.075   9.415  0.3979  0.1671 -0.2105
  808MPD2    C311897   4.369   4.180   9.329  0.2466  0.2845 -0.2012
  808MPD2    C411898   4.292   4.160   9.216 -0.4370 -0.6313  0.0635
  808MPD2    C511899   4.249   4.033   9.192  0.9315 -0.2043 -0.1074
  808MPD2     H11900   4.461   4.085   9.501  0.2881 -0.2350 -0.0814
  808MPD2    H111901   4.263   4.236   9.144  0.7073 -0.5697 -0.3369
  808MPD2    H211902   4.242   3.832   9.246  1.0882 -0.1357 -1.9107
  808MPD2    H311903   4.181   4.025   9.109  0.2569 -1.3491  0.5613
  808MPD2     N11904   4.424   4.306   9.348  0.1426  0.2186 -0.0255
  808MPD2    H511905   4.397   4.381   9.286 -3.6411  1.3538  3.0345
  808MPD2    N111906   4.380   3.844   9.486 -0.2534 -0.1908  0.0779
  808MPD2    H711907   4.438   3.863   9.567 -1.6915  2.8450  0.3774
  809MPD2     C11908   0.325   0.061   8.793  0.0748 -0.2237 -0.0488
  809MPD2    C111909   0.327   4.659   8.852  0.5153 -0.1908 -0.1657
  809MPD2    C211910   0.249   4.634   8.964  0.4582  0.7962 -0.0419
  809MPD2    C311911   0.167   0.014   9.012  0.5307  0.9283  0.2286
  809MPD2    C411912   0.163   0.137   8.951 -0.4202  0.1397 -0.5998
  809MPD2    C511913   0.242   0.157   8.841 -0.0046 -0.9549 -0.8562
  809MPD2     H11914   0.249   4.535   9.008  2.9952  0.5782 -0.4840
  809MPD2    H111915   0.089   0.213   8.974  0.0485  0.2954  0.4057
  809MPD2    H211916   0.390   0.086   8.710  1.6843  0.1810  1.3381
  809MPD2    H311917   0.229   0.253   8.793  0.2110 -0.2481  0.5013
  809MPD2     N11918   0.079   4.715   9.118 -0.0242  0.1345 -0.2995
  809MPD2    H511919   0.031   0.079   9.144 -1.2035 -0.6758  0.1859
  809MPD2    N111920   0.391   4.545   8.804 -0.1413 -0.3278  0.1890
  809MPD2    H711921   0.385   4.458   8.857  0.5148 -0.7542 -0.4414
  810MPD2     C11922   4.104   3.154  10.847  0.1034  1.0212  0.1563
  810MPD2    C111923   4.066   3.125  10.706 -0.4532  0.3076  0.5894
  810MPD2    C211924   4.034   3.237  10.626 -0.3420  0.2229  0.2222
  810MPD2    C311925   4.054   3.366  10.672 -0.3781  0.3148 -0.4607
  810MPD2    C411926   4.093   3.386  10.800  0.7046  0.8266  0.7935
  810MPD2    C511927   4.120   3.284  10.886  0.1988  0.1522  0.4219
  810MPD2     H11928   4.001   3.216  10.524 -0.3042 -0.8339  0.4208
  810MPD2    H111929   4.121   3.487  10.826  4.0676  0.3728 -1.0177
  810MPD2    H211930   4.122   3.077  10.921 -1.3371  0.7320  0.2162
  810MPD2    H311931   4.158   3.301  10.986  1.1603  0.5511 -0.0090
  810MPD2     N11932   4.038   3.483  10.591 -0.3524 -0.2150 -0.2460
  810MPD2    H511933   4.067   3.573  10.627  0.6579 -1.4453  2.0456
  810MPD2    N111934   4.077   2.991  10.653 -0.3670  0.2606 -0.6320
  810MPD2    H711935   4.106   2.925  10.724 -0.3866 -0.9869 -1.7623
  811MPD2     C11936   3.780   2.478  10.028  0.1980  0.3081 -0.2349
  811MPD2    C111937   3.897   2.545  10.047  0.0982 -1.0173  0.3309
  811MPD2    C211938   3.948   2.621   9.949 -0.5651 -0.0128  0.3668
  811MPD2    C311939   3.885   2.645   9.832  0.5100 -0.1730  0.1197
  811MPD2    C411940   3.760   2.585   9.819 -0.8732  0.3238  0.3847
  811MPD2    C511941   3.708   2.495   9.912 -0.1888  0.2653  0.4167
  811MPD2     H11942   4.041   2.677   9.959 -0.3511 -0.1375 -0.8357
  811MPD2    H111943   3.704   2.584   9.726 -0.7997 -1.7372  0.3770
  811MPD2    H211944   3.742   2.407  10.101 -0.7254  1.7151  0.6639
  811MPD2    H311945   3.620   2.432   9.903 -1.3305  2.1620 -1.9682
  811MPD2     N11946   3.941   2.738   9.739  0.1127  0.3706 -0.2762
  811MPD2    H511947   4.026   2.789   9.759  0.0917  0.3224 -0.0573
  811MPD2    N111948   3.966   2.532  10.169 -0.2782 -0.0023  0.3310
  811MPD2    H711949   3.915   2.486  10.243 -0.3992 -0.5262 -0.0763
  812MPD2     C11950   3.091   3.613  12.602 -0.3974 -0.2565 -0.5450
  812MPD2    C111951   3.031   3.551  12.503  0.2761  0.2655 -0.4435
  812MPD2    C211952   3.028   3.407  12.504 -0.3628  0.1190  0.5241
  812MPD2    C311953   3.083   3.331  12.598 -0.4106  0.2036  0.4508
  812MPD2    C411954   3.152   3.395  12.696  0.1942  0.4482  0.7614
  812MPD2    C511955   3.153   3.536  12.693  0.2170  0.0602 -0.0674
  812MPD2     H11956   2.977   3.352  12.426  0.5785  2.4831 -1.7362
  812MPD2    H111957   3.197   3.337  12.776 -0.1767 -1.6286 -0.5223
  812MPD2    H211958   3.111   3.719  12.614 -0.3763 -0.2978 -0.2112
  812MPD2    H311959   3.212   3.587  12.769 -1.4014 -1.5977  2.2891
  812MPD2     N11960   3.064   3.190  12.594 -0.0289 -0.1205  0.2566
  812MPD2    H511961   3.005   3.157  12.519  0.2167  1.3379 -0.5956
  812MPD2    N111962   2.975   3.634  12.402 -0.2370  0.3835 -0.4176
  812MPD2    H711963   2.987   3.733  12.416  2.2475  0.0184  0.0388
  813MPD2     C11964   2.339   0.109  12.837 -0.1386 -0.5831 -0.1177
  813MPD2    C111965   2.384   0.231  12.883 -0.4877  0.7648 -0.3850
  813MPD2    C211966   2.358   0.280  13.011 -0.0440  0.7718 -0.0169
  813MPD2    C311967   2.285   0.202  13.101 -0.0200 -0.2378  0.2880
  813MPD2    C411968   2.251   0.076  13.063  0.1416 -0.2828 -0.2977
  813MPD2    C511969   2.281   0.034  12.932  0.4622  0.0160  0.0870
  813MPD2     H11970   2.387   0.380  13.040  1.1041  0.6417 -0.7165
  813MPD2    H111971   2.213   4.720  13.128 -3.4523  1.5497 -0.2156
  813MPD2    H211972   2.342   0.078  12.733 -1.7088  1.9679 -0.9282
  813MPD2    H311973   2.254   4.656  12.900 -0.1186 -0.4374  1.9432
  813MPD2     N11974   2.260   0.256  13.232  0.1875  0.1856 -0.2789
  813MPD2    H511975   2.296   0.350  13.248  1.3061 -0.4892  1.1138
  813MPD2    N111976   2.473   0.295  12.796 -0.2263 -0.7495 -0.3680
  813MPD2    H711977   2.501   0.245  12.712  0.2759 -1.3342  0.1470
  814MPD2     C11978   2.868   1.070  12.617  0.0938  0.7105  0.1273
  814MPD2    C111979   2.878   1.130  12.499 -0.3841  0.1863 -0.1240
  814MPD2    C211980   2.923   1.262  12.489 -0.1872  0.2980 -0.1535
  814MPD2    C311981   2.976   1.329  12.601  0.3486  0.0834  0.6355
  814MPD2    C411982   2.945   1.271  12.725 -0.2491  0.4288  0.4460
  814MPD2    C511983   2.888   1.144  12.734  0.7353  0.3494 -0.3386
  814MPD2     H11984   2.914   1.315  12.395 -0.1216  0.7097  0.0727
  814MPD2    H111985   2.968   1.337  12.809  0.2928  0.8115  0.0022
  814MPD2    H211986   2.821   0.973  12.632 -0.1947  0.9084  0.5232
  814MPD2    H311987   2.869   1.092  12.828  1.4462 -0.1700 -0.4848
  814MPD2     N11988   3.047   1.457  12.593 -0.4244 -0.3999 -0.7780
  814MPD2    H511989   3.063   1.505  12.681 -0.2443 -0.1793 -0.9316
  814MPD2    N111990   2.825   1.067  12.382 -0.0138 -0.0553 -0.4615
  814MPD2    H711991   2.852   1.127  12.305 -0.3223  2.0414  1.0537
  815MPD2     C11992   3.287   0.087  12.018 -0.0959 -0.7206  0.7189
  815MPD2    C111993   3.239   4.682  11.990 -0.2364 -0.8850  1.0079
  815MPD2    C211994   3.119   4.637  12.053 -0.1790 -0.1549  0.1094
  815MPD2    C311995   3.045   0.001  12.132  0.4117  0.4700  0.2899
  815MPD2    C411996   3.093   0.128  12.156 -0.0947 -0.3353  0.3747
  815MPD2    C511997   3.211   0.163  12.100 -0.0385 -0.4775 -0.0865
  815MPD2     H11998   3.084   4.538  12.023 -0.1009 -0.2728  0.3992
  815MPD2    H111999   3.055   0.206  12.222 -0.1744 -0.6837  0.7370
  815MPD2    H212000   3.376   0.127  11.971 -0.3089 -1.4791 -0.3510
  815MPD2    H312001   3.251   0.262  12.121  0.6598 -1.0654  1.2998
  815MPD2     N12002   2.917   4.677  12.175 -0.4172 -0.1247  0.2526
  815MPD2    H512003   2.900   4.579  12.157 -3.8510  0.3045  1.1733
  815MPD2    N112004   3.303   4.601  11.889 -0.1461 -0.2477  0.3630
  815MPD2    H712005   3.384   4.647  11.850  0.1715  0.1798  1.5021
  816MPD2     C12006   2.812   3.396  17.652 -0.4534  0.0783  0.0215
  816MPD2    C112007   2.872   3.519  17.640  0.6944  0.1910  0.1098
  816MPD2    C212008   2.988   3.534  17.569  0.6037  0.5744  0.4361
  816MPD2    C312009   3.041   3.421  17.496  0.4405 -0.3002 -0.2125
  816MPD2    C412010   2.971   3.302  17.511  0.3171  0.1803  0.1808
  816MPD2    C512011   2.862   3.286  17.584  0.9261  0.5936 -0.3974
  816MPD2     H12012   3.037   3.628  17.546  0.3833  0.5508 -0.1175
  816MPD2    H112013   3.020   3.215  17.468 -1.4307 -1.8312  2.2627
  816MPD2    H212014   2.731   3.385   0.034  0.7466 -2.5657  0.9851
  816MPD2    H312015   2.819   3.187  17.585  2.6513 -0.1917 -3.5354
  816MPD2     N12016   3.159   3.451  17.420  0.1447  0.1203 -0.3533
  816MPD2    H512017   3.190   3.545  17.397  0.0850  0.2824  0.2309
  816MPD2    N112018   2.807   3.628   0.013  0.5361  0.0963 -0.1422
  816MPD2    H712019   2.713   3.619   0.051  0.5602 -1.1345 -0.3723
  817MPD2     C12020   2.725   0.252   9.941  0.3154  0.0753 -0.3898
  817MPD2    C112021   2.821   0.299   9.851  0.2704  0.5049 -0.4091
  817MPD2    C212022   2.800   0.432   9.807  1.2071 -0.0138  0.8434
  817MPD2    C312023   2.698   0.507   9.857 -0.0325 -0.2902  0.0860
  817MPD2    C412024   2.612   0.451   9.947  0.5695  0.2502 -0.3790
  817MPD2    C512025   2.627   0.326  10.001  0.7758 -0.4862  0.4079
  817MPD2     H12026   2.870   0.467   9.732 -0.8203  1.0779 -0.5301
  817MPD2    H112027   2.535   0.511   9.994  0.3057 -0.1993 -0.2344
  817MPD2    H212028   2.726   0.147   9.969  2.5290  0.5208  1.1917
  817MPD2    H312029   2.561   0.277  10.072 -0.4193  1.2611  0.4868
  817MPD2     N12030   2.687   0.642   9.811 -0.8471  0.1561 -0.4760
  817MPD2    H512031   2.770   0.687   9.775  0.0679 -1.5953 -0.5958
  817MPD2    N112032   2.950   0.238   9.824 -0.8068 -0.0266 -0.1337
  817MPD2    H712033   3.013   0.289   9.763  0.6220  0.5402  1.8225
  818MPD2     C12034   1.702   0.744  10.024  0.4756 -0.0269 -0.0477
  818MPD2    C112035   1.677   0.654  10.125  0.5727 -0.2167  0.1802
  818MPD2    C212036   1.748   0.535  10.130 -0.0285 -0.1776  0.6527
  818MPD2    C312037   1.843   0.505  10.030 -0.3791 -0.3880 -0.5024
  818MPD2    C412038   1.879   0.606   9.941 -0.0435 -0.2327 -0.0491
  818MPD2    C512039   1.808   0.729   9.936 -0.1487  0.1001 -0.3228
  818MPD2     H12040   1.707   0.460  10.197 -2.1329  0.8700  0.5295
  818MPD2    H112041   1.962   0.589   9.874 -0.1446  0.9361 -0.4733
  818MPD2    H212042   1.639   0.830  10.012 -1.6379 -1.7045 -0.8638
  818MPD2    H312043   1.826   0.811   9.867  0.0589  0.3025 -0.0319
  818MPD2     N12044   1.910   0.379  10.019  0.3498  0.1618 -0.2341
  818MPD2    H512045   1.968   0.365   9.938 -1.2861  2.4874 -1.7879
  818MPD2    N112046   1.571   0.665  10.217 -0.0346 -0.4332 -0.7004
  818MPD2    H712047   1.544   0.585  10.275 -1.5891  1.7303  1.5935
  819MPD2     C12048   4.624   2.138  15.319  0.1420  0.3595  0.1664
  819MPD2    C112049   4.594   2.037  15.407  0.6877 -0.0469  0.7743
  819MPD2    C212050   4.689   2.008  15.505  0.0805 -0.1259  0.4382
  819MPD2    C312051   0.086   2.084  15.513 -0.7019 -0.1978 -0.1739
  819MPD2    C412052   0.111   2.184  15.417  0.3706 -0.1725 -0.7083
  819MPD2    C512053   0.022   2.208  15.321 -1.0280  0.3365 -0.1307
  819MPD2     H12054   4.679   1.928  15.577  0.6730  0.4785  1.1954
  819MPD2    H112055   0.211   2.225  15.403  0.9753 -2.6798 -3.7719
  819MPD2    H212056   4.557   2.159  15.236 -0.7690  2.4494  1.4523
  819MPD2    H312057   0.049   2.285  15.249  0.4513  2.4799  2.6920
  819MPD2     N12058   0.194   2.044  15.598  0.4102  0.3062 -0.3834
  819MPD2    H512059   0.290   2.062  15.570 -0.4425  4.7927 -0.3484
  819MPD2    N112060   4.467   1.978  15.395 -0.6389 -0.1150  0.8030
  819MPD2    H712061   4.409   2.008  15.317 -1.5058 -3.8552  0.0079
  820MPD2     C12062   3.661   1.894  14.834 -0.6260  0.2754  0.6359
  820MPD2    C112063   3.718   1.997  14.901 -0.0797  0.0892 -0.2880
  820MPD2    C212064   3.824   1.975  14.987 -0.6282  0.0742 -0.0196
  820MPD2    C312065   3.872   1.841  15.002  0.7520  0.4077  0.3883
  820MPD2    C412066   3.826   1.740  14.923 -0.3415  0.0951  0.6017
  820MPD2    C512067   3.714   1.769  14.838 -0.2350 -0.3001  0.2525
  820MPD2     H12068   3.877   2.055  15.038 -0.4726 -0.5710  0.8369
  820MPD2    H112069   3.858   1.637  14.931 -0.2415 -0.0615 -1.7686
  820MPD2    H212070   3.578   1.917  14.767  0.7572  2.9521 -0.1613
  820MPD2    H312071   3.661   1.688  14.790 -0.6429  0.6376 -0.8650
  820MPD2     N12072   3.973   1.802  15.097 -0.2340 -0.0316  1.0860
  820MPD2    H512073   3.982   1.701  15.088  0.7741  0.2571 -1.1064
  820MPD2    N112074   3.660   2.124  14.886 -0.1346 -0.0580  0.0149
  820MPD2    H712075   3.572   2.126  14.834  1.0498  0.0554 -1.9881
  821MPD2     C12076   4.364   3.374  13.561 -0.2087 -0.2176 -0.5387
  821MPD2    C112077   4.497   3.379  13.598  0.1661 -0.7847  0.1013
  821MPD2    C212078   4.594   3.406  13.507  0.6792 -1.4324 -0.7629
  821MPD2    C312079   4.561   3.431  13.377 -0.7614  0.2691 -0.2954
  821MPD2    C412080   4.431   3.430  13.342 -0.0765  0.1910  0.2709
  821MPD2    C512081   4.333   3.418  13.437 -0.0252 -0.0530 -0.2996
  821MPD2     H12082   4.699   3.400  13.535  0.7091 -1.4968 -0.8887
  821MPD2    H112083   4.410   3.450  13.237 -1.7733  1.4749  0.8640
  821MPD2    H212084   4.292   3.347  13.636 -2.5173  1.5739 -2.1029
  821MPD2    H312085   4.229   3.412  13.406  0.4081 -4.0588 -0.9873
  821MPD2     N12086   4.660   3.450  13.277  0.4811  0.4030 -0.0929
  821MPD2    H512087   4.633   3.501  13.193 -0.7058  0.8528  0.5563
  821MPD2    N112088   4.535   3.362  13.734  0.0983 -0.2748 -0.3335
  821MPD2    H712089   4.634   3.346  13.745  0.4835  0.3373 -2.7465
  822MPD2     C12090   0.516   3.741  15.827  0.2095  0.0334 -0.0374
  822MPD2    C112091   0.536   3.679  15.945  0.5160 -0.1232 -1.0186
  822MPD2    C212092   0.518   3.758  16.061  0.7191 -0.1149 -0.8542
  822MPD2    C312093   0.479   3.889  16.054  0.0805 -0.3943  0.0402
  822MPD2    C412094   0.449   3.941  15.932 -0.6684 -0.3315 -0.4309
  822MPD2    C512095   0.462   3.864  15.817 -0.2221 -0.2358  0.7047
  822MPD2     H12096   0.548   3.712  16.155 -0.4146 -0.9703 -0.9159
  822MPD2    H112097   0.406   4.038  15.911  1.5822  0.6942 -0.3061
  822MPD2    H212098   0.533   3.698  15.728 -0.2206 -2.2017  0.8567
  822MPD2    H312099   0.439   3.913  15.723 -0.5648 -0.3635  0.7220
  822MPD2     N12100   0.491   3.970  16.171  0.2255  0.4200  0.0069
  822MPD2    H512101   0.493   3.925  16.262 -0.5348  1.6944  0.6521
  822MPD2    N112102   0.583   3.553  15.956  0.0659  0.5618 -0.0893
  822MPD2    H712103   0.618   3.516  16.044 -1.8751 -0.0396  0.4242
  823MPD2     C12104   0.299   3.997  16.949 -0.0083 -0.2808 -0.2862
  823MPD2    C112105   0.340   3.945  16.830 -0.2909  0.7378  0.3913
  823MPD2    C212106   0.383   3.813  16.818 -0.2765  0.2212  0.2641
  823MPD2    C312107   0.373   3.738  16.936 -0.7549 -0.1304  0.4092
  823MPD2    C412108   0.314   3.789  17.047  0.1496 -0.6699 -0.2148
  823MPD2    C512109   0.289   3.919  17.060 -0.3532  0.4230 -0.4014
  823MPD2     H12110   0.423   3.771  16.727 -2.2905  1.1231 -1.0457
  823MPD2    H112111   0.302   3.730  17.137  1.9119 -0.4598  0.1473
  823MPD2    H212112   0.273   4.100  16.964  1.6349  0.1549 -0.4019
  823MPD2    H312113   0.252   3.962  17.152  0.9052 -0.1707  0.3910
  823MPD2     N12114   0.423   3.604  16.948  0.7318  1.0538 -0.1608
  823MPD2    H512115   0.407   3.563  17.039 -1.2441 -0.0067 -0.9860
  823MPD2    N112116   0.356   4.035  16.728 -0.4653 -0.6555  0.0886
  823MPD2    H712117   0.349   4.132  16.758  0.3519 -0.9099  1.1187
  824MPD2     C12118   0.762   2.754  15.616 -0.1962 -0.4338 -0.4087
  824MPD2    C112119   0.872   2.822  15.675 -0.9168  0.5512  0.7493
  824MPD2    C212120   0.996   2.762  15.673 -0.6851 -0.3095 -0.3599
  824MPD2    C312121   1.018   2.639  15.618  0.3829 -0.0248  0.6128
  824MPD2    C412122   0.911   2.572  15.566 -0.2228  0.3477 -0.5330
  824MPD2    C512123   0.786   2.627  15.571 -0.3164  0.7349 -0.1185
  824MPD2     H12124   1.079   2.817  15.715 -1.8546  0.3764  1.0754
  824MPD2    H112125   0.912   2.472  15.524 -1.7959  0.4462 -0.7883
  824MPD2    H212126   0.660   2.792  15.621 -0.5494 -1.4329 -0.0605
  824MPD2    H312127   0.708   2.578  15.513  1.0274 -0.8653 -0.5933
  824MPD2     N12128   1.147   2.587  15.611 -0.5791 -0.6839 -0.0898
  824MPD2    H512129   1.220   2.655  15.630  0.1645 -1.5983  0.3254
  824MPD2    N112130   0.856   2.951  15.741  0.2401  0.6068  0.5706
  824MPD2    H712131   0.940   2.984  15.788 -0.1712 -0.2664  1.9383
  825MPD2     C12132   1.543   2.493  14.996 -0.9244 -0.0962  0.2666
  825MPD2    C112133   1.591   2.572  15.096  0.5450 -0.4917  0.5708
  825MPD2    C212134   1.656   2.698  15.063 -0.6365  0.4744 -0.1852
  825MPD2    C312135   1.657   2.738  14.932  0.4177 -0.9092 -0.0475
  825MPD2    C412136   1.601   2.654  14.834 -0.0589  0.2855 -0.1256
  825MPD2    C512137   1.536   2.537  14.867 -0.2467  0.0424  0.4421
  825MPD2     H12138   1.703   2.756  15.142  2.3214 -2.4549  0.2065
  825MPD2    H112139   1.601   2.682  14.729 -0.7885  0.9000  0.0357
  825MPD2    H212140   1.491   2.401  15.017 -3.1367  1.4222  1.4068
  825MPD2    H312141   1.495   2.485  14.782  1.4419 -1.1296  0.3242
  825MPD2     N12142   1.709   2.864  14.891  0.1919  0.5252  0.3275
  825MPD2    H512143   1.705   2.876  14.790  0.0796 -3.1640 -0.1145
  825MPD2    N112144   1.573   2.514  15.223 -0.1637  0.4150 -0.0218
  825MPD2    H712145   1.539   2.419  15.228 -0.7655  0.6875  1.1478
  826MPD2     C12146   1.091   2.711  13.693  0.6234 -0.1843  0.0962
  826MPD2    C112147   1.068   2.720  13.558  0.3018 -0.9401  0.5115
  826MPD2    C212148   1.013   2.843  13.510 -0.2914  0.2386 -0.0878
  826MPD2    C312149   0.978   2.948  13.595 -0.3025  0.2749  0.1472
  826MPD2    C412150   1.012   2.933  13.725  0.2295 -0.2724  0.5545
  826MPD2    C512151   1.065   2.819  13.775  1.4554 -0.1975  0.0298
  826MPD2     H12152   0.977   2.851  13.408  0.5309  1.4120 -0.2886
  826MPD2    H112153   1.014   3.020  13.791 -1.0022  0.3302 -0.2140
  826MPD2    H212154   1.138   2.623  13.736 -0.8990 -0.2919  1.5153
  826MPD2    H312155   1.091   2.810  13.879 -0.3822 -2.4981  0.2850
  826MPD2     N12156   0.914   3.067  13.556  0.0477  0.8212 -0.3205
  826MPD2    H512157   0.856   3.121  13.620 -2.2509 -0.7469 -1.0932
  826MPD2    N112158   1.082   2.616  13.467  0.1100  0.2650  0.5010
  826MPD2    H712159   1.091   2.522  13.504  0.4466  0.2307  0.3310
  827MPD2     C12160   2.013   4.201   9.928  0.2756  0.3069  0.4500
  827MPD2    C112161   1.959   4.087   9.986 -0.2062 -0.1713 -0.2303
  827MPD2    C212162   1.855   4.026   9.924  0.3777 -0.0696  0.3839
  827MPD2    C312163   1.798   4.065   9.802  0.0173 -0.2279 -0.3282
  827MPD2    C412164   1.844   4.187   9.752 -0.4686  0.3909 -0.4426
  827MPD2    C512165   1.948   4.252   9.817  0.0313 -0.1458  0.6714
  827MPD2     H12166   1.809   3.937   9.965  0.8873 -0.8927 -0.8320
  827MPD2    H112167   1.799   4.235   9.666 -0.0962  0.0594 -0.8253
  827MPD2    H212168   2.101   4.255   9.960  1.2643 -3.6250  4.2510
  827MPD2    H312169   1.982   4.342   9.766 -2.4683  0.0486 -0.6793
  827MPD2     N12170   1.685   3.992   9.738  0.2821 -0.0578 -0.3918
  827MPD2    H512171   1.657   3.905   9.783  0.6237 -0.6716 -1.3639
  827MPD2    N112172   2.014   4.033  10.101  0.7063 -0.0605  0.3118
  827MPD2    H712173   2.104   4.061  10.140 -0.5437  1.4010  2.1630
  828MPD2     C12174   0.834   3.930  12.352  0.1620  0.3451  0.1233
  828MPD2    C112175   0.766   3.930  12.234 -0.1535  0.1169  0.0590
  828MPD2    C212176   0.835   3.892  12.121  0.1019  0.1462 -0.3314
  828MPD2    C312177   0.965   3.841  12.123  0.5840  0.5198  0.6340
  828MPD2    C412178   1.027   3.827  12.250  0.1832 -0.7647 -0.5790
  828MPD2    C512179   0.957   3.870  12.360  0.8540  0.5492  0.4727
  828MPD2     H12180   0.781   3.895  12.027  0.1002  0.2072 -0.3283
  828MPD2    H112181   1.131   3.800  12.262  0.8562  2.7508  1.5319
  828MPD2    H212182   0.794   3.977  12.441  0.1180  0.1342  0.2147
  828MPD2    H312183   1.007   3.862  12.456  1.6241 -1.4918 -0.1207
  828MPD2     N12184   1.037   3.818  12.003 -0.0930  0.0226  0.4163
  828MPD2    H512185   1.134   3.791  12.019 -0.1738 -0.3974  0.2172
  828MPD2    N112186   0.637   3.982  12.217 -0.5804  0.6999 -0.4567
  828MPD2    H712187   0.601   3.992  12.122 -1.6796 -2.1721 -0.3358
  829MPD2     C12188   4.521   4.264  11.795 -0.3105  0.6716 -0.0070
  829MPD2    C112189   4.598   4.151  11.823 -0.3019 -0.5004  1.0921
  829MPD2    C212190   4.714   4.164  11.892 -1.2122 -0.5087  0.0875
  829MPD2    C312191   0.030   4.292  11.938 -0.1770 -0.8421  0.7120
  829MPD2    C412192   4.679   4.408  11.904 -0.4478 -0.3709 -0.4204
  829MPD2    C512193   4.565   4.389  11.828 -0.7560 -0.3420 -0.2363
  829MPD2     H12194   0.054   4.079  11.919 -0.7131  0.1325  0.9564
  829MPD2    H112195   4.707   4.500  11.954  0.1682 -0.5958 -0.3547
  829MPD2    H212196   4.433   4.254  11.732  0.5638 -1.2492 -0.9094
  829MPD2    H312197   4.493   4.470  11.824  0.6481  1.1224  3.6626
  829MPD2     N12198   0.143   4.310  12.025  0.0902  0.0954  0.1125
  829MPD2    H512199   0.156   4.398  12.074 -1.1580 -0.2084  0.9989
  829MPD2    N112200   4.543   4.030  11.793  0.4988  0.0720 -0.5783
  829MPD2    H712201   4.466   4.036  11.727 -1.5274 -1.8532  1.5983
  830MPD2     C12202   0.952   1.836  15.723 -0.0451  0.8223 -0.1298
  830MPD2    C112203   0.837   1.854  15.650 -0.7931  0.3156 -0.0480
  830MPD2    C212204   0.835   1.942  15.539  0.2054 -0.7696  0.0181
  830MPD2    C312205   0.947   2.012  15.510 -0.4393 -0.0427 -0.2517
  830MPD2    C412206   1.061   2.000  15.590  0.4916  0.1140  0.3987
  830MPD2    C512207   1.060   1.910  15.693  0.3836 -0.0613 -0.2194
  830MPD2     H12208   0.744   1.985  15.498 -0.3806 -2.1281 -0.1047
  830MPD2    H112209   1.151   2.048  15.554 -2.3183  3.6546 -1.8710
  830MPD2    H212210   0.955   1.781  15.817  0.1987 -1.1475 -1.3021
  830MPD2    H312211   1.149   1.900  15.753  1.3573  4.3374 -0.8847
  830MPD2     N12212   0.949   2.112  15.406  0.1412  0.3784 -0.1112
  830MPD2    H512213   1.006   2.195  15.419  2.3172 -0.9933 -1.1447
  830MPD2    N112214   0.723   1.786  15.699  0.0433  0.0208  0.5103
  830MPD2    H712215   0.726   1.736  15.787  3.4028 -0.0055  0.4090
  831MPD2     C12216   0.774   3.974  16.411  0.4407 -0.1018 -0.4372
  831MPD2    C112217   0.782   3.893  16.303  0.0764  0.0160  0.0920
  831MPD2    C212218   0.755   3.755  16.317  0.7679  0.2224  0.3114
  831MPD2    C312219   0.694   3.703  16.431 -0.7255 -0.8111 -0.0149
  831MPD2    C412220   0.677   3.790  16.533 -0.4157 -0.0863 -0.5221
  831MPD2    C512221   0.719   3.924  16.523  0.4354 -0.8850 -0.3003
  831MPD2     H12222   0.768   3.688  16.232 -0.0596 -2.2227  2.0967
  831MPD2    H112223   0.634   3.755  16.626 -0.6329 -0.4935 -0.7708
  831MPD2    H212224   0.800   4.079  16.404  2.3216 -0.7020 -2.4113
  831MPD2    H312225   0.700   3.997  16.602 -2.4049 -1.6234 -0.3059
  831MPD2     N12226   0.631   3.577  16.443  0.4329 -0.2032 -0.5009
  831MPD2    H512227   0.598   3.560  16.537 -1.6839 -1.3639 -1.4420
  831MPD2    N112228   0.827   3.956  16.179  0.0985 -0.1302 -0.2632
  831MPD2    H712229   0.840   4.056  16.188 -2.2048  0.2217 -0.9259
  832MPD2     C12230   3.593   4.671   0.033  0.3397  0.3214  0.6422
  832MPD2    C112231   3.586   0.057  17.644  0.0405  0.1512  0.5334
  832MPD2    C212232   3.473   0.085  17.567  0.0539 -0.2177  0.5761
  832MPD2    C312233   3.376   4.713  17.559  0.6677 -0.2202 -0.2615
  832MPD2    C412234   3.382   4.607  17.648  0.3059 -0.8636  0.6774
  832MPD2    C512235   3.486   4.581   0.037  0.5007  0.1353  0.8901
  832MPD2     H12236   3.478   0.166  17.494 -0.3658 -1.2372 -0.5821
  832MPD2    H112237   3.309   4.527  17.648  0.7994 -1.3155  0.6608
  832MPD2    H212238   3.676   4.664   0.102  0.3865 -0.8722  0.4645
  832MPD2    H312239   3.495   4.491   0.096 -0.4268 -0.5783 -0.0594
  832MPD2     N12240   3.265   0.008  17.469  0.4867 -0.2361 -0.3801
  832MPD2    H512241   3.191   4.665  17.497  0.0759  0.3996  0.0140
  832MPD2    N112242   3.690   0.147  17.660  0.5330  0.4575 -0.4644
  832MPD2    H712243   3.769   0.113   0.026  1.5520  0.1200 -2.1395
  833MPD2     C12244   1.060   0.938  12.124  0.5469  0.1148  0.2761
  833MPD2    C112245   1.109   1.060  12.170  0.1016 -0.6578 -0.2899
  833MPD2    C212246   1.237   1.096  12.135  0.3129 -0.0925 -0.2998
  833MPD2    C312247   1.321   1.010  12.062  0.9810  0.5740  0.4488
  833MPD2    C412248   1.271   0.886  12.024 -0.3177 -0.1396 -0.0817
  833MPD2    C512249   1.143   0.849  12.053 -0.8481 -0.5500 -0.3337
  833MPD2     H12250   1.268   1.196  12.163  1.3851  0.0478 -1.9738
  833MPD2    H112251   1.325   0.821  11.956  1.2419  1.0719  0.0051
  833MPD2    H212252   0.963   0.902  12.157  0.4124  0.4056  0.1994
  833MPD2    H312253   1.112   0.749  12.024 -0.1043 -0.7416 -0.4568
  833MPD2     N12254   1.448   1.046  12.010 -0.3058  0.6393 -0.0538
  833MPD2    H512255   1.496   0.977  11.954  1.3650  1.9298 -0.2154
  833MPD2    N112256   1.023   1.132  12.255 -0.2753 -0.0634  0.6617
  833MPD2    H712257   0.932   1.096  12.281 -0.6526  0.2502 -0.2567
  834MPD2     C12258   1.768   1.406  11.263  0.1516  0.3135 -0.6355
  834MPD2    C112259   1.650   1.414  11.331  0.0345  0.2064 -0.0464
  834MPD2    C212260   1.642   1.385  11.464  0.4537 -0.3978  1.2325
  834MPD2    C312261   1.750   1.339  11.532  0.4419 -0.0444 -0.0077
  834MPD2    C412262   1.865   1.311  11.460 -0.3381 -0.7370 -0.3673
  834MPD2    C512263   1.874   1.349  11.329 -0.5206 -0.1947 -0.4696
  834MPD2     H12264   1.552   1.408  11.520 -0.9969 -0.2998 -1.1684
  834MPD2    H112265   1.949   1.264  11.510 -1.0457 -1.0598  0.5305
  834MPD2    H212266   1.795   1.440  11.163  2.1035 -0.5796 -0.3892
  834MPD2    H312267   1.962   1.328  11.270  1.3796  1.4361  1.7634
  834MPD2     N12268   1.749   1.321  11.672  0.3785 -0.3536  0.1723
  834MPD2    H512269   1.662   1.341  11.721 -0.0128  0.9663 -1.0540
  834MPD2    N112270   1.532   1.469  11.272 -0.2650  0.5864 -0.0430
  834MPD2    H712271   1.459   1.482  11.342 -1.7407  0.9883 -1.6369
  835MPD2     C12272   0.996   4.034  11.332 -0.3929 -0.0526  0.3677
  835MPD2    C112273   0.898   4.015  11.421 -0.1606  0.1436 -0.5291
  835MPD2    C212274   0.923   4.051  11.552 -0.1852 -0.2905  0.3549
  835MPD2    C312275   1.044   4.112  11.590 -0.3567 -0.1522  0.0864
  835MPD2    C412276   1.141   4.126  11.497  0.2947  0.5170  0.5577
  835MPD2    C512277   1.118   4.085  11.369  0.2119  0.0085  0.1071
  835MPD2     H12278   0.853   4.027  11.631 -0.3097 -0.4261  0.2047
  835MPD2    H112279   1.237   4.168  11.525  0.6311  0.0663  0.0885
  835MPD2    H212280   0.976   4.011  11.228 -1.2881  1.6044  0.1843
  835MPD2    H312281   1.195   4.089  11.293  0.5710  0.4009  0.4924
  835MPD2     N12282   1.086   4.146  11.720 -0.2044  0.1446 -0.4365
  835MPD2    H512283   1.184   4.167  11.739  0.0493 -1.4184  0.0166
  835MPD2    N112284   0.771   3.966  11.378  0.0459 -0.4561  0.3065
  835MPD2    H712285   0.695   3.943  11.441  1.0213  0.2708  1.7409
  836MPD2     C12286   0.659   4.376  12.334 -0.2131  0.7011  0.4881
  836MPD2    C112287   0.785   4.351  12.379 -0.4051  0.8539  0.1684
  836MPD2    C212288   0.816   4.378  12.510  0.1375 -0.4765 -0.0569
  836MPD2    C312289   0.721   4.419  12.599 -0.0117  0.7702  0.7860
  836MPD2    C412290   0.592   4.450  12.551 -0.3164  0.3074  0.3949
  836MPD2    C512291   0.563   4.421  12.419  0.1892  1.1338  0.3842
  836MPD2     H12292   0.920   4.370  12.540 -0.0439 -1.1744  0.3981
  836MPD2    H112293   0.515   4.492  12.615  0.5329  1.2733  0.7790
  836MPD2    H212294   0.628   4.362  12.231  0.5881 -0.6188  0.4298
  836MPD2    H312295   0.468   4.455  12.380 -1.6350 -2.1569  1.8785
  836MPD2     N12296   0.740   4.433  12.740  0.2214  0.3204  0.3339
  836MPD2    H512297   0.667   4.455  12.806  0.1567 -0.5367  0.5476
  836MPD2    N112298   0.874   4.290  12.286 -0.4208 -0.9494 -0.5849
  836MPD2    H712299   0.826   4.284  12.197 -1.0980  3.4500 -0.4860
  837MPD2     C12300   4.148   3.441   9.952  0.3896 -0.1687 -0.1133
  837MPD2    C112301   4.081   3.443   9.834  0.0039 -0.3850  0.4828
  837MPD2    C212302   4.033   3.563   9.798 -0.4159 -0.5245 -0.0258
  837MPD2    C312303   4.033   3.677   9.877 -0.0300 -0.0472  0.1800
  837MPD2    C412304   4.107   3.678   9.986  0.3618 -0.2465 -0.0870
  837MPD2    C512305   4.165   3.558  10.026 -0.0818  0.5110 -0.3926
  837MPD2     H12306   3.986   3.563   9.701  1.9406  3.3778 -1.1815
  837MPD2    H112307   4.108   3.762  10.055 -2.0424 -0.2005 -0.1331
  837MPD2    H212308   4.199   3.351   9.984  0.2803 -0.7924 -1.7034
  837MPD2    H312309   4.205   3.560  10.127 -0.2251  3.1019 -0.3759
  837MPD2     N12310   3.954   3.788   9.829 -0.6337  0.2734 -0.3269
  837MPD2    H512311   3.909   3.769   9.739  0.1678 -3.4078  0.0616
  837MPD2    N112312   4.065   3.333   9.746  0.1687 -0.4144  0.1563
  837MPD2    H712313   4.002   3.344   9.667  0.8607 -1.4712 -0.5411
  838MPD2     C12314   2.571   2.165  11.520  0.1811  0.0578  0.0513
  838MPD2    C112315   2.630   2.077  11.609 -0.0970 -0.2475  0.2490
  838MPD2    C212316   2.553   1.996  11.684  0.2822  0.0709  0.4011
  838MPD2    C312317   2.412   1.987  11.666 -0.2035 -0.8471 -0.1467
  838MPD2    C412318   2.360   2.062  11.562 -0.5251 -0.8834  0.2070
  838MPD2    C512319   2.440   2.159  11.500  0.8076  0.9056  0.5734
  838MPD2     H12320   2.609   1.934  11.754  1.0779  0.3322 -0.0092
  838MPD2    H112321   2.256   2.063  11.530 -0.1886 -1.9992 -0.9021
  838MPD2    H212322   2.626   2.240  11.465  0.7623  0.5907  1.3641
  838MPD2    H312323   2.391   2.235  11.440  1.7466  2.2797  1.5771
  838MPD2     N12324   2.329   1.901  11.744  0.6778  0.1335 -0.4165
  838MPD2    H512325   2.381   1.863  11.823 -0.2804  0.6961  0.4869
  838MPD2    N112326   2.776   2.073  11.615 -0.4725 -0.3913  0.1043
  838MPD2    H712327   2.819   1.996  11.665 -0.3293 -0.6532 -0.4202
  839MPD2     C12328   2.456   1.616  11.305  0.2260  0.0756  0.0062
  839MPD2    C112329   2.571   1.543  11.299  0.7753  0.2372 -0.4106
  839MPD2    C212330   2.692   1.612  11.323 -0.6028 -0.2866  0.0247
  839MPD2    C312331   2.682   1.746  11.346 -0.4980  0.1334  0.7534
  839MPD2    C412332   2.570   1.819  11.351 -0.7404 -0.0449  0.4859
  839MPD2    C512333   2.453   1.752  11.335  0.1989  0.3406  0.1734
  839MPD2     H12334   2.786   1.559  11.332 -0.4339  0.0327  0.1567
  839MPD2    H112335   2.570   1.926  11.363 -1.3026  0.5213 -4.4889
  839MPD2    H212336   2.362   1.564  11.297  1.1266 -1.7423  1.1973
  839MPD2    H312337   2.359   1.806  11.337  0.2124  0.4195 -1.5840
  839MPD2     N12338   2.798   1.817  11.381  0.0220 -0.0690 -0.3485
  839MPD2    H512339   2.785   1.909  11.422  2.1058 -0.2788  0.7881
  839MPD2    N112340   2.556   1.405  11.278 -0.2695  0.5303 -0.1975
  839MPD2    H712341   2.466   1.359  11.290  1.6081 -2.3517  2.9105
  840MPD2     C12342   2.630   3.830  10.066 -0.0445  0.2854  0.2662
  840MPD2    C112343   2.580   3.880  10.184 -0.5907  0.2746 -0.1392
  840MPD2    C212344   2.643   3.972  10.263 -0.1365  1.2504  0.3405
  840MPD2    C312345   2.770   4.012  10.222 -0.1764 -0.3273  0.6110
  840MPD2    C412346   2.816   3.964  10.102  0.1308  0.0942  0.3446
  840MPD2    C512347   2.747   3.878  10.021 -0.4930  0.5153 -0.1601
  840MPD2     H12348   2.597   4.017  10.350  0.6894 -0.7987  1.8058
  840MPD2    H112349   2.918   3.990  10.077  0.4179 -1.9704 -0.7069
  840MPD2    H212350   2.569   3.762  10.007  0.7800 -0.6456  0.4816
  840MPD2    H312351   2.791   3.834   9.932  0.9411  1.0955  0.2708
  840MPD2     N12352   2.857   4.093  10.299 -0.0758 -0.0048 -0.3259
  840MPD2    H512353   2.929   4.142  10.247 -1.3285  0.3801 -1.7301
  840MPD2    N112354   2.449   3.829  10.221 -0.1920 -0.1537  0.0602
  840MPD2    H712355   2.385   3.797  10.150 -0.1529  0.9221 -0.4615
  841MPD2     C12356   1.916   3.599  14.899  0.2358  0.2036 -0.1541
  841MPD2    C112357   1.905   3.596  14.762 -0.7756 -0.1423  0.2844
  841MPD2    C212358   1.850   3.714  14.707 -0.8276  0.0112  0.0992
  841MPD2    C312359   1.832   3.829  14.785  0.2753  0.0483  0.7126
  841MPD2    C412360   1.846   3.827  14.923 -0.4271 -0.1855 -0.2211
  841MPD2    C512361   1.873   3.705  14.975  0.3354  0.9524 -0.5724
  841MPD2     H12362   1.850   3.713  14.599  1.6768  0.5965  0.0792
  841MPD2    H112363   1.816   3.904  14.995 -2.6830  0.6275 -2.0415
  841MPD2    H212364   1.957   3.522  14.963 -1.2627 -1.6922 -1.5069
  841MPD2    H312365   1.888   3.691  15.081 -1.5875 -1.6007 -0.6443
  841MPD2     N12366   1.797   3.948  14.715 -0.3599  0.0992  0.7583
  841MPD2    H512367   1.785   3.940  14.614 -1.0056  1.1340  0.7470
  841MPD2    N112368   1.947   3.486  14.679 -0.3624  0.0842 -0.1349
  841MPD2    H712369   1.941   3.499  14.578 -0.8026 -0.4472 -0.1763
  842MPD2     C12370   3.054   0.408  17.075  0.6439 -0.0095  0.1111
  842MPD2    C112371   2.932   0.347  17.065 -0.3942 -0.5152  0.2283
  842MPD2    C212372   2.874   0.293  17.175  0.5119 -0.3538 -0.5090
  842MPD2    C312373   2.931   0.304  17.302  0.7355 -0.5661 -0.2140
  842MPD2    C412374   3.047   0.374  17.314  1.0023  0.1605  0.6593
  842MPD2    C512375   3.108   0.433  17.198  0.4379 -0.0824 -0.6296
  842MPD2     H12376   2.787   0.230  17.163 -0.6702  0.9472  1.2820
  842MPD2    H112377   3.087   0.385  17.414  0.8940  0.8277  0.6332
  842MPD2    H212378   3.110   0.447  16.992 -1.0202  0.6645 -0.6972
  842MPD2    H312379   3.193   0.500  17.202 -0.5272  1.1310 -0.2768
  842MPD2     N12380   2.875   0.254  17.422 -0.3162 -0.6436  0.2001
  842MPD2    H512381   2.923   0.266  17.510 -1.3030  1.8562  0.4127
  842MPD2    N112382   2.880   0.348  16.931 -0.4167 -0.2110 -0.4786
  842MPD2    H712383   2.918   0.414  16.864 -2.7349  1.4321 -0.1733
  843MPD2     C12384   0.251   0.118   0.780  0.4975  0.0179 -0.0320
  843MPD2    C112385   0.380   0.128   0.835 -0.9638 -0.6561 -0.5627
  843MPD2    C212386   0.466   0.228   0.802  0.2722 -0.1529  0.3013
  843MPD2    C312387   0.424   0.319   0.697  0.2418 -0.2507 -0.9910
  843MPD2    C412388   0.302   0.305   0.635  0.1696  1.1290 -0.5299
  843MPD2    C512389   0.215   0.208   0.683 -0.4296  0.2490 -0.2393
  843MPD2     H12390   0.565   0.232   0.844 -0.2792 -0.5697  1.6361
  843MPD2    H112391   0.265   0.368   0.555  0.2349  2.3458  0.3837
  843MPD2    H212392   0.178   0.047   0.815 -1.6455  1.4057 -1.7131
  843MPD2    H312393   0.117   0.193   0.638  0.4997 -0.3540 -2.0816
  843MPD2     N12394   0.509   0.427   0.658 -0.0492  0.4827 -0.1670
  843MPD2    H512395   0.484   0.473   0.572 -0.6707  2.4487  1.0639
  843MPD2    N112396   0.408   0.031   0.936  0.0772 -0.0526  0.0870
  843MPD2    H712397   0.335   4.687   0.962 -2.0926  2.6864  0.8255
  844MPD2     C12398   3.212   4.388  17.203  1.0664 -0.3641 -0.5828
  844MPD2    C112399   3.271   4.440  17.090 -0.6398  0.1570  0.2047
  844MPD2    C212400   3.378   4.524  17.113 -0.2196 -0.2471 -0.4199
  844MPD2    C312401   3.448   4.521  17.233  0.1572  0.3327  0.8332
  844MPD2    C412402   3.395   4.445  17.337  0.3995 -0.2660  0.3371
  844MPD2    C512403   3.271   4.391  17.326  0.0967  0.0898 -0.1590
  844MPD2     H12404   3.422   4.571  17.025 -0.3515  0.2559 -0.2153
  844MPD2    H112405   3.441   4.450  17.435  2.3116 -2.1780 -0.4709
  844MPD2    H212406   3.118   4.337  17.186  2.5797 -3.7681  1.1099
  844MPD2    H312407   3.232   4.337  17.412  0.7829 -0.0246  0.0806
  844MPD2     N12408   3.570   4.591  17.243  0.6193  0.0675 -0.2248
  844MPD2    H512409   3.601   4.646  17.164 -1.9175  1.8263 -0.0103
  844MPD2    N112410   3.213   4.440  16.960  0.5456  0.4510 -0.0871
  844MPD2    H712411   3.253   4.498  16.886  0.0856 -0.1650 -0.8167
  845MPD2     C12412   3.502   0.650  17.099  0.6340 -0.3752 -0.2683
  845MPD2    C112413   3.588   0.664  17.203  0.2987  0.4064 -0.6651
  845MPD2    C212414   3.662   0.559  17.238 -0.2919 -0.3679  1.0633
  845MPD2    C312415   3.648   0.433  17.181 -0.8167  0.3083  0.4499
  845MPD2    C412416   3.547   0.422  17.087 -0.2146  0.0889 -0.1178
  845MPD2    C512417   3.484   0.531  17.038  0.4629 -0.1377 -0.8620
  845MPD2     H12418   3.738   0.571  17.315  0.1839  0.5562  0.4491
  845MPD2    H112419   3.518   0.327  17.043 -1.9397  1.6558 -2.3416
  845MPD2    H212420   3.444   0.733  17.060  1.0316  1.1520  2.4228
  845MPD2    H312421   3.407   0.518  16.963 -0.8994 -1.1429  0.7416
  845MPD2     N12422   3.714   0.310  17.209  0.4046 -0.2292 -0.3742
  845MPD2    H512423   3.675   0.229  17.162 -1.4734  0.6288 -0.2959
  845MPD2    N112424   3.583   0.795  17.261 -0.8675 -0.1027 -0.4432
  845MPD2    H712425   3.539   0.873  17.213 -0.5458  0.3080 -0.0718
  846MPD2     C12426   0.331   0.878  13.740  0.7591  0.2188  0.0783
  846MPD2    C112427   0.284   1.013  13.763 -0.0693 -0.7201  0.1179
  846MPD2    C212428   0.262   1.041  13.894 -1.1534 -0.1757  0.9216
  846MPD2    C312429   0.287   0.952  13.997 -0.7318  0.3964 -0.2283
  846MPD2    C412430   0.321   0.825  13.971  0.3085 -0.3097 -0.0001
  846MPD2    C512431   0.341   0.791  13.839 -0.2561  0.6256 -0.8010
  846MPD2     H12432   0.236   1.144  13.914 -1.6647 -0.6341  2.5746
  846MPD2    H112433   0.337   0.755  14.052 -1.4426 -1.7507 -0.8992
  846MPD2    H212434   0.338   0.830  13.643 -1.3227  1.1030 -0.5138
  846MPD2    H312435   0.368   0.688  13.817  0.1079  0.3020  1.0923
  846MPD2     N12436   0.263   0.984  14.130 -0.1577 -0.3453 -0.0577
  846MPD2    H512437   0.184   1.047  14.139  0.3862  0.1329  1.3004
  846MPD2    N112438   0.266   1.105  13.655  0.2002 -0.2761 -0.0102
  846MPD2    H712439   0.256   1.202  13.682 -3.6831 -0.3770 -1.0693
  847MPD2     C12440   0.702   2.710  13.765  0.0514 -0.7405  0.4656
  847MPD2    C112441   0.681   2.771  13.887 -0.3410 -0.3029  0.1894
  847MPD2    C212442   0.677   2.700  14.005 -0.2183  0.2024 -0.6987
  847MPD2    C312443   0.721   2.568  14.002 -0.0829  0.0558 -0.3248
  847MPD2    C412444   0.741   2.510  13.877 -0.1830 -0.1808  0.1311
  847MPD2    C512445   0.728   2.579  13.759  0.2946  0.1188 -0.2181
  847MPD2     H12446   0.669   2.751  14.101  2.0072 -0.0386 -0.3775
  847MPD2    H112447   0.757   2.402  13.875  1.4363  0.1076 -3.0040
  847MPD2    H212448   0.711   2.766  13.673 -0.0118  0.9596  1.4983
  847MPD2    H312449   0.739   2.536  13.660  1.0795 -0.3600  0.0793
  847MPD2     N12450   0.727   2.481  14.117 -0.0827  0.7649 -0.4413
  847MPD2    H512451   0.765   2.387  14.106 -1.3215 -0.0690  2.5321
  847MPD2    N112452   0.643   2.906  13.903 -0.3525 -0.1600 -0.5113
  847MPD2    H712453   0.617   2.929  13.998  1.8440  0.6587 -0.0918
  848MPD2     C12454   2.971   0.058  16.657 -0.1000  0.4042  0.0908
  848MPD2    C112455   3.061   0.131  16.738  0.4215 -0.0546 -0.2195
  848MPD2    C212456   3.126   0.249  16.698 -0.3594  0.1769 -0.0876
  848MPD2    C312457   3.083   0.304  16.573  0.7665  0.0331  0.6568
  848MPD2    C412458   2.984   0.240  16.498 -0.3420 -0.6017  0.4029
  848MPD2    C512459   2.932   0.117  16.538  0.3488  0.3236  0.4395
  848MPD2     H12460   3.200   0.293  16.764  1.4915 -1.8799 -0.8037
  848MPD2    H112461   2.951   0.277  16.402  1.9980  1.2772  0.3559
  848MPD2    H212462   2.925   4.686  16.682  1.3813 -1.0723 -2.6909
  848MPD2    H312463   2.863   0.066  16.472 -0.2310 -0.7219  1.8590
  848MPD2     N12464   3.139   0.425  16.525 -0.4320  0.1471 -0.3960
  848MPD2    H512465   3.101   0.462  16.438 -1.2212  1.1502  0.3731
  848MPD2    N112466   3.090   0.090  16.873  0.0286 -0.3755 -0.4693
  848MPD2    H712467   3.162   0.139  16.925 -0.4066 -0.8965  0.6165
  849MPD2     C12468   2.224   0.289  14.195 -0.3227 -0.0694  0.2362
  849MPD2    C112469   2.349   0.241  14.198 -0.0044 -0.6502 -0.0839
  849MPD2    C212470   2.377   0.150  14.298 -0.2311 -0.3308 -0.4248
  849MPD2    C312471   2.292   0.116  14.397 -0.0419 -0.5067 -0.3449
  849MPD2    C412472   2.174   0.179  14.400  0.6308 -0.5541 -0.3809
  849MPD2    C512473   2.136   0.254  14.292  0.2585 -0.4845  0.0564
  849MPD2     H12474   2.467   0.092  14.279  0.0350  0.2055 -0.8018
  849MPD2    H112475   2.105   0.164  14.483 -0.2084  1.0407 -0.8007
  849MPD2    H212476   2.201   0.352  14.110 -3.3644  0.2316  1.2788
  849MPD2    H312477   2.032   0.281  14.274  1.1778  1.6363 -2.1931
  849MPD2     N12478   2.340   0.016  14.490  0.3878 -0.0667  0.1520
  849MPD2    H512479   2.432   4.703  14.466  0.3458 -0.0584 -0.0239
  849MPD2    N112480   2.440   0.280  14.093  0.3455  0.8055 -0.3621
  849MPD2    H712481   2.404   0.342  14.022 -3.1615 -0.1267  0.5519
  850MPD2     C12482   0.366   3.023  14.604 -0.4259  0.3649  0.1545
  850MPD2    C112483   0.355   3.104  14.710  0.1914  0.4559  0.5250
  850MPD2    C212484   0.468   3.161  14.766 -0.0746 -0.2507  0.5128
  850MPD2    C312485   0.589   3.110  14.727  0.1218 -0.0077  0.6121
  850MPD2    C412486   0.602   3.021  14.624 -0.3443 -0.5198 -0.5214
  850MPD2    C512487   0.490   2.989  14.556  0.4626 -0.2661  0.0395
  850MPD2     H12488   0.458   3.242  14.838  1.1303 -0.4443  0.9015
  850MPD2    H112489   0.697   2.995  14.578 -0.9127  0.8363 -2.4953
  850MPD2    H212490   0.284   2.988  14.543 -0.7375 -1.9841  1.9061
  850MPD2    H312491   0.499   2.930  14.466  1.4385 -0.9896  0.6142
  850MPD2     N12492   0.713   3.161  14.775 -0.0939 -0.2142 -0.1497
  850MPD2    H512493   0.802   3.122  14.746  0.7945  2.3845 -0.9246
  850MPD2    N112494   0.227   3.140  14.752 -0.8001  0.2314  0.0788
  850MPD2    H712495   0.153   3.118  14.686 -0.5898 -1.2973  0.3692
  851MPD2     C12496   0.874   3.045  15.285  0.0806 -0.4727 -0.1209
  851MPD2    C112497   0.765   2.982  15.232 -0.3946 -0.8617 -1.2886
  851MPD2    C212498   0.778   2.849  15.195 -0.2730  0.3749 -0.3317
  851MPD2    C312499   0.892   2.781  15.224 -0.1351  0.0590 -0.2896
  851MPD2    C412500   0.994   2.841  15.293 -0.6494  0.3635 -0.0076
  851MPD2    C512501   0.985   2.974  15.319  0.2538 -0.6074  0.0896
  851MPD2     H12502   0.703   2.793  15.140  0.8844 -2.0534  0.5592
  851MPD2    H112503   1.088   2.795  15.323 -0.4166  0.9726  0.1931
  851MPD2    H212504   0.872   3.153  15.301 -0.9132 -0.0584 -3.0954
  851MPD2    H312505   1.064   3.038  15.356 -0.4553 -0.0158  0.5963
  851MPD2     N12506   0.892   2.648  15.177  0.0390 -0.1487 -0.4103
  851MPD2    H512507   0.809   2.617  15.127 -0.4294 -1.4380  1.1930
  851MPD2    N112508   0.646   3.055  15.203  0.5846  0.0287  0.8041
  851MPD2    H712509   0.639   3.154  15.225  0.4910  0.0649  0.6033
  852MPD2     C12510   0.812   0.415  10.198  0.0209 -0.2052  0.1279
  852MPD2    C112511   0.748   0.536  10.212 -0.3190 -0.6810 -0.3708
  852MPD2    C212512   0.819   0.651  10.181  0.5518  0.1064 -0.2525
  852MPD2    C312513   0.946   0.638  10.129 -0.0857  0.5314 -0.6694
  852MPD2    C412514   1.002   0.518  10.095  0.5472 -0.3715  0.0658
  852MPD2    C512515   0.934   0.402  10.132 -0.3319 -0.1243  0.4729
  852MPD2     H12516   0.772   0.748  10.178  0.4580  0.1275  2.0072
  852MPD2    H112517   1.089   0.507  10.033 -0.4314 -1.2193 -1.1647
  852MPD2    H212518   0.760   0.322  10.218 -1.6241  1.2528  2.6162
  852MPD2    H312519   0.989   0.308  10.131  0.6728  0.4560  0.4267
  852MPD2     N12520   1.010   0.763  10.099 -0.4590  0.2398  0.1117
  852MPD2    H512521   0.957   0.846  10.121 -0.9666  0.0236 -0.2845
  852MPD2    N112522   0.625   0.556  10.270 -0.1950 -0.2153  0.6513
  852MPD2    H712523   0.592   0.651  10.279  1.4029  0.3730  0.2147
  853MPD2     C12524   2.359   0.681  12.458  0.7940  0.8137 -0.2879
  853MPD2    C112525   2.259   0.775  12.436 -0.3713 -0.7294  0.0643
  853MPD2    C212526   2.207   0.787  12.307 -0.7511  0.0680  0.0242
  853MPD2    C312527   2.263   0.707  12.208  0.0796 -0.1656  0.2679
  853MPD2    C412528   2.362   0.608  12.242 -0.0633  0.4578 -0.2412
  853MPD2    C512529   2.406   0.596  12.368 -0.0330 -0.6234  0.5618
  853MPD2     H12530   2.120   0.851  12.293  1.0822  2.2873 -1.1801
  853MPD2    H112531   2.389   0.541  12.161 -0.5897 -0.9107  0.7182
  853MPD2    H212532   2.383   0.664  12.563  2.0493 -2.0302 -1.0302
  853MPD2    H312533   2.465   0.510  12.398  2.1389  1.0468  0.9997
  853MPD2     N12534   2.217   0.709  12.073 -0.0881  0.3924  0.7920
  853MPD2    H512535   2.273   0.648  12.013 -0.7383  0.4421  0.1343
  853MPD2    N112536   2.213   0.852  12.545 -0.6734  0.2274 -0.0571
  853MPD2    H712537   2.258   0.838  12.634  0.1332  0.2630 -0.4631
  854MPD2     C12538   3.654   0.350  12.974 -0.4465 -0.2467 -0.0489
  854MPD2    C112539   3.697   0.472  13.020 -0.6733 -1.0752 -0.8313
  854MPD2    C212540   3.819   0.494  13.081 -0.1281  0.4278 -0.4691
  854MPD2    C312541   3.891   0.381  13.107 -0.4168  0.8112  0.3867
  854MPD2    C412542   3.851   0.258  13.061  0.5675 -0.1675  0.0230
  854MPD2    C512543   3.741   0.249  12.987 -0.2886  0.4631  0.1864
  854MPD2     H12544   3.847   0.592  13.117  3.2387 -1.2687  1.5206
  854MPD2    H112545   3.909   0.169  13.079  1.0476  0.0161 -0.6029
  854MPD2    H212546   3.566   0.340  12.911 -1.9298 -1.8368  2.2583
  854MPD2    H312547   3.708   0.155  12.944  0.1226  0.2538  0.3305
  854MPD2     N12548   4.017   0.387  13.164  0.0517 -0.1752 -0.1173
  854MPD2    H512549   4.073   0.303  13.154 -0.3639 -0.3110 -1.3635
  854MPD2    N112550   3.610   0.580  12.993 -0.0276 -0.2304  0.3269
  854MPD2    H712551   3.538   0.563  12.923 -1.0142  1.2410  0.9821
  855MPD2     C12552   4.362   0.691  14.048 -0.4175  0.3291 -0.3603
  855MPD2    C112553   4.411   0.570  14.003 -0.3957  0.1039 -0.3508
  855MPD2    C212554   4.409   0.537  13.869  0.4284 -0.4870  0.4760
  855MPD2    C312555   4.335   0.620  13.784 -0.0587  0.0073 -0.4838
  855MPD2    C412556   4.278   0.735  13.834  0.3966  0.1373 -0.6645
  855MPD2    C512557   4.289   0.767  13.962  0.6977 -0.1411  0.2718
  855MPD2     H12558   4.462   0.447  13.840  0.0721 -0.6208  0.2339
  855MPD2    H112559   4.220   0.808  13.778  2.3602  1.8074 -0.4948
  855MPD2    H212560   4.376   0.723  14.151  0.2023 -0.4321 -0.2034
  855MPD2    H312561   4.247   0.861  13.997 -0.6743 -0.9104  0.6572
  855MPD2     N12562   4.323   0.596  13.648 -0.1172 -0.2013  0.5363
  855MPD2    H512563   4.258   0.657  13.599  0.8303  0.4778  0.1273
  855MPD2    N112564   4.474   0.496  14.101 -0.4005  0.2480 -0.3277
  855MPD2    H712565   4.503   0.543  14.186 -0.6318 -2.3478  1.1768
  856MPD2     C12566   1.144   1.249  14.248  0.7078 -0.0882  0.3444
  856MPD2    C112567   1.237   1.352  14.260 -0.5144  0.3537  0.4746
  856MPD2    C212568   1.231   1.461  14.174 -0.5178 -0.1650 -0.4003
  856MPD2    C312569   1.139   1.455  14.066  0.2555 -0.3288 -0.1084
  856MPD2    C412570   1.052   1.350  14.058  1.0843 -0.3768 -0.5674
  856MPD2    C512571   1.045   1.253  14.157  0.2969 -0.0504  0.0925
  856MPD2     H12572   1.308   1.536  14.190  1.5709 -2.5614  0.8659
  856MPD2    H112573   0.973   1.335  13.986  1.5349  1.7736 -1.5096
  856MPD2    H212574   1.152   1.168  14.320 -1.5056 -0.3375  0.3304
  856MPD2    H312575   0.973   1.172  14.151 -0.2125  0.4153 -0.1104
  856MPD2     N12576   1.127   1.545  13.959 -0.5646 -0.4296  0.2674
  856MPD2    H512577   1.049   1.541  13.894  0.0420  2.1949 -0.6457
  856MPD2    N112578   1.331   1.346  14.356 -0.3445  0.4142 -0.4966
  856MPD2    H712579   1.402   1.418  14.350  0.8762 -0.6524  0.9925
  857MPD2     C12580   2.901   3.797  12.813 -0.3848 -0.5391 -0.5871
  857MPD2    C112581   2.978   3.782  12.927 -0.7048  0.5893 -1.0340
  857MPD2    C212582   3.016   3.894  13.000 -0.3442  0.5922 -0.3843
  857MPD2    C312583   2.975   4.021  12.961  0.6116 -0.3147  0.0560
  857MPD2    C412584   2.890   4.025  12.850  0.0545 -0.0105 -0.0836
  857MPD2    C512585   2.859   3.919  12.775 -0.5538 -0.2194  0.4168
  857MPD2     H12586   3.070   3.877  13.093 -1.4233  0.3055  0.1958
  857MPD2    H112587   2.870   4.120  12.801 -2.5838 -0.7472 -0.4251
  857MPD2    H212588   2.867   3.713  12.753 -1.2340 -0.4484 -0.2292
  857MPD2    H312589   2.799   3.932  12.686  1.1856 -0.6739 -0.8290
  857MPD2     N12590   3.015   4.136  13.036 -0.8891  0.2419  0.1027
  857MPD2    H512591   3.067   4.108  13.119 -2.1731  1.3658  1.2937
  857MPD2    N112592   3.004   3.650  12.967 -0.0124  0.2723  0.2489
  857MPD2    H712593   2.948   3.575  12.926  1.8814 -1.8271  1.5011
  858MPD2     C12594   3.244   2.766  16.999  0.3506 -1.0596 -0.4181
  858MPD2    C112595   3.371   2.767  16.955 -0.2001 -0.2317  0.2767
  858MPD2    C212596   3.475   2.803  17.045  0.3231 -0.4223 -0.0675
  858MPD2    C312597   3.448   2.841  17.177  0.0942 -0.2937 -0.5388
  858MPD2    C412598   3.315   2.861  17.209 -0.3370  0.2150 -0.3304
  858MPD2    C512599   3.216   2.818  17.119  0.0104  0.2599 -0.4355
  858MPD2     H12600   3.579   2.791  17.017 -0.3156  0.2828 -2.6874
  858MPD2    H112601   3.289   2.890  17.310  0.3714  2.4670 -0.7804
  858MPD2    H212602   3.161   2.716  16.951  0.5647 -1.4689 -0.3679
  858MPD2    H312603   3.113   2.809  17.152  0.8796 -1.2692  1.9107
  858MPD2     N12604   3.550   2.858  17.275  0.6566  0.3880  0.2266
  858MPD2    H512605   3.514   2.900  17.360 -1.4215 -2.9447  1.0185
  858MPD2    N112606   3.388   2.703  16.826 -0.6543  0.3752 -0.1357
  858MPD2    H712607   3.309   2.649  16.793 -0.9421  1.1798 -0.7666
  859MPD2     C12608   1.990   4.302  15.171  0.1215 -0.4696  0.3048
  859MPD2    C112609   2.122   4.335  15.180 -0.1739  0.3391  0.3478
  859MPD2    C212610   2.215   4.239  15.160  0.1044  0.3526  0.4839
  859MPD2    C312611   2.187   4.114  15.105 -0.3691  0.3245 -0.4598
  859MPD2    C412612   2.047   4.096  15.070 -0.0616  0.3705 -0.0050
  859MPD2    C512613   1.948   4.177  15.122  1.0042  0.1126  0.0460
  859MPD2     H12614   2.319   4.265  15.173  0.9126 -2.1558 -0.8406
  859MPD2    H112615   2.016   4.002  15.025 -0.1878  0.8121 -0.8632
  859MPD2    H212616   1.915   4.377  15.193 -0.6224 -1.9771  2.7895
  859MPD2    H312617   1.846   4.142  15.108  2.0077 -1.8982 -2.3094
  859MPD2     N12618   2.289   4.029  15.050 -0.4219 -0.7269  0.4821
  859MPD2    H512619   2.252   3.951  14.997  0.5600 -0.5395 -0.4804
  859MPD2    N112620   2.152   4.473  15.193 -0.8158 -0.4642 -0.2291
  859MPD2    H712621   2.075   4.536  15.216  0.2465  0.8672 -0.3291
  860MPD2     C12622   0.016   0.105  11.607  0.1959  0.4730 -0.6166
  860MPD2    C112623   0.056   0.191  11.708 -0.2218 -0.0582 -0.0397
  860MPD2    C212624   4.707   0.187  11.823 -0.0092 -1.2357 -0.5150
  860MPD2    C312625   4.591   0.109  11.841 -0.1620 -0.0810 -0.0676
  860MPD2    C412626   4.543   0.034  11.744  0.0760  0.3098  0.4444
  860MPD2    C512627   4.618   0.033  11.627 -0.6136 -0.5740 -0.1085
  860MPD2     H12628   0.015   0.263  11.894 -0.3166  0.6501 -2.3901
  860MPD2    H112629   4.454   4.695  11.753  0.0276  0.5007  1.1824
  860MPD2    H212630   0.059   0.098  11.508 -2.2963 -0.9356 -1.6121
  860MPD2    H312631   4.583   4.706  11.537 -1.8214  0.5477 -0.2486
  860MPD2     N12632   4.519   0.109  11.967 -0.2360  0.0695  0.2376
  860MPD2    H512633   4.564   0.170  12.035 -1.9785  0.3734  1.1140
  860MPD2    N112634   0.162   0.284  11.704 -0.8253  0.0031 -0.6999
  860MPD2    H712635   0.165   0.348  11.782  1.0564 -1.6297  0.5596
  861MPD2     C12636   3.532   3.244  11.123 -0.4905  0.3141  0.3988
  861MPD2    C112637   3.458   3.327  11.204  0.0215  0.4217 -0.6775
  861MPD2    C212638   3.376   3.420  11.142  0.3148  0.2480  0.4384
  861MPD2    C312639   3.375   3.431  11.001  0.6556 -0.7932  0.1907
  861MPD2    C412640   3.463   3.351  10.924  0.2077  0.5838  0.0657
  861MPD2    C512641   3.539   3.254  10.991  0.4519  0.6632 -0.1290
  861MPD2     H12642   3.301   3.475  11.199  0.4670 -0.0909  0.9703
  861MPD2    H112643   3.473   3.349  10.816  0.5018  0.8939  0.0875
  861MPD2    H212644   3.590   3.165  11.169 -1.0124 -0.9455 -1.1435
  861MPD2    H312645   3.583   3.171  10.938  0.6224  0.0508  0.9685
  861MPD2     N12646   3.285   3.510  10.928  0.4709 -0.4293  0.0305
  861MPD2    H512647   3.295   3.518  10.828  2.0224  0.1885  0.2352
  861MPD2    N112648   3.455   3.325  11.346  0.1832  0.2974 -0.5364
  861MPD2    H712649   3.386   3.385  11.391 -0.4752 -1.7933  1.2240
  862MPD2     C12650   2.959   3.582  10.296  0.4438  0.3308  0.3310
  862MPD2    C112651   3.038   3.522  10.393 -0.5648  0.4017 -0.7947
  862MPD2    C212652   3.061   3.389  10.386  0.2407  0.2673  0.3368
  862MPD2    C312653   3.011   3.314  10.285 -0.1536  0.2566 -0.3154
  862MPD2    C412654   2.925   3.368  10.199  0.6571 -0.0080  0.2793
  862MPD2    C512655   2.901   3.503  10.197  0.3359 -0.4233 -0.2079
  862MPD2     H12656   3.129   3.350  10.461  0.8457 -0.2126 -0.4587
  862MPD2    H112657   2.879   3.305  10.123 -0.0682  1.2361 -0.3075
  862MPD2    H212658   2.935   3.687  10.296  0.1085  0.2558 -0.5915
  862MPD2    H312659   2.824   3.537  10.128  0.5224  0.8527  0.2059
  862MPD2     N12660   3.049   3.177  10.258  0.2604 -0.1874  0.4330
  862MPD2    H512661   3.008   3.131  10.177  2.6491 -1.0122 -0.3329
  862MPD2    N112662   3.098   3.596  10.497  0.0378 -0.3406 -0.2505
  862MPD2    H712663   3.166   3.548  10.555  1.2203 -0.8182 -2.0427
  863MPD2     C12664   1.768   1.546  17.321  0.1325 -0.1168 -0.1885
  863MPD2    C112665   1.837   1.587  17.211  0.1164  0.4792 -0.3068
  863MPD2    C212666   1.977   1.567  17.205  0.2246 -0.1592  0.5223
  863MPD2    C312667   2.030   1.508  17.320  0.1007 -0.1139  0.0982
  863MPD2    C412668   1.954   1.492  17.431  0.7868  0.4081  0.4364
  863MPD2    C512669   1.820   1.506  17.435  0.1604  0.0391 -0.0975
  863MPD2     H12670   2.028   1.602  17.116 -1.0651  0.3209 -0.0412
  863MPD2    H112671   2.002   1.445  17.517 -1.7333  0.1939  1.7224
  863MPD2    H212672   1.660   1.546  17.324  0.0683  2.5243 -3.6279
  863MPD2    H312673   1.767   1.476  17.525  2.5933 -1.3062  0.8820
  863MPD2     N12674   2.162   1.466  17.331  0.0936 -0.5208  0.3469
  863MPD2    H512675   2.179   1.422  17.420 -2.7127  0.8729  1.5768
  863MPD2    N112676   1.763   1.631  17.098  0.9462  0.4395 -0.9891
  863MPD2    H712677   1.667   1.600  17.104  1.4389 -0.8577  0.0576
  864MPD2     C12678   2.523   2.917  17.486 -0.4756  0.7731 -0.7487
  864MPD2    C112679   2.596   2.853  17.392  0.2296 -0.3291 -0.2630
  864MPD2    C212680   2.691   2.924  17.317 -0.2631  0.2585  0.5550
  864MPD2    C312681   2.695   3.058  17.334  0.1974  0.4744  0.5390
  864MPD2    C412682   2.613   3.122  17.426 -0.2111 -0.1113  0.2024
  864MPD2    C512683   2.530   3.049  17.508 -0.2342 -0.0503  0.1981
  864MPD2     H12684   2.741   2.877  17.233  1.4288  2.9387  0.0726
  864MPD2    H112685   2.620   3.230  17.429 -1.6952 -0.1625  4.2941
  864MPD2    H212686   2.453   2.855  17.542 -0.2805  0.5920 -0.7033
  864MPD2    H312687   2.463   3.100  17.576 -0.0386  0.8289 -0.2683
  864MPD2     N12688   2.788   3.137  17.254  0.5107 -0.2130  0.2482
  864MPD2    H512689   2.785   3.238  17.266 -0.0587 -0.1162 -0.7276
  864MPD2    N112690   2.567   2.712  17.375 -0.1618 -0.0429 -0.3822
  864MPD2    H712691   2.485   2.670  17.417 -1.3013  0.9439 -1.6286
  865MPD2     C12692   3.041   3.366  16.361  0.3653 -0.4424 -0.0201
  865MPD2    C112693   2.972   3.265  16.426 -0.2297  0.4021  0.2373
  865MPD2    C212694   2.934   3.298  16.560 -0.1929 -0.4685  0.5072
  865MPD2    C312695   2.954   3.426  16.622  0.1522 -0.3637 -0.0025
  865MPD2    C412696   3.011   3.520  16.550 -0.3045 -0.2941  0.0188
  865MPD2    C512697   3.062   3.489  16.426 -0.3428 -0.1893 -0.1259
  865MPD2     H12698   2.894   3.216  16.618 -0.7384 -0.7996 -0.3294
  865MPD2    H112699   3.032   3.617  16.592  1.1786 -0.7444  0.3109
  865MPD2    H212700   3.081   3.351  16.261 -0.6349 -1.2140 -0.3048
  865MPD2    H312701   3.112   3.574  16.379  0.6160 -1.2996 -1.1247
  865MPD2     N12702   2.915   3.459  16.752 -0.3333 -0.0107  0.2853
  865MPD2    H512703   2.938   3.549  16.793  1.0251 -1.3318  2.4487
  865MPD2    N112704   2.954   3.135  16.364  0.0862 -0.0372 -0.2938
  865MPD2    H712705   2.978   3.117  16.267 -0.7594 -0.9572 -0.3388
  866MPD2     C12706   4.101   3.437  11.814 -0.4090 -0.3942  1.0075
  866MPD2    C112707   4.136   3.452  11.678  0.1375 -0.2519 -0.1571
  866MPD2    C212708   4.028   3.480  11.588  0.0420 -0.1013 -0.0743
  866MPD2    C312709   3.903   3.523  11.636 -0.0580 -0.6566  0.0863
  866MPD2    C412710   3.879   3.524  11.767  0.8496  0.0701 -0.7635
  866MPD2    C512711   3.977   3.472  11.852 -0.2907 -0.7103  0.1086
  866MPD2     H12712   4.060   3.502  11.487  2.9385 -2.7187  0.2557
  866MPD2    H112713   3.782   3.560  11.800  1.5869 -0.1178  1.6132
  866MPD2    H212714   4.169   3.422  11.897  0.8973  1.3992  0.2608
  866MPD2    H312715   3.951   3.471  11.957 -1.7679 -3.5043 -0.2799
  866MPD2     N12716   3.805   3.582  11.550  0.2035 -0.5632  0.4244
  866MPD2    H512717   3.715   3.608  11.589 -0.4353 -1.6508 -0.3250
  866MPD2    N112718   4.266   3.423  11.630  0.3950 -0.0707 -0.0446
  866MPD2    H712719   4.279   3.429  11.529  0.6004  0.8207  0.0331
  867MPD2     C12720   2.351   2.558  16.941  0.3956 -0.1036  0.0423
  867MPD2    C112721   2.271   2.574  17.052 -0.0862  0.5651  0.2021
  867MPD2    C212722   2.278   2.695  17.116 -0.5237 -0.8035 -0.0199
  867MPD2    C312723   2.362   2.792  17.066  0.5723  0.4478  0.3631
  867MPD2    C412724   2.439   2.770  16.956  0.2385  0.7054  0.3022
  867MPD2    C512725   2.439   2.651  16.903 -0.1225  0.2069  0.2800
  867MPD2     H12726   2.211   2.705  17.201 -0.6665  2.8766 -0.5665
  867MPD2    H112727   2.493   2.855  16.916 -0.7722  1.4582  0.5613
  867MPD2    H212728   2.345   2.466  16.884 -0.6420  0.6718 -1.1114
  867MPD2    H312729   2.496   2.642  16.812 -0.0069  0.0121  0.3715
  867MPD2     N12730   2.371   2.920  17.122  0.1147  0.6326 -0.1149
  867MPD2    H512731   2.432   2.989  17.078 -0.1474  0.9030 -0.0448
  867MPD2    N112732   2.182   2.473  17.082  0.4496  0.1057  0.6503
  867MPD2    H712733   2.172   2.390  17.024 -0.4999  0.1385  0.7790
  868MPD2     C12734   3.087   2.220  13.251 -0.1118  0.1727 -0.5203
  868MPD2    C112735   3.073   2.083  13.235 -0.2839  0.4872  0.8205
  868MPD2    C212736   2.946   2.031  13.260 -0.6721  0.6888  0.3172
  868MPD2    C312737   2.842   2.114  13.298 -0.8502  0.7395  0.5172
  868MPD2    C412738   2.864   2.246  13.318 -0.6529 -0.2310 -0.0369
  868MPD2    C512739   2.985   2.303  13.292  0.7510  0.1592 -0.5269
  868MPD2     H12740   2.918   1.928  13.240  0.4701  0.1132  1.7003
  868MPD2    H112741   2.780   2.309  13.345 -1.2919 -0.5310 -1.3504
  868MPD2    H212742   3.184   2.265  13.232 -0.6880  1.8094  0.4262
  868MPD2    H312743   3.003   2.409  13.304 -2.0135  0.6591 -1.0470
  868MPD2     N12744   2.719   2.056  13.336 -0.3567 -0.1512  0.1830
  868MPD2    H512745   2.719   1.954  13.334  0.7700 -0.1327 -0.8372
  868MPD2    N112746   3.187   2.010  13.190 -0.1846  0.1369  0.1378
  868MPD2    H712747   3.272   2.063  13.177  0.9791 -1.2948  1.8047
  869MPD2     C12748   4.448   0.031   2.610  0.3779  0.2749  0.3777
  869MPD2    C112749   4.546   4.678   2.552 -0.3986  0.0318 -0.1755
  869MPD2    C212750   4.620   0.010   2.451 -0.1191 -0.1267 -0.3951
  869MPD2    C312751   4.612   0.143   2.423 -0.0130  0.6093 -0.4589
  869MPD2    C412752   4.529   0.224   2.494 -0.5709  0.3155 -0.4011
  869MPD2    C512753   4.448   0.166   2.586  0.3463  0.0060  0.0177
  869MPD2     H12754   4.710   4.689   2.408  0.1912 -0.0588  0.1887
  869MPD2    H112755   4.508   0.327   2.467  0.6538  0.5447 -0.4507
  869MPD2    H212756   4.375   4.713   2.680 -0.3627 -0.5591 -0.8594
  869MPD2    H312757   4.387   0.233   2.647 -0.0281 -1.2815  1.0493
  869MPD2     N12758   4.679   0.211   2.320 -0.2458 -0.2921 -0.9586
  869MPD2    H512759   4.649   0.307   2.307  0.5228  0.0140 -0.4343
  869MPD2    N112760   4.546   4.540   2.586  0.1082  0.8973 -0.0603
  869MPD2    H712761   4.486   4.515   2.664 -0.2761  0.9508 -0.3387
  870MPD2     C12762   3.855   2.836   1.749  0.6221 -0.3079 -0.1386
  870MPD2    C112763   3.977   2.846   1.813  0.7759 -0.0949 -0.8051
  870MPD2    C212764   4.044   2.971   1.795 -0.0675  0.2629  0.1733
  870MPD2    C312765   3.998   3.069   1.705  0.1434  0.8058  0.0570
  870MPD2    C412766   3.874   3.051   1.646 -0.7275 -0.1942  1.0171
  870MPD2    C512767   3.808   2.935   1.669  0.2132 -0.2288  0.1058
  870MPD2     H12768   4.152   2.978   1.809 -0.0510  1.7312 -0.6804
  870MPD2    H112769   3.822   3.124   1.584 -0.2073  0.1463  0.9801
  870MPD2    H212770   3.783   2.759   1.771 -0.0308  0.8194  1.6234
  870MPD2    H312771   3.706   2.916   1.636  0.2878 -0.3120 -0.0739
  870MPD2     N12772   4.073   3.187   1.686  0.4757 -0.5522 -0.2313
  870MPD2    H512773   4.163   3.186   1.733  0.7792 -0.5636 -0.8128
  870MPD2    N112774   4.035   2.736   1.878  0.9180  0.6095 -0.5322
  870MPD2    H712775   3.968   2.660   1.888  1.1776 -0.1491 -4.3301
  871MPD2     C12776   0.830   3.126  16.424  0.1117 -0.6259 -0.9127
  871MPD2    C112777   0.702   3.088  16.458 -0.2182 -0.0563 -0.1937
  871MPD2    C212778   0.627   3.018  16.363 -0.8748 -0.8898 -0.1635
  871MPD2    C312779   0.684   2.966  16.250 -0.5310  0.2066 -0.9506
  871MPD2    C412780   0.818   2.998  16.219  0.1970 -0.3533 -0.8316
  871MPD2    C512781   0.892   3.063  16.315 -0.1614 -0.6107 -0.3442
  871MPD2     H12782   0.519   3.016  16.375 -0.8927 -0.2529 -0.2322
  871MPD2    H112783   0.872   2.954  16.136  2.9256  0.3733  0.5444
  871MPD2    H212784   0.883   3.185  16.497 -0.7918 -1.8478  0.7373
  871MPD2    H312785   0.997   3.081  16.294 -0.1909 -0.9577 -0.7719
  871MPD2     N12786   0.598   2.884  16.170 -0.4093  0.4262 -0.1770
  871MPD2    H512787   0.499   2.872  16.189 -0.3429 -0.5825 -0.4853
  871MPD2    N112788   0.643   3.147  16.572  0.0230  0.5432 -0.0334
  871MPD2    H712789   0.708   3.197  16.632  0.0027 -1.6564  1.8294
  872MPD2     C12790   0.851   1.033  13.856  0.5299  0.0086  1.1000
  872MPD2    C112791   0.955   0.962  13.922  0.0542 -0.0406  0.5072
  872MPD2    C212792   0.903   0.865  14.006 -0.0878  0.1569  0.1433
  872MPD2    C312793   0.771   0.827  14.024 -0.2002  0.0359  0.2774
  872MPD2    C412794   0.675   0.898  13.952 -0.0481 -0.3348 -0.2930
  872MPD2    C512795   0.720   0.994  13.867 -0.2726  0.2803 -0.0278
  872MPD2     H12796   0.972   0.811  14.069 -0.0970 -1.0701 -0.8819
  872MPD2    H112797   0.571   0.870  13.961  0.6329 -2.7549 -0.1659
  872MPD2    H212798   0.861   1.127  13.803  1.0651 -1.4078 -1.3445
  872MPD2    H312799   0.638   1.041  13.815  0.1706  1.9407  0.7756
  872MPD2     N12800   0.730   0.734  14.123 -0.1904  0.4594  0.3489
  872MPD2    H512801   0.629   0.722  14.122 -0.4375  2.3644  2.7137
  872MPD2    N112802   1.091   0.987  13.913 -0.0791  0.8009  0.5125
  872MPD2    H712803   1.152   0.940  13.980  0.3794 -0.4790 -0.7887
  873MPD2     C12804   3.142   0.513   1.158 -0.0370  0.1419  0.7988
  873MPD2    C112805   3.058   0.510   1.264 -0.5612  0.0564 -0.6402
  873MPD2    C212806   2.960   0.407   1.259 -0.0773  0.2936 -0.2223
  873MPD2    C312807   2.953   0.305   1.164 -0.5133 -0.8055 -0.4012
  873MPD2    C412808   3.037   0.319   1.057 -0.0078 -0.8816 -0.0167
  873MPD2    C512809   3.133   0.420   1.059 -0.2531  0.4768 -0.0493
  873MPD2     H12810   2.889   0.409   1.342 -0.7301 -2.6713 -0.7106
  873MPD2    H112811   3.054   0.240   0.985 -0.1484 -2.1689  1.3696
  873MPD2    H212812   3.220   0.588   1.147  0.5675 -0.7336 -1.0212
  873MPD2    H312813   3.195   0.429   0.972 -0.1264  2.9096  0.3102
  873MPD2     N12814   2.868   0.195   1.175  1.1415  0.0928 -0.5082
  873MPD2    H512815   2.871   0.133   1.095 -1.1534  1.1402 -1.4017
  873MPD2    N112816   3.057   0.618   1.353  0.5199  0.4114 -0.0140
  873MPD2    H712817   3.134   0.684   1.349  0.1555  0.7600 -1.2013
  874MPD2     C12818   2.634   0.790  16.239 -0.0885 -0.1281 -0.2301
  874MPD2    C112819   2.729   0.725  16.311 -0.1835  0.9419 -0.4620
  874MPD2    C212820   2.861   0.741  16.285  0.3939 -0.4646  0.4445
  874MPD2    C312821   2.908   0.822  16.183  0.2654  0.0422 -0.8396
  874MPD2    C412822   2.808   0.882  16.103  0.6323  0.1728 -0.2975
  874MPD2    C512823   2.680   0.873  16.140  0.4796 -0.2997 -0.3529
  874MPD2     H12824   2.927   0.671  16.335 -0.7788 -1.9989 -0.1511
  874MPD2    H112825   2.844   0.938  16.018  0.0327 -4.8915 -3.8685
  874MPD2    H212826   2.529   0.792  16.265 -0.5821 -1.2102 -2.0905
  874MPD2    H312827   2.608   0.933  16.084  0.0066 -0.9131 -0.3960
  874MPD2     N12828   3.039   0.834  16.135 -0.0162 -0.0506  0.6783
  874MPD2    H512829   3.037   0.871  16.041 -1.0676  1.3429  1.2529
  874MPD2    N112830   2.682   0.637  16.412  0.0232 -0.2566  0.3174
  874MPD2    H712831   2.582   0.621  16.416  0.1261 -0.4589  2.2764
  875MPD2     C12832   3.834   3.788  14.592 -0.2802  0.0581 -0.4712
  875MPD2    C112833   3.714   3.754  14.634  0.1084  0.5941  0.0277
  875MPD2    C212834   3.675   3.786  14.760  0.1978  0.6084  0.1206
  875MPD2    C312835   3.760   3.848  14.851 -0.0445  0.7417 -0.5612
  875MPD2    C412836   3.877   3.883  14.803  0.4651 -0.4363  0.2241
  875MPD2    C512837   3.915   3.860  14.675 -0.7141  0.1783  0.4284
  875MPD2     H12838   3.571   3.762  14.782  0.1803 -1.1116 -1.7906
  875MPD2    H112839   3.939   3.946  14.865  1.6557  0.1539 -1.5614
  875MPD2    H212840   3.869   3.776  14.490  1.9932  0.1456  0.3023
  875MPD2    H312841   3.995   3.913  14.625  0.0981  0.0602  1.5895
  875MPD2     N12842   3.723   3.892  14.980  0.1620  0.5681  0.2919
  875MPD2    H512843   3.801   3.927  15.035  1.1392 -0.4228 -0.4687
  875MPD2    N112844   3.617   3.686  14.558 -0.3376  0.2871 -0.6926
  875MPD2    H712845   3.532   3.665  14.608 -0.0761 -0.9228 -0.7478
  876MPD2     C12846   2.435   0.373  16.182 -0.1127  0.2115  0.8019
  876MPD2    C112847   2.551   0.331  16.113 -0.3366  1.0591  0.1026
  876MPD2    C212848   2.597   0.211  16.141  0.3489 -0.0052 -0.0604
  876MPD2    C312849   2.541   0.129  16.236 -1.1259 -0.3004 -0.5495
  876MPD2    C412850   2.421   0.161  16.291 -0.3851  0.8282  0.1335
  876MPD2    C512851   2.367   0.291  16.272  0.3169 -0.1743  0.4368
  876MPD2     H12852   2.691   0.185  16.094 -0.3579 -1.0675 -0.8791
  876MPD2    H112853   2.374   0.100  16.367 -0.0914  0.5543  0.0962
  876MPD2    H212854   2.413   0.479  16.174  0.5510  0.2810 -0.1824
  876MPD2    H312855   2.281   0.334  16.323 -1.3765 -0.6215 -2.0392
  876MPD2     N12856   2.608   0.010  16.251 -0.5138  0.4552 -0.3470
  876MPD2    H512857   2.701   0.003  16.211 -0.5809 -1.4554 -0.1642
  876MPD2    N112858   2.619   0.427  16.029 -0.0619 -0.1151  0.6151
  876MPD2    H712859   2.570   0.509  15.994  0.0502 -0.1764  0.3217
  877MPD2     C12860   2.481   0.773  15.477 -0.2212  0.3821 -0.2518
  877MPD2    C112861   2.619   0.813  15.472 -0.0169  0.1416  0.1734
  877MPD2    C212862   2.680   0.850  15.351 -0.5951 -0.0081 -1.0772
  877MPD2    C312863   2.608   0.837  15.232 -0.8532  0.3752 -0.2624
  877MPD2    C412864   2.483   0.785  15.243 -0.0426  0.3744  0.1983
  877MPD2    C512865   2.415   0.759  15.359  0.2377  0.2701 -0.4638
  877MPD2     H12866   2.788   0.862  15.350 -0.4921 -0.6941  1.1198
  877MPD2    H112867   2.425   0.775  15.152 -1.1748  1.3480  0.8276
  877MPD2    H212868   2.437   0.748  15.573  3.4840  2.6362  2.0249
  877MPD2    H312869   2.311   0.732  15.350  0.3671 -0.7166  1.0857
  877MPD2     N12870   2.661   0.872  15.102  0.2287 -0.2765 -0.2924
  877MPD2    H512871   2.589   0.869  15.031 -1.8163  0.2167  1.7437
  877MPD2    N112872   2.701   0.821  15.591 -0.1044 -0.2517 -0.6346
  877MPD2    H712873   2.794   0.857  15.574 -0.3576  1.5314  1.7347
  878MPD2     C12874   2.573   0.015  13.154 -0.0571  0.1460 -0.0914
  878MPD2    C112875   2.666   0.111  13.182  0.1323  0.3313  0.3597
  878MPD2    C212876   2.695   0.145  13.310  0.3343 -0.0813 -0.7477
  878MPD2    C312877   2.618   0.101  13.417  0.9345  0.7149 -0.8321
  878MPD2    C412878   2.514   0.010  13.386  0.4779  0.1475  0.9098
  878MPD2    C512879   2.490   4.690  13.256  0.3704 -0.2653 -0.5013
  878MPD2     H12880   2.769   0.221  13.332  0.0890 -0.7583  2.3947
  878MPD2    H112881   2.463   4.677  13.465  1.2058 -0.4951  0.9350
  878MPD2    H212882   2.543   0.006  13.050 -2.3317 -0.8360  0.6650
  878MPD2    H312883   2.413   4.613  13.251 -1.2135  1.3856 -1.5577
  878MPD2     N12884   2.647   0.152  13.536 -0.5220 -0.2641 -0.0694
  878MPD2    H512885   2.728   0.212  13.546 -0.6547 -0.2262  0.8055
  878MPD2    N112886   2.722   0.175  13.069 -0.1954 -0.4069  0.3759
  878MPD2    H712887   2.709   0.123  12.983 -2.3615 -0.8112  0.9602
  879MPD2     C12888   2.769   1.585  17.177 -0.8538  0.0367  0.6940
  879MPD2    C112889   2.838   1.474  17.214  0.3863 -0.4633  0.2017
  879MPD2    C212890   2.818   1.354  17.149  0.3966  0.3839 -0.0747
  879MPD2    C312891   2.743   1.352  17.038 -0.1407  0.2979 -0.6428
  879MPD2    C412892   2.684   1.468  16.992  0.3007 -0.0715  0.1274
  879MPD2    C512893   2.693   1.583  17.067 -0.9478 -0.1350 -0.7168
  879MPD2     H12894   2.863   1.259  17.177 -0.1999 -0.2907 -1.3662
  879MPD2    H112895   2.619   1.474  16.906  3.3567  0.0782 -2.1994
  879MPD2    H212896   2.792   1.674  17.235 -0.8801 -0.0801  0.8825
  879MPD2    H312897   2.638   1.673  17.041  1.0178  0.6270 -2.2453
  879MPD2     N12898   2.731   1.235  16.957 -0.6838  0.0191 -0.0761
  879MPD2    H512899   2.701   1.254  16.861 -0.5744 -2.0332 -0.5141
  879MPD2    N112900   2.911   1.487  17.336  0.3169  0.1341 -0.2613
  879MPD2    H712901   2.918   1.582  17.370  0.8714 -0.2672  0.7557
  880MPD2     C12902   4.685   2.859   0.452 -0.0643 -0.0978 -0.7252
  880MPD2    C112903   4.614   2.906   0.556 -0.3527 -0.6914  0.1983
  880MPD2    C212904   4.613   2.819   0.666  0.1206 -0.2171 -0.4732
  880MPD2    C312905   4.675   2.686   0.664 -0.3870 -0.1710 -0.1022
  880MPD2    C412906   0.028   2.649   0.552  0.6186 -0.4605  0.0837
  880MPD2    C512907   0.029   2.734   0.445 -0.1829  0.1094 -0.2021
  880MPD2     H12908   4.571   2.853   0.760  1.5820  2.0529 -0.6342
  880MPD2    H112909   0.084   2.557   0.536  0.9464 -0.3459  0.5881
  880MPD2    H212910   4.704   2.925   0.368 -0.7162  1.6965  0.5463
  880MPD2    H312911   0.080   2.717   0.351 -1.5785 -0.3590 -0.8603
  880MPD2     N12912   4.653   2.602   0.781 -0.3278  0.2727  1.0324
  880MPD2    H512913   4.603   2.631   0.865 -0.3000 -0.3202  1.2523
  880MPD2    N112914   4.562   3.036   0.552 -0.0363  0.6751  0.3336
  880MPD2    H712915   4.557   3.079   0.460 -0.6498 -0.3196 -0.1002
  881MPD2     C12916   0.020   3.959   0.213 -0.6459 -0.2471  0.4760
  881MPD2    C112917   4.707   3.835   0.155  0.0324  0.4923 -0.6679
  881MPD2    C212918   4.656   3.735   0.242 -0.6941  0.0141 -0.3145
  881MPD2    C312919   4.692   3.738   0.378  0.1506 -0.2331  0.6816
  881MPD2    C412920   0.016   3.855   0.428 -0.4030 -0.0910  0.1694
  881MPD2    C512921   0.042   3.956   0.346  0.1454 -0.2618  0.2459
  881MPD2     H12922   4.591   3.660   0.199 -0.6661  1.1042 -2.2350
  881MPD2    H112923   0.043   3.870   0.532 -0.3827  0.5790  0.0695
  881MPD2    H212924   0.049   4.044   0.152 -2.5968 -0.3952 -0.6417
  881MPD2    H312925   0.081   4.046   0.393 -0.1869 -0.8726  1.6845
  881MPD2     N12926   4.660   3.639   0.477  0.1639 -0.1149  0.0361
  881MPD2    H512927   4.693   3.654   0.572  1.4328 -0.3391 -0.3658
  881MPD2    N112928   4.677   3.834   0.013  0.0928  0.4201  0.0134
  881MPD2    H712929   4.690   3.923  17.654 -0.7620 -0.0540 -1.0924
  882MPD2     C12930   2.626   0.699  14.309 -0.4989  0.0648  0.5470
  882MPD2    C112931   2.579   0.723  14.435  0.5499  0.7141 -0.9343
  882MPD2    C212932   2.451   0.678  14.471  0.0195 -0.3320  0.5368
  882MPD2    C312933   2.364   0.625  14.374 -0.2202  0.5522  0.3348
  882MPD2    C412934   2.411   0.617  14.246 -0.9320 -0.4065 -0.8800
  882MPD2    C512935   2.541   0.639  14.218 -1.1116 -0.1540 -1.1714
  882MPD2     H12936   2.428   0.674  14.577 -5.6859  0.5122 -0.6704
  882MPD2    H112937   2.350   0.581  14.164 -2.3931  0.5068 -0.2033
  882MPD2    H212938   2.733   0.701  14.293 -0.5912  0.0602 -0.0702
  882MPD2    H312939   2.587   0.613  14.123  0.4921  0.7595 -0.6366
  882MPD2     N12940   2.224   0.615  14.397  0.1246  0.1817 -0.0305
  882MPD2    H512941   2.173   0.600  14.311 -1.1347  0.5951  0.6332
  882MPD2    N112942   2.672   0.767  14.536 -0.2505 -0.2227  0.2063
  882MPD2    H712943   2.766   0.778  14.499  0.2829 -0.1530  1.6056
  883MPD2     C12944   0.526   1.238  16.304 -0.5559 -0.0694 -0.5469
  883MPD2    C112945   0.405   1.228  16.361 -0.0627  0.0505  0.3753
  883MPD2    C212946   0.394   1.174  16.490 -0.5420  0.2883 -0.6151
  883MPD2    C312947   0.497   1.107  16.552  0.8794 -0.0324 -0.4940
  883MPD2    C412948   0.619   1.117  16.484 -0.4349 -0.2934 -0.3016
  883MPD2    C512949   0.634   1.177  16.365  0.3991  0.3396  0.0933
  883MPD2     H12950   0.299   1.162  16.540 -0.9786 -3.3303 -2.2865
  883MPD2    H112951   0.714   1.078  16.519 -0.0573 -0.2493 -1.2820
  883MPD2    H212952   0.548   1.274  16.204 -0.7386 -2.9019 -1.5903
  883MPD2    H312953   0.734   1.191  16.325  0.5916 -1.6481 -0.0985
  883MPD2     N12954   0.475   1.033  16.677 -0.1534 -0.5631 -0.5393
  883MPD2    H512955   0.382   1.019  16.715 -0.4888  2.9617  0.0126
  883MPD2    N112956   0.285   1.273  16.301  0.1086 -0.4230 -0.6903
  883MPD2    H712957   0.203   1.260  16.358  1.2107  0.1481  1.0256
  884MPD2     C12958   1.758   1.272  15.414  0.3888  0.2319 -0.8914
  884MPD2    C112959   1.732   1.372  15.319  0.5753  0.4764  0.0755
  884MPD2    C212960   1.597   1.417  15.314  0.0869 -0.0959 -0.1086
  884MPD2    C312961   1.494   1.376  15.392  0.5116 -0.0985  0.2151
  884MPD2    C412962   1.528   1.285  15.489 -0.9905 -0.8737 -0.0230
  884MPD2    C512963   1.653   1.232  15.497 -0.2603 -0.3836 -0.1688
  884MPD2     H12964   1.574   1.484  15.232 -0.2133  1.7592  1.5015
  884MPD2    H112965   1.451   1.250  15.556  0.5481 -1.7791  1.2787
  884MPD2    H212966   1.854   1.227  15.439 -0.8572 -1.1018  1.5454
  884MPD2    H312967   1.680   1.153  15.567 -0.3549  0.7301  1.1169
  884MPD2     N12968   1.371   1.450  15.381 -0.1795 -0.7462  0.1570
  884MPD2    H512969   1.372   1.532  15.320 -0.5482 -0.0830  1.0445
  884MPD2    N112970   1.824   1.434  15.234  0.1923  0.5824  0.1281
  884MPD2    H712971   1.790   1.495  15.161  2.1084  0.7835 -0.6037
  885MPD2     C12972   4.187   1.704   0.252  0.5654  0.2618  0.7270
  885MPD2    C112973   4.328   1.733   0.264  0.7161 -0.4871  0.0083
  885MPD2    C212974   4.397   1.746   0.144 -0.5013  0.6948  0.3012
  885MPD2    C312975   4.337   1.730   0.017  0.1507  0.1315  0.2793
  885MPD2    C412976   4.205   1.692   0.010  0.0832  0.2120 -0.0286
  885MPD2    C512977   4.132   1.686   0.124  0.2988 -0.0481 -0.0741
  885MPD2     H12978   4.499   1.781   0.154  0.6529 -1.6726 -3.4477
  885MPD2    H112979   4.141   1.677  17.612 -0.1633  1.4805 -0.0765
  885MPD2    H212980   4.120   1.702   0.337 -1.0520 -0.9413 -0.5788
  885MPD2    H312981   4.025   1.673   0.111  0.4007 -0.3629 -0.5980
  885MPD2     N12982   4.413   1.762  17.589  0.3303  0.0748 -0.0134
  885MPD2    H512983   4.508   1.792  17.606  0.7587 -0.2940 -1.8146
  885MPD2    N112984   4.369   1.754   0.398 -0.6636 -0.6346 -0.0673
  885MPD2    H712985   4.299   1.750   0.472  0.8557  0.7720  1.4334
  886MPD2     C12986   1.549   0.290  15.734  0.0032  0.1026 -0.1611
  886MPD2    C112987   1.513   0.263  15.604 -0.1760 -0.6818  0.0577
  886MPD2    C212988   1.492   0.369  15.516  0.0214  0.1395 -0.2818
  886MPD2    C312989   1.490   0.503  15.562  0.3306  0.2858  0.1939
  886MPD2    C412990   1.518   0.525  15.696 -0.1213 -0.7883 -0.7416
  886MPD2    C512991   1.536   0.420  15.782  0.1530  0.3200 -0.4623
  886MPD2     H12992   1.462   0.338  15.417  1.6787 -1.6698 -0.2170
  886MPD2    H112993   1.515   0.624  15.740  0.1176 -0.9357 -0.3966
  886MPD2    H212994   1.553   0.210  15.807 -2.1948 -1.5348 -1.8109
  886MPD2    H312995   1.553   0.427  15.888 -1.4360  0.9761 -0.2458
  886MPD2     N12996   1.465   0.613  15.473 -0.1288 -0.2297  0.1403
  886MPD2    H512997   1.504   0.704  15.495 -1.4782  0.4690 -0.3555
  886MPD2    N112998   1.500   0.136  15.544 -0.3343 -0.0946 -0.0013
  886MPD2    H712999   1.469   0.133  15.447  2.9878  1.5364 -1.1180
  887MPD2     C13000   2.083   0.047  15.508 -0.2746  0.3951  0.4749
  887MPD2    C113001   1.963   0.105  15.490  0.6263  0.5571 -0.0922
  887MPD2    C213002   1.932   0.227  15.552 -0.3360 -0.6998  0.7215
  887MPD2    C313003   2.031   0.291  15.625 -0.1110  0.0424  0.9830
  887MPD2    C413004   2.161   0.235  15.637 -0.0558 -0.0418 -0.0964
  887MPD2    C513005   2.182   0.113  15.576 -0.4353  0.0625 -1.1973
  887MPD2     H13006   1.833   0.268  15.538  1.0358  1.7061 -1.8110
  887MPD2    H113007   2.233   0.285  15.701  0.3405 -0.3150 -0.3328
  887MPD2    H213008   2.108   4.672  15.464 -1.7118  0.4995 -0.5808
  887MPD2    H313009   2.281   0.071  15.584 -0.3227  0.5824  0.1826
  887MPD2     N13010   2.002   0.424  15.671 -0.1406  0.1569  0.5105
  887MPD2    H513011   1.911   0.458  15.642  1.0181  1.9679 -0.9702
  887MPD2    N113012   1.857   0.042  15.420  0.1602  0.3253 -0.0875
  887MPD2    H713013   1.766   0.086  15.427 -0.2111 -0.3877 -0.3892
  888MPD2     C13014   3.521   0.224  14.967  0.1361  0.0969  0.8999
  888MPD2    C113015   3.512   0.265  15.097 -0.2167 -0.1131 -0.2718
  888MPD2    C213016   3.576   0.381  15.131  1.3850 -0.4924  0.8759
  888MPD2    C313017   3.659   0.450  15.038 -0.3698 -0.0075 -0.2270
  888MPD2    C413018   3.677   0.394  14.914  0.7689  0.5537  0.7363
  888MPD2    C513019   3.605   0.284  14.878 -0.1248  1.0308  0.8186
  888MPD2     H13020   3.578   0.405  15.236 -3.1726  3.1903  0.1649
  888MPD2    H113021   3.741   0.433  14.835  1.1824 -1.2376  0.2058
  888MPD2    H213022   3.487   0.129  14.927 -1.7260  0.1008  2.4434
  888MPD2    H313023   3.616   0.241  14.779 -0.3549 -1.9208  2.0791
  888MPD2     N13024   3.737   0.559  15.082 -0.1513 -0.1576 -0.2033
  888MPD2    H513025   3.713   0.587  15.177 -0.4919 -0.1266 -0.2984
  888MPD2    N113026   3.462   0.179  15.202  0.0257  0.1102  0.5617
  888MPD2    H713027   3.463   0.217  15.296  0.9862  3.0269 -0.6308
  889MPD2     C13028   3.245   0.253  13.076 -0.4159 -0.5633 -0.2550
  889MPD2    C113029   3.287   0.147  13.158  0.5038  0.1101  0.3691
  889MPD2    C213030   3.374   0.180  13.254 -0.4125 -0.1158 -0.1387
  889MPD2    C313031   3.423   0.309  13.275  0.9844 -0.0345 -0.7101
  889MPD2    C413032   3.395   0.403  13.189  0.9322 -0.0536 -0.6301
  889MPD2    C513033   3.308   0.375  13.087  0.0552  0.1443 -0.5506
  889MPD2     H13034   3.403   0.105  13.327 -0.9910 -0.4095 -0.2140
  889MPD2    H113035   3.437   0.503  13.202  1.5763 -0.5611  1.2501
  889MPD2    H213036   3.159   0.241  13.011 -0.8373 -0.9102  0.3729
  889MPD2    H313037   3.283   0.449  13.012 -0.3481  0.1633 -0.3996
  889MPD2     N13038   3.507   0.331  13.384 -0.2729 -0.3514 -0.0860
  889MPD2    H513039   3.524   0.258  13.453 -1.8269 -0.8646 -0.2285
  889MPD2    N113040   3.206   0.033  13.187 -0.0953  0.0873 -0.2723
  889MPD2    H713041   3.241   4.697  13.263 -1.3424  0.7425  0.8043
  890MPD2     C13042   2.435   1.464  14.581  0.3287  0.7985  0.4090
  890MPD2    C113043   2.573   1.485  14.604 -0.6901 -0.2817 -0.0656
  890MPD2    C213044   2.637   1.428  14.710  0.1347 -0.5171  1.2668
  890MPD2    C313045   2.567   1.359  14.807  0.6193 -0.0211  0.7479
  890MPD2    C413046   2.431   1.331  14.786 -0.4610  0.4182 -0.7453
  890MPD2    C513047   2.371   1.385  14.676  0.1835  0.3671  0.3232
  890MPD2     H13048   2.742   1.444  14.729 -0.4728  2.4493  2.1490
  890MPD2    H113049   2.375   1.266  14.853 -0.8591  0.4119 -1.0866
  890MPD2    H213050   2.385   1.493  14.490 -1.6222  0.3985  1.3630
  890MPD2    H313051   2.267   1.359  14.666 -0.1040  0.7878  2.3132
  890MPD2     N13052   2.642   1.320  14.919  0.7334 -0.4526  0.3110
  890MPD2    H513053   2.742   1.332  14.933  0.9960 -0.9543 -1.1774
  890MPD2    N113054   2.639   1.562  14.500  0.0633  0.0093  0.2598
  890MPD2    H713055   2.582   1.598  14.424 -1.1694  2.0073  2.1056
  891MPD2     C13056   0.522   4.500  16.949  0.3029 -0.2532 -0.4460
  891MPD2    C113057   0.567   4.622  16.992 -0.4316  0.1736  0.2744
  891MPD2    C213058   0.695   4.630  17.043  0.6614  0.5642  0.3850
  891MPD2    C313059   0.770   4.511  17.048  0.4970  0.2169  0.3917
  891MPD2    C413060   0.724   4.393  17.006 -0.0984 -0.6975  0.3239
  891MPD2    C513061   0.597   4.386  16.959 -0.1402 -0.0679  0.1377
  891MPD2     H13062   0.741   4.719  17.085  1.5507 -0.2783  1.2013
  891MPD2    H113063   0.785   4.304  17.010  1.1168  0.1277  0.3072
  891MPD2    H213064   0.422   4.492  16.908  0.2257  0.3637 -0.3740
  891MPD2    H313065   0.555   4.293  16.922 -1.0430 -0.7614  2.8795
  891MPD2     N13066   0.901   4.516  17.099  0.9899 -0.1393 -0.2150
  891MPD2    H513067   0.929   4.599  17.150  2.7497 -0.9074  0.0815
  891MPD2    N113068   0.483   0.010  16.977  0.3409  0.8287  0.2370
  891MPD2    H713069   0.384   4.711  16.967  0.4616 -0.0322  0.7409
  892MPD2     C13070   1.733   1.050  15.130  0.4049  0.1940 -0.3374
  892MPD2    C113071   1.637   1.012  15.044 -0.5972  0.6791  0.2517
  892MPD2    C213072   1.670   0.971  14.922 -0.2210 -0.4319  0.6384
  892MPD2    C313073   1.797   0.958  14.876 -0.1727 -0.0039 -0.8897
  892MPD2    C413074   1.892   1.020  14.951  0.1565 -0.1166  0.8007
  892MPD2    C513075   1.863   1.062  15.080 -0.5413  0.4916  0.0803
  892MPD2     H13076   1.591   0.923  14.864 -0.3931  0.6103  0.0115
  892MPD2    H113077   1.989   1.007  14.905  0.4776  1.2043  1.1167
  892MPD2    H213078   1.704   1.074  15.231  0.5860 -0.4448 -0.1324
  892MPD2    H313079   1.948   1.100  15.136 -1.2792  0.6205  1.0990
  892MPD2     N13080   1.837   0.908  14.753 -0.0200  0.3646  0.1556
  892MPD2    H513081   1.928   0.935  14.717  0.6381 -0.7440  0.9554
  892MPD2    N113082   1.501   1.022  15.066  0.2889  0.1981  0.3576
  892MPD2    H713083   1.443   1.008  14.984 -1.7069  0.0612  1.7914
  893MPD2     C13084   4.098   2.852   2.239  0.2375 -0.0666 -0.5508
  893MPD2    C113085   4.228   2.870   2.275  0.7335 -0.2492 -0.1163
  893MPD2    C213086   4.290   2.787   2.375  0.2146  0.3714 -0.0259
  893MPD2    C313087   4.217   2.679   2.424  0.1052 -0.0677  0.2498
  893MPD2    C413088   4.087   2.659   2.382  0.0613 -0.0736 -0.7281
  893MPD2    C513089   4.032   2.742   2.287  0.8239 -0.0918 -0.2470
  893MPD2     H13090   4.394   2.806   2.399 -0.2601  2.0357  0.7347
  893MPD2    H113091   4.018   2.594   2.434  0.4591 -0.5786 -0.8434
  893MPD2    H213092   4.052   2.931   2.180  0.5257  0.2384 -0.3663
  893MPD2    H313093   3.934   2.721   2.245  1.1951 -0.5500 -0.8782
  893MPD2     N13094   4.270   2.581   2.518 -0.0904 -0.1553  1.1487
  893MPD2    H513095   4.211   2.501   2.535 -0.0231 -0.3219  0.5974
  893MPD2    N113096   4.305   2.972   2.210  0.6133  0.0196  0.3121
  893MPD2    H713097   4.256   3.030   2.143 -0.2095  0.1682  1.0322
  894MPD2     C13098   1.291   1.599   1.224  0.2546  1.0767 -0.6970
  894MPD2    C113099   1.413   1.628   1.288  0.2060 -0.2773  0.3573
  894MPD2    C213100   1.493   1.743   1.247 -0.5976 -0.2206 -0.3281
  894MPD2    C313101   1.434   1.827   1.148  0.3722 -0.0692  0.5860
  894MPD2    C413102   1.316   1.793   1.084 -0.2011  0.1939  0.1007
  894MPD2    C513103   1.247   1.683   1.125 -0.0345  0.1770 -0.5546
  894MPD2     H13104   1.585   1.769   1.298  0.0326 -0.6577 -1.2418
  894MPD2    H113105   1.285   1.844   0.994  0.8049  0.2973 -0.1884
  894MPD2    H213106   1.235   1.508   1.241  0.5100  0.8119 -1.2904
  894MPD2    H313107   1.153   1.656   1.077  0.2444  0.0093 -1.0082
  894MPD2     N13108   1.504   1.941   1.109 -0.4982 -0.0881 -0.3409
  894MPD2    H513109   1.598   1.954   1.146 -0.6858 -0.6523  0.3450
  894MPD2    N113110   1.456   1.558   1.408  0.6688  0.2404 -0.1396
  894MPD2    H713111   1.549   1.578   1.446 -0.2092  3.0209  0.5417
  895MPD2     C13112   0.949   0.343  13.959  0.3652  0.5321 -0.1563
  895MPD2    C113113   0.951   0.364  13.827 -0.4136  0.3983  0.8049
  895MPD2    C213114   1.056   0.311  13.753  0.3656  0.3149 -0.8737
  895MPD2    C313115   1.151   0.231  13.804  0.5637  0.3981 -0.2392
  895MPD2    C413116   1.147   0.203  13.943 -0.1926 -0.5828  0.1267
  895MPD2    C513117   1.041   0.255  14.016  0.4347  0.1731  0.1500
  895MPD2     H13118   1.040   0.299  13.646 -0.5057 -0.7098 -0.6368
  895MPD2    H113119   1.218   0.139  13.992 -0.1484  0.2007  1.0888
  895MPD2    H213120   0.875   0.380  14.030 -0.5893 -1.9317  0.1135
  895MPD2    H313121   1.036   0.237  14.123 -0.8148 -0.1342  0.0458
  895MPD2     N13122   1.233   0.170  13.710 -0.1635  0.3020  0.0540
  895MPD2    H513123   1.205   0.178  13.612  0.4232 -0.9806 -0.2106
  895MPD2    N113124   0.858   0.442  13.761  0.1449  0.2252 -0.1794
  895MPD2    H713125   0.877   0.476  13.667  2.1738  0.1677  0.2242
  896MPD2     C13126   2.904   2.642   1.840 -0.7611 -0.5068  0.0439
  896MPD2    C113127   2.917   2.576   1.719 -0.6625  1.1583  0.1305
  896MPD2    C213128   2.805   2.577   1.632  0.8294  0.4022 -0.3311
  896MPD2    C313129   2.691   2.646   1.656 -0.3075 -0.3515 -0.8084
  896MPD2    C413130   2.683   2.715   1.776 -0.1023 -0.1265  0.0342
  896MPD2    C513131   2.783   2.701   1.873  0.5126 -0.2480  0.6171
  896MPD2     H13132   2.805   2.519   1.541 -0.0114 -1.0624  0.6097
  896MPD2    H113133   2.598   2.775   1.808 -1.9825 -2.6700 -0.1054
  896MPD2    H213134   2.980   2.657   1.915 -1.4575  0.6784  0.5084
  896MPD2    H313135   2.780   2.758   1.964 -0.8276  0.6627 -0.0138
  896MPD2     N13136   2.596   2.632   1.560 -0.0415 -0.0748  0.6031
  896MPD2    H513137   2.627   2.574   1.484  0.0074  0.8787 -0.1108
  896MPD2    N113138   3.038   2.507   1.693  0.0475  0.5265 -0.3403
  896MPD2    H713139   3.110   2.535   1.760 -0.0773  2.6692 -1.0899
  897MPD2     C13140   4.509   4.581  10.679  0.1049 -0.0663 -0.4055
  897MPD2    C113141   4.421   4.565  10.570 -0.0305 -0.6639  0.1221
  897MPD2    C213142   4.352   4.447  10.560 -0.5987 -0.4239  0.6632
  897MPD2    C313143   4.347   4.356  10.665  0.6237 -0.0688  0.9111
  897MPD2    C413144   4.419   4.380  10.774  0.0224  0.5840  0.2912
  897MPD2    C513145   4.504   4.491  10.785 -0.2457 -0.2958  0.1139
  897MPD2     H13146   4.282   4.452  10.477  1.3049 -0.2056 -0.9143
  897MPD2    H113147   4.423   4.316  10.862 -0.6370  2.9766  2.0802
  897MPD2    H213148   4.574   4.663  10.707 -1.3099  1.1142 -0.5912
  897MPD2    H313149   4.575   4.499  10.866 -0.4721  2.0401  0.0736
  897MPD2     N13150   4.259   4.244  10.663  0.7360  0.1419  0.2491
  897MPD2    H513151   4.193   4.244  10.586 -0.1791  3.3046  1.0644
  897MPD2    N113152   4.435   4.660  10.466  0.4515 -0.0092 -0.0400
  897MPD2    H713153   4.490   0.019  10.495  2.0107 -1.4785  1.0519
  898MPD2     C13154   1.226   0.222   0.196 -0.0178 -0.6790  0.0770
  898MPD2    C113155   1.336   0.281   0.146  0.3168 -0.4248  0.8154
  898MPD2    C213156   1.323   0.375   0.048 -0.1711 -0.1800 -0.6639
  898MPD2    C313157   1.201   0.425   0.003 -0.4365  0.5542 -0.2298
  898MPD2    C413158   1.090   0.367   0.066  0.5702 -0.3861  1.0217
  898MPD2    C513159   1.098   0.260   0.151 -0.2428 -0.3239 -0.3124
  898MPD2     H13160   1.412   0.415   0.001  0.1637  0.4768  0.5435
  898MPD2    H113161   0.990   0.406   0.052  0.2528 -0.9766  1.6084
  898MPD2    H213162   1.225   0.133   0.258  0.4793  0.0009  1.0469
  898MPD2    H313163   1.009   0.219   0.198 -0.3358  1.3196  0.9585
  898MPD2     N13164   1.198   0.540  17.609  0.6745 -0.0825  0.0831
  898MPD2    H513165   1.290   0.569  17.577  0.9172  0.7368  1.5259
  898MPD2    N113166   1.465   0.238   0.173  1.0431 -0.4219  0.4221
  898MPD2    H713167   1.542   0.292   0.134 -0.9069  0.7247 -1.8627
  899MPD2     C13168   2.644   1.110   0.186 -0.1408 -0.3885 -0.3945
  899MPD2    C113169   2.542   1.102   0.093  0.9953 -0.9102  0.0571
  899MPD2    C213170   2.431   1.030   0.134 -1.0717  0.0021  0.2550
  899MPD2    C313171   2.419   0.965   0.252  0.2408 -0.0664  1.0007
  899MPD2    C413172   2.527   0.965   0.336  0.5891  0.0819  0.4024
  899MPD2    C513173   2.632   1.046   0.307 -0.1144  0.1591 -0.3581
  899MPD2     H13174   2.359   1.011   0.056  1.2844  0.0618 -1.9468
  899MPD2    H113175   2.527   0.907   0.428  3.5688 -0.9415 -0.2538
  899MPD2    H213176   2.731   1.170   0.162 -2.1549  2.4572 -0.5419
  899MPD2    H313177   2.715   1.042   0.376  0.7098 -0.1307 -1.3627
  899MPD2     N13178   2.307   0.885   0.294 -0.0782 -0.7827 -0.3089
  899MPD2    H513179   2.310   0.832   0.381 -0.9473  0.1616  0.3008
  899MPD2    N113180   2.550   1.170  17.661  0.3272 -0.0917 -0.4959
  899MPD2    H713181   2.641   1.206  17.633  0.7562 -1.2894 -0.6254
  900MPD2     C13182   2.416   2.919  12.386 -1.0478 -0.2948  0.2914
  900MPD2    C113183   2.326   2.828  12.434 -0.5746  0.3267  0.6813
  900MPD2    C213184   2.207   2.829  12.372  0.8302 -0.4450  0.5987
  900MPD2    C313185   2.163   2.925  12.281 -1.0300  0.0699  0.1762
  900MPD2    C413186   2.250   3.018  12.234  0.7488 -0.1270 -0.2830
  900MPD2    C513187   2.373   3.020  12.294  0.5026  0.0852  0.1047
  900MPD2     H13188   2.129   2.762  12.407  0.1442 -0.1292 -0.3292
  900MPD2    H113189   2.220   3.095  12.163 -0.2812 -0.8117 -0.6046
  900MPD2    H213190   2.515   2.936  12.427 -1.3308  0.3111  0.7127
  900MPD2    H313191   2.451   3.089  12.268  0.0543  1.0888  1.3956
  900MPD2     N13192   2.028   2.913  12.245  0.7425  0.0264  0.5212
  900MPD2    H513193   1.985   2.829  12.283 -1.2690  1.6267  1.7369
  900MPD2    N113194   2.369   2.739  12.531  0.0607  0.1109  0.3371
  900MPD2    H713195   2.468   2.732  12.552  0.1852 -0.2732 -0.3878
  901MPD2     C13196   2.042   1.790  12.975  0.6788 -0.4469 -0.1942
  901MPD2    C113197   2.181   1.797  12.974 -0.0498 -0.3118 -0.3287
  901MPD2    C213198   2.253   1.912  12.956 -0.2986  0.1044  0.2411
  901MPD2    C313199   2.185   2.023  12.909 -0.0518 -0.4931  0.0600
  901MPD2    C413200   2.044   2.016  12.915  0.6709 -0.4603 -0.3971
  901MPD2    C513201   1.968   1.907  12.951  0.2079 -1.0183  0.0693
  901MPD2     H13202   2.360   1.916  12.972  0.0509 -0.7292 -1.9563
  901MPD2    H113203   1.985   2.106  12.907 -1.1827 -1.6026  0.5851
  901MPD2    H213204   1.995   1.692  12.979 -3.2531  1.4407 -0.5292
  901MPD2    H313205   1.859   1.905  12.953  0.1739  1.2449 -0.7228
  901MPD2     N13206   2.264   2.144  12.888 -0.0320  0.6649 -0.3886
  901MPD2    H513207   2.363   2.128  12.906 -0.4552 -0.7575  0.6306
  901MPD2    N113208   2.251   1.676  12.995  0.4275  0.6569 -0.2441
  901MPD2    H713209   2.196   1.592  12.980 -0.1102  0.6584  1.8086
  902MPD2     C13210   0.594   4.700  12.145  0.1205 -0.2310  0.0815
  902MPD2    C113211   0.690   0.018  12.062  0.4037 -0.3477 -0.4412
  902MPD2    C213212   0.732   4.666  11.954  0.2956  0.1939  0.3716
  902MPD2    C313213   0.675   4.541  11.934 -0.6824 -0.1898 -0.7444
  902MPD2    C413214   0.566   4.498  12.004  0.3275 -0.0741 -0.5099
  902MPD2    C513215   0.530   4.582  12.110 -1.0113  0.5075 -0.2977
  902MPD2     H13216   0.806   4.704  11.884 -1.1335  0.9646 -0.7153
  902MPD2    H113217   0.520   4.401  11.989 -1.0267  0.0882  2.5393
  902MPD2    H213218   0.574   0.029  12.239 -0.0921  1.9733 -1.1415
  902MPD2    H313219   0.445   4.544  12.164 -0.0423  0.3728  1.1354
  902MPD2     N13220   0.723   4.479  11.808 -0.0530 -0.8183 -0.1025
  902MPD2    H513221   0.796   4.534  11.763  0.2501 -0.9892  0.1783
  902MPD2    N113222   0.721   0.156  12.075  0.3192 -0.1569 -0.3252
  902MPD2    H713223   0.665   0.221  12.128  0.2414 -0.1445 -0.4214
  903MPD2     C13224   1.025   0.157  11.285 -0.0550  0.4352  0.2876
  903MPD2    C113225   0.961   0.093  11.393  0.6484  0.1209  0.2423
  903MPD2    C213226   0.861   0.155  11.463  0.8444 -0.5924  0.3932
  903MPD2    C313227   0.833   0.290  11.435  0.3048 -0.1566  0.0172
  903MPD2    C413228   0.903   0.350  11.336  0.3906  0.0259 -0.6223
  903MPD2    C513229   1.002   0.289  11.262 -0.0072  0.0529 -0.5564
  903MPD2     H13230   0.796   0.101  11.530 -2.3330  1.8757 -0.6746
  903MPD2    H113231   0.879   0.453  11.310 -0.7056 -0.1542 -0.3313
  903MPD2    H213232   1.094   0.099  11.224 -0.1715  1.3970 -0.7530
  903MPD2    H313233   1.053   0.331  11.176  0.0603  0.3549 -0.3666
  903MPD2     N13234   0.723   0.344  11.497  0.1748  0.1368  0.5871
  903MPD2    H513235   0.669   0.286  11.560 -0.3309 -0.2941 -0.2400
  903MPD2    N113236   0.977   4.674  11.413 -0.5257 -0.7046 -0.1018
  903MPD2    H713237   1.032   4.630  11.340 -1.8523 -1.5623 -0.5804
  904MPD2     C13238   1.138   4.413  13.832  0.4134  0.0871  0.6208
  904MPD2    C113239   1.120   4.526  13.912  0.4537 -0.2926 -0.4855
  904MPD2    C213240   1.206   4.546  14.021  0.1889  0.0712  0.4725
  904MPD2    C313241   1.320   4.469  14.032  0.2581 -0.8955 -0.3977
  904MPD2    C413242   1.338   4.358  13.947 -0.3466 -0.1944  0.3789
  904MPD2    C513243   1.251   4.333  13.849  1.2349  0.3193 -0.0500
  904MPD2     H13244   1.184   4.623  14.094  1.1054  1.1049 -0.3321
  904MPD2    H113245   1.420   4.290  13.968  0.0255  0.8365  2.2797
  904MPD2    H213246   1.066   4.382  13.757  0.6708 -0.3613  0.5578
  904MPD2    H313247   1.256   4.241  13.791 -0.2219 -0.4146  1.0035
  904MPD2     N13248   1.417   4.499  14.135 -0.0379  0.8637  0.2112
  904MPD2    H513249   1.380   4.554  14.212 -1.4058  0.3722 -0.0757
  904MPD2    N113250   1.006   4.603  13.895 -0.1609 -1.3109  0.5160
  904MPD2    H713251   0.958   4.641  13.976 -0.8170  0.4558 -0.7024
  905MPD2     C13252   0.713   0.092  13.159  0.0299  0.5611  0.6897
  905MPD2    C113253   0.760   0.106  13.289  0.1519  0.2607 -0.4218
  905MPD2    C213254   0.890   0.128  13.314  1.2842 -0.0596  0.0709
  905MPD2    C313255   0.982   0.106  13.215 -0.6031  0.2539  0.1659
  905MPD2    C413256   0.940   0.090  13.087  0.0671 -0.2868  0.5451
  905MPD2    C513257   0.803   0.080  13.061  0.2805  0.1988 -0.1689
  905MPD2     H13258   0.926   0.155  13.413  1.3135  0.7035 -0.1494
  905MPD2    H113259   1.011   0.072  13.007 -0.5804 -0.5493  0.0280
  905MPD2    H213260   0.608   0.089  13.130  0.2444 -0.1576 -0.0078
  905MPD2    H313261   0.786   0.077  12.954  0.8301 -3.1589 -0.1570
  905MPD2     N13262   1.121   0.093  13.240  0.1267 -0.1282  0.3214
  905MPD2    H513263   1.185   0.051  13.173 -1.4671 -1.8448 -0.1065
  905MPD2    N113264   0.663   0.107  13.393  0.6538  0.6432 -0.0788
  905MPD2    H713265   0.569   0.074  13.370 -0.0281  2.5504 -0.0326
  906MPD2     C13266   2.970   4.490  11.044 -0.4358 -0.1545  0.2566
  906MPD2    C113267   2.884   4.408  10.970 -0.3832  0.4776 -0.7454
  906MPD2    C213268   2.800   4.329  11.042 -0.5595  0.3483  0.4818
  906MPD2    C313269   2.791   4.338  11.182 -0.8117  0.5115 -0.4511
  906MPD2    C413270   2.882   4.411  11.251  0.4165  0.2667 -0.0439
  906MPD2    C513271   2.972   4.486  11.184 -0.1885 -0.3380  0.3730
  906MPD2     H13272   2.736   4.259  10.989 -1.6202  1.7543 -0.0886
  906MPD2    H113273   2.886   4.422  11.359  0.7534  0.8934 -0.1220
  906MPD2    H213274   3.045   4.550  10.994 -1.4043  0.8884  0.0214
  906MPD2    H313275   3.056   4.541  11.226 -1.1806  2.7497 -1.6482
  906MPD2     N13276   2.706   4.255  11.262 -0.5664 -0.2715  0.4534
  906MPD2    H513277   2.717   4.246  11.362  2.4362  1.4313  0.2620
  906MPD2    N113278   2.899   4.388  10.833 -0.1659  0.0418  0.2066
  906MPD2    H713279   2.847   4.306  10.802 -0.7030  0.1006  0.9609
  907MPD2     C13280   1.720   3.467  15.358 -0.4952  1.0836  0.4399
  907MPD2    C113281   1.831   3.415  15.298  0.0447  0.4748 -0.4562
  907MPD2    C213282   1.946   3.392  15.365 -0.6857 -0.5533  0.4153
  907MPD2    C313283   1.947   3.431  15.502  0.5750 -0.3332 -0.0563
  907MPD2    C413284   1.839   3.499  15.562  0.1743 -0.1270 -0.1769
  907MPD2    C513285   1.732   3.517  15.480 -0.1254 -0.9374 -0.0399
  907MPD2     H13286   2.035   3.360  15.311  0.6744 -1.7614  3.4120
  907MPD2    H113287   1.849   3.544  15.660  1.2017  0.0354 -0.3596
  907MPD2    H213288   1.618   3.480  15.324 -0.0201 -3.0255 -2.5165
  907MPD2    H313289   1.641   3.552  15.528 -1.3190  0.3053 -3.1748
  907MPD2     N13290   2.073   3.417  15.567 -0.2623  0.2085 -0.1304
  907MPD2    H513291   2.150   3.371  15.519  1.0583  1.2470  1.0005
  907MPD2    N113292   1.827   3.371  15.159 -0.6888  0.8192  0.0727
  907MPD2    H713293   1.899   3.304  15.137 -1.7326 -0.1341 -0.4464
  908MPD2     C13294   4.341   0.179   9.449 -0.4716  0.5264  0.8346
  908MPD2    C113295   4.283   0.075   9.516  0.5817  0.7456 -0.2279
  908MPD2    C213296   4.300   0.059   9.655  0.1034  0.0365  0.3921
  908MPD2    C313297   4.376   0.150   9.721  0.1973  0.1397  0.0328
  908MPD2    C413298   4.425   0.264   9.650 -0.9593  0.4336  0.8182
  908MPD2    C513299   4.417   0.271   9.516  0.3128  0.2547 -0.1403
  908MPD2     H13300   4.256   4.692   9.701  0.4121  0.0920  0.7868
  908MPD2    H113301   4.501   0.332   9.685 -0.7973  1.2228 -1.0720
  908MPD2    H213302   4.328   0.180   9.342 -0.2002  0.0691  0.7976
  908MPD2    H313303   4.469   0.350   9.462  0.0876  0.3984 -0.1435
  908MPD2     N13304   4.398   0.129   9.856  0.1826  0.7675 -0.1120
  908MPD2    H513305   4.366   0.042   9.897 -0.6824  0.2724 -1.8226
  908MPD2    N113306   4.208   4.704   9.441  0.2857 -0.2946  0.7415
  908MPD2    H713307   4.194   0.000   9.342  0.8989  2.5793  1.1931
  909MPD2     C13308   4.490   2.230  12.330 -0.5606 -0.7139 -0.2896
  909MPD2    C113309   4.509   2.338  12.246  0.2534  0.8835 -0.3272
  909MPD2    C213310   4.445   2.460  12.271  0.3235  0.3389  0.1665
  909MPD2    C313311   4.363   2.479  12.379 -0.3264 -0.1609  0.2443
  909MPD2    C413312   4.348   2.370  12.464 -0.3754  0.7146 -0.9888
  909MPD2    C513313   4.403   2.252  12.436  0.2441 -0.3266  0.3945
  909MPD2     H13314   4.475   2.537  12.202  1.7984 -0.3156  0.0844
  909MPD2    H113315   4.277   2.376  12.545  0.8184 -2.4768  0.3231
  909MPD2    H213316   4.549   2.140  12.321  0.9539  0.0740  1.6973
  909MPD2    H313317   4.386   2.161  12.493 -0.9074  0.1666  0.8259
  909MPD2     N13318   4.297   2.605  12.389  0.1627 -0.9069  0.9166
  909MPD2    H513319   4.311   2.674  12.316 -1.3315 -0.9360  0.6102
  909MPD2    N113320   4.590   2.331  12.131  0.4881 -0.5555  0.3263
  909MPD2    H713321   4.606   2.416  12.079  0.7906 -0.0814  1.1833
  910MPD2     C13322   1.079   4.169  16.341 -1.1203 -0.9198 -0.8206
  910MPD2    C113323   1.105   4.110  16.216 -0.5370  0.6558 -0.2192
  910MPD2    C213324   1.053   4.171  16.102 -0.2673  0.1665 -0.0698
  910MPD2    C313325   0.953   4.268  16.114  0.5895  0.3851 -0.0753
  910MPD2    C413326   0.918   4.310  16.238 -0.5872 -0.1033 -0.2090
  910MPD2    C513327   0.985   4.269  16.355 -0.0290  0.0476  0.0271
  910MPD2     H13328   1.086   4.134  16.005 -1.4548 -1.0567 -0.0057
  910MPD2    H113329   0.860   4.399  16.261 -1.5189 -0.5643 -0.7896
  910MPD2    H213330   1.140   4.153  16.429 -1.4818  2.0514 -0.0029
  910MPD2    H313331   0.970   4.317  16.451  0.5454  0.2092  0.0315
  910MPD2     N13332   0.894   4.320  15.991 -0.0264 -0.2245  0.6602
  910MPD2    H513333   0.927   4.292  15.899 -1.2938  1.0583 -0.1588
  910MPD2    N113334   1.183   3.997  16.193 -0.2765  0.0425  0.8250
  910MPD2    H713335   1.208   3.965  16.100  0.1221 -2.4741  1.7841
  911MPD2     C13336   3.775   4.352  16.985  0.3862  0.3118 -0.3799
  911MPD2    C113337   3.879   4.418  17.053  0.3207 -0.8707  0.2254
  911MPD2    C213338   3.879   4.556  17.024 -0.0270 -0.4330 -0.4907
  911MPD2    C313339   3.790   4.620  16.933 -0.3849 -0.2134  0.4218
  911MPD2    C413340   3.688   4.549  16.883 -0.2124 -0.5807  0.6428
  911MPD2    C513341   3.675   4.418  16.916  0.5967 -0.4558 -0.6350
  911MPD2     H13342   3.959   4.618  17.062 -0.4601 -1.5091  2.1843
  911MPD2    H113343   3.611   4.592  16.819 -1.0561 -1.8039  0.8208
  911MPD2    H213344   3.766   4.244  16.982 -1.9759  0.5700 -2.1586
  911MPD2    H313345   3.598   4.360  16.865  0.3831 -2.5955  2.1452
  911MPD2     N13346   3.797   0.034  16.892  0.5788  0.6399 -0.1806
  911MPD2    H513347   3.743   0.052  16.809  1.7304  0.9139 -0.8663
  911MPD2    N113348   3.993   4.350  17.114 -0.6774  0.2105  0.3838
  911MPD2    H713349   3.983   4.252  17.139 -0.8329 -0.1632 -1.1540
  912MPD2     C13350   3.377   0.251  16.350 -0.2349  0.5597  0.2299
  912MPD2    C113351   3.441   0.192  16.457 -0.4530 -0.4381  0.8402
  912MPD2    C213352   3.391   0.068  16.504  0.5233 -0.1413 -0.4268
  912MPD2    C313353   3.285   0.006  16.441 -0.7721  0.0488  0.6569
  912MPD2    C413354   3.227   0.067  16.328  0.5786  0.6937 -0.4528
  912MPD2    C513355   3.274   0.186  16.288  0.0784  0.6068  0.1450
  912MPD2     H13356   3.442   0.008  16.578  0.1967  0.6946  0.4794
  912MPD2    H113357   3.141   0.025  16.277  0.4094  1.9776 -1.2433
  912MPD2    H213358   3.393   0.354  16.324 -0.3858  0.7410  0.8417
  912MPD2    H313359   3.220   0.240  16.211  0.3041 -0.3891 -0.7153
  912MPD2     N13360   3.237   4.615  16.512 -0.2620 -0.0588  0.3045
  912MPD2    H513361   3.272   4.594  16.605 -0.1064  0.7805  0.4378
  912MPD2    N113362   3.545   0.263  16.517 -0.4526 -0.2232  0.0891
  912MPD2    H713363   3.561   0.357  16.484 -0.5482 -0.1947  0.1243
  913MPD2     C13364   4.313   1.061  10.724 -0.4653  1.0158 -0.2351
  913MPD2    C113365   4.227   0.967  10.677 -0.3290 -0.4677  0.8902
  913MPD2    C213366   4.190   0.966  10.543  0.5609 -0.1993 -0.4991
  913MPD2    C313367   4.240   1.060  10.456  0.3938 -0.0705  0.2216
  913MPD2    C413368   4.316   1.160  10.510  0.8481 -0.2638 -0.1179
  913MPD2    C513369   4.356   1.163  10.642  0.4835  0.1294 -0.5198
  913MPD2     H13370   4.125   0.884  10.515 -0.3307  0.1731  0.4886
  913MPD2    H113371   4.341   1.245  10.449  1.8216 -3.2575 -3.8748
  913MPD2    H213372   4.327   1.068  10.832  2.8186 -0.7320 -0.5382
  913MPD2    H313373   4.412   1.248  10.679  0.1348 -0.2196  0.7981
  913MPD2     N13374   4.211   1.064  10.316  0.1048 -0.0311 -0.4055
  913MPD2    H513375   4.257   1.135  10.260 -2.9532  1.4206 -1.0786
  913MPD2    N113376   4.192   0.869  10.776 -0.2778  0.3192 -0.1712
  913MPD2    H713377   4.241   0.878  10.865 -1.5484 -0.3066  0.6017
  914MPD2     C13378   2.223   1.401  12.212  0.2691 -0.1203 -1.1383
  914MPD2    C113379   2.262   1.527  12.250 -0.4525  0.5307  0.0946
  914MPD2    C213380   2.324   1.542  12.372  0.1565 -0.3766  0.2027
  914MPD2    C313381   2.341   1.429  12.453 -0.0162  0.0662  0.0390
  914MPD2    C413382   2.292   1.305  12.417 -0.0742  0.2938 -0.0529
  914MPD2    C513383   2.235   1.295  12.294  0.3569 -0.1820  0.0794
  914MPD2     H13384   2.361   1.638  12.408  1.6098 -1.1202  0.6803
  914MPD2    H113385   2.310   1.227  12.489 -1.4089  0.1685  0.1498
  914MPD2    H213386   2.172   1.387  12.117 -0.7541  2.7185 -0.9659
  914MPD2    H313387   2.196   1.201  12.255  1.4897 -0.3933 -0.5726
  914MPD2     N13388   2.410   1.449  12.574  0.2662  0.4140  0.3756
  914MPD2    H513389   2.432   1.541  12.610  0.4952 -0.0729  1.4909
  914MPD2    N113390   2.239   1.635  12.152 -0.9926  0.9783  0.4791
  914MPD2    H713391   2.180   1.619  12.071 -0.1772  1.2377 -0.1580
  915MPD2     C13392   0.265   1.493  15.550  0.1211  0.5847 -0.5252
  915MPD2    C113393   0.176   1.565  15.466  0.1036  0.1285 -0.3079
  915MPD2    C213394   0.082   1.642  15.530  0.0234 -0.2260 -0.5281
  915MPD2    C313395   0.069   1.652  15.668  0.4202 -0.5703 -0.5227
  915MPD2    C413396   0.162   1.577  15.748  0.2968 -0.0312 -0.1280
  915MPD2    C513397   0.258   1.506  15.682 -0.1018 -0.2873  0.4357
  915MPD2     H13398   0.008   1.697  15.472 -1.3539 -2.4424 -0.8541
  915MPD2    H113399   0.169   1.585  15.856 -0.6098  0.9456 -0.1409
  915MPD2    H213400   0.345   1.430  15.512 -0.4609 -0.7905  0.5262
  915MPD2    H313401   0.330   1.449  15.741 -0.2055  0.8238  1.6492
  915MPD2     N13402   4.678   1.717  15.723  0.3509 -0.2587  0.1439
  915MPD2    H513403   4.606   1.746  15.657  1.9095 -0.9919 -1.8486
  915MPD2    N113404   0.191   1.547  15.324 -0.4974  0.1714 -0.7224
  915MPD2    H713405   0.275   1.497  15.297  0.0364  0.5617  0.2368
  916MPD2     C13406   3.186   4.576  16.027 -0.4928 -0.2314  0.5310
  916MPD2    C113407   3.103   4.469  16.032  0.2593  0.1791 -0.4015
  916MPD2    C213408   3.145   4.365  15.952 -0.4690  0.0675 -0.7462
  916MPD2    C313409   3.260   4.365  15.874  0.2669 -0.2723  0.4173
  916MPD2    C413410   3.350   4.463  15.881 -0.0420 -0.8863 -0.1062
  916MPD2    C513411   3.311   4.566  15.968  0.1005  0.5168  0.0439
  916MPD2     H13412   3.078   4.281  15.932 -1.4698  0.2583  1.7393
  916MPD2    H113413   3.448   4.473  15.837 -0.8504  0.0376 -1.6863
  916MPD2    H213414   3.168   4.664  16.089  2.0633 -0.0935  1.0940
  916MPD2    H313415   3.370   4.655  15.986 -0.1983  0.6093  0.5527
  916MPD2     N13416   3.282   4.249  15.794  0.1380 -0.3530  0.2219
  916MPD2    H513417   3.219   4.169  15.798 -1.6174  0.9725 -0.6066
  916MPD2    N113418   2.984   4.467  16.111  0.4005  0.1178 -0.5359
  916MPD2    H713419   2.986   4.536  16.185 -1.3224  1.5727 -1.8185
  917MPD2     C13420   3.407   1.732  11.237 -0.6349 -0.5099 -0.2636
  917MPD2    C113421   3.435   1.825  11.340 -0.2951  0.2180 -0.4095
  917MPD2    C213422   3.503   1.943  11.315  1.2082 -0.2906 -0.3106
  917MPD2    C313423   3.529   1.994  11.189  0.2345  0.8095  0.1417
  917MPD2    C413424   3.492   1.903  11.092 -0.4265  1.2217  0.0999
  917MPD2    C513425   3.440   1.778  11.117  0.3127  0.4501  0.3318
  917MPD2     H13426   3.525   2.003  11.402  2.3976  0.8759 -1.4027
  917MPD2    H113427   3.504   1.926  10.987 -2.3496  4.8904  0.7065
  917MPD2    H213428   3.364   1.633  11.248  1.0005 -1.2326 -0.3672
  917MPD2    H313429   3.412   1.715  11.033 -0.7629  1.5527 -0.1373
  917MPD2     N13430   3.576   2.125  11.160 -0.1224 -0.5516  0.7661
  917MPD2    H513431   3.593   2.153  11.065  0.4313  0.0543  1.0439
  917MPD2    N113432   3.387   1.792  11.470 -0.7845  0.2238  0.1023
  917MPD2    H713433   3.340   1.702  11.477 -0.3921  0.1207  1.4314
  918MPD2     C13434   3.393   2.413  12.252  0.6174 -0.8098  0.1065
  918MPD2    C113435   3.505   2.344  12.202 -0.0450 -0.1707 -0.3521
  918MPD2    C213436   3.482   2.238  12.116 -0.5711 -0.1268  0.0745
  918MPD2    C313437   3.356   2.182  12.102  0.0391  0.1101 -0.2306
  918MPD2    C413438   3.243   2.251  12.152 -0.3673  0.1996  0.1635
  918MPD2    C513439   3.268   2.366  12.222 -0.3386 -0.0306  1.1840
  918MPD2     H13440   3.562   2.190  12.061 -0.5845  0.1180 -0.1593
  918MPD2    H113441   3.142   2.213  12.137  0.1955 -0.6263 -1.5626
  918MPD2    H213442   3.394   2.498  12.320  1.2568 -1.1696  0.5604
  918MPD2    H313443   3.183   2.414  12.267 -0.4814  2.8777 -2.2044
  918MPD2     N13444   3.334   2.072  12.024 -0.2551  0.4982 -0.1508
  918MPD2    H513445   3.415   2.025  11.985 -0.0771  0.8200 -0.1663
  918MPD2    N113446   3.632   2.380  12.237  0.5253  0.0056 -0.0886
  918MPD2    H713447   3.706   2.329  12.190 -1.0595 -5.3596  3.2043
  919MPD2     C13448   4.014   0.982  12.030 -0.1687  0.0097  0.2511
  919MPD2    C113449   3.943   0.868  11.992 -0.3260  0.1159 -0.3723
  919MPD2    C213450   3.892   0.855  11.868  0.4146 -0.1307 -0.1543
  919MPD2    C313451   3.923   0.948  11.770 -0.3011  0.0871 -0.2241
  919MPD2    C413452   4.004   1.052  11.812 -0.0975 -0.5117 -0.3128
  919MPD2    C513453   4.040   1.081  11.939  0.1505 -0.2958 -0.7871
  919MPD2     H13454   3.824   0.776  11.839  0.4569 -0.1204 -0.2812
  919MPD2    H113455   4.037   1.124  11.738  0.6643 -0.4321  0.1121
  919MPD2    H213456   4.066   0.987  12.125 -0.5636 -0.3688  0.4890
  919MPD2    H313457   4.116   1.153  11.967  0.5911 -0.4108 -1.6849
  919MPD2     N13458   3.880   0.945  11.634  0.1685 -0.0769 -0.1939
  919MPD2    H513459   3.894   1.031  11.581  4.0816 -0.7417 -0.2207
  919MPD2    N113460   3.935   0.756  12.081 -0.8039  0.1373  0.0483
  919MPD2    H713461   3.916   0.666  12.040 -0.4468 -0.3506  0.9446
  920MPD2     C13462   4.087   1.331  10.762 -0.0546 -0.7431  0.0953
  920MPD2    C113463   4.006   1.229  10.726  0.6302 -0.2172  0.0060
  920MPD2    C213464   3.958   1.140  10.817 -0.2268  0.1017  0.2142
  920MPD2    C313465   4.003   1.150  10.943  0.2718  0.0798  0.6305
  920MPD2    C413466   4.085   1.250  10.987  0.0536  0.0602  0.3460
  920MPD2    C513467   4.125   1.346  10.894  0.4773  0.5065 -0.5018
  920MPD2     H13468   3.893   1.058  10.789 -0.3978  0.4633 -0.4459
  920MPD2    H113469   4.121   1.253  11.089 -3.3131  0.3347  1.5133
  920MPD2    H213470   4.139   1.391  10.688  0.9134 -0.7755  0.7457
  920MPD2    H313471   4.183   1.428  10.935 -0.6238  1.7961 -1.4974
  920MPD2     N13472   3.956   1.048  11.036  0.9280  0.0091 -0.2602
  920MPD2    H513473   3.900   0.971  11.000  0.3942  0.2465  0.0603
  920MPD2    N113474   3.957   1.222  10.591  0.9152 -0.2443 -0.2271
  920MPD2    H713475   3.885   1.152  10.578  0.0715  0.5593  0.0627
  921MPD2     C13476   4.454   0.271  16.977 -0.1328 -0.3230  0.2221
  921MPD2    C113477   4.563   0.205  17.033  0.4184 -0.0883  0.0467
  921MPD2    C213478   4.554   0.080  17.096  0.4834  0.0941  0.0887
  921MPD2    C313479   4.434   0.020  17.107 -0.5174  0.3078  0.3680
  921MPD2    C413480   4.322   0.087  17.055  0.3528 -0.1862  0.0542
  921MPD2    C513481   4.333   0.210  16.997  0.4102  0.4692 -1.0486
  921MPD2     H13482   4.645   0.034  17.133 -1.2489 -3.2504  0.1938
  921MPD2    H113483   4.226   0.036  17.055  0.4564 -0.3739  0.9082
  921MPD2    H213484   4.467   0.368  16.933  1.2001 -0.4550  0.3388
  921MPD2    H313485   4.244   0.262  16.964 -0.8212 -0.4527  0.8057
  921MPD2     N13486   4.403   4.608  17.155 -0.6664  0.1322 -0.0454
  921MPD2    H513487   4.309   4.572  17.146 -0.7582  0.1434  0.9232
  921MPD2    N113488   4.686   0.264  17.017 -0.1117 -0.0199  0.4449
  921MPD2    H713489   4.697   0.328  16.939  3.1860 -3.2088 -1.7608
  922MPD2     C13490   0.537   2.009  17.000 -0.5270 -0.8289 -0.4103
  922MPD2    C113491   0.545   2.141  16.962 -0.1460 -0.4576  0.0828
  922MPD2    C213492   0.421   2.206  16.938 -0.5411 -0.5369 -0.4789
  922MPD2    C313493   0.299   2.142  16.964 -0.1761 -0.1589 -0.0148
  922MPD2    C413494   0.300   2.014  17.006 -0.1567  0.1451  0.2894
  922MPD2    C513495   0.418   1.952  17.024 -0.4350 -0.3772  0.6631
  922MPD2     H13496   0.410   2.308  16.904  2.2496 -1.4263 -4.0638
  922MPD2    H113497   0.211   1.955  17.025 -0.5112  1.1221  1.6203
  922MPD2    H213498   0.634   1.962  17.013 -0.7979 -1.0551  0.7819
  922MPD2    H313499   0.417   1.847  17.050  0.1686 -0.4028  0.5732
  922MPD2     N13500   0.181   2.210  16.933 -0.5933  0.0257 -0.2354
  922MPD2    H513501   0.190   2.309  16.913 -1.9096 -0.2741 -2.3168
  922MPD2    N113502   0.667   2.214  16.942 -0.1221 -0.1180 -0.0544
  922MPD2    H713503   0.668   2.303  16.893 -1.8467 -0.3215 -0.4677
  923MPD2     C13504   3.043   0.148   9.146  0.8531  0.1523 -0.2705
  923MPD2    C113505   2.927   0.150   9.222 -0.2878 -0.1690  0.3126
  923MPD2    C213506   2.909   0.058   9.317 -0.3280 -0.4344  0.5568
  923MPD2    C313507   3.004   4.682   9.340  0.0529  0.3125 -0.5295
  923MPD2    C413508   3.125   4.687   9.275 -0.0114  0.2965  0.1702
  923MPD2    C513509   3.144   0.058   9.176 -0.2951  0.0114  0.0983
  923MPD2     H13510   2.819   0.068   9.377 -0.5997  1.3463 -0.1437
  923MPD2    H113511   3.206   4.619   9.299  1.6356  1.8290 -0.9666
  923MPD2    H213512   3.070   0.226   9.075  3.1204 -0.7651 -0.4302
  923MPD2    H313513   3.241   0.071   9.129 -0.9753 -1.3434 -1.7025
  923MPD2     N13514   2.989   4.579   9.437 -0.2522  0.4939  0.2334
  923MPD2    H513515   3.068   4.517   9.452 -1.5457 -0.7182  1.9903
  923MPD2    N113516   2.829   0.248   9.185 -0.4062  0.1920 -0.2272
  923MPD2    H713517   2.855   0.314   9.113 -0.7740  1.7402  1.0428
  924MPD2     C13518   2.167   3.114  15.099  0.0269  0.4649  0.6848
  924MPD2    C113519   2.136   3.068  15.226  0.1816 -0.3324  0.6917
  924MPD2    C213520   2.222   3.104  15.333 -0.0314  0.2385 -0.3661
  924MPD2    C313521   2.328   3.186  15.320 -0.6018  0.4302  0.1960
  924MPD2    C413522   2.354   3.235  15.195  0.4974 -0.5086 -0.1571
  924MPD2    C513523   2.272   3.199  15.090  0.0347 -0.2475  0.0652
  924MPD2     H13524   2.184   3.076  15.430 -0.7063 -0.7123 -0.9010
  924MPD2    H113525   2.439   3.297  15.172  0.2582  0.5542  1.8644
  924MPD2    H213526   2.105   3.103  15.010  0.5739  0.0214  0.3627
  924MPD2    H313527   2.299   3.244  14.995  1.9378 -1.1409  0.1773
  924MPD2     N13528   2.409   3.226  15.431  0.0781  0.2127 -0.1241
  924MPD2    H513529   2.472   3.306  15.425  1.2394 -0.7729 -1.1297
  924MPD2    N113530   2.021   2.999  15.252 -0.0194 -0.3025 -0.0396
  924MPD2    H713531   1.950   2.990  15.180 -1.7115 -0.7163  1.6718
  925MPD2     C13532   0.994   0.384  14.844  0.4748  0.1990 -0.1018
  925MPD2    C113533   0.876   0.449  14.828  0.3568  0.5546 -0.3364
  925MPD2    C213534   0.828   0.517  14.937 -0.7051  0.3246 -0.1736
  925MPD2    C313535   0.905   0.538  15.054  0.5030 -0.3309 -0.3418
  925MPD2    C413536   1.012   0.451  15.070 -0.0788  0.7558 -0.3174
  925MPD2    C513537   1.050   0.370  14.969  0.3710  0.2574 -0.0580
  925MPD2     H13538   0.725   0.549  14.941 -0.4312  1.4778 -2.2131
  925MPD2    H113539   1.065   0.461  15.164  1.2506 -1.7313 -0.8107
  925MPD2    H213540   1.047   0.320  14.775 -0.7181 -0.3024 -0.5499
  925MPD2    H313541   1.131   0.300  14.988  0.6644 -0.0398 -2.3817
  925MPD2     N13542   0.870   0.616  15.165 -0.1768  0.0404  0.0351
  925MPD2    H513543   0.934   0.615  15.244  0.7739 -0.2040 -0.7409
  925MPD2    N113544   0.807   0.448  14.701 -0.1367 -0.0973  0.1286
  925MPD2    H713545   0.717   0.494  14.701  0.0529  0.2321  3.2992
  926MPD2     C13546   4.426   3.775  13.432 -0.6498 -0.2588 -0.7567
  926MPD2    C113547   4.471   3.896  13.486 -0.6508 -0.4976 -0.1413
  926MPD2    C213548   4.493   4.006  13.393 -0.2952  0.1567 -0.0155
  926MPD2    C313549   4.475   3.988  13.258  0.3757  0.6629  0.3070
  926MPD2    C413550   4.423   3.866  13.207  0.1635  0.1558 -0.1465
  926MPD2    C513551   4.404   3.761  13.298 -0.4579  0.5925  0.1830
  926MPD2     H13552   4.534   4.096  13.437  1.9059 -0.2678 -1.1731
  926MPD2    H113553   4.430   3.829  13.105 -0.1783 -0.1594 -0.0560
  926MPD2    H213554   4.412   3.682  13.486 -3.8514 -0.1142 -1.3006
  926MPD2    H313555   4.359   3.671  13.257  0.7561  0.8849 -1.8104
  926MPD2     N13556   4.499   4.087  13.165 -0.2233 -0.5310  0.2392
  926MPD2    H513557   4.467   4.073  13.070  1.7988 -0.7452 -0.4111
  926MPD2    N113558   4.497   3.925  13.624  0.3446 -0.5615 -0.1015
  926MPD2    H713559   4.529   4.018  13.650 -1.4618  0.5849 -1.9626
  927MPD2     C13560   3.398   1.329   0.187  0.2181 -0.9383  0.0669
  927MPD2    C113561   3.516   1.356   0.258 -0.1284  0.5422 -0.0446
  927MPD2    C213562   3.627   1.402   0.187 -0.7618  1.2251  0.5767
  927MPD2    C313563   3.623   1.424   0.054 -0.3210  0.3606 -0.4099
  927MPD2    C413564   3.512   1.405  17.666  0.4369  0.6457  0.2911
  927MPD2    C513565   3.399   1.363   0.051 -0.3080 -1.3730 -0.4521
  927MPD2     H13566   3.719   1.417   0.243  1.2282 -0.9545 -2.0807
  927MPD2    H113567   3.509   1.426  17.560  1.6677 -0.3276  0.0699
  927MPD2    H213568   3.313   1.296   0.246 -2.2062  3.8951 -0.7454
  927MPD2    H313569   3.301   1.358   0.004 -1.1237  1.0009  1.0081
  927MPD2     N13570   3.748   1.443  17.682  0.3315 -0.1758  0.2792
  927MPD2    H513571   3.825   1.425   0.057 -0.0456 -0.4752  0.6498
  927MPD2    N113572   3.519   1.325   0.395  0.0156 -0.0370 -0.1251
  927MPD2    H713573   3.436   1.281   0.433  1.0913 -1.5747  0.4684
  928MPD2     C13574   1.744   4.489   1.528  0.3136 -0.1075  0.0796
  928MPD2    C113575   1.760   4.624   1.491 -0.0097  0.5530 -0.0763
  928MPD2    C213576   1.811   4.661   1.368  0.4790  0.3344  0.8082
  928MPD2    C313577   1.845   4.560   1.281 -0.4013 -0.8072 -0.1445
  928MPD2    C413578   1.839   4.428   1.317  0.1661  0.3877  0.4244
  928MPD2    C513579   1.788   4.397   1.438  0.5062 -0.3031  0.4217
  928MPD2     H13580   1.839   0.043   1.350 -0.3567  0.7523  1.9083
  928MPD2    H113581   1.893   4.353   1.262 -1.4804 -0.7528  0.3691
  928MPD2    H213582   1.703   4.463   1.625 -0.7857  1.4030  0.0093
  928MPD2    H313583   1.784   4.297   1.479 -0.3263 -0.2005  0.5966
  928MPD2     N13584   1.914   4.592   1.167 -0.5910  0.4016 -0.0451
  928MPD2    H513585   1.943   4.689   1.152 -2.5325  0.7298 -1.8200
  928MPD2    N113586   1.718   4.718   1.589 -0.3911  0.3665 -0.7281
  928MPD2    H713587   1.714   4.686   1.686 -4.6480 -0.4489 -1.2078
  929MPD2     C13588   2.308   4.151  10.394 -0.2006  0.2252  0.2186
  929MPD2    C113589   2.180   4.196  10.420  0.5183 -0.3443  0.1748
  929MPD2    C213590   2.116   4.301  10.352 -0.1613 -0.1547  0.6737
  929MPD2    C313591   2.177   4.345  10.237 -0.6641  0.6686 -0.1112
  929MPD2    C413592   2.296   4.286  10.197  0.0468 -0.2322  0.0710
  929MPD2    C513593   2.354   4.193  10.273 -0.0350  0.0537 -0.2904
  929MPD2     H13594   2.016   4.334  10.380 -0.9264 -1.3594 -0.7202
  929MPD2    H113595   2.344   4.324  10.108 -2.1712  0.5085 -0.8211
  929MPD2    H213596   2.360   4.071  10.445 -1.5633 -1.1302 -0.5175
  929MPD2    H313597   2.455   4.162  10.248  0.0728  0.2561 -0.1049
  929MPD2     N13598   2.129   4.454  10.157  0.0023  0.0081 -0.0031
  929MPD2    H513599   2.183   4.467  10.072  0.3352  0.3560  0.2588
  929MPD2    N113600   2.123   4.128  10.531  0.1348 -0.1618  0.0689
  929MPD2    H713601   2.193   4.096  10.597 -1.1823 -0.2114  1.4236
  930MPD2     C13602   3.742   2.046  14.164 -0.1923  0.3910 -0.2346
  930MPD2    C113603   3.711   2.161  14.099  0.3449 -0.0650 -0.0031
  930MPD2    C213604   3.640   2.155  13.986 -0.4972 -0.1621  0.0273
  930MPD2    C313605   3.607   2.037  13.922 -0.3771  0.3604 -0.2744
  930MPD2    C413606   3.648   1.919  13.983  0.7698 -0.1761 -0.6107
  930MPD2    C513607   3.714   1.924  14.105 -0.0564 -0.3478  0.2935
  930MPD2     H13608   3.617   2.250  13.939  0.5930 -0.7773 -1.7488
  930MPD2    H113609   3.619   1.827  13.933 -2.1631  1.2934 -1.6093
  930MPD2    H213610   3.807   2.043  14.251  1.7460  1.4825 -1.6407
  930MPD2    H313611   3.740   1.832  14.157  0.2665 -0.0714  0.6224
  930MPD2     N13612   3.555   2.052  13.789  0.1200  0.1671 -0.7159
  930MPD2    H513613   3.561   2.148  13.755  0.5384 -0.1143 -1.4358
  930MPD2    N113614   3.778   2.280  14.125 -0.2159 -0.2908  0.2985
  930MPD2    H713615   3.763   2.361  14.066 -2.4863 -0.0634  1.1574
  931MPD2     C13616   4.134   1.162   0.878 -0.2014  0.1375  0.5065
  931MPD2    C113617   4.020   1.130   0.937 -0.3316 -0.3107  0.1931
  931MPD2    C213618   4.020   1.067   1.058 -0.5775  0.2584 -0.0179
  931MPD2    C313619   4.136   1.046   1.127  0.8062 -0.2770  0.5496
  931MPD2    C413620   4.257   1.066   1.061 -0.1100 -0.3698  0.3688
  931MPD2    C513621   4.248   1.110   0.936 -0.3513  0.3138  0.1386
  931MPD2     H13622   3.924   1.055   1.108 -1.5641  2.2130 -1.4521
  931MPD2    H113623   4.346   1.027   1.108 -2.0837 -1.8608  2.9148
  931MPD2    H213624   4.135   1.205   0.778  0.6071 -0.8683  0.0760
  931MPD2    H313625   4.342   1.104   0.882 -0.8217 -2.1159 -0.3937
  931MPD2     N13626   4.139   1.011   1.262  0.0498  0.1487  0.8831
  931MPD2    H513627   4.227   1.006   1.312  0.0107  0.2641  0.9624
  931MPD2    N113628   3.898   1.158   0.864  0.3761  0.3550  0.0449
  931MPD2    H713629   3.920   1.223   0.790 -2.0774  1.4198  0.2430
  932MPD2     C13630   0.938   1.126  11.453 -0.1391  1.1204 -0.6106
  932MPD2    C113631   0.973   1.119  11.320 -0.1931 -0.2685 -0.0986
  932MPD2    C213632   0.931   1.006  11.254 -0.1465 -0.7163  0.5046
  932MPD2    C313633   0.872   0.895  11.324  0.2384 -0.1324  0.1705
  932MPD2    C413634   0.835   0.913  11.455  0.0351  0.3165 -0.8173
  932MPD2    C513635   0.865   1.031  11.517 -0.0588 -0.7789  0.7648
  932MPD2     H13636   0.946   1.000  11.146  0.2137 -1.0356  0.5720
  932MPD2    H113637   0.788   0.826  11.499  1.1413 -0.1545 -0.5637
  932MPD2    H213638   0.976   1.202  11.520 -2.9152  0.5729  1.6038
  932MPD2    H313639   0.838   1.042  11.621  0.4526 -1.5355  0.9777
  932MPD2     N13640   0.826   0.778  11.262  0.3958  0.5669 -0.1545
  932MPD2    H513641   0.777   0.711  11.321 -0.2271 -0.6390 -2.0538
  932MPD2    N113642   1.037   1.221  11.243 -0.3757 -0.1764 -0.5208
  932MPD2    H713643   1.076   1.190  11.155  1.8516 -1.5611  0.9692
  933MPD2     C13644   1.085   0.394   2.037 -0.0044 -0.1611  0.1561
  933MPD2    C113645   1.156   0.430   1.932 -0.2575  0.2005 -0.2652
  933MPD2    C213646   1.102   0.522   1.845 -0.0452 -0.1464  0.1805
  933MPD2    C313647   0.976   0.578   1.863  1.1682  0.2267 -0.4244
  933MPD2    C413648   0.908   0.541   1.972 -0.2839 -0.9243 -0.5311
  933MPD2    C513649   0.964   0.452   2.058 -0.2700 -0.2644 -0.1580
  933MPD2     H13650   1.160   0.550   1.758 -0.6423 -0.6143 -0.3648
  933MPD2    H113651   0.806   0.568   1.998  0.5266  2.9025 -1.2909
  933MPD2    H213652   1.129   0.328   2.111  0.5407 -0.8407 -0.7720
  933MPD2    H313653   0.902   0.414   2.138  0.1832  1.3226  0.9547
  933MPD2     N13654   0.926   0.669   1.770 -0.1356 -0.0042  0.1608
  933MPD2    H513655   0.986   0.684   1.691  2.1362 -1.7215  1.5623
  933MPD2    N113656   1.277   0.364   1.910 -0.6562 -0.2892 -0.5573
  933MPD2    H713657   1.300   0.299   1.985 -0.4435  0.8635  0.3800
  934MPD2     C13658   2.527   1.980   2.187  0.0936 -0.6937  0.0801
  934MPD2    C113659   2.623   1.934   2.102  0.0826  0.7549 -0.4596
  934MPD2    C213660   2.581   1.833   2.011 -0.0695 -0.6128  0.8583
  934MPD2    C313661   2.445   1.798   2.005  0.4799 -0.4412 -0.6475
  934MPD2    C413662   2.354   1.848   2.098  0.1082  0.0425 -0.7123
  934MPD2    C513663   2.395   1.940   2.184 -0.8973  0.0886 -0.0984
  934MPD2     H13664   2.650   1.791   1.939  1.3387  1.9969  0.6878
  934MPD2    H113665   2.249   1.823   2.092  0.2326 -0.4446 -0.8976
  934MPD2    H213666   2.559   2.057   2.256 -1.2807  0.0151 -0.0825
  934MPD2    H313667   2.332   1.974   2.265 -0.2508  2.1647 -0.4642
  934MPD2     N13668   2.389   1.720   1.903  0.0138 -0.4052 -0.2226
  934MPD2    H513669   2.292   1.694   1.916  0.3048 -1.5723 -0.3853
  934MPD2    N113670   2.758   1.984   2.102  0.1758  0.5777  0.2921
  934MPD2    H713671   2.821   1.940   2.037  1.2609  2.6142 -0.0141
  935MPD2     C13672   2.916   1.159   1.379  0.3198  0.4486  0.4518
  935MPD2    C113673   2.793   1.128   1.322  0.1950  0.4544 -0.1665
  935MPD2    C213674   2.687   1.208   1.348  0.1832 -0.1364  0.4171
  935MPD2    C313675   2.695   1.321   1.427  0.0617 -0.1584  0.1751
  935MPD2    C413676   2.818   1.349   1.481  0.0009 -0.6704  0.4605
  935MPD2    C513677   2.928   1.267   1.455  0.3411 -0.3216  0.1951
  935MPD2     H13678   2.589   1.178   1.312  1.3997 -3.1305 -0.3831
  935MPD2    H113679   2.827   1.419   1.563  1.6908 -0.6180  0.2303
  935MPD2    H213680   3.001   1.092   1.380 -0.4170 -0.4524  1.7162
  935MPD2    H313681   3.014   1.289   1.517 -0.6507  0.1542  1.4081
  935MPD2     N13682   2.593   1.407   1.475  0.4229  0.1847  0.2203
  935MPD2    H513683   2.610   1.475   1.549  0.6964  0.1291  0.2077
  935MPD2    N113684   2.779   1.015   1.240 -0.1742 -0.2636  0.0464
  935MPD2    H713685   2.684   0.997   1.208 -0.2022  2.0239 -1.1521
  936MPD2     C13686   1.341   3.707  12.434  0.5063  0.1464  0.0983
  936MPD2    C113687   1.406   3.600  12.492 -0.2915 -0.2250  0.2203
  936MPD2    C213688   1.542   3.614  12.508 -0.0897  0.2891  0.0162
  936MPD2    C313689   1.611   3.731  12.486 -0.3765  0.2134 -0.0085
  936MPD2    C413690   1.543   3.836  12.431  0.4267 -0.0707  0.0188
  936MPD2    C513691   1.413   3.819  12.407 -0.0884  0.6840  0.1587
  936MPD2     H13692   1.592   3.531  12.558 -0.6438  0.7064  1.2658
  936MPD2    H113693   1.590   3.930  12.406  1.8855 -0.6797  0.5177
  936MPD2    H213694   1.235   3.705  12.410 -0.2097 -0.9383  3.3392
  936MPD2    H313695   1.365   3.910  12.371 -1.1711 -0.5645 -1.5923
  936MPD2     N13696   1.746   3.753  12.518 -0.2185  0.4226  0.1234
  936MPD2    H513697   1.782   3.846  12.502 -0.1638  0.4653  0.4888
  936MPD2    N113698   1.347   3.474  12.546 -0.1560  0.5973  0.1216
  936MPD2    H713699   1.407   3.410  12.597  1.4667  2.1565  0.1657
  937MPD2     C13700   4.067   0.125  11.877 -0.6773  0.7249 -0.4075
  937MPD2    C113701   4.143   0.237  11.916  0.0272  0.0268 -0.4938
  937MPD2    C213702   4.216   0.304  11.819  0.5914  0.7679 -0.0972
  937MPD2    C313703   4.241   0.244  11.697  0.3075  0.2257 -0.5781
  937MPD2    C413704   4.186   0.120  11.673 -0.2035 -0.4256  0.2433
  937MPD2    C513705   4.095   0.062  11.756 -0.0598  0.0178  0.0765
  937MPD2     H13706   4.253   0.404  11.842  0.9937  0.1765  1.8313
  937MPD2    H113707   4.208   0.065  11.582 -0.8184  0.5485 -0.4882
  937MPD2    H213708   3.985   0.082  11.933 -0.2200 -0.5141 -0.6957
  937MPD2    H313709   4.034   4.698  11.731 -1.9074  1.4806 -0.3354
  937MPD2     N13710   4.323   0.311  11.609  0.1119  0.1389  1.1766
  937MPD2    H513711   4.359   0.399  11.643 -2.8311  1.9462 -0.4415
  937MPD2    N113712   4.116   0.309  12.031 -0.3744 -0.2755  0.1615
  937MPD2    H713713   4.168   0.396  12.038  0.5606 -0.8941  0.9030
  938MPD2     C13714   1.817   1.457   0.849  0.5261  0.0987  0.2511
  938MPD2    C113715   1.696   1.530   0.864  0.1054  0.4248 -1.0458
  938MPD2    C213716   1.590   1.466   0.925  1.0811  0.5249  0.5354
  938MPD2    C313717   1.610   1.340   0.991  0.3727 -0.5708  0.4220
  938MPD2    C413718   1.723   1.269   0.967 -0.6350  0.3215 -0.2982
  938MPD2    C513719   1.827   1.330   0.893  0.0191  0.1848 -0.8287
  938MPD2     H13720   1.499   1.519   0.948 -0.1751 -0.8586 -1.2264
  938MPD2    H113721   1.734   1.167   1.001 -2.2306 -0.1502 -1.2371
  938MPD2    H213722   1.894   1.502   0.787  0.3503 -0.4704 -0.3788
  938MPD2    H313723   1.918   1.273   0.888  0.3458  0.7382 -1.1621
  938MPD2     N13724   1.508   1.273   1.071 -0.3171  0.7912 -0.1188
  938MPD2    H513725   1.537   1.197   1.132 -2.1826  0.2534  0.0991
  938MPD2    N113726   1.690   1.666   0.818 -0.2414 -0.1955  0.4983
  938MPD2    H713727   1.784   1.701   0.803 -0.9301  0.7301 -1.6022
  939MPD2     C13728   3.055   2.550   1.231 -0.3379  0.0780  0.8311
  939MPD2    C113729   3.117   2.654   1.287 -0.4942  0.3035 -0.5591
  939MPD2    C213730   3.239   2.704   1.243  0.5826  0.1079  0.5015
  939MPD2    C313731   3.296   2.651   1.132  0.3967 -0.8413  0.4897
  939MPD2    C413732   3.236   2.535   1.074 -0.0521  0.3627 -0.2722
  939MPD2    C513733   3.118   2.490   1.127 -0.5002 -0.3013  0.0697
  939MPD2     H13734   3.288   2.785   1.296 -0.7699  1.5102 -0.3900
  939MPD2    H113735   3.270   2.482   0.986 -2.9699  1.6844 -2.1952
  939MPD2    H213736   2.963   2.512   1.272 -0.2478 -2.1050 -0.9714
  939MPD2    H313737   3.070   2.405   1.078 -1.4631  0.2141  0.1167
  939MPD2     N13738   3.405   2.721   1.079  0.0232 -0.1007 -0.2295
  939MPD2    H513739   3.434   2.809   1.122 -0.3807 -0.1987  0.2459
  939MPD2    N113740   3.040   2.716   1.387 -0.4255 -0.5762 -0.1231
  939MPD2    H713741   2.943   2.689   1.402 -0.7034  0.2659 -0.3979
  940MPD2     C13742   1.825   3.198  12.974  0.1218  0.4985 -0.6517
  940MPD2    C113743   1.938   3.236  13.051  0.1843  0.0671  0.3439
  940MPD2    C213744   2.055   3.268  12.989 -0.0171 -0.7888 -0.2534
  940MPD2    C313745   2.054   3.272  12.852  0.4940 -0.2772  0.0753
  940MPD2    C413746   1.945   3.230  12.777  0.1513  0.2829  0.0156
  940MPD2    C513747   1.832   3.193  12.836 -0.5224  1.1631 -0.3978
  940MPD2     H13748   2.139   3.295  13.051 -0.9865  0.0949  0.6815
  940MPD2    H113749   1.958   3.220  12.670 -0.7609  0.0163 -0.0704
  940MPD2    H213750   1.730   3.175  13.021  1.4994  0.0711  1.9363
  940MPD2    H313751   1.742   3.164  12.784  0.3260 -2.9514  0.3647
  940MPD2     N13752   2.163   3.314  12.775  0.2893 -0.3639 -0.9077
  940MPD2    H513753   2.155   3.280  12.680 -1.9794 -1.1904 -0.4340
  940MPD2    N113754   1.942   3.248  13.192  0.0263  0.0602  0.3198
  940MPD2    H713755   2.029   3.284  13.231  0.1602 -0.6670  0.6819
  941MPD2     C13756   1.167   2.722   9.276 -0.1387 -0.0385  0.2627
  941MPD2    C113757   1.235   2.691   9.398 -1.2591 -0.0333  0.2001
  941MPD2    C213758   1.248   2.565   9.441 -0.0635 -0.9159 -0.1877
  941MPD2    C313759   1.204   2.465   9.360 -0.1522 -0.1850 -0.6240
  941MPD2    C413760   1.130   2.493   9.248 -0.2680 -0.1093  0.2557
  941MPD2    C513761   1.111   2.621   9.204  0.2482 -0.0468  0.3316
  941MPD2     H13762   1.287   2.543   9.540 -0.4956  3.0697  0.8803
  941MPD2    H113763   1.091   2.413   9.185 -0.3986  0.6472 -0.6268
  941MPD2    H213764   1.157   2.823   9.238  0.1977 -0.2349 -0.3569
  941MPD2    H313765   1.052   2.651   9.118  1.0901 -0.5280 -0.4199
  941MPD2     N13766   1.224   2.332   9.399  0.2304 -0.2028 -0.3169
  941MPD2    H513767   1.174   2.263   9.344 -2.3099  1.6626 -0.3534
  941MPD2    N113768   1.295   2.794   9.485  0.0389 -0.0165  0.0271
  941MPD2    H713769   1.340   2.759   9.569 -0.6388 -1.2133 -0.1144
  942MPD2     C13770   3.064   4.540   8.561 -0.0865  0.5945 -0.8111
  942MPD2    C113771   3.012   4.429   8.629  0.0724  0.5923  0.4713
  942MPD2    C213772   2.874   4.429   8.647  0.6221  0.4096 -0.5720
  942MPD2    C313773   2.791   4.531   8.600  0.7524  0.1397 -0.4779
  942MPD2    C413774   2.848   4.637   8.531  0.2786 -0.2089 -0.6262
  942MPD2    C513775   2.984   4.646   8.516 -0.2112  0.1371  0.4799
  942MPD2     H13776   2.840   4.341   8.699  0.6439  1.7356  1.7172
  942MPD2    H113777   2.780   4.716   8.501  1.0753  0.8572  0.3714
  942MPD2    H213778   3.171   4.542   8.544  0.0663 -0.6094 -0.0295
  942MPD2    H313779   3.028   0.008   8.463  1.6202 -0.3515  1.2287
  942MPD2     N13780   2.656   4.534   8.627 -0.5043  0.0599  0.2413
  942MPD2    H513781   2.609   4.614   8.585  0.9188  0.2263 -0.9913
  942MPD2    N113782   3.083   4.327   8.691  0.3026  0.2727  0.3275
  942MPD2    H713783   3.021   4.256   8.729  0.0761 -0.1324 -0.8180
  943MPD2     C13784   2.964   1.323   9.461  0.3954 -0.4766  0.2629
  943MPD2    C113785   3.091   1.281   9.486  0.1368 -0.0177  0.0262
  943MPD2    C213786   3.194   1.378   9.506 -0.7831 -0.0046  0.0317
  943MPD2    C313787   3.159   1.511   9.492  0.1289 -0.2550  0.0784
  943MPD2    C413788   3.028   1.550   9.461  0.7648 -0.2785  0.1982
  943MPD2    C513789   2.933   1.457   9.450  0.0402  0.6207  0.7127
  943MPD2     H13790   3.293   1.347   9.539 -0.0506  2.4596  0.1503
  943MPD2    H113791   2.987   1.650   9.462 -0.5473 -0.8160 -0.6031
  943MPD2    H213792   2.884   1.251   9.450 -1.0271  1.1880 -0.2631
  943MPD2    H313793   2.829   1.487   9.450 -0.4323 -1.0113  1.1417
  943MPD2     N13794   3.243   1.616   9.516 -0.5816  0.5257 -0.5966
  943MPD2    H513795   3.200   1.704   9.491 -0.6577  0.7963  0.5027
  943MPD2    N113796   3.116   1.140   9.483 -0.3851 -0.3616 -0.3392
  943MPD2    H713797   3.038   1.077   9.470 -0.1465 -0.6050 -0.5652
  944MPD2     C13798   0.276   1.771  11.332 -0.9368  0.0145 -0.9122
  944MPD2    C113799   0.159   1.730  11.389 -0.3153  0.3910  0.5195
  944MPD2    C213800   0.065   1.830  11.412  0.4632 -0.2656 -0.4501
  944MPD2    C313801   0.094   1.965  11.397  0.0120 -0.0789 -0.6500
  944MPD2    C413802   0.217   2.001  11.349  0.3726 -0.1326 -0.2106
  944MPD2    C513803   0.302   1.903  11.313 -0.5209  0.1803  0.9972
  944MPD2     H13804   4.697   1.801  11.465  0.8902 -0.9099 -0.0803
  944MPD2    H113805   0.246   2.106  11.347 -1.6618  0.4173 -2.0407
  944MPD2    H213806   0.351   1.697  11.308 -0.1734 -0.2748  2.2429
  944MPD2    H313807   0.397   1.942  11.279 -0.4065 -1.2548 -0.3369
  944MPD2     N13808   4.717   2.064  11.441 -0.4853 -1.5208 -0.2662
  944MPD2    H513809   4.637   2.032  11.495 -0.9862  1.7142  0.9368
  944MPD2    N113810   0.148   1.588  11.405 -0.3702 -0.7308 -0.1041
  944MPD2    H713811   0.222   1.522  11.383 -1.9701 -2.7196  0.4794
    1TCq1    O113812   3.077   2.400  14.060  0.1736 -0.4192 -0.3589
    1TCq1    C113813   2.953   2.355  14.090 -0.0183 -0.2172  0.3840
    1TCq1    O213814   2.871   2.324  14.007 -0.5558  0.6549 -0.4211
    1TCq1    C213815   2.920   2.409  14.222  0.3548 -0.5246  0.0030
    1TCq1    C313816   2.798   2.475  14.229  0.2387  0.1814  0.3973
    1TCq1    C413817   2.767   2.557  14.341 -0.3752 -0.0443  0.1902
    1TCq1    C513818   2.865   2.593  14.427 -0.2315  0.3273  0.4072
    1TCq1    C613819   2.985   2.534  14.406 -0.4747  0.8302 -0.2270
    1TCq1    C713820   3.018   2.445  14.309  0.3527 -0.5534  0.0508
    1TCq1    C813821   3.105   2.583  14.485  0.4201 -0.3663 -0.3147
    1TCq1    O413822   3.203   2.512  14.481 -0.1257 -0.1390  0.8971
    1TCq1    C913823   2.636   2.602  14.369 -0.1165 -0.4691 -0.3145
    1TCq1    O513824   2.611   2.688  14.457 -0.0129  0.2366 -0.4981
    1TCq1    O613825   2.540   2.546  14.308  0.1607  0.4615 -0.0109
    1TCq1    H113826   3.106   2.442  14.144 -0.6037  1.0128 -0.8108
    1TCq1    H213827   2.718   2.466  14.156  1.3104 -0.1154 -0.7462
    1TCq1    H313828   2.838   2.639  14.522 -1.1306 -2.2509  1.3913
    1TCq1    H413829   3.117   2.400  14.304  0.3807 -0.2974 -1.8619
    2MPD2     C13830   3.258   2.873  14.877 -0.8557  0.2316 -0.1527
    2MPD2    C113831   3.151   2.932  14.814  0.1685  0.0338  0.0889
    2MPD2    C213832   3.095   2.877  14.703  0.6738 -0.2337 -0.6663
    2MPD2    C313833   3.143   2.748  14.663  0.3330  0.1904  0.0221
    2MPD2    C413834   3.246   2.687  14.733  0.1466  0.0509  1.2159
    2MPD2    C513835   3.302   2.749  14.838  0.0756 -0.4540 -0.3128
    2MPD2     H13836   3.034   2.932  14.631 -0.2069 -1.6374 -0.9942
    2MPD2    H113837   3.274   2.586  14.704  1.4087  1.1474 -1.3776
    2MPD2    H213838   3.312   2.938  14.945 -0.1075 -1.6151  1.0357
    2MPD2    H313839   3.384   2.703  14.891  0.5631 -2.1187 -2.4787
    2MPD2     N13840   3.075   2.699  14.553  0.1831 -0.4509  0.3856
    2MPD2    H513841   2.999   2.759  14.523 -0.2253  0.0148  2.3742
    2MPD2    N113842   3.108   3.055  14.854  0.1576  0.2662 -0.0035
    2MPD2    H713843   3.166   3.103  14.923 -0.2315 -1.0448  1.2332
    3TMC2    C113844   2.964   3.249  14.868  0.5915 -0.3291 -0.0934
    3TMC2    C213845   3.038   3.300  14.970 -0.4710  0.7339  0.0365
    3TMC2    C313846   2.995   3.412  15.028  0.3886 -0.5651  0.3394
    3TMC2    C413847   2.841   3.303  14.842 -0.4732  0.1020 -0.4756
    3TMC2    C513848   2.798   3.407  14.911 -0.5472  0.0484 -0.2899
    3TMC2    C613849   2.870   3.469  15.007  0.0250  0.5255  0.1074
    3TMC2     C13850   2.991   3.118  14.812 -0.5681 -0.0155  0.0994
    3TMC2     O13851   2.899   3.078  14.744 -0.3647  0.2629 -0.4833
    3TMC2     H13852   3.134   3.261  15.002 -0.1372  2.3735  1.0427
    3TMC2    H113853   2.777   3.252  14.771 -1.7053 -1.1262  1.4735
    3TMC2    H213854   2.822   3.548  15.065  1.1246  1.9331 -0.9065
    3TMC2    C713855   2.660   3.445  14.895 -0.0600  0.0591  0.6304
    3TMC2    C813856   3.090   3.476  15.112  0.1951  0.1714 -0.1231
    3TMC2    O113857   2.596   3.481  14.993  0.6336 -0.2690  0.4342
    3TMC2    O213858   3.184   3.414  15.162  0.3018 -0.1019  0.7596
    3TMC2    O513859   3.027   3.581  15.167 -0.9540 -0.1370  0.0879
    3TMC2    H513860   2.984   3.633  15.095  1.3464 -0.1332 -1.2899
    4MPD2     C13861   1.776   4.140  13.877  0.1129 -0.7439 -0.3010
    4MPD2    C113862   1.853   4.122  13.766  0.4906  0.0541  0.4631
    4MPD2    C213863   1.964   4.039  13.782 -0.8810  0.1653 -0.4887
    4MPD2    C313864   2.000   3.989  13.904  0.0942 -0.5245 -0.5807
    4MPD2    C413865   1.930   4.025  14.017  0.9848  0.0385 -0.3509
    4MPD2    C513866   1.816   4.098  14.002  0.0646  0.3542  0.4204
    4MPD2     H13867   2.028   4.015  13.698 -1.6676 -0.0909 -1.0104
    4MPD2    H113868   1.973   3.998  14.113 -2.0142 -0.1850  0.9149
    4MPD2    H213869   1.672   4.169  13.870  1.0514  2.5451 -0.6724
    4MPD2    H313870   1.751   4.119  14.086  1.2431  1.6832  1.0004
    4MPD2     N13871   2.109   3.899  13.913  0.2664 -0.3963 -0.1831
    4MPD2    H513872   2.175   3.885  13.837 -1.1798  3.4729 -2.1269
    4MPD2    N113873   1.821   4.195  13.650 -0.4069  0.0788  0.0215
    4MPD2    H713874   1.743   4.258  13.659 -0.2493  0.3053 -0.1907
    5TCq2    C113875   2.132   3.820  14.022  0.1157 -0.0016  0.4987
    5TCq2    O213876   2.057   3.790  14.111 -0.0617  0.0671  0.1482
    5TCq2    C213877   2.264   3.757  14.027 -0.2291  0.5099  0.5506
    5TCq2    C313878   2.374   3.795  13.957  0.2403  0.1174 -0.5319
    5TCq2    C413879   2.497   3.732  13.986 -0.5537 -0.3413 -0.4445
    5TCq2    C513880   2.501   3.631  14.075 -0.2367 -0.4166 -0.1975
    5TCq2    C613881   2.390   3.594  14.146  0.1209  0.1010 -0.6798
    5TCq2    C713882   2.268   3.649  14.114  0.3354  0.9206  0.4609
    5TCq2    C813883   2.415   3.533  14.278 -0.6589  0.8955 -0.2113
    5TCq2    O413884   2.523   3.483  14.284  0.0237  0.0055 -0.5996
    5TCq2    C913885   2.620   3.779  13.928 -0.0195  0.0243 -0.7631
    5TCq2    O513886   2.619   3.884  13.863 -0.0991  0.0219 -0.4905
    5TCq2    O613887   2.710   3.693  13.926  0.0955  0.0250 -0.0984
    5TCq2    H213888   2.371   3.880  13.890  3.5392  1.1559  0.6063
    5TCq2    H313889   2.599   3.593  14.102 -0.1211 -0.7019 -0.9963
    5TCq2    H413890   2.178   3.617  14.166 -1.9753  4.6627 -1.2555
    6MPD1     C13891   1.733   0.917  12.374 -1.4230 -0.0461 -0.2892
    6MPD1    C113892   1.715   0.951  12.504  0.0843  0.7964 -0.3014
    6MPD1    C213893   1.777   0.871  12.606  0.6568  0.2629 -0.4308
    6MPD1    C313894   1.841   0.758  12.579 -0.8611  0.0246 -0.7622
    6MPD1    C413895   1.856   0.719  12.444  0.7115 -0.0575  0.0388
    6MPD1    C513896   1.804   0.806  12.343 -0.7319  0.6275 -0.3876
    6MPD1     H13897   1.766   0.906  12.707  1.5164 -0.7276  0.0127
    6MPD1    H113898   1.909   0.628  12.419  0.2507 -0.1811 -0.4830
    6MPD1    H213899   1.681   0.978  12.301 -1.8875  0.4546  0.4608
    6MPD1    H313900   1.824   0.777  12.241 -0.7977  0.1177 -0.2579
    6MPD1     N13901   1.906   0.677  12.677 -0.0931  0.5450  0.8883
    6MPD1    H513902   1.945   0.589  12.645 -0.7764  0.2008  1.0053
    6MPD1    N113903   1.648   1.070  12.540 -0.2177  0.0601  0.7189
    6MPD1    H613904   1.583   1.114  12.475  1.2248 -0.2226 -0.9223
    6MPD1    H713905   1.621   1.072  12.638 -1.3791  1.8189  0.3497
    7MPD2     C13906   1.852   0.342  13.468  1.1937 -0.0043  0.2576
    7MPD2    C113907   1.831   0.275  13.348 -0.0596 -0.3391 -0.4310
    7MPD2    C213908   1.788   0.145  13.349  0.1137 -0.4020 -0.7361
    7MPD2    C313909   1.762   0.079  13.466 -0.5613 -0.3899 -0.4860
    7MPD2    C413910   1.785   0.145  13.585  0.2097  0.2956 -0.0530
    7MPD2    C513911   1.824   0.278  13.586  0.2974  0.8399 -0.5813
    7MPD2     H13912   1.785   0.091  13.256 -0.6244  0.3592 -1.1549
    7MPD2    H113913   1.757   0.098  13.679 -0.3222 -0.8720 -0.7915
    7MPD2    H213914   1.873   0.448  13.473 -0.3086  0.2796  0.6418
    7MPD2    H313915   1.838   0.330  13.680  1.6099  0.5421 -0.6033
    7MPD2     N13916   1.717   4.669  13.479  0.0857 -0.8747  0.4976
    7MPD2    H513917   1.731   4.625  13.569  0.9434  1.9336  1.7206
    7MPD2    N113918   1.853   0.346  13.228 -0.5708  0.8419  0.2411
    7MPD2    H713919   1.836   0.293  13.143 -0.0812  0.2418  0.5174
    8TMC3    C113920   1.681   4.455  13.371 -0.2883  0.3088 -0.0640
    8TMC3    C213921   1.748   4.389  13.469 -0.2726  0.2641 -0.5006
    8TMC3    C313922   1.818   4.284  13.429  0.0411 -1.3578 -0.4798
    8TMC3    C413923   1.665   4.407  13.243  0.0463 -0.0886  0.1020
    8TMC3    C513924   1.755   4.306  13.205  0.3537 -0.1050 -0.2705
    8TMC3    C613925   1.823   4.240  13.302  0.3826  0.4079  0.1777
    8TMC3     C13926   1.669   4.601  13.371 -0.5749 -0.1213  0.2229
    8TMC3     O13927   1.628   4.645  13.265  0.2832  0.3704 -0.2857
    8TMC3     H13928   1.744   4.417  13.574 -2.1190 -0.1005 -0.4659
    8TMC3    H113929   1.600   4.449  13.167  0.6123  2.4825  1.0050
    8TMC3    H213930   1.882   4.155  13.269  2.5838  1.6761  0.9182
    8TMC3    C713931   1.822   4.329  13.077 -0.0413  0.2601 -0.2640
    8TMC3    C813932   1.885   4.201  13.526 -0.2715  0.1933  0.1862
    8TMC3    O113933   1.892   4.238  13.033 -0.2947  0.3424  0.1756
    8TMC3    O213934   1.972   4.130  13.489  0.5137  0.1505  0.2033
    9TMC3    C113935   1.996   0.591  12.872  0.4559 -0.2583 -0.7327
    9TMC3    C213936   2.021   0.481  12.796  0.1706 -0.5465  0.0870
    9TMC3    C313937   2.018   0.361  12.864  0.7589 -0.0357 -0.2239
    9TMC3    C413938   1.988   0.592  13.011  0.4722  0.3002 -0.3547
    9TMC3    C513939   1.979   0.469  13.073 -0.2820 -0.4120  0.0243
    9TMC3    C613940   1.985   0.351  13.002 -0.1446  0.0011  0.0223
    9TMC3     C13941   1.932   0.704  12.806  0.2113 -0.1944  0.5681
    9TMC3     O13942   1.896   0.801  12.870 -0.4143  0.0802  0.0621
    9TMC3     H13943   2.045   0.488  12.690 -0.3886 -0.1130 -0.0104
    9TMC3    H113944   1.994   0.683  13.070  0.5043  1.1134 -1.5911
    9TMC3    H213945   2.012   0.268  13.066  0.8667  0.1080 -0.2561
    9TMC3    C713946   1.928   0.462  13.211  0.0723 -0.5910 -0.4660
    9TMC3    C813947   2.014   0.243  12.781  0.4701  0.1716 -0.2072
    9TMC3    O113948   1.946   0.559  13.284 -0.4794  0.1278  0.0857
    9TMC3    O213949   2.090   0.231  12.681  0.2774  0.5491  0.6568
   10MPD2     C13950   1.978   4.461  12.850 -0.5977 -0.8808 -0.5392
   10MPD2    C113951   1.888   4.518  12.932 -0.4275  0.3338 -0.1312
   10MPD2    C213952   1.869   4.652  12.909 -0.2380 -0.2292  0.4409
   10MPD2    C313953   1.940   0.012  12.819 -0.5563 -0.1347 -0.8106
   10MPD2    C413954   2.016   4.668  12.728 -0.4607 -0.0825 -0.4951
   10MPD2    C513955   2.037   4.532  12.749  0.2111 -0.0679 -0.4606
   10MPD2     H13956   1.791   4.695  12.970  0.7784  0.0217  1.5870
   10MPD2    H113957   2.071   4.719  12.650  0.0860 -1.1248 -0.7938
   10MPD2    H213958   2.020   4.361  12.856 -0.4421 -0.8331 -0.7839
   10MPD2    H313959   2.102   4.477  12.681 -0.7560 -0.9990 -0.6333
   10MPD2     N13960   1.935   0.151  12.842  0.0256  0.1326 -0.7116
   10MPD2    H513961   1.890   0.191  12.924  0.4504  2.1704 -1.4833
   10MPD2    N113962   1.807   4.457  13.032  0.6187  0.3062  0.4440
   10MPD2    H713963   1.744   4.512  13.089 -0.5720  0.2185 -0.8029
   11MPD2     C13964   2.383   3.509  14.802 -0.8718  0.4279  0.0074
   11MPD2    C113965   2.493   3.490  14.713  0.5786  0.3264  0.4056
   11MPD2    C213966   2.478   3.496  14.575  1.0904  0.0924  0.0542
   11MPD2    C313967   2.356   3.534  14.522  0.2013  0.0449 -0.1057
   11MPD2    C413968   2.249   3.560  14.609 -0.1024  0.0659 -0.1658
   11MPD2    C513969   2.264   3.556  14.744  0.7488  0.4809 -0.6396
   11MPD2     H13970   2.565   3.496  14.511  0.7721 -2.8189 -0.3653
   11MPD2    H113971   2.154   3.596  14.571  0.3537 -0.7565 -2.0994
   11MPD2    H213972   2.394   3.482  14.907 -1.1813 -0.1698 -0.1124
   11MPD2    H313973   2.176   3.561  14.807  1.0014  1.3372 -0.3452
   11MPD2     N13974   2.328   3.562  14.384  0.2606  0.8094 -0.0832
   11MPD2    H513975   2.245   3.617  14.371 -0.5530 -0.8669 -1.9506
   11MPD2    N113976   2.622   3.453  14.761  0.5471  0.0445 -0.9250
   11MPD2    H713977   2.684   3.440  14.682  0.6739 -0.4048 -0.7569
    1MPD1     C13978   4.684   4.341   0.162 -0.2686  0.1100  0.2703
    1MPD1    C113979   4.680   4.461   0.235 -0.0379  0.4439  0.4530
    1MPD1    C213980   4.697   4.582   0.167 -0.3959 -0.5074 -0.1293
    1MPD1    C313981   4.721   4.587   0.033  0.6455 -0.7197  0.3442
    1MPD1    C413982   0.015   4.468  17.654  0.2779  0.2053  0.2229
    1MPD1    C513983   4.715   4.347   0.026 -0.5243  1.0467 -0.1119
    1MPD1     H13984   4.683   4.671   0.229 -2.0431 -0.0758 -1.1195
    1MPD1    H113985   0.034   4.472  17.547  0.1410  0.3354  0.2038
    1MPD1    H213986   4.684   4.245   0.214  0.6113  0.9334  1.8067
    1MPD1    H313987   0.001   4.253  17.661 -1.6333  0.7723  0.2309
    1MPD1     N13988   4.714   4.708  17.648 -0.3880  0.3620  0.5027
    1MPD1    H513989   4.719   4.692  17.548  0.3403  0.0631  0.5869
    1MPD1    N113990   4.638   4.458   0.368 -0.0815  0.0489 -0.1188
    1MPD1    H613991   4.678   4.529   0.430 -0.6137  0.2953 -0.0576
    1MPD1    H713992   4.653   4.374   0.423 -1.8940 -0.5212 -0.4826
    2MPD1     C13993   0.668   0.658  17.487  0.1442  0.2972 -0.6601
    2MPD1    C113994   0.670   0.525  17.528 -0.3815 -0.2369 -0.5325
    2MPD1    C213995   0.544   0.473  17.562  0.3817 -0.0338 -0.3554
    2MPD1    C313996   0.430   0.550  17.544  0.5297  0.3707  0.1984
    2MPD1    C413997   0.435   0.681  17.498  0.4294  0.1304 -0.2323
    2MPD1    C513998   0.558   0.736  17.486 -0.3894  1.0357 -0.1282
    2MPD1     H13999   0.540   0.374  17.606 -2.5822  0.1901 -0.1488
    2MPD1    H114000   0.348   0.746  17.495  0.1234 -0.3731 -1.8718
    2MPD1    H214001   0.751   0.717  17.449  0.2832 -0.3853 -1.4147
    2MPD1    H314002   0.568   0.841  17.460  0.4983  0.7225 -1.0543
    2MPD1     N14003   0.309   0.482  17.556  0.0194 -0.1732 -0.2494
    2MPD1    H514004   0.302   0.386  17.587  1.1515 -0.3449 -0.5218
    2MPD1    N114005   0.777   0.439  17.496 -0.1297  0.1703 -0.2990
    2MPD1    H614006   0.781   0.364  17.565 -3.2862  0.4554  0.1974
    2MPD1    H714007   0.850   0.506  17.517 -0.4054 -0.0079  1.2199
    3TMC3    C114008   0.093   0.423  17.509  0.0900 -0.1493 -0.3924
    3TMC3    C214009   4.703   0.434  17.427  0.4444  0.4888 -0.0386
    3TMC3    C314010   4.618   0.324  17.421  0.7413 -0.6989 -0.5758
    3TMC3    C414011   0.094   0.316  17.603 -0.4885  0.4201 -0.4866
    3TMC3    C514012   0.010   0.211  17.594  0.3853 -0.3686  0.1711
    3TMC3    C614013   4.629   0.214  17.506  1.0409 -0.2754 -0.7237
    3TMC3     C14014   0.188   0.526  17.507  0.1433 -1.1691  0.6529
    3TMC3     O14015   0.163   0.633  17.460 -0.1044 -0.4066 -0.3371
    3TMC3     H14016   4.684   0.528  17.375  2.9722  0.9692 -0.0953
    3TMC3    H114017   0.181   0.303  17.667 -0.5614 -1.4497 -0.7752
    3TMC3    H214018   4.556   0.134  17.504  2.1631 -1.2983 -0.2520
    3TMC3    C714019   0.005   0.114   0.006 -0.0329 -0.8488  0.6750
    3TMC3    C814020   4.482   0.350  17.375  0.1842 -0.0761  0.4709
    3TMC3    O114021   0.036   0.151   0.119 -0.5504  0.4209 -0.0716
    3TMC3    O214022   4.389   0.293  17.432  0.1002  0.1878 -0.4026
    4MPD1     C14023   4.160   0.565  17.045  0.6288  0.0118 -0.1538
    4MPD1    C114024   4.270   0.650  17.059 -0.0126  0.3263  0.2787
    4MPD1    C214025   4.376   0.607  17.140  0.1154 -0.9385 -0.2466
    4MPD1    C314026   4.361   0.493  17.213 -0.0050 -0.2734  0.0967
    4MPD1    C414027   4.242   0.419  17.210  0.3501 -0.1014 -0.3247
    4MPD1    C514028   4.137   0.460  17.129 -0.6895 -0.7040 -0.0848
    4MPD1     H14029   4.470   0.661  17.143 -1.5880  2.1187 -2.9195
    4MPD1    H114030   4.233   0.332  17.275  0.0558  0.4494  0.3697
    4MPD1    H214031   4.094   0.594  16.964  1.1841  0.8199 -0.3186
    4MPD1    H314032   4.044   0.406  17.116 -2.3657  2.5099 -1.3680
    4MPD1     N14033   4.472   0.452  17.287  0.3825 -0.6707  0.1795
    4MPD1    H514034   4.557   0.505  17.268  0.9760 -1.3246  1.0252
    4MPD1    N114035   4.287   0.752  16.964  0.4421  0.1977  0.5256
    4MPD1    H614036   4.334   0.835  16.999  0.1665  0.0457  1.2613
    4MPD1    H714037   4.199   0.780  16.922 -1.0306 -1.1858  2.7025
    1TCq1    O114038   1.438   4.334  13.008  0.2024 -0.0609  0.2807
    1TCq1    C114039   1.455   4.359  12.878 -0.4142  0.2540 -0.6091
    1TCq1    O214040   1.527   4.291  12.808 -0.2271  0.4423 -0.2691
    1TCq1    C214041   1.366   4.461  12.826 -0.2240  0.2681  0.0057
    1TCq1    C314042   1.359   4.561  12.907 -0.1068 -0.7509  0.4300
    1TCq1    C414043   1.336   4.688  12.845 -0.1052  0.3329  0.6135
    1TCq1    C514044   1.295   4.700  12.714  0.1599  0.0241  0.1919
    1TCq1    C614045   1.292   4.581  12.637  0.0584 -0.1373  0.1819
    1TCq1    C714046   1.331   4.466  12.697 -0.5650  0.1172 -0.4383
    1TCq1    C814047   1.197   4.580  12.528  0.6912 -0.5556 -0.4797
    1TCq1    O414048   1.107   4.665  12.536 -0.7101  0.4448  0.0004
    1TCq1    C914049   1.311   0.076  12.934  0.3525 -0.3093 -0.6321
    1TCq1    O514050   1.311   0.057  13.056 -0.4452 -0.3947 -0.0698
    1TCq1    O614051   1.281   0.184  12.871  0.3157 -0.0315  0.8984
    1TCq1    H114052   1.360   4.369  13.058 -0.3550  1.0965 -1.4060
    1TCq1    H214053   1.402   4.561  13.007 -0.7783 -0.3322  0.7227
    1TCq1    H314054   1.257   0.069  12.668 -0.2238  1.1004  2.6582
    1TCq1    H414055   1.336   4.376  12.637  0.1029  1.0362 -1.7681
    2MPD1     C14056   1.130   4.594  12.035 -0.3015 -0.7180  0.3787
    2MPD1    C114057   1.251   4.530  12.064 -0.8352 -0.1397  1.0379
    2MPD1    C214058   1.278   4.486  12.190  1.0159 -0.1763 -0.6245
    2MPD1    C314059   1.188   4.518  12.298 -1.0726  0.0478  0.8114
    2MPD1    C414060   1.066   4.575  12.269  0.3345  0.2193  0.2305
    2MPD1    C514061   1.043   4.607  12.139 -0.1527 -0.2719 -0.5755
    2MPD1     H14062   1.365   4.423  12.203  0.8614 -0.8065 -2.6582
    2MPD1    H114063   0.982   4.586  12.337  0.1860  0.3571  0.0215
    2MPD1    H214064   1.101   4.634  11.938  2.3706  2.8084  1.0316
    2MPD1    H314065   0.949   4.655  12.115 -0.1591 -0.2790 -0.5651
    2MPD1     N14066   1.231   4.498  12.430 -0.2336  0.0170  0.1507
    2MPD1    H514067   1.310   4.437  12.448 -0.3081 -0.2120 -0.2820
    2MPD1    N114068   1.343   4.505  11.963  0.5899 -0.4480  0.0450
    2MPD1    H614069   1.434   4.492  12.007  0.0571  0.0816  1.3239
    2MPD1    H714070   1.349   4.588  11.905 -2.6469 -0.9843 -1.0150
    1TCq1    O114071   0.590   0.477   1.430 -0.2161 -0.3096 -1.0890
    1TCq1    C114072   0.553   0.497   1.301 -0.4525 -0.1046 -0.4681
    1TCq1    O214073   0.617   0.550   1.210 -0.2746  0.3574  0.1255
    1TCq1    C214074   0.445   0.402   1.273  0.0717  0.0034 -0.1220
    1TCq1    C314075   0.411   0.297   1.355  0.2208 -0.3945 -0.1119
    1TCq1    C414076   0.318   0.210   1.308 -0.1467  0.0586 -0.3770
    1TCq1    C514077   0.246   0.239   1.192  0.3524 -1.4471  0.1623
    1TCq1    C614078   0.280   0.341   1.111 -0.2136  1.0499 -0.3945
    1TCq1    C714079   0.385   0.421   1.147  0.3302  0.4672 -0.1555
    1TCq1    C814080   0.189   0.398   1.012  0.0913  0.4661 -0.0049
    1TCq1    O414081   0.072   0.361   1.012 -0.0072 -0.6136 -0.2626
    1TCq1    C914082   0.255   0.111   1.396 -0.4095  0.0016 -0.0583
    1TCq1    O514083   0.175   0.027   1.345  0.5164 -0.2523 -0.0664
    1TCq1    O614084   0.280   0.132   1.516 -0.1280 -0.1064  0.2729
    1TCq1    H114085   0.523   0.436   1.489  2.0442 -2.7992 -0.2494
    1TCq1    H214086   0.470   0.273   1.442  0.2323  3.1014  0.8574
    1TCq1    H314087   0.149   0.193   1.177  0.3469 -1.1450 -0.7104
    1TCq1    H414088   0.422   0.504   1.088 -0.0676  3.0405  3.2658
    2MPD1     C14089   0.058   0.683   0.607  0.2762  0.0605 -0.3354
    2MPD1    C114090   0.189   0.715   0.638 -0.1216  0.1175  0.5871
    2MPD1    C214091   0.255   0.641   0.739  0.7170 -0.1776  0.2663
    2MPD1    C314092   0.176   0.559   0.820 -0.0426 -0.0323  0.3470
    2MPD1    C414093   0.041   0.537   0.795 -0.2077  0.1927 -0.2254
    2MPD1    C514094   4.701   0.604   0.688 -0.6042  0.1341  0.6959
    2MPD1     H14095   0.360   0.661   0.757  0.5749  1.4442 -0.6235
    2MPD1    H114096   4.700   0.464   0.844  1.8737 -2.0297 -0.8968
    2MPD1    H214097   0.009   0.730   0.523 -1.1859 -0.4126  0.2546
    2MPD1    H314098   4.598   0.576   0.668 -0.6570 -0.1521  1.3973
    2MPD1     N14099   0.242   0.493   0.926 -0.1567 -0.0492 -0.1084
    2MPD1    H514100   0.343   0.505   0.931 -0.3337  0.7452  1.7971
    2MPD1    N114101   0.262   0.796   0.547 -0.2990 -0.1285  1.2561
    2MPD1    H614102   0.200   0.870   0.514 -0.1505 -0.6340 -0.1647
    2MPD1    H714103   0.338   0.849   0.590 -0.5143  0.1990  1.2290
    1MPD1     C14104   2.973   4.550  12.679  0.6521 -0.1534 -0.1363
    1MPD1    C114105   2.960   4.668  12.603  0.4700  0.6055 -0.9915
    1MPD1    C214106   3.068   4.686  12.514  0.1261  0.5160  0.3171
    1MPD1    C314107   3.161   4.582  12.484  0.4145  0.2168 -0.1132
    1MPD1    C414108   3.151   4.464  12.546 -0.6956 -0.4673  0.2597
    1MPD1    C514109   3.063   4.446  12.649 -0.4096 -0.0869  0.3522
    1MPD1     H14110   3.071   0.058  12.459 -0.6833  0.3444 -0.0188
    1MPD1    H114111   3.218   4.381  12.528 -0.0074  0.0552  0.4232
    1MPD1    H214112   2.914   4.537  12.769 -0.7894  1.4621 -0.8713
    1MPD1    H314113   3.056   4.353  12.704  1.2545 -1.4917 -1.7956
    1MPD1     N14114   3.268   4.613  12.399  0.2026 -0.4217 -0.4911
    1MPD1    H514115   3.277   4.709  12.367  0.0086 -0.9475 -2.1642
    1MPD1    N114116   2.884   0.057  12.644 -0.0001 -0.9292 -0.2261
    1MPD1    H614117   2.804   0.029  12.701  1.6398 -0.6635  2.2131
    1MPD1    H714118   2.851   0.111  12.565 -1.3240 -1.0232  0.2524
    2MPD1     C14119   2.922   4.578  11.734  0.9569 -0.2581 -0.4686
    2MPD1    C114120   2.810   4.563  11.665  0.0766  0.0945 -0.8066
    2MPD1    C214121   2.792   4.624  11.541  0.3114 -0.0830  0.1660
    2MPD1    C314122   2.893   4.688  11.483 -0.0164  0.3334 -0.2181
    2MPD1    C414123   3.014   4.694  11.548 -0.1110  0.2261 -0.3600
    2MPD1    C514124   3.026   4.634  11.669 -0.4270 -0.1434 -0.4076
    2MPD1     H14125   2.701   4.596  11.489 -0.6782  0.4671  1.5870
    2MPD1    H114126   3.101   0.026  11.511  0.8579 -1.2293 -0.1905
    2MPD1    H214127   2.944   4.523  11.824  0.8222  0.3355 -0.0751
    2MPD1    H314128   3.119   4.656  11.721 -2.3204  1.4765  2.2599
    2MPD1     N14129   2.884   0.025  11.356 -0.1303  0.1198  0.5782
    2MPD1    H514130   2.973   0.051  11.314  1.4560 -1.5340  2.9642
    2MPD1    N114131   2.712   4.475  11.699 -0.3529 -0.6864  0.2810
    2MPD1    H614132   2.617   4.504  11.677  0.9016  1.8872 -1.6897
    2MPD1    H714133   2.709   4.454  11.799 -2.9525  0.5340  0.4463
    3MPD1     C14134   2.508   4.501  10.387  0.0483  0.0099  0.1836
    3MPD1    C114135   2.639   4.537  10.372  0.0684 -0.1994 -0.1870
    3MPD1    C214136   2.696   4.604  10.485 -0.2049 -0.6808  0.3280
    3MPD1    C314137   2.636   4.614  10.607  0.3462  0.3075  0.1055
    3MPD1    C414138   2.503   4.578  10.616 -1.1434  0.1577 -0.7857
    3MPD1    C514139   2.446   4.530  10.505 -0.0382 -0.2244 -0.0348
    3MPD1     H14140   2.797   4.638  10.468 -0.6967  0.4825 -0.2993
    3MPD1    H114141   2.452   4.583  10.712  0.3922 -2.1746  0.1353
    3MPD1    H214142   2.453   4.444  10.313  1.3564 -2.0496  0.7934
    3MPD1    H314143   2.343   4.498  10.510 -0.0276 -0.4895 -1.4000
    3MPD1     N14144   2.716   4.680  10.710 -0.6044  1.0479  0.6068
    3MPD1    H514145   2.814   4.690  10.685 -0.2383 -0.0753  1.6120
    3MPD1    N114146   2.689   4.545  10.247 -0.8195  0.3328 -0.5217
    3MPD1    H614147   2.660   4.468  10.187  1.0825  0.3995 -1.5202
    3MPD1    H714148   2.790   4.556  10.238 -0.5540 -2.4250 -0.9345
    4MPD2     C14149   3.606   0.396  11.981 -0.1201  0.2611  0.2380
    4MPD2    C114150   3.665   0.272  11.977  0.3302 -0.1014  0.0733
    4MPD2    C214151   3.712   0.229  11.856 -0.2605 -0.2803 -0.7555
    4MPD2    C314152   3.686   0.293  11.739  0.1548  0.2928 -0.2092
    4MPD2    C414153   3.621   0.418  11.742 -0.8115 -0.5517 -0.5735
    4MPD2    C514154   3.588   0.468  11.865 -0.3076 -0.2579 -0.1184
    4MPD2     H14155   3.775   0.141  11.862 -1.1122 -0.7177  1.6625
    4MPD2    H114156   3.612   0.482  11.654  0.0124  0.4621  0.0827
    4MPD2    H214157   3.562   0.430  12.074  0.3261  0.4525  0.3761
    4MPD2    H314158   3.539   0.564  11.873 -0.0841 -0.2879  1.7027
    4MPD2     N14159   3.725   0.242  11.614  0.1844  0.1376  0.0591
    4MPD2    H514160   3.710   0.298  11.531 -0.8239  0.5671  0.5344
    4MPD2    N114161   3.681   0.172  12.075  0.8204 -0.3384 -0.0728
    4MPD2    H714162   3.727   0.084  12.053 -1.0740 -1.5463  0.8191
    5TMC3    C114163   3.635   0.052  12.270 -1.0232  0.0386  0.2993
    5TMC3    C214164   3.524   4.719  12.334 -0.0468 -0.8359 -0.8964
    5TMC3    C314165   3.485   4.589  12.306  0.2265 -0.2814  0.7575
    5TMC3    C414166   3.714   4.687  12.196 -0.0044  0.0145 -0.1558
    5TMC3    C514167   3.670   4.567  12.162  0.3276  0.4347  0.6092
    5TMC3    C614168   3.557   4.514  12.214  0.8623  0.2823 -0.1264
    5TMC3     C14169   3.622   0.177  12.198 -0.1915  0.7742 -0.3582
    5TMC3     O14170   3.548   0.263  12.245  0.2026  0.1531  0.6755
    5TMC3     H14171   3.466   0.064  12.398 -0.7556 -2.6256  0.3388
    5TMC3    H114172   3.813   0.001  12.171 -0.0185  0.7806  0.9049
    5TMC3    H214173   3.523   4.418  12.177 -0.0056  0.7158 -0.4409
    5TMC3    C714174   3.709   4.528  12.032  0.3111 -0.2433  0.0037
    5TMC3    C814175   3.362   4.522  12.358  0.0358 -0.4853 -0.4776
    5TMC3    O114176   3.781   4.612  11.974 -0.6644  0.5503  0.2420
    5TMC3    O214177   3.367   4.398  12.362 -0.6850  0.2721 -0.7927
    6TMC3    C114178   2.789   0.074  11.147  0.2510  1.3491  0.0905
    6TMC3    C214179   2.705   0.032  11.048  0.0773  0.2348 -0.6027
    6TMC3    C314180   2.756   0.032  10.922  0.0922 -0.8701  0.4269
    6TMC3    C414181   2.903   0.136  11.118 -0.6992 -0.5313  0.3872
    6TMC3    C514182   2.958   0.122  10.997  0.5407  0.4104 -0.0402
    6TMC3    C614183   2.889   0.069  10.891 -0.8799 -0.9953 -0.0272
    6TMC3     C14184   2.766   0.035  11.280 -0.6279  0.1698  0.3580
    6TMC3     O14185   2.646   0.012  11.306 -0.2057  0.3093  0.0033
    6TMC3     H14186   2.607   4.710  11.066  0.2887  0.6239  1.4500
    6TMC3    H114187   2.961   0.184  11.195 -0.6426  2.5859 -1.6267
    6TMC3    H214188   2.923   0.070  10.788  0.2030 -1.5148  0.3166
    6TMC3    C714189   3.103   0.151  10.982 -0.2571 -0.9646  0.0384
    6TMC3    C814190   2.658   0.005  10.827 -0.0488 -0.3007 -0.2395
    6TMC3    O114191   3.154   0.240  11.053  0.4598 -1.0401  0.0798
    6TMC3    O214192   2.542   0.037  10.847 -0.0218  0.5880 -0.2949
    7MPD2     C14193   3.779   4.266  11.604  0.1147 -0.7950  0.4446
    7MPD2    C114194   3.791   4.401  11.634 -0.9899 -0.3838 -1.1054
    7MPD2    C214195   3.759   4.437  11.757  0.0078  0.1662  0.1878
    7MPD2    C314196   3.718   4.351  11.860  0.2448  0.5618 -0.0852
    7MPD2    C414197   3.709   4.217  11.824  0.5340  0.1684 -0.1946
    7MPD2    C514198   3.714   4.186  11.693 -0.1966  0.1356 -0.9163
    7MPD2     H14199   3.762   4.544  11.775 -1.8627  0.0149  1.3859
    7MPD2    H114200   3.667   4.145  11.892  1.0543  0.2418  0.2066
    7MPD2    H214201   3.785   4.228  11.503 -1.2570  0.4827 -0.1290
    7MPD2    H314202   3.698   4.084  11.658 -0.8100 -0.6286  1.5759
    7MPD2     N14203   3.681   4.397  11.987 -0.7593 -0.2667 -0.0704
    7MPD2    H514204   3.643   4.332  12.054 -0.0928 -0.4768  0.0995
    7MPD2    N114205   3.803   4.498  11.535 -0.1860  0.1694 -0.6569
    7MPD2    H714206   3.803   4.597  11.559  0.3746 -0.2379  0.9967
    8TMC3    C114207   3.844   4.612  11.339 -0.1441 -0.1906  0.1573
    8TMC3    C214208   3.756   4.651  11.247  0.5142 -0.1478  0.0958
    8TMC3    C314209   3.713   0.056  11.246  0.4531  0.3373 -0.5479
    8TMC3    C414210   3.885   4.700  11.432  0.0416  0.0273  0.6288
    8TMC3    C514211   3.824   0.098  11.448  0.6263 -0.0838 -0.0685
    8TMC3    C614212   3.738   0.134  11.359  0.5596 -0.3519  0.6021
    8TMC3     C14213   3.816   4.482  11.402  0.0908 -0.2008 -0.3091
    8TMC3     O14214   3.777   4.394  11.332  0.2130  0.3681  0.1477
    8TMC3     H14215   3.732   4.566  11.183 -1.2656 -0.6924  1.4904
    8TMC3    H114216   3.967   4.670  11.497 -0.0393 -0.7315  0.3741
    8TMC3    H214217   3.689   0.230  11.371  0.3360 -0.3966  0.0190
    8TMC3    C714218   3.787   0.123  11.587 -0.0160  1.0195 -0.3844
    8TMC3    C814219   3.601   0.090  11.160  0.1071 -0.2850 -0.1538
    8TMC3    O114220   3.797   0.022  11.658  0.5840 -0.1213  0.3469
    8TMC3    O214221   3.509   0.155  11.211  0.4941 -0.3605  0.2154
    9MPD2     C14222   3.556   4.705  10.819 -0.2077 -0.8049  0.4372
    9MPD2    C114223   3.523   0.037  10.939  0.3635  0.1867  0.0667
    9MPD2    C214224   3.390   0.085  10.955  0.1953  0.0635  0.2787
    9MPD2    C314225   3.295   0.048  10.865 -0.3454  0.5992  0.0291
    9MPD2    C414226   3.333   4.711  10.745  0.0954 -0.4198 -0.0710
    9MPD2    C514227   3.462   4.677  10.722 -0.3207 -0.8730  0.8709
    9MPD2     H14228   3.355   0.132  11.046 -0.2759 -0.4748  0.3759
    9MPD2    H114229   3.269   4.654  10.678  0.7011 -2.3894  1.0287
    9MPD2    H214230   3.661   4.678  10.810  0.4564  1.7176  0.6592
    9MPD2    H314231   3.491   4.612  10.640 -0.4251 -1.0219  0.9517
    9MPD2     N14232   3.154   0.073  10.880  0.3789 -0.2856 -0.8353
    9MPD2    H514233   3.097   0.008  10.827 -1.9936  1.4768 -0.4608
    9MPD2    N114234   3.622   0.033  11.040 -0.6606  0.3014  0.3129
    9MPD2    H714235   3.713   4.714  11.019  0.6937  2.5310  1.8891
    1MPD1     C14236   3.418   4.196  16.218 -0.6398 -0.9371  0.1774
    1MPD1    C114237   3.398   4.301  16.314 -0.5131 -0.1069  0.7774
    1MPD1    C214238   3.422   4.270  16.454  0.5376 -0.1362 -0.1289
    1MPD1    C314239   3.456   4.144  16.493  0.3857  0.3156  0.2211
    1MPD1    C414240   3.470   4.048  16.396  0.0405  0.0154  0.2914
    1MPD1    C514241   3.446   4.073  16.264  0.4346  0.1663 -0.2013
    1MPD1     H14242   3.414   4.346  16.531  1.5193  0.5886 -0.7417
    1MPD1    H114243   3.496   3.947  16.426  1.5535 -0.2223 -1.8418
    1MPD1    H214244   3.401   4.215  16.113  0.2574 -0.7989  0.0553
    1MPD1    H314245   3.467   3.995  16.192  2.7697 -0.0662  0.6964
    1MPD1     N14246   3.473   4.098  16.627 -0.0265 -0.4994 -0.5604
    1MPD1    H514247   3.503   4.002  16.637  0.5929 -0.0475  1.9190
    1MPD1    N114248   3.395   4.436  16.271  0.7482 -0.0956  0.4289
    1MPD1    H614249   3.340   4.455  16.187  0.9975  0.5792  0.4242
    1MPD1    H714250   3.356   4.499  16.340  0.6393 -0.9873  1.1848
    2MPD1     C14251   2.899   4.091  17.406 -0.0067 -0.0316 -0.0772
    2MPD1    C114252   2.877   4.069  17.276 -0.0627  0.5972  0.2071
    2MPD1    C214253   2.982   4.036  17.192 -0.5483 -0.0437 -0.4124
    2MPD1    C314254   3.108   4.019  17.237  0.4879 -0.0918 -0.8515
    2MPD1    C414255   3.132   4.046  17.374  0.0307  0.2826  0.0881
    2MPD1    C514256   3.030   4.091  17.457  0.1029  0.5829 -0.3377
    2MPD1     H14257   2.963   4.005  17.090 -0.2786 -2.2845  0.2270
    2MPD1    H114258   3.230   4.047  17.421 -0.1802 -1.4942  0.5550
    2MPD1    H214259   2.819   4.121  17.473 -0.2952 -2.6483  0.7475
    2MPD1    H314260   3.059   4.115  17.558  1.6300  0.1473 -0.6749
    2MPD1     N14261   3.217   4.006  17.146  0.3534  0.0410  0.4580
    2MPD1    H514262   3.205   4.027  17.047 -1.9647 -0.0818  0.7265
    2MPD1    N114263   2.740   4.070  17.236  0.1448  0.2068 -0.1293
    2MPD1    H614264   2.723   4.097  17.139 -0.4917 -0.2127 -0.1394
    2MPD1    H714265   2.678   4.122  17.298 -0.7041 -2.1523  0.9949
    3TCq2    C114266   3.346   3.979  17.183 -0.5435 -0.7660 -0.3021
    3TCq2    O214267   3.387   3.945  17.294 -0.1638 -0.8921  0.6862
    3TCq2    C214268   3.432   3.990  17.071  0.0979 -0.1558  0.2989
    3TCq2    C314269   3.529   3.897  17.062 -0.5457  0.0119 -0.0634
    3TCq2    C414270   3.602   3.890  16.941 -0.0272  0.4076  0.1377
    3TCq2    C514271   3.584   3.985  16.843 -0.1760  0.3096 -0.5391
    3TCq2    C614272   3.485   4.082  16.858  0.3208 -0.0286  0.0540
    3TCq2    C714273   3.413   4.089  16.971 -0.0042  0.8709  0.1880
    3TCq2    C814274   3.454   4.165  16.745  1.0442 -0.3190  0.3310
    3TCq2    O414275   3.393   4.268  16.754  0.0987  0.0821 -0.1384
    3TCq2    C914276   3.700   3.785  16.935  0.0447  0.4792  0.2453
    3TCq2    O514277   3.755   3.762  16.826 -0.3105  0.4260 -0.4234
    3TCq2    O614278   3.713   3.712  17.037  0.1578 -0.7747 -0.0479
    3TCq2    H214279   3.541   3.821  17.139  1.0036  0.5747  0.2461
    3TCq2    H314280   3.647   3.981  16.754  1.5652  2.1172  0.6126
    3TCq2    H414281   3.334   4.163  16.971 -1.5693 -0.8085  1.0270
    1TCq1    O114282   0.263   2.613  12.511 -0.3159  0.2259  0.3420
    1TCq1    C114283   0.361   2.695  12.469 -0.4511  0.5319 -0.4819
    1TCq1    O214284   0.362   2.780  12.380  0.8220 -0.1450  0.4561
    1TCq1    C214285   0.482   2.676  12.552  0.3664 -0.5481  0.4749
    1TCq1    C314286   0.489   2.562  12.633 -0.5505  0.2554  0.3199
    1TCq1    C414287   0.601   2.543  12.707 -0.3425  0.1608 -0.4238
    1TCq1    C514288   0.698   2.637  12.697  0.3970 -0.6584 -0.1330
    1TCq1    C614289   0.691   2.748  12.613  0.6657 -0.3828  0.4135
    1TCq1    C714290   0.577   2.769  12.540  0.7743  0.1325 -0.7241
    1TCq1    C814291   0.802   2.842  12.595 -0.0707 -0.2165  0.0080
    1TCq1    O414292   0.783   2.937  12.524 -0.2508  0.7057  0.0710
    1TCq1    C914293   0.602   2.438  12.808 -0.0745  0.2232 -0.4998
    1TCq1    O514294   0.489   2.386  12.845  0.3390  0.3300 -0.8030
    1TCq1    O614295   0.709   2.423  12.876 -0.4790  0.3091 -0.2915
    1TCq1    H114296   0.272   2.564  12.595  2.2909  0.1731  0.0177
    1TCq1    H214297   0.416   2.482  12.631  0.6823 -0.8934  1.8200
    1TCq1    H314298   0.778   2.619  12.769  0.9559  0.8083 -0.4007
    1TCq1    H414299   0.562   2.857  12.479 -0.4616  0.7620  0.4859
    2MPD2     C14300   1.071   2.978  12.560 -0.0157 -0.0108  0.6117
    2MPD2    C114301   1.040   2.881  12.659  0.2347  0.0438  0.1419
    2MPD2    C214302   1.147   2.848  12.744  0.5196 -0.0110  0.5169
    2MPD2    C314303   1.263   2.917  12.743  0.5739  0.6717  0.0851
    2MPD2    C414304   1.292   3.006  12.637  0.0140 -0.3329 -0.2470
    2MPD2    C514305   1.191   3.031  12.542  0.2517  0.4608  0.2283
    2MPD2     H14306   1.137   2.775  12.824  0.7220 -2.6260 -1.8368
    2MPD2    H114307   1.386   3.061  12.632  0.5830 -1.3759 -0.9685
    2MPD2    H214308   1.005   3.005  12.479 -1.4410  0.4910  1.9412
    2MPD2    H314309   1.214   3.076  12.446  2.0345  0.9539  0.8721
    2MPD2     N14310   1.358   2.880  12.843 -0.3529  0.5052  0.5707
    2MPD2    H514311   1.332   2.797  12.897  0.2348  0.1020  0.2362
    2MPD2    N114312   0.916   2.809  12.669 -0.2476 -0.2909  0.2085
    2MPD2    H714313   0.913   2.728  12.730  0.8530  0.7214  1.6006
    3TCq1    O114314   1.410   3.139  13.309 -0.2108 -0.1111 -0.5035
    3TCq1    C114315   1.441   3.016  13.351 -0.2637  0.0143  0.8758
    3TCq1    O214316   1.435   2.977  13.469  0.1647  0.6603 -0.0648
    3TCq1    C214317   1.488   2.934  13.231  0.1149 -0.1656  0.2974
    3TCq1    C314318   1.479   2.797  13.246 -0.4590 -0.0784 -0.7282
    3TCq1    C414319   1.480   2.715  13.140  0.0303  0.2364  0.3850
    3TCq1    C514320   1.493   2.770  13.017  0.1273  0.0911  0.6689
    3TCq1    C614321   1.519   2.903  13.004 -0.3675 -0.3217 -0.2278
    3TCq1    C714322   1.512   2.989  13.112 -0.3423 -0.2293  0.0338
    3TCq1    C814323   1.467   2.954  12.868 -0.5223  0.1116 -0.0343
    3TCq1    O414324   1.500   3.068  12.831  0.7532  0.0587  0.2170
    3TCq1    C914325   1.476   2.577  13.153  0.8305 -0.2802 -0.5457
    3TCq1    O514326   1.433   2.522  13.052  0.6479  0.7955 -0.0403
    3TCq1    O614327   1.541   2.529  13.245  0.3338  0.0112  0.6363
    3TCq1    H114328   1.404   3.149  13.212 -1.8098 -3.1107 -0.7076
    3TCq1    H214329   1.479   2.746  13.342  1.5121 -1.5828 -1.5356
    3TCq1    H314330   1.499   2.708  12.928 -1.6581  1.1271 -0.1682
    3TCq1    H414331   1.521   3.096  13.095 -0.5351  0.0443  1.7064
    1MPD2     C14332   0.830   4.043  15.290  0.1032  0.2078 -0.0141
    1MPD2    C114333   0.807   3.946  15.193  0.6383  0.1403 -0.1291
    1MPD2    C214334   0.907   3.927  15.094  0.1198  0.4634  0.5357
    1MPD2    C314335   1.016   4.012  15.090 -0.9993 -1.1102  0.1197
    1MPD2    C414336   1.032   4.106  15.192  0.3042 -0.1196 -0.3851
    1MPD2    C514337   0.941   4.117  15.294  0.4902 -0.3351  0.2374
    1MPD2     H14338   0.897   3.853  15.015  0.2762  1.3079 -0.2716
    1MPD2    H114339   1.116   4.174  15.195 -2.8750  3.9582 -2.6973
    1MPD2    H214340   0.765   4.052  15.376 -0.8438 -0.5776 -0.6517
    1MPD2    H314341   0.948   4.195  15.369 -0.4921  0.1883 -0.2189
    1MPD2     N14342   1.110   4.008  14.982  0.1983 -0.1352  0.4086
    1MPD2    H514343   1.193   4.067  14.983 -1.0898  1.6497  0.8588
    1MPD2    N114344   0.693   3.859  15.204 -0.1931  0.7291 -0.3843
    1MPD2    H714345   0.631   3.868  15.284 -3.2327  0.5426 -2.6953
    2TMC3    C114346   0.529   3.704  15.113  0.1842 -0.2418  0.0350
    2TMC3    C214347   0.543   3.597  15.024 -0.6541  0.4342  0.2431
    2TMC3    C314348   0.442   3.575  14.936  0.1936 -0.6404 -0.2028
    2TMC3    C414349   0.420   3.784  15.118 -0.2588 -0.1646  0.1652
    2TMC3    C514350   0.326   3.760  15.027  0.6865  0.7711 -0.0278
    2TMC3    C614351   0.327   3.647  14.948 -0.3217 -0.1772 -0.1141
    2TMC3     C14352   0.655   3.775  15.098  1.3933  0.3239  0.6915
    2TMC3     O14353   0.701   3.772  14.986  0.1377  0.0756  0.1970
    2TMC3     H14354   0.630   3.534  15.018 -0.8764  0.4141 -2.7000
    2TMC3    H114355   0.417   3.860  15.195 -0.8778  1.0279 -1.0374
    2TMC3    H214356   0.261   3.642  14.862 -1.6985 -1.8239  1.0523
    2TMC3    C714357   0.209   3.838  14.999  0.2672  0.3189  0.0700
    2TMC3    C814358   0.497   3.535  14.807  0.0082  0.1690  0.9536
    2TMC3    O114359   0.112   3.776  14.951 -0.1861 -0.1940 -0.0962
    2TMC3    O214360   0.424   3.485  14.724  0.0715  0.2985 -0.3026
    3TCq1    O114361   0.505   0.061  15.416  0.1828  0.4794 -0.0961
    3TCq1    C114362   0.435   0.018  15.312  0.3192 -0.2959 -0.0648
    3TCq1    O214363   0.475   0.011  15.195 -0.3871  0.0605 -0.1022
    3TCq1    C214364   0.293   0.005  15.344  0.1515  0.5093  0.2018
    3TCq1    C314365   0.229   0.074  15.444 -0.0706 -0.2010 -0.0392
    3TCq1    C414366   0.092   0.056  15.461  0.1344  0.7412  0.6461
    3TCq1    C514367   0.018   4.697  15.378 -0.6034 -0.0628 -0.7025
    3TCq1    C614368   0.086   4.624  15.286 -0.1402 -0.8018  0.5818
    3TCq1    C714369   0.221   4.636  15.270 -0.3545  0.1952 -0.0289
    3TCq1    C814370   0.016   4.511  15.221  0.6389  0.3426  0.1835
    3TCq1    O414371   4.615   4.521  15.220  0.6080  0.2351 -0.4870
    3TCq1    C914372   0.027   0.115  15.573  0.0006 -0.3790 -0.7176
    3TCq1    O514373   0.100   0.155  15.666 -0.5581 -0.2353  0.0808
    3TCq1    O614374   4.631   0.152  15.560 -0.0873 -0.1235  0.0400
    3TCq1    H114375   0.450   0.038  15.494  0.8151 -0.3627  0.1118
    3TCq1    H214376   0.280   0.149  15.503  0.7374 -1.0106  0.2798
    3TCq1    H314377   4.634   4.686  15.400 -0.7509 -2.0927 -2.4526
    3TCq1    H414378   0.270   4.577  15.194  0.2866 -1.2589  1.4872
    4MPD2     C14379   4.651   4.261  15.084 -0.4920  0.3011  0.1749
    4MPD2    C114380   0.059   4.289  15.115  0.3791  0.5284 -0.2312
    4MPD2    C214381   0.157   4.188  15.105 -0.4857 -0.9308  0.1093
    4MPD2    C314382   0.118   4.065  15.055  0.0394 -0.0499 -0.0245
    4MPD2    C414383   4.714   4.034  15.023  0.5993 -0.6393  0.2277
    4MPD2    C514384   4.620   4.135  15.038  0.8273  0.4063  0.0663
    4MPD2     H14385   0.260   4.210  15.129 -2.0661  4.4267  1.8094
    4MPD2    H114386   4.680   3.934  15.002 -0.3831  0.0851 -1.6621
    4MPD2    H214387   4.573   4.336  15.085 -1.5384 -0.7650 -2.3522
    4MPD2    H314388   4.518   4.112  15.008  1.0866 -1.7438  0.8176
    4MPD2     N14389   0.223   3.963  15.053  0.8056 -0.1897  0.7603
    4MPD2    H514390   0.311   3.998  15.089  1.1454  0.6030 -0.8297
    4MPD2    N114391   0.096   4.413  15.174 -0.0021  0.1840 -0.1140
    4MPD2    H714392   0.194   4.414  15.201  0.3214  3.6114 -1.4365
    5TMC2    C114393   1.200   3.864  14.542 -0.2481  0.1404 -0.1645
    5TMC2    C214394   1.311   3.790  14.573 -0.5847  0.2874  0.5416
    5TMC2    C314395   1.351   3.805  14.706  0.7700  0.3880  1.0776
    5TMC2    C414396   1.144   3.964  14.624 -0.2319 -0.7280  0.2924
    5TMC2    C514397   1.189   3.970  14.758 -0.4000  0.3908 -0.3639
    5TMC2    C614398   1.298   3.895  14.800  0.3687  0.4499  0.0016
    5TMC2     C14399   1.099   3.774  14.484  0.1642  0.0402 -0.3957
    5TMC2     O14400   1.134   3.708  14.381  0.2114 -0.2191  0.0093
    5TMC2     H14401   1.343   3.705  14.513  2.3014  3.9488 -3.1165
    5TMC2    H114402   1.048   4.010  14.601 -0.8291 -1.3505  1.5311
    5TMC2    H214403   1.335   3.899  14.902  0.2805 -0.6461  0.0794
    5TMC2    C714404   1.076   3.966  14.855 -0.4188 -0.0916  0.2828
    5TMC2    C814405   1.464   3.742  14.766 -0.3484 -0.1953  0.5519
    5TMC2    O114406   0.973   3.906  14.814 -0.4033  0.1303 -0.3118
    5TMC2    O214407   1.520   3.780  14.870 -0.0241 -0.1468  0.1379
    5TMC2    O514408   1.458   3.612  14.729 -0.2146 -0.4070  0.0072
    5TMC2    H514409   1.373   3.613  14.681 -1.1166 -1.4722  1.5794
    6MPD2     C14410   0.676   3.493  14.561 -0.2852  0.3577 -0.3429
    6MPD2    C114411   0.701   3.584  14.668 -0.5016 -0.2315  0.0011
    6MPD2    C214412   0.804   3.677  14.669 -0.2215  0.0661 -0.7276
    6MPD2    C314413   0.891   3.679  14.566  0.0178  0.8146 -0.2529
    6MPD2    C414414   0.875   3.589  14.462 -0.1911  0.4465  0.4589
    6MPD2    C514415   0.767   3.503  14.458 -0.7116  0.5920 -0.3728
    6MPD2     H14416   0.814   3.742  14.756  0.1484 -0.4476 -0.3840
    6MPD2    H114417   0.945   3.593  14.379 -3.0434  0.2182 -1.9512
    6MPD2    H214418   0.590   3.426  14.562 -0.9035  1.1291 -1.0004
    6MPD2    H314419   0.753   3.428  14.381  0.0178 -0.7374  0.7734
    6MPD2     N14420   0.996   3.773  14.574  0.4050  0.3116 -0.2774
    6MPD2    H514421   0.997   3.842  14.649 -1.7044  0.1948 -0.1542
    6MPD2    N114422   0.621   3.588  14.790 -0.3733  0.0177 -0.5134
    6MPD2    H714423   0.659   3.650  14.860  1.0408  0.8987 -2.0699
  945NH4     N114424   1.361   3.329  10.261 -0.0570  0.1180  0.2340
  945NH4     H214425   1.288   3.338  10.336  1.3923 -1.9511  1.9053
  945NH4     H314426   1.431   3.259  10.294  1.4636  0.1786 -2.9147
  945NH4     H414427   1.414   3.417  10.246 -0.1891  0.5876  2.4563
  945NH4     H514428   1.312   3.288  10.179 -1.1813  0.9904  0.4611
  946SOD     NA14429   0.387   3.699  11.843  0.6002  0.0581  0.2683
  947SOD     NA14430   4.443   0.393   1.390  0.0935  1.0712 -0.4483
  948SOD     NA14431   1.212   3.001  12.046 -0.4512 -0.6466 -0.0658
  949SOD     NA14432   3.124   3.894  15.109  0.4451  0.0350  0.1510
  950SOD     NA14433   2.271   1.510  16.918 -0.1166  0.2222  0.0985
  951SOD     NA14434   2.267   1.446   2.836 -0.2048  0.1602 -0.0843
  952SOD     NA14435   1.701   3.553   1.416 -0.4042 -0.0890 -0.6223
  953SOD     NA14436   1.904   3.004  11.703 -0.3341 -0.4705  0.8368
  954SOD     NA14437   1.746   3.011  14.397  0.1445  0.0375  0.1818
  955SOD     NA14438   3.979   2.621  11.795  0.0432  0.0817 -0.2650
  956SOD     NA14439   2.030   2.775  14.615  0.2292 -0.0245 -0.1348
  957SOD     NA14440   0.828   1.717   9.443 -0.0172 -0.3564 -0.2508
  958SOD     NA14441   0.275   0.127  15.795 -0.1603  0.0685 -0.1766
  959SOD     NA14442   0.803   2.745  10.042  0.4195 -0.1928  0.3435
  960SOD     NA14443   1.409   0.624  14.058 -0.2824  0.1001  0.1328
  961SOD     NA14444   1.649   0.220  10.313  0.0647  0.0810  0.4422
  962SOD     NA14445   2.423   2.996   8.303  0.0643  0.5386 -0.1184
  963SOD     NA14446   1.488   0.164  16.203  0.0058 -0.2655 -0.5126
  964SOD     NA14447   1.522   1.535   7.531 -0.3628 -0.8742 -0.0837
  965SOD     NA14448   2.563   0.187  11.825  0.2625 -0.2185 -0.3309
  966SOD     NA14449   4.002   3.656   4.295  0.0536  0.3200 -0.0960
  967SOD     NA14450   4.693   3.972   9.794  1.1879 -0.0484  0.5536
  968SOD     NA14451   3.846   2.422  12.911 -0.2012 -0.2623  0.0080
  969SOD     NA14452   0.336   3.278  12.522 -0.7555  0.1930  0.1838
  970SOD     NA14453   4.449   3.759  10.269 -0.3965 -0.4239  0.5787
  971SOD     NA14454   3.371   2.369  14.473  0.1599 -0.9138 -0.3972
  972SOD     NA14455   3.146   4.242  15.163  0.2585 -0.4568  0.4885
  973SOD     NA14456   1.241   1.516   6.633  0.3338 -0.2284 -0.3109
  974SOD     NA14457   1.600   3.911   0.661 -0.3087 -0.2002 -0.6447
  975SOD     NA14458   3.672   4.199  10.979 -0.0429 -0.0367 -0.0143
  976SOD     NA14459   4.683   2.567  12.750  0.6001  0.1756  0.2286
  977SOD     NA14460   3.051   3.550  14.597 -0.2008  0.2572  0.0675
  978SOD     NA14461   1.461   3.271  11.434 -0.0032 -0.2882  0.3299
  979SOD     NA14462   0.267   4.669   1.662 -0.3912  0.3284  0.2860
  980SOD     NA14463   1.311   1.969  12.701  0.3053 -0.0178 -0.5673
  981SOD     NA14464   3.909   3.323   0.395 -0.4997  0.2978 -0.2923
  982SOD     NA14465   1.087   2.351  11.616  0.1688 -0.2511  0.5908
  983SOD     NA14466   3.621   1.810   2.343  0.0712  0.3729  0.7920
  984SOD     NA14467   1.580   2.350  13.064  0.1032  0.3630 -0.3257
  985SOD     NA14468   3.259   0.934  10.633 -0.2916  0.3625  0.0903
  986SOD     NA14469   4.274   3.420  16.525 -0.0707 -0.3226 -0.0233
  987SOD     NA14470   0.693   0.404  17.270  0.6816  0.5196 -0.0659
  988SOD     NA14471   0.950   1.863   5.446 -0.6904  0.1400  0.2174
  989SOD     NA14472   1.426   2.347  11.278 -0.0906  0.2320 -0.0643
  990SOD     NA14473   0.998   0.274  10.626 -0.2207  0.2842  0.4229
  991SOD     NA14474   2.329   0.802  14.774 -0.1610  0.4832  0.1769
  992SOD     NA14475   0.229   2.057  14.678  0.3014 -0.0850 -0.0545
  993SOD     NA14476   3.448   1.166  15.172  0.0171 -0.3653  0.1603
  994SOD     NA14477   4.627   3.690  14.952  0.2273 -0.4539  0.3526
  995SOD     NA14478   3.868   1.243   2.301 -0.4218 -0.2266 -0.7705
  996SOD     NA14479   3.026   0.906  11.224  0.1285 -0.4013 -0.5346
  997SOD     NA14480   3.289   3.295   1.580 -0.3305  0.6022  0.1388
  998SOD     NA14481   2.409   2.603  14.504  0.1899  0.3134 -0.2670
  999SOD     NA14482   3.281   2.253   9.364 -0.0549 -0.5230  0.3211
 1000SOD     NA14483   1.263   2.314   0.501 -0.2871 -0.1374  0.3751
 1001SOD     NA14484   2.244   2.905  16.612 -0.4302 -0.4164 -0.2224
 1002SOD     NA14485   4.140   3.496   1.088 -0.1250  0.6847  0.1845
 1003SOD     NA14486   1.035   2.697   6.611  0.1846  0.0808  0.1716
 1004SOD     NA14487   2.635   4.122  13.583  0.3692 -0.2321  0.0694
 1005SOD     NA14488   1.773   0.490  17.657  0.2134 -0.3130  0.1093
 1006SOD     NA14489   2.569   2.877  14.528 -0.6183 -0.1825  0.4454
 1007SOD     NA14490   0.511   2.597   5.714 -0.1696 -0.3850 -0.1347
 1008SOD     NA14491   2.572   2.241   3.327 -0.3640  0.1992  0.0000
 1009SOD     NA14492   2.773   3.843  10.536  0.0895  0.2639  0.1556
 1010SOD     NA14493   2.692   1.522   3.687  0.5392  0.1651  0.4324
 1011SOL     OW14494   3.137   4.382   6.091 -0.0907  0.1489 -0.2719
 1011SOL    HW114495   3.233   4.383   6.089 -0.0259 -2.2884  1.2660
 1011SOL    HW214496   3.117   4.348   6.178 -0.0472 -1.0732 -0.7324
 1012SOL     OW14497   1.278   1.193   5.478  0.1377 -0.2195 -0.1595
 1012SOL    HW114498   1.194   1.174   5.436 -0.3886  3.0980 -0.6224
 1012SOL    HW214499   1.319   1.222   5.397  1.1214 -1.7515 -0.2185
 1013SOL     OW14500   4.004   2.181   4.608  0.4995 -0.4319  0.2984
 1013SOL    HW114501   4.042   2.095   4.623  0.0704 -0.2471  2.5148
 1013SOL    HW214502   3.912   2.169   4.585  0.1844 -1.0398  1.9110
 1014SOL     OW14503   3.047   3.767   3.845 -0.4649  0.3355 -0.4434
 1014SOL    HW114504   3.141   3.785   3.848 -0.3600 -0.2028 -0.4724
 1014SOL    HW214505   3.059   3.677   3.817 -0.6661 -0.7019  2.7787
 1015SOL     OW14506   1.936   2.268   7.917  0.2109 -0.1611  0.1697
 1015SOL    HW114507   1.950   2.173   7.912  1.5692 -0.1091  3.0084
 1015SOL    HW214508   2.021   2.305   7.889  0.0018 -1.2021 -1.8453
 1016SOL     OW14509   1.676   0.736   5.289 -0.4357  0.6373 -0.2767
 1016SOL    HW114510   1.704   0.716   5.378 -0.2904  0.8700 -0.2692
 1016SOL    HW214511   1.659   0.647   5.258 -0.2478  0.5878 -0.2346
 1017SOL     OW14512   3.262   3.169  10.693 -1.1056 -0.0592  0.0722
 1017SOL    HW114513   3.250   3.143  10.602 -0.2293  2.2763 -0.7036
 1017SOL    HW214514   3.172   3.192  10.719 -0.4650  0.6097  1.7198
 1018SOL     OW14515   0.737   0.620   4.501  0.1639  0.4772 -0.1336
 1018SOL    HW114516   0.677   0.695   4.497 -3.5153 -2.3549  1.9142
 1018SOL    HW214517   0.664   0.558   4.499  2.7568 -2.5534  0.9027
 1019SOL     OW14518   0.178   4.411   9.799  0.4827  0.0293  0.5893
 1019SOL    HW114519   0.181   4.424   9.894  1.7274 -0.6815  0.6457
 1019SOL    HW214520   0.204   4.500   9.773  0.3170 -0.3689 -0.9456
 1020SOL     OW14521   1.395   1.316   9.291 -0.4834  0.1574 -0.0366
 1020SOL    HW114522   1.479   1.328   9.335 -0.1981 -1.1491 -0.2397
 1020SOL    HW214523   1.413   1.255   9.219 -2.5862 -0.0773 -0.3538
 1021SOL     OW14524   1.690   0.996   2.985 -0.1110  0.5229  0.0430
 1021SOL    HW114525   1.773   1.038   3.009  0.5510 -0.2109 -0.9151
 1021SOL    HW214526   1.673   0.959   3.071 -1.2164 -0.7482 -0.7256
 1022SOL     OW14527   4.408   4.429   7.845 -0.4953 -0.0883  0.5895
 1022SOL    HW114528   4.385   4.337   7.834 -0.0036 -0.2003  0.4667
 1022SOL    HW214529   4.425   4.459   7.756  0.7926 -3.1126 -0.2037
 1023SOL     OW14530   3.568   2.548   9.305 -0.4581  0.2478 -1.2416
 1023SOL    HW114531   3.513   2.475   9.275  0.3838 -1.1397  0.6468
 1023SOL    HW214532   3.648   2.499   9.322 -0.5400  0.6287  0.2117
 1024SOL     OW14533   2.262   0.254   3.821 -0.4885  0.1838 -0.3815
 1024SOL    HW114534   2.252   0.322   3.755  3.1567  1.3597  0.2569
 1024SOL    HW214535   2.174   0.252   3.860 -0.6258  1.7256 -0.6332
 1025SOL     OW14536   3.727   1.729   2.158 -0.2547  0.1714 -0.0113
 1025SOL    HW114537   3.716   1.696   2.069 -0.2977  1.5453 -0.5208
 1025SOL    HW214538   3.822   1.724   2.168  0.1957  2.2036 -3.3197
 1026SOL     OW14539   0.888   2.551   8.610  0.5560 -0.3398  0.3574
 1026SOL    HW114540   0.798   2.547   8.576  1.0857 -0.9782 -0.9854
 1026SOL    HW214541   0.928   2.466   8.590 -0.2913  0.1187 -3.2188
 1027SOL     OW14542   1.442   0.578  10.974  0.1999  0.3763  0.6161
 1027SOL    HW114543   1.482   0.568  11.060 -1.8389  2.1209  1.7894
 1027SOL    HW214544   1.496   0.636  10.921 -2.1523  0.9531 -1.1197
 1028SOL     OW14545   0.818   1.292   6.386 -0.2661  0.0899  0.0408
 1028SOL    HW114546   0.837   1.365   6.446  1.6093  0.3277 -0.8352
 1028SOL    HW214547   0.874   1.223   6.420  2.3352  1.7912 -0.7479
 1029SOL     OW14548   2.296   4.707   1.923 -0.2833  0.1035 -0.8456
 1029SOL    HW114549   2.246   4.649   1.982 -0.7176  0.6521 -0.6644
 1029SOL    HW214550   2.250   4.679   1.844 -0.9623 -0.1931 -0.3511
 1030SOL     OW14551   0.197   4.391   3.466  0.2688 -0.0639  0.4743
 1030SOL    HW114552   0.264   4.339   3.422 -0.4842  0.1068 -0.8715
 1030SOL    HW214553   0.152   4.328   3.522 -1.1991  0.2910 -0.3169
 1031SOL     OW14554   3.172   0.572   4.723  0.6485 -0.3012  0.4364
 1031SOL    HW114555   3.265   0.551   4.735  1.1299  0.2855 -2.1478
 1031SOL    HW214556   3.142   0.484   4.700 -0.0228  0.0580 -0.0525
 1032SOL     OW14557   3.858   1.816   7.413  0.0470 -0.0979  0.0806
 1032SOL    HW114558   3.870   1.881   7.344  2.3835 -1.0749 -0.4184
 1032SOL    HW214559   3.792   1.863   7.465  1.9493  1.9345  0.6660
 1033SOL     OW14560   2.689   3.840   1.739  0.1950  0.3421  0.6314
 1033SOL    HW114561   2.676   3.761   1.685  0.4483  0.7344 -0.0032
 1033SOL    HW214562   2.620   3.824   1.803 -0.0206 -0.7748  0.1183
 1034SOL     OW14563   2.024   1.169   1.872 -0.3448  0.2596  0.3247
 1034SOL    HW114564   1.958   1.233   1.898  0.4465  0.9051  0.7426
 1034SOL    HW214565   2.064   1.137   1.953 -0.9946  1.2411  1.0218
 1035SOL     OW14566   0.548   2.132   3.416  0.5850  0.2960 -0.3204
 1035SOL    HW114567   0.557   2.220   3.379  0.3686  0.5363  0.1848
 1035SOL    HW214568   0.632   2.120   3.460  0.0106 -0.6255  0.5235
 1036SOL     OW14569   2.213   2.724   4.364 -0.6692 -0.1496 -0.8475
 1036SOL    HW114570   2.118   2.718   4.369 -0.8209  1.4160 -1.8388
 1036SOL    HW214571   2.221   2.810   4.406  1.7037 -1.6280  1.7877
 1037SOL     OW14572   1.425   2.365   2.229 -0.0531  0.0089  0.4408
 1037SOL    HW114573   1.506   2.378   2.180  0.2432  1.2845  1.2986
 1037SOL    HW214574   1.366   2.431   2.191 -3.3081 -1.6967  2.5532
 1038SOL     OW14575   2.271   1.947   8.872  0.5823 -0.5962  0.1757
 1038SOL    HW114576   2.351   1.900   8.847 -0.6149 -1.1322 -2.5663
 1038SOL    HW214577   2.238   1.969   8.785 -2.1644  2.3070  1.9134
 1039SOL     OW14578   4.291   1.023   4.370 -0.4321  1.0849 -1.1666
 1039SOL    HW114579   4.379   0.988   4.357 -0.0793  1.9760 -1.1877
 1039SOL    HW214580   4.305   1.081   4.445  0.8207 -0.6998 -0.0193
 1040SOL     OW14581   4.391   0.132   4.481 -0.3985  0.7213 -0.1806
 1040SOL    HW114582   4.475   0.176   4.495  0.8363 -1.0909 -1.8705
 1040SOL    HW214583   4.392   0.059   4.543  0.3543  0.4456 -0.5137
 1041SOL     OW14584   2.939   4.272   6.875  0.4807 -0.1880  0.1263
 1041SOL    HW114585   2.883   4.317   6.938  1.1805  0.3627  0.3527
 1041SOL    HW214586   2.942   4.344   6.811  0.8665 -1.1392 -0.9396
 1042SOL     OW14587   0.479   2.988   8.966 -0.2926  0.0721 -0.0202
 1042SOL    HW114588   0.447   2.919   8.909 -0.1928 -0.7251  0.8981
 1042SOL    HW214589   0.556   3.010   8.912  0.7086  0.0401  1.3839
 1043SOL     OW14590   3.029   3.799   8.258 -0.2964  0.2220  0.4976
 1043SOL    HW114591   2.988   3.879   8.224 -1.4775 -1.5581 -2.2469
 1043SOL    HW214592   3.120   3.827   8.245  0.6037 -2.4156  1.1672
 1044SOL     OW14593   2.701   3.883   8.644  0.6196  0.1292  0.3367
 1044SOL    HW114594   2.639   3.904   8.714  0.9759 -1.6753  1.1875
 1044SOL    HW214595   2.726   3.794   8.669  0.3652 -0.1136 -0.2562
 1045SOL     OW14596   0.998   2.067  12.829  0.2448  0.1687  0.3193
 1045SOL    HW114597   0.934   2.137  12.814  1.1124  0.8306 -0.2112
 1045SOL    HW214598   1.062   2.095  12.764  1.6621 -0.6034  1.3930
 1046SOL     OW14599   3.296   4.614   5.198 -0.0635 -0.4419 -0.1612
 1046SOL    HW114600   3.382   4.582   5.170 -0.3354 -0.5195 -0.9142
 1046SOL    HW214601   3.333   4.659   5.273  0.5621 -1.6815  0.2629
 1047SOL     OW14602   1.819   2.742   7.985 -0.1589 -0.0837  0.0944
 1047SOL    HW114603   1.754   2.802   8.022 -0.8620 -1.5421  1.2327
 1047SOL    HW214604   1.839   2.788   7.904  1.0782  2.8417  2.0456
 1048SOL     OW14605   3.614   2.159   6.041  0.0060 -0.0954 -0.9848
 1048SOL    HW114606   3.598   2.067   6.022 -0.7329 -0.8791  3.5502
 1048SOL    HW214607   3.686   2.147   6.103 -1.0156 -0.0716  0.2030
 1049SOL     OW14608   0.544   3.056   4.465 -0.1918 -0.1057  0.3285
 1049SOL    HW114609   0.634   3.024   4.460 -0.6795 -1.5386  0.4753
 1049SOL    HW214610   0.502   2.972   4.482 -1.4316  0.2886 -0.8445
 1050SOL     OW14611   0.580   2.552   7.641 -0.7142  0.3969  0.9282
 1050SOL    HW114612   0.522   2.490   7.597 -2.6348  2.2292  0.8616
 1050SOL    HW214613   0.530   2.607   7.702 -0.8356  1.7398 -0.3740
 1051SOL     OW14614   1.343   2.104   7.045 -0.4025 -0.1795 -0.0624
 1051SOL    HW114615   1.325   2.134   7.134  0.0531 -0.8337  0.2575
 1051SOL    HW214616   1.345   2.185   6.995 -1.4926  0.4389  0.9090
 1052SOL     OW14617   1.231   4.697   1.622  0.4574 -0.2349 -0.3012
 1052SOL    HW114618   1.277   4.687   1.538  2.7294  2.3719  0.6145
 1052SOL    HW214619   1.221   0.070   1.635  3.8918 -0.2431  2.4178
 1053SOL     OW14620   2.973   2.152  11.879  0.3000 -0.1649  0.6239
 1053SOL    HW114621   2.897   2.206  11.898  2.0848  2.2865  0.7415
 1053SOL    HW214622   2.946   2.068  11.916  1.3038 -0.4343  0.7512
 1054SOL     OW14623   2.023   2.427   4.539  0.2824  0.2643  0.4887
 1054SOL    HW114624   1.965   2.382   4.600  1.0494 -1.1003  0.2081
 1054SOL    HW214625   2.054   2.360   4.479  1.2084  2.1906 -1.1878
 1055SOL     OW14626   0.590   0.143   6.128  0.1089  0.2086 -0.5245
 1055SOL    HW114627   0.616   0.051   6.119 -0.3910 -0.0641  0.8775
 1055SOL    HW214628   0.554   0.132   6.216  0.7408 -1.9373 -0.5277
 1056SOL     OW14629   3.519   3.227   3.561 -0.3354  0.1657 -0.1731
 1056SOL    HW114630   3.561   3.141   3.555 -0.3517  0.1403  0.0648
 1056SOL    HW214631   3.596   3.283   3.550 -0.9278  1.3778  1.9722
 1057SOL     OW14632   0.713   2.277   1.093  0.0912 -0.4328  0.0682
 1057SOL    HW114633   0.678   2.277   1.182 -1.2819 -0.6289 -0.4687
 1057SOL    HW214634   0.693   2.184   1.079 -1.1618 -0.2114  0.3767
 1058SOL     OW14635   2.405   0.239   3.430  0.3222  0.6209  0.2252
 1058SOL    HW114636   2.360   0.306   3.378  0.0125 -0.4397 -0.8787
 1058SOL    HW214637   2.448   0.289   3.499 -1.9895 -0.7318  2.6682
 1059SOL     OW14638   1.470   0.721  14.256 -0.1364  0.1201 -0.0214
 1059SOL    HW114639   1.432   0.772  14.327  3.2222  2.0044  0.3952
 1059SOL    HW214640   1.561   0.748  14.263  0.3854 -3.3970  5.9915
 1060SOL     OW14641   2.949   2.097  17.181 -0.0225 -0.0287  0.1516
 1060SOL    HW114642   2.884   2.033  17.151  1.1485 -1.0976 -0.0588
 1060SOL    HW214643   2.907   2.169  17.133 -0.9881 -0.9238 -0.3574
 1061SOL     OW14644   3.881   2.035   5.088 -0.6618  0.4890  0.0965
 1061SOL    HW114645   3.837   2.096   5.145  2.4734  0.4378  2.5632
 1061SOL    HW214646   3.868   1.948   5.125  1.1138 -0.5776 -1.7593
 1062SOL     OW14647   2.713   0.381  12.322 -0.0718  0.0807  0.5157
 1062SOL    HW114648   2.639   0.372  12.382  0.2867  1.3279  1.1711
 1062SOL    HW214649   2.760   0.298  12.312 -1.0357 -0.3175 -0.5544
 1063SOL     OW14650   4.463   2.197   5.511 -0.2150 -0.1525 -0.2522
 1063SOL    HW114651   4.411   2.224   5.586  0.4821  0.1741  0.1185
 1063SOL    HW214652   4.515   2.268   5.473 -0.5940  0.3695  0.2171
 1064SOL     OW14653   2.213   3.773  13.670  0.0293  0.4380 -0.2908
 1064SOL    HW114654   2.295   3.725  13.660 -0.6717 -0.5554 -1.1667
 1064SOL    HW214655   2.229   3.831  13.596  1.3511  0.5341  0.0606
 1065SOL     OW14656   4.561   2.281   5.120  0.1981  0.0749  0.0472
 1065SOL    HW114657   4.609   2.274   5.038 -1.0585 -0.7638 -0.6317
 1065SOL    HW214658   4.545   2.189   5.145 -1.5561 -0.5609 -3.3268
 1066SOL     OW14659   0.811   0.342  17.080 -0.1678 -0.1097 -0.6850
 1066SOL    HW114660   0.860   0.384  17.010  1.9549 -0.3581  0.6573
 1066SOL    HW214661   0.764   0.276  17.029 -0.4630 -0.9693  0.6818
 1067SOL     OW14662   1.273   4.477  11.479 -0.2467  0.3216  0.4831
 1067SOL    HW114663   1.359   4.452  11.446 -0.7653 -0.5842 -0.1880
 1067SOL    HW214664   1.284   4.435  11.564  0.6643  1.7259  1.0665
 1068SOL     OW14665   2.579   4.343  13.552  0.4013  0.4909 -0.0970
 1068SOL    HW114666   2.648   4.373  13.494  1.5861 -0.2116  0.9536
 1068SOL    HW214667   2.539   4.427  13.577 -0.5805  0.9089 -3.1024
 1069SOL     OW14668   4.091   3.130   2.070  0.4273 -0.3037 -0.4855
 1069SOL    HW114669   4.040   3.144   1.990  1.4913 -1.1178 -1.3208
 1069SOL    HW214670   4.116   3.221   2.079  1.0417 -0.6650  1.4896
 1070SOL     OW14671   1.557   2.611   8.397  0.2477 -0.1154 -0.4279
 1070SOL    HW114672   1.493   2.609   8.326  0.5684  0.0137 -0.7202
 1070SOL    HW214673   1.507   2.657   8.465 -1.0703  0.4528 -1.8068
 1071SOL     OW14674   1.647   2.999  14.193 -0.4338  0.1330  0.0293
 1071SOL    HW114675   1.624   2.930  14.130  1.3057 -0.6633  0.2681
 1071SOL    HW214676   1.665   3.068  14.129 -2.4117  0.9209  0.3077
 1072SOL     OW14677   1.574   2.513   7.908  0.1619 -0.4107 -0.5133
 1072SOL    HW114678   1.478   2.515   7.918  0.2374  1.5483 -0.1304
 1072SOL    HW214679   1.604   2.574   7.976 -0.9331 -2.5054  1.8514
 1073SOL     OW14680   0.761   0.439   3.077  0.2829 -0.1560  0.4184
 1073SOL    HW114681   0.787   0.514   3.024 -2.2545 -0.2392 -0.9048
 1073SOL    HW214682   0.746   0.375   3.007 -0.0435 -1.4223  1.6294
 1074SOL     OW14683   3.209   1.912  17.026  0.4469  0.1843 -0.1883
 1074SOL    HW114684   3.226   1.995  16.982  0.3946  0.2845 -0.0193
 1074SOL    HW214685   3.255   1.853  16.967  1.7982 -0.6450  1.6911
 1075SOL     OW14686   1.189   2.466  14.713  0.0929 -0.2248  0.2028
 1075SOL    HW114687   1.267   2.481  14.661 -0.2722  0.0015 -0.2843
 1075SOL    HW214688   1.172   2.554  14.748  0.5382  0.7955 -2.1532
 1076SOL     OW14689   4.231   3.588   8.653  0.1036 -0.3272 -0.2398
 1076SOL    HW114690   4.248   3.681   8.668 -0.0006 -0.1748 -1.0863
 1076SOL    HW214691   4.183   3.593   8.571 -0.2359  0.0726 -0.0187
 1077SOL     OW14692   2.634   4.527  16.867  0.4617  0.0847  0.1711
 1077SOL    HW114693   2.687   4.599  16.901  1.2449 -1.2901  1.8639
 1077SOL    HW214694   2.580   4.563  16.797 -0.3208 -1.4283 -0.0222
 1078SOL     OW14695   0.415   3.260   7.353 -0.3387 -0.2728 -0.3817
 1078SOL    HW114696   0.479   3.237   7.286 -2.4632  1.1952 -2.9338
 1078SOL    HW214697   0.448   3.341   7.391  1.2538 -0.3073 -1.7091
 1079SOL     OW14698   4.406   1.894   2.938  0.1589 -0.2752  0.5858
 1079SOL    HW114699   4.342   1.876   2.868 -0.6853  1.4802  0.9166
 1079SOL    HW214700   4.377   1.980   2.967 -0.3820  0.0610 -0.9119
 1080SOL     OW14701   0.062   3.164   2.510 -0.3477 -0.0515  0.0697
 1080SOL    HW114702   0.033   3.073   2.504  1.2129 -0.7580  3.3288
 1080SOL    HW214703   0.154   3.160   2.534 -0.4049  0.0738  0.3109
 1081SOL     OW14704   1.538   4.462   5.906 -0.1313 -0.2673  0.1074
 1081SOL    HW114705   1.609   4.469   5.843 -1.3539  1.7366 -1.0278
 1081SOL    HW214706   1.530   4.556   5.923 -0.8992  0.2538 -3.1497
 1082SOL     OW14707   1.139   0.034   4.060 -0.0395  0.2357 -0.0194
 1082SOL    HW114708   1.123   0.015   4.153 -1.5344 -2.1197 -0.7478
 1082SOL    HW214709   1.231   0.059   4.050  0.0482  0.1577  0.6151
 1083SOL     OW14710   4.684   4.193   3.589  0.0165 -0.0156  0.2533
 1083SOL    HW114711   4.594   4.173   3.562  0.8668 -2.0317 -1.0887
 1083SOL    HW214712   4.673   4.263   3.653  0.9389  3.5444 -3.4751
 1084SOL     OW14713   4.164   2.115   8.276 -0.1935 -0.1387  0.3637
 1084SOL    HW114714   4.097   2.059   8.237 -1.0275  0.2142  1.2648
 1084SOL    HW214715   4.236   2.055   8.294 -0.4130 -0.1207  1.2984
 1085SOL     OW14716   0.838   0.709  16.625  0.1445  0.1670  0.0285
 1085SOL    HW114717   0.918   0.734  16.579  0.7261  0.1099  1.0153
 1085SOL    HW214718   0.787   0.782  16.591 -1.0773 -0.7327 -0.0970
 1086SOL     OW14719   3.788   3.186   7.128  0.0224 -0.2710  0.6358
 1086SOL    HW114720   3.730   3.155   7.058  0.1343 -1.3422  1.0147
 1086SOL    HW214721   3.732   3.177   7.206 -1.9406  0.3245 -0.6991
 1087SOL     OW14722   0.074   2.511   6.406 -0.0586 -0.3918 -0.6670
 1087SOL    HW114723   0.025   2.500   6.324  1.7618 -4.2062 -1.2309
 1087SOL    HW214724   0.016   2.577   6.443  1.7258  0.3634  0.7381
 1088SOL     OW14725   3.959   4.238   0.422  0.1650  0.5391  0.2784
 1088SOL    HW114726   3.952   4.257   0.328 -0.1371 -2.0439 -0.2185
 1088SOL    HW214727   3.996   4.323   0.446 -0.4779  0.3976  1.7625
 1089SOL     OW14728   4.624   1.750  12.479 -0.4571 -0.8787 -0.0455
 1089SOL    HW114729   4.648   1.838  12.511  1.8591 -1.5103 -0.0464
 1089SOL    HW214730   4.593   1.784  12.395  1.8252 -0.4203 -0.7133
 1090SOL     OW14731   2.745   1.631  13.412  0.6292 -0.3818  0.7583
 1090SOL    HW114732   2.839   1.621  13.425  0.9829  0.0986 -1.4663
 1090SOL    HW214733   2.746   1.703  13.350  0.3293 -1.0294 -0.0059
 1091SOL     OW14734   3.469   2.166   2.652 -0.1760  0.2480  0.1471
 1091SOL    HW114735   3.488   2.260   2.656  0.8575  0.1719 -2.5737
 1091SOL    HW214736   3.424   2.162   2.567 -0.3660 -0.9782  0.3056
 1092SOL     OW14737   3.112   1.849   9.364  0.0266 -0.5272  0.1856
 1092SOL    HW114738   3.041   1.911   9.347  0.3257 -0.2154  0.0768
 1092SOL    HW214739   3.174   1.900   9.311 -0.6288  1.5064  1.3725
 1093SOL     OW14740   2.488   0.032   6.758 -0.1319  1.4582  0.3044
 1093SOL    HW114741   2.522   4.703   6.685 -0.8476 -1.7341  2.1461
 1093SOL    HW214742   2.569   0.023   6.809  0.7282  0.7436 -1.2030
 1094SOL     OW14743   2.381   3.995   5.317 -0.4577 -0.2113  0.1715
 1094SOL    HW114744   2.383   4.090   5.305 -1.1182 -0.1419  0.6363
 1094SOL    HW214745   2.291   3.988   5.349 -0.5543  1.7285  0.3178
 1095SOL     OW14746   3.042   3.164   5.875  0.0933 -0.8946 -0.3892
 1095SOL    HW114747   3.126   3.144   5.834  0.8670  1.5915 -0.0284
 1095SOL    HW214748   3.050   3.258   5.894 -0.2548 -1.2891  1.7397
 1096SOL     OW14749   0.796   2.862   0.348  0.1250 -0.2943  0.1091
 1096SOL    HW114750   0.786   2.805   0.272 -2.3792 -1.0240  0.9710
 1096SOL    HW214751   0.792   2.940   0.293 -2.4784 -1.5105 -1.4645
 1097SOL     OW14752   2.056   2.197   3.422  0.1681 -0.0869 -0.0956
 1097SOL    HW114753   2.143   2.162   3.402  0.8016  1.2697  0.2834
 1097SOL    HW214754   2.074   2.254   3.497  1.0885 -0.2180 -0.2110
 1098SOL     OW14755   0.344   4.367   6.153 -0.2723 -0.6931 -0.3603
 1098SOL    HW114756   0.343   4.271   6.142 -1.2867 -1.0640  2.8470
 1098SOL    HW214757   0.390   4.367   6.237 -0.0302  1.3164 -0.5089
 1099SOL     OW14758   2.467   3.009   3.569  0.2432  0.3990 -0.1042
 1099SOL    HW114759   2.473   3.064   3.647  0.1265  0.0014  0.1856
 1099SOL    HW214760   2.493   2.922   3.598 -2.5175 -0.0773  0.9438
 1100SOL     OW14761   4.257   1.158   2.650 -0.1897  0.5977 -0.4137
 1100SOL    HW114762   4.315   1.086   2.672  0.3056  1.7788  2.1268
 1100SOL    HW214763   4.262   1.155   2.554 -2.2999 -0.6770 -0.4781
 1101SOL     OW14764   0.650   1.174  15.884 -0.0671 -0.0573 -0.5007
 1101SOL    HW114765   0.728   1.138  15.928 -0.6276  0.4694  0.9113
 1101SOL    HW214766   0.646   1.134  15.798  1.5292  0.8264 -0.9901
 1102SOL     OW14767   3.236   4.145   5.693  0.0847  0.3446 -0.0439
 1102SOL    HW114768   3.295   4.077   5.660 -0.4943 -1.0244  1.7486
 1102SOL    HW214769   3.284   4.224   5.669 -1.8360  1.6716  0.4598
 1103SOL     OW14770   2.847   1.918   8.440  0.2884 -0.0892  0.0281
 1103SOL    HW114771   2.774   1.970   8.405 -0.6829 -0.9265  0.8111
 1103SOL    HW214772   2.918   1.978   8.417  0.1638  0.1665  0.3108
 1104SOL     OW14773   0.579   1.979   4.469 -0.0550  0.2739  0.5567
 1104SOL    HW114774   0.662   1.993   4.514  0.0519 -1.4369  0.9034
 1104SOL    HW214775   0.541   2.066   4.473  1.3924  1.0127 -1.7862
 1105SOL     OW14776   0.175   4.341   8.530  0.3672  0.0427  0.0705
 1105SOL    HW114777   0.238   4.310   8.466 -0.4680  1.4763 -1.4379
 1105SOL    HW214778   0.130   4.261   8.560 -0.1134 -0.1000 -1.0296
 1106SOL     OW14779   4.472   4.549  14.364 -0.7906 -0.0209  0.5262
 1106SOL    HW114780   4.557   4.575  14.330 -0.9788 -0.5712 -0.3657
 1106SOL    HW214781   4.462   4.622  14.426  2.6380 -0.4477  1.5726
 1107SOL     OW14782   0.376   2.876   5.449  0.5036  0.2357 -0.2971
 1107SOL    HW114783   0.363   2.962   5.409 -1.4841 -0.8702 -2.0308
 1107SOL    HW214784   0.285   2.854   5.471  1.6799 -1.8397  2.4074
 1108SOL     OW14785   0.084   4.108   1.330  0.0262 -0.1646  0.2622
 1108SOL    HW114786   0.105   4.065   1.247 -0.1278  0.1802  0.0428
 1108SOL    HW214787   0.140   4.185   1.320  0.4850 -0.5672 -0.2503
 1109SOL     OW14788   4.175   2.431   2.963 -0.0520  0.5416 -0.6110
 1109SOL    HW114789   4.113   2.432   3.036  0.9033 -0.0667  0.2163
 1109SOL    HW214790   4.129   2.478   2.894 -0.3611  0.7263 -0.2765
 1110SOL     OW14791   4.644   2.372   3.148 -0.3136 -0.2314  0.0144
 1110SOL    HW114792   4.703   2.395   3.076  0.8997 -1.6595  0.5388
 1110SOL    HW214793   4.570   2.335   3.099  0.4676 -0.3255 -1.1195
 1111SOL     OW14794   2.386   0.345   6.332  0.5214 -0.2933  0.3623
 1111SOL    HW114795   2.415   0.287   6.402 -1.4915 -1.5108  0.2077
 1111SOL    HW214796   2.473   0.361   6.294 -0.1348 -0.3777 -1.1877
 1112SOL     OW14797   2.902   1.742   9.013  0.0648 -1.0828  0.1280
 1112SOL    HW114798   2.914   1.668   8.953  0.6076 -0.1555 -0.9053
 1112SOL    HW214799   2.983   1.787   8.991  0.1024 -1.5067 -0.6147
 1113SOL     OW14800   1.264   1.516   8.901 -0.1772  0.4000  0.3775
 1113SOL    HW114801   1.200   1.445   8.906  0.1532 -0.0246 -1.2460
 1113SOL    HW214802   1.227   1.565   8.974 -1.1991 -3.2412  2.2796
 1114SOL     OW14803   0.820   2.761   1.368  0.1344 -0.1224 -0.9443
 1114SOL    HW114804   0.881   2.735   1.299  1.3413  1.1149 -0.3516
 1114SOL    HW214805   0.756   2.691   1.374 -1.5618  1.5176  0.0980
 1115SOL     OW14806   0.777   0.136  15.678  0.1616  0.0677  0.2022
 1115SOL    HW114807   0.778   0.210  15.618  3.1486 -1.8331 -2.0542
 1115SOL    HW214808   0.742   0.066  15.622 -2.6349  2.8275 -1.4630
 1116SOL     OW14809   2.065   2.667   3.224 -0.5518  0.2605  0.1465
 1116SOL    HW114810   2.002   2.714   3.170  0.1145  0.6088 -0.3260
 1116SOL    HW214811   2.026   2.679   3.311 -0.1159  0.6350  0.2943
 1117SOL     OW14812   0.649   1.553  14.363  0.0163  0.1599  0.2656
 1117SOL    HW114813   0.729   1.598  14.391 -0.6835  0.7404  1.3263
 1117SOL    HW214814   0.676   1.526  14.276  1.1021 -0.7671  0.8789
 1118SOL     OW14815   0.921   0.941   0.081 -0.1552 -0.1741 -0.2946
 1118SOL    HW114816   0.996   0.911   0.133 -1.8113  0.5478  2.5131
 1118SOL    HW214817   0.844   0.919   0.134  0.1767  1.0673  0.7145
 1119SOL     OW14818   0.816   1.422  11.813 -0.3104  0.4895 -0.1451
 1119SOL    HW114819   0.872   1.348  11.791  2.4981  2.6905 -0.4075
 1119SOL    HW214820   0.728   1.393  11.789  0.3813 -1.3730 -0.3782
 1120SOL     OW14821   4.127   1.966   8.951 -0.3361  0.1209  0.1921
 1120SOL    HW114822   4.116   1.946   9.044 -1.2300  1.2783  0.3399
 1120SOL    HW214823   4.050   2.016   8.925  2.6305  3.7390 -1.5818
 1121SOL     OW14824   3.173   3.191  11.040 -0.0368 -0.1499  0.0942
 1121SOL    HW114825   3.162   3.146  11.124 -0.5128  1.2049  0.7507
 1121SOL    HW214826   3.262   3.226  11.044 -1.2131  2.4306  3.0549
 1122SOL     OW14827   1.522   0.421   3.583  0.0189 -0.2096 -0.1763
 1122SOL    HW114828   1.480   0.417   3.668 -0.9173  1.5245 -0.5635
 1122SOL    HW214829   1.595   0.361   3.602  0.2509  0.1129 -0.0392
 1123SOL     OW14830   0.293   1.627   2.275  0.4046 -0.0196 -0.2081
 1123SOL    HW114831   0.304   1.620   2.370  2.7786  0.9080 -0.4238
 1123SOL    HW214832   0.203   1.660   2.269  0.3096 -0.4206 -0.9882
 1124SOL     OW14833   0.497   4.094   1.889  0.3353 -0.2397  0.1362
 1124SOL    HW114834   0.546   4.028   1.936 -0.1651  1.2517  2.7212
 1124SOL    HW214835   0.413   4.048   1.884  0.0299  0.2996  0.2835
 1125SOL     OW14836   2.418   1.123   8.229 -0.1656 -0.3335 -0.1294
 1125SOL    HW114837   2.389   1.036   8.256  1.4970 -0.3119  1.7250
 1125SOL    HW214838   2.507   1.124   8.263  0.6466 -1.4854 -2.2469
 1126SOL     OW14839   3.225   1.264   4.837  1.1014  0.0230  0.1620
 1126SOL    HW114840   3.204   1.290   4.747 -0.8754 -0.3250  0.5267
 1126SOL    HW214841   3.207   1.343   4.888  0.1347  0.3916 -0.7543
 1127SOL     OW14842   4.520   0.713   6.680 -0.2836  0.5833  0.0967
 1127SOL    HW114843   4.535   0.672   6.766  1.5051  0.2356 -0.3808
 1127SOL    HW214844   4.588   0.660   6.638  0.0496  1.5396 -0.5841
 1128SOL     OW14845   0.923   0.006   5.478  0.4135  0.0879  0.2185
 1128SOL    HW114846   0.940   4.633   5.481  2.6104  0.4453 -0.8659
 1128SOL    HW214847   1.000   0.037   5.526  0.2865  0.9147 -0.1145
 1129SOL     OW14848   2.613   3.356  11.553 -0.2504  0.2804 -0.4454
 1129SOL    HW114849   2.610   3.395  11.466  0.3675 -0.9057 -1.0036
 1129SOL    HW214850   2.528   3.393  11.577  0.6228  1.3337  1.0655
 1130SOL     OW14851   0.471   0.675   7.074  0.0634 -0.0318 -0.2846
 1130SOL    HW114852   0.521   0.643   7.149 -2.4622  1.3576  2.0097
 1130SOL    HW214853   0.497   0.767   7.067 -1.9135  0.6857  1.7599
 1131SOL     OW14854   0.341   4.689   7.757  0.4289 -0.4909 -0.0755
 1131SOL    HW114855   0.323   4.644   7.675 -0.5162  0.6254 -0.4901
 1131SOL    HW214856   0.432   4.659   7.762  0.8104  1.3449  3.7532
 1132SOL     OW14857   1.009   0.872   4.207  0.2903 -0.1767  0.4522
 1132SOL    HW114858   0.988   0.782   4.233 -3.2064 -0.4475 -3.2551
 1132SOL    HW214859   1.085   0.877   4.265  0.6412  0.2227 -0.0404
 1133SOL     OW14860   3.333   0.351   7.603 -0.3196 -0.4495 -0.1099
 1133SOL    HW114861   3.301   0.367   7.692 -0.7758  0.2900 -0.4129
 1133SOL    HW214862   3.335   0.256   7.598  0.5958 -0.6270  3.3563
 1134SOL     OW14863   2.054   4.400   2.296  0.2886 -0.0829  0.7337
 1134SOL    HW114864   2.052   4.305   2.300 -0.6849 -0.0817  0.2784
 1134SOL    HW214865   2.037   4.427   2.386 -0.2381 -1.9238  1.1790
 1135SOL     OW14866   0.189   1.727   2.736 -0.3467  0.2596  0.1815
 1135SOL    HW114867   0.120   1.776   2.780 -0.1357 -0.5642  1.4399
 1135SOL    HW214868   0.216   1.659   2.798  2.4933  0.9367 -0.3180
 1136SOL     OW14869   0.791   2.343   5.655  0.1022  0.5883  0.0941
 1136SOL    HW114870   0.775   2.406   5.725  1.0599  1.6231 -0.6172
 1136SOL    HW214871   0.699   2.329   5.633  0.2541 -1.7576  0.9925
 1137SOL     OW14872   0.091   0.631  15.888 -0.0691 -0.1426 -0.3308
 1137SOL    HW114873   4.719   0.654  15.894  0.4894  1.6115  1.5943
 1137SOL    HW214874   0.074   0.548  15.843  0.4767  0.3429 -1.4160
 1138SOL     OW14875   1.391   3.198   1.007 -0.9166  0.5277  0.2142
 1138SOL    HW114876   1.348   3.126   1.053  1.6679 -0.6813  0.7929
 1138SOL    HW214877   1.439   3.244   1.076  1.5883 -2.2711  0.3530
 1139SOL     OW14878   3.441   4.205   4.741 -0.4148 -0.3196 -0.1620
 1139SOL    HW114879   3.434   4.239   4.652 -1.0133 -0.7886 -0.2963
 1139SOL    HW214880   3.454   4.111   4.729  0.5788 -0.0718 -0.9844
 1140SOL     OW14881   0.608   4.168   9.282 -0.1656  0.1393  0.3212
 1140SOL    HW114882   0.679   4.115   9.245 -1.0628 -0.6196 -0.2912
 1140SOL    HW214883   0.608   4.238   9.217 -0.8074 -0.2418 -0.0815
 1141SOL     OW14884   2.399   4.164   3.118 -0.1083 -0.1245 -0.5534
 1141SOL    HW114885   2.325   4.200   3.069  1.1560  0.9087 -1.7322
 1141SOL    HW214886   2.468   4.188   3.056 -2.4054  2.0549 -2.2753
 1142SOL     OW14887   0.957   2.892  10.360  0.0832 -0.2723  0.0197
 1142SOL    HW114888   0.961   2.928  10.449 -0.3390 -0.6297  0.1830
 1142SOL    HW214889   0.917   2.961  10.308 -0.3982  1.2497  2.3914
 1143SOL     OW14890   0.303   1.692  14.685 -0.3156  0.0485  0.5350
 1143SOL    HW114891   0.371   1.732  14.740 -1.5820 -1.3828  3.1577
 1143SOL    HW214892   0.354   1.655  14.613 -1.7970 -3.4367  1.2688
 1144SOL     OW14893   3.613   3.277  16.483  0.0276 -0.2707  0.1991
 1144SOL    HW114894   3.649   3.331  16.412 -0.0470  0.1701  0.4955
 1144SOL    HW214895   3.573   3.205  16.435 -1.5737  2.2448 -2.2410
 1145SOL     OW14896   4.000   1.675   2.138 -0.3870  0.2731 -0.4364
 1145SOL    HW114897   3.977   1.610   2.072 -0.3348 -3.6551  3.3961
 1145SOL    HW214898   4.093   1.691   2.123 -0.2896  0.4082  0.3152
 1146SOL     OW14899   4.339   2.514  13.188  0.1512 -0.9396  0.4140
 1146SOL    HW114900   4.257   2.517  13.238 -1.2632  2.3799 -2.1360
 1146SOL    HW214901   4.395   2.567  13.245 -1.0436  0.8618 -0.0798
 1147SOL     OW14902   0.687   0.362   5.068 -0.0768  0.1526  0.5498
 1147SOL    HW114903   0.741   0.324   5.137  1.2331  1.8001  0.4215
 1147SOL    HW214904   0.680   0.291   5.005  0.5974 -0.1052  0.7714
 1148SOL     OW14905   1.769   0.658   8.817 -0.3794  0.0188 -0.1663
 1148SOL    HW114906   1.756   0.666   8.722 -0.6815  0.0013 -0.1268
 1148SOL    HW214907   1.721   0.726   8.864 -0.5128 -1.7407  2.2234
 1149SOL     OW14908   2.455   3.601   3.332  0.1046 -0.1966  0.3691
 1149SOL    HW114909   2.463   3.686   3.375  0.6067 -0.5319  0.9358
 1149SOL    HW214910   2.509   3.552   3.395  1.5938  1.7403  0.6154
 1150SOL     OW14911   2.951   2.245   8.870  0.0564  0.1126 -0.5597
 1150SOL    HW114912   2.923   2.175   8.810 -1.3767  0.9834 -0.9120
 1150SOL    HW214913   2.884   2.249   8.938  1.6583 -1.2451  1.1083
 1151SOL     OW14914   4.341   0.126   3.720 -0.0771 -0.1178 -0.1731
 1151SOL    HW114915   4.361   0.215   3.748 -0.0475  0.6070 -2.4470
 1151SOL    HW214916   4.248   0.117   3.738 -0.1724  0.4309 -0.4064
 1152SOL     OW14917   4.467   1.768  11.207  0.0459  0.0208  0.2104
 1152SOL    HW114918   4.556   1.776  11.175  0.2292  1.8874  1.1691
 1152SOL    HW214919   4.487   1.735  11.295  1.7155 -0.7943 -0.4781
 1153SOL     OW14920   0.013   1.965   3.064 -0.6956  0.1772 -0.1501
 1153SOL    HW114921   0.076   2.025   3.025  1.9482 -0.6845  2.8120
 1153SOL    HW214922   4.707   1.917   2.986  1.9924  0.0060 -0.9811
 1154SOL     OW14923   1.099   1.164   6.370 -0.1543  0.1819  0.0227
 1154SOL    HW114924   1.081   1.177   6.277  2.7625 -0.6529 -0.6676
 1154SOL    HW214925   1.193   1.180   6.378 -0.4462  0.9789  1.8023
 1155SOL     OW14926   1.453   1.962   4.792  0.6861 -0.6113  0.0477
 1155SOL    HW114927   1.409   1.931   4.872 -1.8457 -1.7504 -1.7838
 1155SOL    HW214928   1.535   1.995   4.830  0.3149  0.6450 -0.2592
 1156SOL     OW14929   1.350   2.419   2.826 -0.1912  0.6308  1.0383
 1156SOL    HW114930   1.391   2.404   2.741  1.7123  0.4689  1.9910
 1156SOL    HW214931   1.289   2.491   2.807 -1.0622  0.1300  1.9485
 1157SOL     OW14932   3.273   4.704   2.217  0.2441  0.1095 -0.6315
 1157SOL    HW114933   3.246   0.071   2.242  0.0569 -0.0513 -0.2576
 1157SOL    HW214934   3.230   4.653   2.285  0.6555 -0.1632 -0.5813
 1158SOL     OW14935   1.488   1.135   6.838  0.0993 -0.1653 -0.2690
 1158SOL    HW114936   1.467   1.050   6.876  1.6810 -0.6030 -0.3516
 1158SOL    HW214937   1.573   1.110   6.803  0.3144  1.6226 -1.0317
 1159SOL     OW14938   3.219   4.375   2.952 -0.0025  0.2700  0.5783
 1159SOL    HW114939   3.296   4.424   2.923 -0.9944 -1.0696 -4.2635
 1159SOL    HW214940   3.242   4.282   2.957  2.1226  0.6952 -0.9347
 1160SOL     OW14941   2.112   2.762   5.351 -0.3099 -0.3837 -0.1756
 1160SOL    HW114942   2.201   2.792   5.368 -0.4258 -0.4775  0.6179
 1160SOL    HW214943   2.135   2.670   5.360  3.0377  0.3970 -0.8826
 1161SOL     OW14944   0.942   2.956  14.899  0.1227 -0.0677 -0.0911
 1161SOL    HW114945   0.862   2.924  14.857  0.3721  2.6813 -2.6573
 1161SOL    HW214946   0.907   2.963  14.988 -0.8171 -1.2728 -0.3655
 1162SOL     OW14947   0.556   2.533   1.277 -0.1189 -0.2610  0.4918
 1162SOL    HW114948   0.479   2.526   1.334 -1.2527  1.1639 -0.8604
 1162SOL    HW214949   0.609   2.457   1.302  0.5606  0.8549  2.4376
 1163SOL     OW14950   4.617   3.471   7.707  0.4623  0.4542  0.2934
 1163SOL    HW114951   4.595   3.389   7.749  1.3068 -0.7995 -1.7188
 1163SOL    HW214952   4.549   3.538   7.711 -1.5664 -1.5528 -0.6285
 1164SOL     OW14953   3.945   1.424  14.347  0.0301 -0.0873 -0.8461
 1164SOL    HW114954   4.010   1.374  14.298  0.7983 -0.4824  0.5903
 1164SOL    HW214955   3.909   1.488  14.285 -0.4676 -0.1279 -0.6038
 1165SOL     OW14956   1.798   1.132   8.718 -0.3587 -0.0002  0.4854
 1165SOL    HW114957   1.834   1.093   8.798  0.7650 -0.4984 -0.2694
 1165SOL    HW214958   1.722   1.078   8.695  0.2969 -0.2854 -0.9669
 1166SOL     OW14959   0.528   4.241   5.766  0.1172  0.0647  0.1775
 1166SOL    HW114960   0.610   4.291   5.772 -0.3929  0.8865  0.3308
 1166SOL    HW214961   0.487   4.259   5.850  1.1174 -0.5555  0.7973
 1167SOL     OW14962   3.532   2.263  15.471 -0.5189  0.5988  0.1852
 1167SOL    HW114963   3.488   2.304  15.546 -1.6401 -0.4482  0.0940
 1167SOL    HW214964   3.623   2.270  15.498 -0.4503 -0.1430  0.1301
 1168SOL     OW14965   2.222   2.484  11.351 -0.2884 -0.0867  0.6337
 1168SOL    HW114966   2.270   2.524  11.279 -1.0041  0.5888  0.5301
 1168SOL    HW214967   2.294   2.488  11.414  0.6774 -0.4399 -0.4665
 1169SOL     OW14968   1.289   2.728  10.296  0.6785  0.1282  0.6941
 1169SOL    HW114969   1.384   2.724  10.308  0.5549 -0.4605  1.4359
 1169SOL    HW214970   1.263   2.782  10.371  1.7044  0.0784  1.0768
 1170SOL     OW14971   1.156   2.737  17.277  0.0519 -0.5966  0.0633
 1170SOL    HW114972   1.114   2.777  17.353 -1.7188 -0.5532 -0.9222
 1170SOL    HW214973   1.085   2.674  17.261 -0.7737  0.9513 -2.3011
 1171SOL     OW14974   3.884   2.640  16.598 -0.1150  0.8552 -0.1544
 1171SOL    HW114975   3.860   2.563  16.650 -1.1798  1.4990  0.3167
 1171SOL    HW214976   3.896   2.711  16.662  0.2973 -0.8883  1.6786
 1172SOL     OW14977   1.073   4.105  10.745  0.7045  0.3801  0.2802
 1172SOL    HW114978   1.058   4.024  10.697  0.3751  1.0852 -0.7939
 1172SOL    HW214979   1.109   4.074  10.828 -0.6264 -1.3189  0.2377
 1173SOL     OW14980   2.302   2.899   4.577  0.5508 -0.5409  0.0719
 1173SOL    HW114981   2.286   2.869   4.666  1.0490 -0.1074  0.3069
 1173SOL    HW214982   2.288   2.993   4.587  0.4181 -0.5509 -0.0091
 1174SOL     OW14983   3.857   3.288   2.559  0.0313 -0.3833  0.0189
 1174SOL    HW114984   3.768   3.265   2.585 -0.1352 -0.2861 -0.4527
 1174SOL    HW214985   3.839   3.308   2.467 -2.0273 -2.4287 -0.0179
 1175SOL     OW14986   3.740   1.437   2.268  0.4126 -0.3259 -0.2972
 1175SOL    HW114987   3.742   1.531   2.254 -1.8154 -0.3411 -0.7197
 1175SOL    HW214988   3.651   1.412   2.243  0.0105  2.2212 -1.4051
 1176SOL     OW14989   1.641   3.768  10.080 -0.1919 -0.4017  0.4368
 1176SOL    HW114990   1.704   3.829  10.119  0.8301 -2.2446  1.6251
 1176SOL    HW214991   1.557   3.811  10.095 -0.5644 -1.4966  1.4502
 1177SOL     OW14992   0.491   3.732   5.929  0.2770  0.2380 -0.1192
 1177SOL    HW114993   0.548   3.751   6.004 -1.4374  1.7908  0.8026
 1177SOL    HW214994   0.553   3.717   5.858  1.1216  1.9592  0.2454
 1178SOL     OW14995   0.024   1.107   6.613  0.0293  0.3694  0.1392
 1178SOL    HW114996   0.071   1.084   6.694 -0.2117  0.9300  0.4412
 1178SOL    HW214997   0.104   1.123   6.563 -1.0998 -1.3421 -2.1777
 1179SOL     OW14998   4.441   1.034   1.322  0.1704  0.1686  0.3228
 1179SOL    HW114999   4.409   1.112   1.368 -0.5491  1.1764 -1.8976
 1179SOL    HW215000   4.536   1.049   1.320  0.2261 -0.2487 -0.0766
 1180SOL     OW15001   0.266   3.218   9.860 -0.1188 -0.1078  0.3003
 1180SOL    HW115002   0.228   3.305   9.872 -0.7961 -0.3677  0.0195
 1180SOL    HW215003   0.196   3.162   9.893  0.0717 -1.3688 -1.4215
 1181SOL     OW15004   4.475   1.945   5.405  0.0557 -0.4397  0.2174
 1181SOL    HW115005   4.455   1.890   5.481 -2.2783 -1.9462 -1.4704
 1181SOL    HW215006   4.485   2.032   5.443  0.7859 -0.4853  0.1282
 1182SOL     OW15007   1.853   4.545  11.438 -0.2072  0.1974 -0.3337
 1182SOL    HW115008   1.895   4.506  11.361 -0.0972  0.9967 -0.6754
 1182SOL    HW215009   1.787   4.590  11.386  2.2591  1.1997 -2.5465
 1183SOL     OW15010   1.742   1.052  17.216 -0.0335  0.4455 -0.0820
 1183SOL    HW115011   1.828   1.078  17.185 -1.6716  0.3732 -4.7312
 1183SOL    HW215012   1.715   0.977  17.163  1.5968  0.2375 -0.5954
 1184SOL     OW15013   1.463   1.719   7.403 -0.1194 -0.0037 -0.3518
 1184SOL    HW115014   1.433   1.708   7.313 -3.0844 -0.6254  0.7112
 1184SOL    HW215015   1.507   1.804   7.400 -1.7248  0.9251  2.2932
 1185SOL     OW15016   3.070   4.422   2.038 -0.3840  0.1247  0.3641
 1185SOL    HW115017   3.125   4.394   2.111 -0.0057  3.8887  1.5128
 1185SOL    HW215018   3.073   4.356   1.969  0.3520 -1.0384  1.5055
 1186SOL     OW15019   0.082   2.372   6.632  0.2949  0.6596  0.2283
 1186SOL    HW115020   0.000   2.394   6.678 -0.6005  0.7102 -1.3693
 1186SOL    HW215021   0.077   2.428   6.554  1.3699 -0.6785 -0.7863
 1187SOL     OW15022   1.218   3.400   0.328 -0.1250 -0.2207 -0.1080
 1187SOL    HW115023   1.280   3.446   0.384  2.4900 -1.4037 -2.0102
 1187SOL    HW215024   1.271   3.357   0.261 -0.3655 -0.1032 -0.3709
 1188SOL     OW15025   0.799   2.830   5.195 -0.8062 -0.0351  0.0742
 1188SOL    HW115026   0.851   2.876   5.129  0.5756 -1.7475 -0.0217
 1188SOL    HW215027   0.793   2.892   5.268 -1.1135 -0.4158  0.3738
 1189SOL     OW15028   0.301   0.776   9.197  0.0735  0.6693  0.3553
 1189SOL    HW115029   0.213   0.746   9.170 -0.1314  0.6601  1.0450
 1189SOL    HW215030   0.302   0.858   9.149 -1.7365  0.5828  0.1577
 1190SOL     OW15031   1.046   1.404   5.728 -0.3320  0.4469  0.1673
 1190SOL    HW115032   1.026   1.485   5.774  0.2716 -0.0724  1.3337
 1190SOL    HW215033   1.141   1.395   5.735 -0.3650 -0.2189 -0.2344
 1191SOL     OW15034   3.787   2.207  12.106 -0.5547  0.3453  0.6082
 1191SOL    HW115035   3.839   2.204  12.025 -2.9794  0.1442 -0.9341
 1191SOL    HW215036   3.823   2.130  12.150 -1.0242  0.4714  1.2013
 1192SOL     OW15037   3.601   0.321   3.011 -0.0565 -0.4166  0.4323
 1192SOL    HW115038   3.647   0.303   3.093  1.4543 -0.7217 -0.4863
 1192SOL    HW215039   3.671   0.342   2.949 -0.0550  2.0454  1.2941
 1193SOL     OW15040   2.214   3.858  16.722 -0.2482  0.1173  0.1120
 1193SOL    HW115041   2.146   3.895  16.666  0.6245 -0.5302 -1.3821
 1193SOL    HW215042   2.275   3.930  16.739 -2.6344  2.5150 -1.4648
 1194SOL     OW15043   1.095   3.928   0.186 -0.8514 -0.1963  0.5365
 1194SOL    HW115044   1.079   3.842   0.224  3.2944 -2.5890 -3.2270
 1194SOL    HW215045   1.186   3.910   0.164 -0.5168  0.4974  1.3178
 1195SOL     OW15046   0.971   1.920   3.951  0.4168  0.1364  0.6055
 1195SOL    HW115047   1.052   1.972   3.958  1.2173 -1.1014  0.6189
 1195SOL    HW215048   1.014   1.835   3.945  2.3862  0.9429  2.9604
 1196SOL     OW15049   2.287   0.127   9.496 -0.0596  0.2998  0.2645
 1196SOL    HW115050   2.194   0.120   9.514 -0.2713  1.2468 -0.4329
 1196SOL    HW215051   2.298   0.078   9.415  1.5179  1.7613 -0.4150
 1197SOL     OW15052   3.916   1.333   8.331  0.3340 -0.4690 -0.1350
 1197SOL    HW115053   3.844   1.289   8.285  1.0384  0.7524 -2.4300
 1197SOL    HW215054   3.969   1.256   8.352  2.0227  1.1922  1.6594
 1198SOL     OW15055   4.218   2.688   3.118 -0.2036  0.0084 -0.0202
 1198SOL    HW115056   4.295   2.704   3.173  0.6648 -0.6098 -1.0600
 1198SOL    HW215057   4.204   2.596   3.141 -0.6666 -0.1117 -0.7840
 1199SOL     OW15058   2.998   1.756   2.872  0.0753  0.3123 -0.3120
 1199SOL    HW115059   3.065   1.694   2.844 -0.0651 -0.4623  1.0715
 1199SOL    HW215060   2.924   1.699   2.849  0.3495 -0.0856 -0.2102
 1200SOL     OW15061   2.543   3.368  13.106 -0.5966 -0.0951 -0.2111
 1200SOL    HW115062   2.588   3.450  13.124 -0.7036 -0.1048  0.0948
 1200SOL    HW215063   2.479   3.400  13.043 -0.1874  1.2748  0.0713
 1201SOL     OW15064   2.563   1.392  11.934 -0.0624 -0.4085 -0.1342
 1201SOL    HW115065   2.631   1.459  11.944 -0.3266 -0.2075  0.2904
 1201SOL    HW215066   2.537   1.361  12.020  1.0794 -0.6744  0.1054
 1202SOL     OW15067   4.562   4.244   2.155  0.4653  0.4027 -0.1722
 1202SOL    HW115068   4.648   4.219   2.188 -0.5923 -2.8666  0.0401
 1202SOL    HW215069   4.555   4.332   2.193 -3.0462  0.9947 -2.1731
 1203SOL     OW15070   1.904   0.413   3.838  0.4167  0.2308  0.2554
 1203SOL    HW115071   1.856   0.496   3.846 -0.3858 -0.3951  1.9314
 1203SOL    HW215072   1.943   0.428   3.752 -1.2854  0.2595 -0.5063
 1204SOL     OW15073   2.518   0.605   3.867  0.4796 -0.5610 -0.0477
 1204SOL    HW115074   2.538   0.694   3.895  0.4047 -0.5219 -0.1179
 1204SOL    HW215075   2.424   0.591   3.878  0.4435 -1.4965 -1.5195
 1205SOL     OW15076   1.528   0.210  11.780  0.0436 -0.3126 -0.3464
 1205SOL    HW115077   1.482   0.231  11.862 -1.3437 -1.7745 -0.7349
 1205SOL    HW215078   1.510   0.280  11.718 -0.4653  0.9458  1.2130
 1206SOL     OW15079   1.138   1.011   7.851 -0.0755 -0.0517 -0.8257
 1206SOL    HW115080   1.213   0.952   7.844  0.3615  0.5737 -1.4007
 1206SOL    HW215081   1.157   1.077   7.784 -0.1224 -2.1276 -2.9001
 1207SOL     OW15082   2.671   3.414   8.404  0.3189  0.0387  0.0754
 1207SOL    HW115083   2.601   3.461   8.359  0.2920  0.2333  0.3210
 1207SOL    HW215084   2.732   3.487   8.398 -0.5387  0.5740 -2.1326
 1208SOL     OW15085   1.516   3.517   2.711  0.2427  0.1300 -0.4084
 1208SOL    HW115086   1.433   3.476   2.687 -0.8180  3.0363 -1.7772
 1208SOL    HW215087   1.567   3.438   2.701  0.7351  0.7252 -2.4496
 1209SOL     OW15088   0.802   3.716  10.840  0.3176 -0.2050 -0.0584
 1209SOL    HW115089   0.814   3.784  10.907  1.0830 -0.6289  0.2405
 1209SOL    HW215090   0.745   3.771  10.786  1.9386  2.1389  0.5968
 1210SOL     OW15091   2.731   2.304   1.458  0.3574  0.3572 -0.3207
 1210SOL    HW115092   2.742   2.239   1.389 -0.1288  1.3730 -1.3640
 1210SOL    HW215093   2.820   2.338   1.463  0.2585  0.5866 -0.1506
 1211SOL     OW15094   4.615   0.586   5.464  0.1930  0.3828 -0.1791
 1211SOL    HW115095   4.541   0.604   5.406 -2.1780 -0.3057  2.6225
 1211SOL    HW215096   4.572   0.604   5.547 -0.5632  1.1452 -0.7382
 1212SOL     OW15097   0.934   3.910   5.448 -0.2415 -0.2592 -0.1888
 1212SOL    HW115098   0.939   3.956   5.364 -0.5466  1.0324  0.5038
 1212SOL    HW215099   1.024   3.878   5.452 -0.1245 -0.1121 -1.4062
 1213SOL     OW15100   0.485   3.405  10.246  0.7321  0.0781 -0.1618
 1213SOL    HW115101   0.400   3.441  10.221  1.4895  0.3448 -2.3598
 1213SOL    HW215102   0.526   3.482  10.286 -1.4339  2.0511 -1.7417
 1214SOL     OW15103   4.618   3.606  14.730  0.9930 -0.0221  0.4530
 1214SOL    HW115104   4.706   3.578  14.703  0.1070 -1.2598 -1.2075
 1214SOL    HW215105   4.560   3.583  14.657 -0.4527  2.2996  0.8813
 1215SOL     OW15106   3.838   3.330   2.276 -0.0134 -0.1923  0.0852
 1215SOL    HW115107   3.910   3.311   2.216  1.8158 -1.7063  2.7457
 1215SOL    HW215108   3.779   3.389   2.228  0.7760  1.8793  1.6776
 1216SOL     OW15109   3.556   1.266  14.661  0.5537  0.4011 -0.1774
 1216SOL    HW115110   3.648   1.279  14.681  0.3482  2.0875 -0.3349
 1216SOL    HW215111   3.517   1.233  14.743 -1.4918  0.7229 -1.0103
 1217SOL     OW15112   0.087   0.262  15.159  0.6274  0.2644 -0.4489
 1217SOL    HW115113   0.095   0.299  15.071 -0.3489  0.0419 -0.6354
 1217SOL    HW215114   0.170   0.287  15.199  0.2514  0.9575 -0.0992
 1218SOL     OW15115   1.255   4.536   0.941 -0.0572  0.2148  0.2040
 1218SOL    HW115116   1.332   4.499   0.897 -1.5773 -1.1727 -1.3053
 1218SOL    HW215117   1.268   4.631   0.937 -0.8749  0.3789  1.6107
 1219SOL     OW15118   4.226   0.200   1.727 -0.0068  0.2920 -0.1950
 1219SOL    HW115119   4.201   0.251   1.804 -3.5092  1.7840 -2.3187
 1219SOL    HW215120   4.142   0.159   1.704  0.4158  0.2294 -1.6167
 1220SOL     OW15121   0.396   3.372   7.981 -0.1110 -0.7205 -0.0049
 1220SOL    HW115122   0.388   3.343   7.890 -0.6600  0.4927 -0.3441
 1220SOL    HW215123   0.304   3.398   7.991  0.6800  1.1355  2.2362
 1221SOL     OW15124   4.671   3.478  15.028 -0.5145 -0.3844 -0.0074
 1221SOL    HW115125   4.635   3.444  15.110 -1.2427  0.0245 -0.1505
 1221SOL    HW215126   4.679   3.395  14.981 -1.5413  0.8903 -2.4155
 1222SOL     OW15127   3.132   2.152   3.160  0.7966 -0.1665 -0.1994
 1222SOL    HW115128   3.173   2.123   3.078 -0.0785  0.3994 -0.8492
 1222SOL    HW215129   3.044   2.175   3.128 -0.7108 -4.2301  1.0459
 1223SOL     OW15130   3.722   1.380   7.953  0.1257  0.3573 -0.4412
 1223SOL    HW115131   3.707   1.328   8.032  0.0079  0.8568 -0.1342
 1223SOL    HW215132   3.812   1.402   7.975 -1.2600  2.3502  3.1752
 1224SOL     OW15133   0.450   2.629   8.723 -0.5945  0.4579  0.2080
 1224SOL    HW115134   0.519   2.686   8.690  0.1966 -0.7149 -0.1789
 1224SOL    HW215135   0.469   2.638   8.817  0.3555  2.5143 -0.1872
 1225SOL     OW15136   3.211   4.609   3.914 -0.5060 -0.0308 -0.0822
 1225SOL    HW115137   3.179   4.658   3.990 -0.5036 -1.2709  0.7247
 1225SOL    HW215138   3.165   4.525   3.927  0.5886 -0.5182  0.6408
 1226SOL     OW15139   0.603   2.096  15.756  0.3436 -0.1511  0.5335
 1226SOL    HW115140   0.567   2.082  15.668 -1.1786  1.8804  0.8731
 1226SOL    HW215141   0.649   2.179  15.745  0.7084 -0.3489  0.5532
 1227SOL     OW15142   1.307   4.580   9.014 -0.5955 -0.3483  0.2771
 1227SOL    HW115143   1.277   4.649   8.954  0.0915  0.2031  0.5651
 1227SOL    HW215144   1.401   4.595   9.012 -1.0219  2.2664 -0.5038
 1228SOL     OW15145   0.938   1.365  13.709  0.6973  0.1930  0.4540
 1228SOL    HW115146   0.904   1.321  13.631  0.3093  1.2394  0.0255
 1228SOL    HW215147   0.999   1.295  13.730 -0.7831 -0.8527  1.2495
 1229SOL     OW15148   2.066   1.138   0.738  0.0428 -0.0189 -0.3521
 1229SOL    HW115149   2.143   1.110   0.788 -1.1898 -1.7599  0.5537
 1229SOL    HW215150   2.018   1.055   0.742 -0.9792  0.5512 -1.1453
 1230SOL     OW15151   2.049   3.284   9.101  0.0772  0.2679 -0.1661
 1230SOL    HW115152   2.047   3.191   9.126 -0.3710  0.1808 -0.5212
 1230SOL    HW215153   2.105   3.277   9.023 -1.0422 -0.7579 -0.8770
 1231SOL     OW15154   4.496   3.732   2.721 -0.3926 -0.0693 -0.0053
 1231SOL    HW115155   4.502   3.664   2.788 -1.4185  0.2975  0.4585
 1231SOL    HW215156   4.490   3.675   2.644 -1.1936 -0.5186  0.3782
 1232SOL     OW15157   2.846   0.051   8.211  0.3003  0.0395  0.0035
 1232SOL    HW115158   2.765   0.028   8.166  1.5939  0.1668 -2.3641
 1232SOL    HW215159   2.885   4.686   8.218  1.7131  0.5061 -2.1919
 1233SOL     OW15160   3.328   3.259  14.843  0.1040  0.3185  0.1269
 1233SOL    HW115161   3.410   3.310  14.839 -0.9042  1.9736  0.5421
 1233SOL    HW215162   3.295   3.288  14.758 -0.8293 -1.9023 -0.2572
 1234SOL     OW15163   3.850   1.782  13.706  0.3848 -0.2330 -0.1858
 1234SOL    HW115164   3.762   1.749  13.724  0.4310  0.7645  1.8173
 1234SOL    HW215165   3.901   1.740  13.775  0.4819 -0.6507 -0.5123
 1235SOL     OW15166   1.925   3.317   6.025  0.6417  0.0947  0.1813
 1235SOL    HW115167   1.989   3.246   6.027 -0.4238 -0.8530  1.4857
 1235SOL    HW215168   1.902   3.331   6.117 -1.8980 -1.6471 -0.1757
 1236SOL     OW15169   4.576   3.745   8.879  0.0414  0.1031 -0.4337
 1236SOL    HW115170   4.624   3.715   8.802 -0.0487  3.3174 -1.7470
 1236SOL    HW215171   4.654   3.754   8.933 -0.2790  0.2548  0.0070
 1237SOL     OW15172   3.260   2.181  13.941 -0.1634 -0.1278 -0.1636
 1237SOL    HW115173   3.190   2.117  13.953 -0.1406 -0.1663 -0.2371
 1237SOL    HW215174   3.208   2.262  13.940  0.5117  0.2907 -1.5810
 1238SOL     OW15175   2.216   2.890  16.380  0.2423 -0.2626  0.3616
 1238SOL    HW115176   2.174   2.822  16.328  1.4860 -0.3407 -0.5457
 1238SOL    HW215177   2.211   2.964  16.319  0.1558  0.5575  1.3785
 1239SOL     OW15178   1.446   3.437   2.040 -0.1034  0.1577 -0.4020
 1239SOL    HW115179   1.506   3.376   2.083 -0.1718  1.2975  1.2881
 1239SOL    HW215180   1.506   3.511   2.046  0.3348 -0.1047 -1.6778
 1240SOL     OW15181   3.603   1.984   2.180 -0.0397  0.3521 -0.0504
 1240SOL    HW115182   3.662   1.946   2.115 -1.0818 -0.4677 -0.5303
 1240SOL    HW215183   3.519   1.986   2.134  1.7501 -1.0456 -3.3948
 1241SOL     OW15184   3.568   1.933   1.167  0.3382 -0.1390  0.5413
 1241SOL    HW115185   3.563   1.959   1.075 -1.2252 -0.3831  0.5666
 1241SOL    HW215186   3.476   1.945   1.191  0.3911  0.2144  0.5609
 1242SOL     OW15187   0.499   3.660   6.962 -0.1807  0.5702  0.4156
 1242SOL    HW115188   0.484   3.753   6.981 -0.4810  1.2171 -2.8992
 1242SOL    HW215189   0.530   3.673   6.872 -2.9938 -0.6774 -0.7191
 1243SOL     OW15190   3.401   4.270   2.596  0.3397 -0.1353  0.1811
 1243SOL    HW115191   3.426   4.178   2.585  1.9146  0.3297 -0.0792
 1243SOL    HW215192   3.306   4.265   2.588  0.2846  2.0011 -0.5886
 1244SOL     OW15193   1.910   3.055   3.808  0.3419  0.1043 -0.1713
 1244SOL    HW115194   1.899   2.972   3.855  0.8822 -0.8419 -1.7104
 1244SOL    HW215195   1.981   3.022   3.753  1.2557  2.6426 -0.5200
 1245SOL     OW15196   1.944   1.759   4.382 -0.3134  0.2541  0.2308
 1245SOL    HW115197   1.909   1.762   4.293 -2.1561  3.2444  1.0524
 1245SOL    HW215198   1.884   1.808   4.437  0.7360 -1.0065  2.5011
 1246SOL     OW15199   4.695   1.392   6.247  0.1293 -0.7550  0.3859
 1246SOL    HW115200   0.034   1.462   6.272  0.2748 -0.3563 -1.1373
 1246SOL    HW215201   4.659   1.435   6.170  0.4607  0.0738  0.7012
 1247SOL     OW15202   4.635   0.209   5.055 -0.3009  0.1509  0.1431
 1247SOL    HW115203   4.714   0.207   5.109  1.7649  2.2287 -2.7678
 1247SOL    HW215204   4.557   0.176   5.100  0.3378 -0.5319  0.7367
 1248SOL     OW15205   4.124   3.796   2.097  0.0303 -0.1980  0.2802
 1248SOL    HW115206   4.198   3.799   2.035 -0.5340  0.9815 -0.3360
 1248SOL    HW215207   4.158   3.831   2.179  0.7952 -1.8788  0.6831
 1249SOL     OW15208   4.543   4.080   7.612  0.3917  0.3385  0.5598
 1249SOL    HW115209   4.493   4.116   7.686  2.0503  0.9363  1.3905
 1249SOL    HW215210   4.541   3.987   7.633  1.8476  0.1934  0.0574
 1250SOL     OW15211   1.143   0.978   3.805 -0.1767 -0.2597  0.4580
 1250SOL    HW115212   1.233   0.947   3.807 -0.1315 -0.1788 -0.1581
 1250SOL    HW215213   1.098   0.896   3.823 -1.4509  0.6029  1.1864
 1251SOL     OW15214   2.321   3.792  12.622  0.3472  0.6369  0.1680
 1251SOL    HW115215   2.330   3.857  12.691  0.4331  0.2510  0.5201
 1251SOL    HW215216   2.397   3.796  12.564  1.3243 -1.1403  1.3249
 1252SOL     OW15217   3.591   0.346  10.035  0.6000 -0.3379 -0.5847
 1252SOL    HW115218   3.685   0.345  10.021  1.1104  0.8585  2.7566
 1252SOL    HW215219   3.586   0.429  10.082 -1.6525 -0.3635 -0.7907
 1253SOL     OW15220   3.349   3.842  12.500 -0.0863 -0.0599  0.3764
 1253SOL    HW115221   3.395   3.900  12.439 -1.4317  0.9935  0.3602
 1253SOL    HW215222   3.412   3.771  12.512  0.9856  0.6845 -0.8438
 1254SOL     OW15223   0.198   3.348   7.132 -0.0115 -0.5927  0.3762
 1254SOL    HW115224   0.201   3.301   7.215  0.4821  0.0636  0.7256
 1254SOL    HW215225   0.238   3.430   7.160 -0.2308 -0.3640  0.0164
 1255SOL     OW15226   2.735   4.340   4.445 -0.1232 -0.5605 -0.0935
 1255SOL    HW115227   2.657   4.395   4.451 -0.2911 -1.1129  2.4284
 1255SOL    HW215228   2.713   4.282   4.517  0.4236 -0.0462  0.4823
 1256SOL     OW15229   4.441   3.080   2.615  0.3178  0.2104  0.6171
 1256SOL    HW115230   4.441   3.055   2.522  0.9271  0.6422  0.5043
 1256SOL    HW215231   4.468   2.999   2.657 -0.4436 -0.7162 -0.6906
 1257SOL     OW15232   2.809   0.602   3.035 -0.2828  0.0690  0.4497
 1257SOL    HW115233   2.893   0.558   3.023 -0.5361  0.2816 -2.1290
 1257SOL    HW215234   2.794   0.627   2.944 -0.4751  0.7476  0.6659
 1258SOL     OW15235   1.404   0.032   1.358 -0.1685 -0.4449 -0.0305
 1258SOL    HW115236   1.335   0.081   1.313  0.7572  1.8871  1.0834
 1258SOL    HW215237   1.471   0.083   1.311  1.1456 -0.9404  1.3396
 1259SOL     OW15238   0.546   1.900   4.196  0.1601 -0.3348  0.0687
 1259SOL    HW115239   0.577   1.813   4.170  1.2618  0.3747 -0.9705
 1259SOL    HW215240   0.573   1.913   4.287  0.2988 -0.2132  0.0111
 1260SOL     OW15241   1.729   4.153   5.493 -0.1263  0.2131  0.3224
 1260SOL    HW115242   1.818   4.135   5.462 -0.2670  1.9437 -1.1028
 1260SOL    HW215243   1.703   4.063   5.511 -0.6753  0.6877  1.9015
 1261SOL     OW15244   4.461   1.121   2.834  0.2312 -0.1961  0.2380
 1261SOL    HW115245   4.444   1.194   2.775 -0.9799 -1.2113 -0.6392
 1261SOL    HW215246   4.409   1.154   2.907  2.1382  1.3104  0.9468
 1262SOL     OW15247   1.042   1.832   7.785  0.1449  0.7188 -0.5716
 1262SOL    HW115248   1.075   1.852   7.697  1.4192 -0.4610 -0.3649
 1262SOL    HW215249   0.946   1.831   7.789  0.1752  1.7322  0.3652
 1263SOL     OW15250   4.365   2.555   8.897 -0.3163 -0.5195 -0.0932
 1263SOL    HW115251   4.288   2.524   8.851 -1.5763  1.2554  0.8235
 1263SOL    HW215252   4.427   2.503   8.846  1.1715 -0.4240  1.5798
 1264SOL     OW15253   1.347   2.981  11.068 -0.1902 -1.1549 -0.2918
 1264SOL    HW115254   1.439   2.988  11.093 -0.7748  0.4448  1.3781
 1264SOL    HW215255   1.332   2.889  11.090 -1.8998 -0.8107 -0.0334
 1265SOL     OW15256   4.057   0.425  10.060 -0.7488 -0.1711  0.0486
 1265SOL    HW115257   4.108   0.475  10.124 -0.4142 -1.1709  0.5474
 1265SOL    HW215258   4.111   0.440   9.982  0.2952  1.6015  1.1097
 1266SOL     OW15259   0.875   1.950   1.169  0.1581  0.3883 -0.2550
 1266SOL    HW115260   0.958   1.957   1.215  0.5251 -1.5133 -0.6328
 1266SOL    HW215261   0.889   1.891   1.094 -0.3010  1.0038 -0.8338
 1267SOL     OW15262   0.460   4.109  15.277 -0.4459  0.1140 -0.6329
 1267SOL    HW115263   0.550   4.134  15.255 -0.0318  0.3854  1.3907
 1267SOL    HW215264   0.476   4.073  15.365  0.0309  1.3901 -0.2051
 1268SOL     OW15265   0.408   0.638   2.612 -0.2132  0.5582  0.1577
 1268SOL    HW115266   0.438   0.637   2.521 -1.0195 -1.3200 -0.0895
 1268SOL    HW215267   0.432   0.550   2.641  0.9478  0.8518  0.0767
 1269SOL     OW15268   2.410   3.983   8.270  0.6591  0.5709  0.0484
 1269SOL    HW115269   2.404   3.907   8.328  0.3858  0.1440 -0.5351
 1269SOL    HW215270   2.378   4.049   8.331  1.3554 -0.9940  2.1157
 1270SOL     OW15271   1.238   0.996   8.332  0.1734  0.2850  0.2373
 1270SOL    HW115272   1.207   0.977   8.421 -1.7775 -0.6236 -0.6453
 1270SOL    HW215273   1.170   1.056   8.301  0.5115  0.5886  0.0797
 1271SOL     OW15274   1.147   4.419   6.458  0.0465  0.0625  0.3834
 1271SOL    HW115275   1.232   4.383   6.433 -0.3277 -1.1516  0.8381
 1271SOL    HW215276   1.099   4.337   6.470 -0.4328  0.0828 -1.4110
 1272SOL     OW15277   4.225   1.899   7.197  0.2191  0.1697 -0.1678
 1272SOL    HW115278   4.262   1.819   7.233 -0.9572 -0.4905 -0.4272
 1272SOL    HW215279   4.139   1.865   7.170  0.4586 -0.6137  0.0712
 1273SOL     OW15280   3.785   4.376  15.685 -0.8522  0.4790  0.3404
 1273SOL    HW115281   3.804   4.443  15.750  1.3980  1.0116 -0.8749
 1273SOL    HW215282   3.760   4.301  15.739  0.1999 -1.5929 -2.0276
 1274SOL     OW15283   0.368   0.375   6.092  0.0279 -0.2824 -0.5074
 1274SOL    HW115284   0.279   0.345   6.113 -0.4813  0.3747 -1.7402
 1274SOL    HW215285   0.366   0.467   6.116  1.7534 -0.2595 -0.4937
 1275SOL     OW15286   0.665   3.339   0.903  0.5535  0.1615 -0.1104
 1275SOL    HW115287   0.579   3.305   0.878  0.9671 -1.8649  1.3162
 1275SOL    HW215288   0.705   3.277   0.963  1.5388  0.5587 -0.3495
 1276SOL     OW15289   1.578   3.219  10.113  0.2091  0.2493  0.3986
 1276SOL    HW115290   1.567   3.150  10.049 -0.5212  2.7032 -2.1334
 1276SOL    HW215291   1.672   3.204  10.118 -0.2652 -2.3442  1.2192
 1277SOL     OW15292   0.211   2.603  12.775 -1.0008 -0.2094 -0.6351
 1277SOL    HW115293   0.267   2.680  12.769 -0.2716 -0.8332 -1.7806
 1277SOL    HW215294   0.247   2.554  12.848 -1.9229  1.6559  1.0695
 1278SOL     OW15295   3.143   1.119   8.510 -0.3398  0.4158 -0.2032
 1278SOL    HW115296   3.060   1.090   8.549  1.6026 -2.7945  1.4965
 1278SOL    HW215297   3.111   1.201   8.471  0.3541  0.8102  0.0661
 1279SOL     OW15298   2.477   2.624  11.914  0.5163 -0.2713 -0.1960
 1279SOL    HW115299   2.546   2.689  11.897 -0.0270  0.2438 -0.4431
 1279SOL    HW215300   2.506   2.593  11.999 -0.6819 -0.7058  0.0483
 1280SOL     OW15301   3.836   3.468   8.191  0.0226 -0.1127 -0.8674
 1280SOL    HW115302   3.807   3.384   8.155  0.2486 -0.5668  0.0201
 1280SOL    HW215303   3.862   3.442   8.279  2.2789  1.9700 -0.9228
 1281SOL     OW15304   2.891   3.497   5.898 -0.8586  0.4073  0.9426
 1281SOL    HW115305   2.874   3.481   5.805 -1.7404 -3.6769  1.7892
 1281SOL    HW215306   2.835   3.574   5.910 -1.2633  0.5174 -1.7739
 1282SOL     OW15307   3.469   0.044  11.469  0.0290 -0.1065  0.4478
 1282SOL    HW115308   3.462   0.099  11.391  0.3257  0.1252  0.5814
 1282SOL    HW215309   3.429   4.683  11.442 -1.2885  1.0640 -1.1752
 1283SOL     OW15310   1.593   1.959   6.723  0.3478  0.6686  0.6819
 1283SOL    HW115311   1.572   1.877   6.678 -0.0645  0.1908  1.7400
 1283SOL    HW215312   1.581   2.015   6.647 -0.7653  0.7494  0.9180
 1284SOL     OW15313   0.238   0.968   3.436 -0.4213 -0.2135  0.5139
 1284SOL    HW115314   0.154   0.928   3.458 -0.0138 -1.1502  0.3979
 1284SOL    HW215315   0.270   0.907   3.369  0.6967  0.6591  0.2473
 1285SOL     OW15316   3.717   1.577   6.758  0.3849 -0.0725  0.4306
 1285SOL    HW115317   3.701   1.491   6.718  0.3986  1.1225 -2.1513
 1285SOL    HW215318   3.700   1.556   6.850 -1.2570 -0.9589 -0.0823
 1286SOL     OW15319   2.605   1.334   4.506 -0.1298 -0.2837 -0.5071
 1286SOL    HW115320   2.598   1.398   4.435  1.0484 -1.5280 -1.7492
 1286SOL    HW215321   2.578   1.391   4.578  0.9482  1.3906 -1.4380
 1287SOL     OW15322   3.608   0.969   7.001 -0.3585 -0.1109  0.5899
 1287SOL    HW115323   3.600   0.914   7.079  1.7820 -2.3109 -0.7421
 1287SOL    HW215324   3.535   1.031   7.010 -0.4795 -0.2813  0.7674
 1288SOL     OW15325   0.154   4.127  10.316  0.0046  0.8728  0.4389
 1288SOL    HW115326   0.131   4.064  10.248  2.2885 -0.7610  1.1842
 1288SOL    HW215327   0.245   4.146  10.292 -0.7069  2.6924 -0.8561
 1289SOL     OW15328   1.375   1.185   4.682 -0.8906 -0.7237 -0.1715
 1289SOL    HW115329   1.336   1.102   4.656  1.8679 -1.6368 -1.3454
 1289SOL    HW215330   1.345   1.246   4.614  2.1828 -0.9246 -1.6904
 1290SOL     OW15331   4.101   3.824  16.318 -0.0921 -1.1346  0.5599
 1290SOL    HW115332   4.037   3.884  16.358  2.8991  2.2842  0.2154
 1290SOL    HW215333   4.182   3.859  16.356  0.6287 -0.6046 -1.4728
 1291SOL     OW15334   3.675   1.259   8.219 -0.2615  0.5366 -0.1266
 1291SOL    HW115335   3.582   1.253   8.243 -0.9255 -0.8890 -3.0711
 1291SOL    HW215336   3.678   1.167   8.193  0.6074  0.0390  1.7297
 1292SOL     OW15337   1.906   2.370  10.852  0.0449 -0.0459  0.4505
 1292SOL    HW115338   1.958   2.436  10.896  0.7044  1.1002 -2.0660
 1292SOL    HW215339   1.818   2.407  10.858 -0.2256 -0.5040 -0.5745
 1293SOL     OW15340   3.001   1.720   4.759 -0.4572 -0.1267  0.5442
 1293SOL    HW115341   2.998   1.712   4.663  0.0618 -1.1240  0.6145
 1293SOL    HW215342   2.974   1.812   4.758  0.4185  0.1396  3.1209
 1294SOL     OW15343   2.387   0.080  12.291 -0.4440  0.3288  0.4264
 1294SOL    HW115344   2.304   0.110  12.253  0.2712  1.6156 -0.0902
 1294SOL    HW215345   2.343   0.012  12.343  1.5619  0.1522  1.8698
 1295SOL     OW15346   1.267   3.861   5.172  0.0974 -0.3160 -0.0248
 1295SOL    HW115347   1.279   3.949   5.136 -0.2495  0.1391  0.9957
 1295SOL    HW215348   1.356   3.825   5.172 -0.1822 -1.0092  3.1061
 1296SOL     OW15349   1.808   0.545   3.333  0.1781  0.5602 -0.4849
 1296SOL    HW115350   1.802   0.604   3.258 -0.0335  1.0529 -0.0770
 1296SOL    HW215351   1.785   0.462   3.291 -0.8708  0.0220  1.1404
 1297SOL     OW15352   1.372   3.278   4.133 -0.6971 -0.1747  0.3313
 1297SOL    HW115353   1.341   3.213   4.196  0.7870  0.3926  1.6375
 1297SOL    HW215354   1.312   3.257   4.062  0.6704  1.3119 -1.2433
 1298SOL     OW15355   3.973   1.089   8.089 -0.3341  0.0905  0.1212
 1298SOL    HW115356   3.912   1.044   8.148 -1.2464  1.1446 -0.0232
 1298SOL    HW215357   4.036   1.017   8.083  0.5686  0.9420 -0.5377
 1299SOL     OW15358   3.739   2.829   8.831 -0.4911 -0.0295  0.1390
 1299SOL    HW115359   3.659   2.854   8.876 -1.0374  0.0907 -0.8974
 1299SOL    HW215360   3.749   2.917   8.792  1.1475 -0.0210  0.5898
 1300SOL     OW15361   2.282   2.203   2.366  0.5098 -0.6505  0.5977
 1300SOL    HW115362   2.259   2.129   2.423 -0.7329 -0.2336  0.6460
 1300SOL    HW215363   2.340   2.246   2.430 -0.9475  1.1830  0.6917
 1301SOL     OW15364   1.933   3.555   1.997  0.0440  0.1774 -0.3112
 1301SOL    HW115365   1.893   3.563   2.084  0.0930 -0.5232 -0.2209
 1301SOL    HW215366   1.988   3.480   2.019  0.7300 -0.0368 -2.7790
 1302SOL     OW15367   2.443   0.323   5.344 -0.4224 -0.9545  0.3038
 1302SOL    HW115368   2.483   0.337   5.430  0.4837 -0.8509 -0.1357
 1302SOL    HW215369   2.368   0.381   5.352 -0.0976 -0.4652 -0.2148
 1303SOL     OW15370   4.536   1.048  12.459  0.2930  0.7925 -0.0688
 1303SOL    HW115371   4.554   1.133  12.420  2.9197  1.2040  2.0549
 1303SOL    HW215372   4.448   1.063  12.492  0.8358 -0.8568  2.1639
 1304SOL     OW15373   2.229   4.412  13.660 -0.2602  0.3100 -0.2014
 1304SOL    HW115374   2.226   4.316  13.658  0.6742  0.2097  3.7635
 1304SOL    HW215375   2.320   4.435  13.678 -0.0000  0.4898 -1.6812
 1305SOL     OW15376   3.104   4.090   0.437 -0.3012 -0.3587 -0.1768
 1305SOL    HW115377   3.048   4.100   0.514 -0.0221 -0.3751  0.0260
 1305SOL    HW215378   3.037   4.088   0.368  1.2586 -0.5145 -1.6659
 1306SOL     OW15379   1.549   4.068   4.964 -0.2676  0.1577  0.0195
 1306SOL    HW115380   1.629   4.045   5.010 -1.1134 -3.1593 -0.1620
 1306SOL    HW215381   1.581   4.077   4.874 -1.7751 -0.7707 -0.6034
 1307SOL     OW15382   2.631   1.378   6.735  0.1033  0.1848 -0.0136
 1307SOL    HW115383   2.691   1.451   6.724  2.6760 -1.8025  0.7670
 1307SOL    HW215384   2.696   1.316   6.769  0.9346  0.6257 -0.7965
 1308SOL     OW15385   1.537   1.506   8.197  0.0640 -0.0388 -0.8136
 1308SOL    HW115386   1.615   1.561   8.194 -1.0274  1.4015 -2.3544
 1308SOL    HW215387   1.573   1.421   8.172  3.1774  1.2057 -0.5664
 1309SOL     OW15388   0.442   3.943   4.610  0.1460  1.0414 -0.0468
 1309SOL    HW115389   0.525   3.978   4.580  0.7907 -1.3691 -1.0690
 1309SOL    HW215390   0.465   3.878   4.676 -0.4294  1.1672  0.2816
 1310SOL     OW15391   1.447   3.886   3.643  0.6106 -0.0363 -0.5430
 1310SOL    HW115392   1.419   3.806   3.688 -1.6130  1.3103  0.4769
 1310SOL    HW215393   1.381   3.944   3.681 -1.0041 -0.4705 -2.6462
 1311SOL     OW15394   0.770   1.551   1.284 -0.2375  0.0045 -0.2329
 1311SOL    HW115395   0.772   1.456   1.287 -1.1356  0.0683  2.0515
 1311SOL    HW215396   0.860   1.561   1.317 -0.2288  0.1808 -0.3055
 1312SOL     OW15397   3.058   1.447   6.568  0.2156  0.8343 -0.6071
 1312SOL    HW115398   3.025   1.360   6.589 -0.9699  2.1760  3.0872
 1312SOL    HW215399   3.095   1.435   6.480  0.1270 -1.1757 -0.3634
 1313SOL     OW15400   0.487   1.614   4.205 -0.0060  0.3864  0.3367
 1313SOL    HW115401   0.403   1.651   4.177 -0.2701  0.6917  1.5302
 1313SOL    HW215402   0.452   1.540   4.254 -1.4248 -1.3265 -3.2965
 1314SOL     OW15403   2.531   1.648   7.118  0.3624  0.1331 -0.0046
 1314SOL    HW115404   2.520   1.560   7.083 -0.8690 -0.0778  0.9276
 1314SOL    HW215405   2.606   1.633   7.176  0.1046 -1.6456 -0.1354
 1315SOL     OW15406   4.519   3.733  11.010  0.4138 -0.4760  0.8749
 1315SOL    HW115407   4.484   3.812  10.970 -0.4873 -0.3247  1.9571
 1315SOL    HW215408   4.589   3.759  11.070  1.8790  0.0467 -1.0511
 1316SOL     OW15409   0.475   3.008   9.556 -0.1912  0.3295 -0.0562
 1316SOL    HW115410   0.444   2.953   9.628  0.7696 -0.5102 -0.2842
 1316SOL    HW215411   0.439   3.096   9.571  1.5713  0.4749  3.3202
 1317SOL     OW15412   1.441   0.898  11.003 -0.1768 -0.2075 -0.1908
 1317SOL    HW115413   1.363   0.906  10.948 -0.0936  1.8185  0.0068
 1317SOL    HW215414   1.403   0.847  11.075 -0.4943  1.4993  0.8299
 1318SOL     OW15415   0.125   0.547   9.600  0.3577  0.7791 -0.0164
 1318SOL    HW115416   0.182   0.526   9.673  0.3509  1.4841  0.2006
 1318SOL    HW215417   0.180   0.621   9.572  1.5108  0.7749  2.2339
 1319SOL     OW15418   0.684   2.011   2.793 -0.5844  1.2962  0.1467
 1319SOL    HW115419   0.589   2.004   2.786 -0.4454 -0.4811 -0.0530
 1319SOL    HW215420   0.699   2.057   2.711 -0.4406 -0.6105 -0.9143
 1320SOL     OW15421   4.105   2.716   6.394 -0.1168  0.1421 -0.5982
 1320SOL    HW115422   4.150   2.637   6.362 -0.5189 -1.0810  1.8578
 1320SOL    HW215423   4.173   2.783   6.398 -1.2603  1.1865  1.5003
 1321SOL     OW15424   2.170   2.253  14.942 -0.6261 -0.0781 -0.3903
 1321SOL    HW115425   2.162   2.185  14.875  1.1320  2.1889 -2.8847
 1321SOL    HW215426   2.237   2.209  14.995  1.0211  1.5135 -1.1654
 1322SOL     OW15427   3.736   1.749   9.191 -0.3088 -1.0839 -0.1706
 1322SOL    HW115428   3.709   1.826   9.241  0.4998 -0.2092 -1.0886
 1322SOL    HW215429   3.752   1.777   9.101  1.6009  0.7215  0.7331
 1323SOL     OW15430   0.057   1.925   1.672 -0.2214  0.1599  0.0914
 1323SOL    HW115431   0.008   1.850   1.639 -0.8724  0.3107  0.7174
 1323SOL    HW215432   4.712   1.994   1.672 -0.1789  0.2015 -0.7503
 1324SOL     OW15433   4.672   3.520   7.056 -0.4888 -0.4542 -0.4800
 1324SOL    HW115434   4.668   3.606   7.098  0.1385 -3.0832  4.8428
 1324SOL    HW215435   0.021   3.475   7.103  0.0548  1.6271  0.7076
 1325SOL     OW15436   0.884   0.808   8.697  0.3828  0.0767 -0.1863
 1325SOL    HW115437   0.822   0.757   8.646  1.5815 -0.4918 -1.0781
 1325SOL    HW215438   0.845   0.895   8.703  1.2826  0.5814 -1.5490
 1326SOL     OW15439   4.681   0.098   3.161 -0.0697  0.1616  0.4425
 1326SOL    HW115440   4.710   0.017   3.202 -1.5619 -0.7988 -0.3819
 1326SOL    HW215441   4.636   0.060   3.086  0.7992  0.5696 -0.2920
 1327SOL     OW15442   0.951   3.643  15.783  0.3882 -0.2641 -0.0738
 1327SOL    HW115443   1.039   3.634  15.820  0.3242 -1.5924 -0.2714
 1327SOL    HW215444   0.909   3.682  15.860  2.3611  1.3826  0.1689
 1328SOL     OW15445   0.867   4.315  14.767  0.0339  0.7786  0.2128
 1328SOL    HW115446   0.833   4.345  14.683 -3.4963  0.2527  1.4729
 1328SOL    HW215447   0.956   4.351  14.768 -0.1106  1.0554  2.6928
 1329SOL     OW15448   2.415   0.654   4.165  0.0126 -0.2477  0.1331
 1329SOL    HW115449   2.486   0.649   4.229  3.9428 -0.1793 -4.2880
 1329SOL    HW215450   2.456   0.722   4.111  4.4014 -2.1920  1.0623
 1330SOL     OW15451   0.410   3.248  11.896  0.2807  0.9610 -0.4288
 1330SOL    HW115452   0.418   3.152  11.898 -1.1932  0.8595  0.5607
 1330SOL    HW215453   0.367   3.259  11.981 -0.3686 -0.1836 -0.6010
 1331SOL     OW15454   4.597   3.072   8.655  0.5806 -0.2005  0.0684
 1331SOL    HW115455   4.533   3.018   8.700 -0.5691 -0.1214 -1.4652
 1331SOL    HW215456   4.549   3.154   8.645 -2.5613 -2.2980 -1.9595
 1332SOL     OW15457   0.031   3.961  10.654  0.0516 -0.5500  0.3532
 1332SOL    HW115458   4.687   3.965  10.724 -1.0340 -0.3087 -0.6915
 1332SOL    HW215459   0.045   3.866  10.658  2.1220 -0.2798 -0.9775
 1333SOL     OW15460   3.405   1.230   2.394 -0.1325 -0.0289 -0.0031
 1333SOL    HW115461   3.350   1.221   2.316  1.3476 -0.3284 -1.0264
 1333SOL    HW215462   3.341   1.239   2.464  0.0915 -0.6043  0.2758
 1334SOL     OW15463   2.528   0.462   5.583 -0.2013  0.4326 -0.2953
 1334SOL    HW115464   2.525   0.545   5.535 -0.1103  0.9707  0.6367
 1334SOL    HW215465   2.475   0.483   5.659  0.6333  2.6756 -0.3234
 1335SOL     OW15466   3.061   2.919   5.642 -0.2072  0.6560  0.6634
 1335SOL    HW115467   2.973   2.919   5.604 -0.2104  0.5725  0.6695
 1335SOL    HW215468   3.059   2.849   5.707 -2.0672  0.4814  0.4287
 1336SOL     OW15469   2.491   4.628   7.060  0.0178  0.2823 -0.6848
 1336SOL    HW115470   2.452   4.713   7.078 -0.2645  0.1147 -0.5104
 1336SOL    HW215471   2.572   4.623   7.111 -0.4669 -2.4050 -0.1609
 1337SOL     OW15472   1.728   3.416   1.200 -0.1257  0.0708  0.9873
 1337SOL    HW115473   1.792   3.361   1.153  0.0005  2.3096 -1.4486
 1337SOL    HW215474   1.666   3.346   1.219 -0.2422  0.3720  1.6938
 1338SOL     OW15475   2.880   1.520   7.906 -0.6983  0.1866 -0.2954
 1338SOL    HW115476   2.853   1.601   7.948 -2.4850 -0.8648  0.5825
 1338SOL    HW215477   2.974   1.533   7.896 -0.4374 -1.3773 -0.0087
 1339SOL     OW15478   1.333   4.066   4.016  0.2817  0.1703  0.1369
 1339SOL    HW115479   1.396   3.994   4.015 -0.2551 -0.2811 -1.5047
 1339SOL    HW215480   1.250   4.039   4.056  0.5818 -1.7455 -0.5529
 1340SOL     OW15481   0.231   4.683  16.895 -0.0945 -0.5570 -0.3558
 1340SOL    HW115482   0.154   4.627  16.908  0.3273 -0.5269  2.4090
 1340SOL    HW215483   0.204   0.009  16.817  0.1556 -3.5657 -2.2736
 1341SOL     OW15484   2.436   1.660  16.863 -0.4077  0.1015  0.6142
 1341SOL    HW115485   2.447   1.755  16.872 -0.5552  0.2057 -0.3152
 1341SOL    HW215486   2.491   1.644  16.786  1.3385 -1.7694  2.2146
 1342SOL     OW15487   0.450   1.877  11.038 -0.3786  0.1446 -0.0997
 1342SOL    HW115488   0.378   1.933  11.066 -1.0557 -1.3915  1.2424
 1342SOL    HW215489   0.506   1.944  10.999 -1.6015  2.4401  2.1220
 1343SOL     OW15490   0.731   4.684   7.189 -0.4504 -0.1565 -0.0440
 1343SOL    HW115491   0.798   0.006   7.242  0.1595 -1.2016  0.0530
 1343SOL    HW215492   0.771   4.598   7.176 -0.7770 -0.3583  0.2603
 1344SOL     OW15493   2.317   2.786   4.827 -0.1929 -0.0803  0.4235
 1344SOL    HW115494   2.290   2.847   4.897 -0.6947 -0.4483  0.5491
 1344SOL    HW215495   2.343   2.710   4.879  2.4312  0.2432 -0.4169
 1345SOL     OW15496   4.689   0.085   6.569  0.8625  0.4774  0.5176
 1345SOL    HW115497   4.655   0.165   6.527  0.1888 -0.6726 -1.1255
 1345SOL    HW215498   0.015   0.034   6.503 -0.2810  1.3652 -1.0171
 1346SOL     OW15499   2.851   3.454   4.018  0.6629 -0.1762 -0.3446
 1346SOL    HW115500   2.843   3.459   3.923  0.7123  1.2998 -0.2623
 1346SOL    HW215501   2.769   3.492   4.048  1.0165  1.2309 -1.1955
 1347SOL     OW15502   3.764   3.212   8.024  0.1852 -0.0337  0.1134
 1347SOL    HW115503   3.669   3.204   8.022  0.0702  1.2609  0.4842
 1347SOL    HW215504   3.773   3.250   7.937  0.1956 -0.0588  0.1038
 1348SOL     OW15505   1.695   1.882   5.835 -0.2784  0.2916  0.3222
 1348SOL    HW115506   1.621   1.942   5.843 -1.7971 -1.6075  0.4729
 1348SOL    HW215507   1.655   1.798   5.859  0.5884 -0.2460 -0.1263
 1349SOL     OW15508   0.523   4.317   1.708 -0.1056 -0.3775 -0.4858
 1349SOL    HW115509   0.463   4.270   1.650  0.3143  0.3792 -1.5371
 1349SOL    HW215510   0.527   4.258   1.783 -0.2249  0.5268  0.2416
 1350SOL     OW15511   1.267   0.069   7.682 -0.0538  0.2989  0.3836
 1350SOL    HW115512   1.266   4.695   7.682 -1.0772  0.2900 -2.0661
 1350SOL    HW215513   1.347   0.089   7.634  0.7748 -1.3933  1.0664
 1351SOL     OW15514   1.181   1.246   3.097  0.1736  0.0718 -0.9654
 1351SOL    HW115515   1.147   1.303   3.028 -1.5319  2.5258  1.9083
 1351SOL    HW215516   1.208   1.170   3.045 -0.1975 -0.6740 -0.0563
 1352SOL     OW15517   3.289   0.201   8.122  0.2443  0.5648 -0.1697
 1352SOL    HW115518   3.205   0.183   8.163  0.9769 -1.4439  0.4278
 1352SOL    HW215519   3.289   0.132   8.056 -0.2244  1.4307 -1.0899
 1353SOL     OW15520   1.240   4.524   1.218 -0.1926 -0.1388  0.0079
 1353SOL    HW115521   1.196   4.606   1.243 -0.8220 -0.5176  0.1310
 1353SOL    HW215522   1.262   4.534   1.125  2.3554  2.1705  0.8525
 1354SOL     OW15523   4.277   1.256   1.477 -0.4483  0.0636 -0.2403
 1354SOL    HW115524   4.372   1.262   1.490 -0.5759  1.9687 -0.1252
 1354SOL    HW215525   4.258   1.341   1.436 -1.3958  1.3582  2.8925
 1355SOL     OW15526   2.274   1.986   2.553  0.2681  0.2064 -0.4074
 1355SOL    HW115527   2.257   1.908   2.499 -0.6072 -0.5500  0.9687
 1355SOL    HW215528   2.215   1.964   2.625 -0.2252  0.2450 -0.7956
 1356SOL     OW15529   2.072   0.557   7.930 -0.2967 -0.7994 -0.7666
 1356SOL    HW115530   1.997   0.592   7.881 -1.3924  1.7440  2.7210
 1356SOL    HW215531   2.114   0.630   7.976 -0.3739 -0.6679 -0.9024
 1357SOL     OW15532   1.782   1.057  15.921  0.6637 -0.2146 -0.9219
 1357SOL    HW115533   1.829   1.078  15.840  0.2010 -1.5947 -1.5392
 1357SOL    HW215534   1.703   1.014  15.887 -1.1349  2.5279 -0.3044
 1358SOL     OW15535   3.748   3.123   8.505  0.2101 -0.5240 -0.0402
 1358SOL    HW115536   3.792   3.111   8.589 -2.6197  0.6896  1.6372
 1358SOL    HW215537   3.661   3.096   8.535 -0.0683 -0.4696 -0.7875
 1359SOL     OW15538   1.910   4.292   3.242  0.2699  0.0695 -0.0186
 1359SOL    HW115539   1.862   4.236   3.303 -2.7533  0.0948 -2.3710
 1359SOL    HW215540   1.999   4.265   3.266  0.6212  1.8843  0.6507
 1360SOL     OW15541   2.348   0.420   7.728 -0.2589 -0.0954  0.1345
 1360SOL    HW115542   2.278   0.434   7.792 -1.3223 -3.9768 -0.1761
 1360SOL    HW215543   2.355   0.508   7.691 -2.2967 -0.1355 -0.3850
 1361SOL     OW15544   1.765   2.060   8.503  0.2958  0.3620 -0.0852
 1361SOL    HW115545   1.715   1.979   8.515  3.1747 -1.5192 -0.9887
 1361SOL    HW215546   1.693   2.123   8.503 -0.7571 -0.8450 -0.1542
 1362SOL     OW15547   1.710   3.065  16.772  0.1595  0.3487  0.3235
 1362SOL    HW115548   1.749   3.051  16.685 -0.5649 -0.6769  0.1706
 1362SOL    HW215549   1.736   2.982  16.812  0.1372  1.1182  1.9330
 1363SOL     OW15550   1.894   2.985  16.071  0.6993  0.0478 -0.1977
 1363SOL    HW115551   1.844   2.946  15.999 -0.7442 -0.2323  0.9569
 1363SOL    HW215552   1.964   3.025  16.018 -1.0730  0.6264 -2.1224
 1364SOL     OW15553   0.892   1.778  14.452  0.4479 -0.4361 -0.6279
 1364SOL    HW115554   0.808   1.822  14.441  0.6834  0.3045  0.6321
 1364SOL    HW215555   0.917   1.774  14.359  1.9998 -1.7015 -0.1532
 1365SOL     OW15556   0.082   1.533   1.949 -0.5391 -0.3694  0.1233
 1365SOL    HW115557   0.032   1.615   1.957  1.4768  0.5932  2.8750
 1365SOL    HW215558   0.074   1.531   1.854  0.0991 -1.5585  0.0959
 1366SOL     OW15559   2.200   0.336   2.948  0.6171  0.2372 -0.0957
 1366SOL    HW115560   2.295   0.337   2.944  0.7230 -1.6109  2.0942
 1366SOL    HW215561   2.177   0.403   2.884 -0.7007  1.2686  1.4359
 1367SOL     OW15562   2.208   4.583   5.595  0.8087  0.2461 -0.0574
 1367SOL    HW115563   2.148   4.542   5.532  1.8793 -3.6616  1.4595
 1367SOL    HW215564   2.243   4.655   5.543  0.4798  1.8811  1.9974
 1368SOL     OW15565   0.242   0.199   5.770 -0.3205  0.2491  0.0829
 1368SOL    HW115566   0.273   0.285   5.744  0.0085 -0.0049 -0.3710
 1368SOL    HW215567   0.203   0.221   5.855  1.9209  1.0370  0.9060
 1369SOL     OW15568   1.197   2.804   5.737  0.2535 -0.0537  0.5349
 1369SOL    HW115569   1.172   2.846   5.819  0.2071  0.5281  0.2290
 1369SOL    HW215570   1.225   2.887   5.696 -0.8389  0.1376  0.1712
 1370SOL     OW15571   1.123   0.675  16.005  0.1894  0.2629 -0.3505
 1370SOL    HW115572   1.040   0.630  15.993  1.3210 -1.5511 -1.3851
 1370SOL    HW215573   1.104   0.714  16.090  0.1584 -0.2620 -0.1179
 1371SOL     OW15574   4.685   4.243  10.473  0.6144  0.1474 -0.2280
 1371SOL    HW115575   0.040   4.203  10.433  0.8643  0.6544 -0.2475
 1371SOL    HW215576   4.615   4.195  10.428 -0.6483  2.2448 -0.4928
 1372SOL     OW15577   2.107   3.083   4.658 -0.7645  0.0104  0.1534
 1372SOL    HW115578   2.090   3.083   4.752  0.2253  0.8249  0.3327
 1372SOL    HW215579   2.118   3.178   4.654 -1.4435  0.1278  1.2913
 1373SOL     OW15580   0.998   4.529   1.738 -1.0489 -0.5323  0.2083
 1373SOL    HW115581   0.986   4.615   1.779 -0.4986 -0.3908  0.0801
 1373SOL    HW215582   1.052   4.491   1.808 -0.9750  1.0858  1.0543
 1374SOL     OW15583   3.614   0.076  13.471 -0.0372  0.8701 -0.4517
 1374SOL    HW115584   3.619   0.025  13.391 -0.3612  0.5084 -0.2397
 1374SOL    HW215585   3.550   0.025  13.521 -0.2159  0.3411 -1.2220
 1375SOL     OW15586   3.106   0.340   4.071 -0.0233 -0.0324 -0.1087
 1375SOL    HW115587   3.031   0.297   4.030 -1.6580 -1.0042  3.9183
 1375SOL    HW215588   3.104   0.320   4.164 -0.8491  0.2158 -0.0741
 1376SOL     OW15589   4.155   0.124  13.102  0.1186 -0.1444  0.3980
 1376SOL    HW115590   4.184   0.035  13.082 -3.2008 -1.3777  1.0366
 1376SOL    HW215591   4.183   0.124  13.194  0.0559 -2.4277  0.4406
 1377SOL     OW15592   4.485   1.020   1.987 -0.6214 -0.0916  0.2491
 1377SOL    HW115593   4.540   1.094   1.960 -0.2465 -0.2699  0.5297
 1377SOL    HW215594   4.508   0.959   1.917  2.1419  0.9653  0.2567
 1378SOL     OW15595   2.676   2.494   5.971  0.0819 -0.3224 -0.2139
 1378SOL    HW115596   2.712   2.405   5.975 -0.0770 -0.4596 -1.9847
 1378SOL    HW215597   2.707   2.519   6.059 -4.6811  2.9813  0.4921
 1379SOL     OW15598   0.823   1.299   4.003  0.2997 -0.2128  0.1352
 1379SOL    HW115599   0.895   1.348   3.962 -1.3565  0.9253 -1.4428
 1379SOL    HW215600   0.847   1.207   4.001  1.1791 -0.0223  1.6039
 1380SOL     OW15601   0.444   3.013   3.026  1.0264  0.1575  0.3220
 1380SOL    HW115602   0.451   3.031   2.932  2.6266  0.7212  0.5590
 1380SOL    HW215603   0.462   2.919   3.018  2.0880  0.6365 -3.0213
 1381SOL     OW15604   0.573   3.678   4.346 -0.1155  0.3837  0.1784
 1381SOL    HW115605   0.596   3.729   4.423  1.2074 -0.2387  0.2048
 1381SOL    HW215606   0.563   3.746   4.279 -1.1857  1.1822  1.1570
 1382SOL     OW15607   0.705   1.069  14.993  0.4805 -0.4562  0.3792
 1382SOL    HW115608   0.790   1.112  14.986 -0.3673  0.7064 -3.0040
 1382SOL    HW215609   0.715   0.989  14.940 -1.3455  0.3396 -1.1884
 1383SOL     OW15610   2.526   2.239   9.295  0.2076 -0.0436 -0.3356
 1383SOL    HW115611   2.478   2.229   9.377  1.7764 -1.2048  0.4320
 1383SOL    HW215612   2.521   2.333   9.278  0.6145  0.0042 -0.1816
 1384SOL     OW15613   2.245   4.324   2.008 -0.1775 -0.6528 -0.1634
 1384SOL    HW115614   2.281   4.274   1.935 -1.3280 -1.7867  0.0473
 1384SOL    HW215615   2.192   4.256   2.050  0.0160 -1.3592 -1.0550
 1385SOL     OW15616   4.485   2.713   4.673 -0.2007  0.4773  0.2236
 1385SOL    HW115617   4.448   2.633   4.635  0.4451 -0.8661  2.4094
 1385SOL    HW215618   4.429   2.772   4.623  0.0265  0.5554  0.0589
 1386SOL     OW15619   2.501   2.776  13.417  0.2876 -0.0021 -0.2343
 1386SOL    HW115620   2.407   2.760  13.423 -0.0773  2.1614  0.1669
 1386SOL    HW215621   2.542   2.695  13.390 -0.4125 -0.2901 -0.4371
 1387SOL     OW15622   3.509   4.303   3.445  0.4955 -0.3011 -0.1699
 1387SOL    HW115623   3.486   4.210   3.446  1.7525 -0.6112 -0.1361
 1387SOL    HW215624   3.472   4.333   3.362  4.1879 -0.1580 -1.7738
 1388SOL     OW15625   1.778   0.373  12.609 -0.3323  0.0396 -0.5028
 1388SOL    HW115626   1.719   0.402  12.539 -0.1186 -0.3532 -0.8465
 1388SOL    HW215627   1.741   0.411  12.689  0.1411  0.6814 -0.5920
 1389SOL     OW15628   0.642   3.134   2.326  0.2191 -0.0322 -0.3729
 1389SOL    HW115629   0.565   3.188   2.345 -0.4720 -1.2447  0.2679
 1389SOL    HW215630   0.683   3.124   2.412  2.1646 -3.0550 -1.6281
 1390SOL     OW15631   4.537   1.799   2.608  0.6460 -0.2439  0.2667
 1390SOL    HW115632   4.485   1.745   2.550  0.3626  0.3248 -0.0093
 1390SOL    HW215633   4.482   1.877   2.611 -0.7185 -1.2601  1.4291
 1391SOL     OW15634   0.876   3.124   8.055  0.1624  0.5244 -0.0884
 1391SOL    HW115635   0.798   3.069   8.056  1.2756 -1.0355 -1.1416
 1391SOL    HW215636   0.918   3.120   8.141  0.5100 -0.7351 -0.3302
 1392SOL     OW15637   3.639   1.350   5.026 -0.1845 -0.2834  0.2182
 1392SOL    HW115638   3.699   1.288   4.985 -1.9553 -1.2674 -0.8874
 1392SOL    HW215639   3.557   1.305   5.004 -0.5022  0.4269 -0.0796
 1393SOL     OW15640   1.509   2.833   5.218  0.0361  0.0843 -0.1551
 1393SOL    HW115641   1.495   2.901   5.152  0.0275  0.7030  0.4895
 1393SOL    HW215642   1.417   2.815   5.237  0.3542  0.4406  1.6922
 1394SOL     OW15643   2.066   3.118   8.412 -0.4573 -1.0519 -0.5566
 1394SOL    HW115644   2.050   3.211   8.400 -1.5449 -1.3273 -1.3127
 1394SOL    HW215645   1.976   3.087   8.429 -0.2633 -0.8216  0.8284
 1395SOL     OW15646   1.931   2.008   3.902 -0.0863  0.0243  0.4249
 1395SOL    HW115647   1.955   2.018   3.994 -0.7303  2.0498  0.3661
 1395SOL    HW215648   1.932   2.097   3.865  1.3455 -0.0680  0.2115
 1396SOL     OW15649   1.113   2.747   8.819  0.5305 -0.4709  0.4019
 1396SOL    HW115650   1.197   2.729   8.775  1.3336  0.7119  1.4506
 1396SOL    HW215651   1.083   2.657   8.826 -0.5480  0.1028  3.0112
 1397SOL     OW15652   0.672   4.184   5.113 -0.2784 -0.6792 -0.0064
 1397SOL    HW115653   0.706   4.273   5.107  0.3372 -0.9571 -0.6663
 1397SOL    HW215654   0.595   4.195   5.168 -2.3925 -0.2091 -3.0715
 1398SOL     OW15655   4.157   2.393  13.520 -0.1127  0.0007  0.1693
 1398SOL    HW115656   4.158   2.486  13.539  1.7404 -0.6071  3.0404
 1398SOL    HW215657   4.156   2.393  13.424  1.1618  2.2055  0.1614
 1399SOL     OW15658   0.722   0.613   0.983 -0.2077  0.2380 -0.1906
 1399SOL    HW115659   0.706   0.583   1.073  2.3841  0.7060  0.4306
 1399SOL    HW215660   0.707   0.533   0.932 -0.2475  1.3334 -1.8784
 1400SOL     OW15661   2.196   0.643   9.891  0.2766 -0.0348  0.1181
 1400SOL    HW115662   2.286   0.640   9.860 -0.5678 -1.3610 -2.2481
 1400SOL    HW215663   2.156   0.642   9.803 -0.0561  1.2847  0.2625
 1401SOL     OW15664   4.261   0.922   4.735 -0.0026  0.2739  0.2320
 1401SOL    HW115665   4.206   0.852   4.699  0.2977 -0.6535  1.5539
 1401SOL    HW215666   4.215   0.956   4.811  0.7550  1.0804  0.3292
 1402SOL     OW15667   3.245   2.530  15.893 -0.0733  0.4393  0.1846
 1402SOL    HW115668   3.292   2.613  15.885 -1.5086  1.2297  0.0656
 1402SOL    HW215669   3.290   2.492  15.969  0.1834  0.5402  0.0821
 1403SOL     OW15670   2.164   0.725   3.884 -0.0789  0.1729 -0.0321
 1403SOL    HW115671   2.166   0.757   3.974 -1.8867 -0.4253  0.2285
 1403SOL    HW215672   2.207   0.642   3.906  1.9344  1.2316  0.0462
 1404SOL     OW15673   2.545   2.995   5.566  0.7687 -0.1354  0.5400
 1404SOL    HW115674   2.524   3.061   5.632  1.0926 -0.7141  1.2156
 1404SOL    HW215675   2.480   2.931   5.593  0.0555  0.8960  1.2505
 1405SOL     OW15676   1.135   4.452   2.631  0.0619 -0.0405  0.6507
 1405SOL    HW115677   1.181   4.370   2.609 -1.4700 -1.2498  1.9430
 1405SOL    HW215678   1.184   4.523   2.589 -1.5664  0.0344 -1.1153
 1406SOL     OW15679   0.989   2.131   7.382  0.3761 -0.6729 -0.2623
 1406SOL    HW115680   0.926   2.175   7.438  1.3506  0.3546  0.0318
 1406SOL    HW215681   1.070   2.181   7.395 -0.1068  0.2835 -0.9296
 1407SOL     OW15682   2.746   0.398   5.912 -0.2985 -0.2522 -0.7174
 1407SOL    HW115683   2.746   0.494   5.917 -1.2944 -0.2265 -1.0596
 1407SOL    HW215684   2.836   0.390   5.881 -0.2540  0.5707 -0.8192
 1408SOL     OW15685   0.926   3.405   5.641 -0.2212  0.3772 -0.4123
 1408SOL    HW115686   0.943   3.466   5.712  1.1997 -0.0263 -0.3952
 1408SOL    HW215687   0.941   3.453   5.560  1.9631  0.8942  0.2933
 1409SOL     OW15688   1.322   2.731  15.093  0.4791 -0.6647  0.3997
 1409SOL    HW115689   1.372   2.663  15.138  1.0215  0.3305  1.2921
 1409SOL    HW215690   1.276   2.760  15.171 -2.6741  1.5990 -2.2807
 1410SOL     OW15691   1.211   1.162   8.811 -0.1636 -0.0648  0.0638
 1410SOL    HW115692   1.306   1.165   8.811 -0.1413 -1.2249 -2.0866
 1410SOL    HW215693   1.199   1.081   8.861 -1.2965  1.3924  2.1621
 1411SOL     OW15694   3.151   4.640   1.926 -0.2320  0.3609  0.3079
 1411SOL    HW115695   3.113   4.561   1.964  2.9436 -1.7961 -1.1327
 1411SOL    HW215696   3.193   4.686   1.999 -0.5742 -0.0282  0.7503
 1412SOL     OW15697   3.240   0.355   4.445 -0.4939 -0.1573  0.1517
 1412SOL    HW115698   3.281   0.303   4.377  1.1747  1.2288  0.0834
 1412SOL    HW215699   3.277   0.440   4.421  0.3074 -0.4315  0.4009
 1413SOL     OW15700   1.060   3.005   6.416 -0.4512  0.2530 -0.6667
 1413SOL    HW115701   1.155   3.011   6.430 -0.9742  0.2369  2.9289
 1413SOL    HW215702   1.048   2.962   6.332  1.1460 -0.3264 -0.6091
 1414SOL     OW15703   4.119   3.865  17.184 -0.2394  0.1318  0.2545
 1414SOL    HW115704   4.096   3.824  17.101 -1.5243  1.0458  0.1525
 1414SOL    HW215705   4.031   3.864  17.222 -1.5579  1.4654 -2.7444
 1415SOL     OW15706   1.264   1.049   2.947 -0.7423 -0.6072  0.4473
 1415SOL    HW115707   1.333   0.985   2.962  0.4901  0.2250 -1.6177
 1415SOL    HW215708   1.201   1.003   2.891 -1.1632  0.6372 -0.1176
 1416SOL     OW15709   1.831   3.216  17.177  0.5375 -0.2560  0.1075
 1416SOL    HW115710   1.753   3.228  17.232 -0.0043  3.1789 -1.4169
 1416SOL    HW215711   1.863   3.134  17.215 -2.6857 -2.3962 -1.8154
 1417SOL     OW15712   1.873   2.953  17.275 -0.2071 -0.2572  0.3463
 1417SOL    HW115713   1.784   2.925  17.253  0.9445 -2.3572 -1.5588
 1417SOL    HW215714   1.896   2.887  17.340 -1.2165 -1.6675 -0.7215
 1418SOL     OW15715   0.148   2.921  12.694 -0.6473  0.1487 -0.7018
 1418SOL    HW115716   0.078   2.970  12.737 -0.1582  0.6503 -0.4774
 1418SOL    HW215717   0.095   2.849  12.659  1.2224 -1.4468 -0.2137
 1419SOL     OW15718   1.219   3.298  17.661  0.1302  0.3944 -0.4268
 1419SOL    HW115719   1.267   3.216  17.649  1.3208  0.4862  3.6175
 1419SOL    HW215720   1.147   3.264   0.027  2.6318  0.5367  3.0034
 1420SOL     OW15721   4.365   0.091   2.197 -0.2953 -0.0007 -0.3987
 1420SOL    HW115722   4.409   0.145   2.131  1.7103 -0.6387  0.4100
 1420SOL    HW215723   4.331   0.017   2.147 -0.4345 -1.5799  2.0033
 1421SOL     OW15724   4.236   0.869   5.408  0.4934  0.0724 -0.2901
 1421SOL    HW115725   4.210   0.920   5.485  1.7852  0.3987 -0.0739
 1421SOL    HW215726   4.160   0.819   5.378  0.0718  1.4422 -1.4943
 1422SOL     OW15727   2.818   3.078   5.732  0.1213 -0.4506 -0.1948
 1422SOL    HW115728   2.894   3.120   5.773 -0.4185 -0.3491  0.7033
 1422SOL    HW215729   2.781   3.155   5.690  0.2551 -1.5319 -2.2756
 1423SOL     OW15730   2.801   3.511   6.190 -0.1891  0.7698 -0.2749
 1423SOL    HW115731   2.816   3.605   6.182  0.7592  0.4960 -1.7183
 1423SOL    HW215732   2.739   3.493   6.119 -0.5678 -2.3790  0.8658
 1424SOL     OW15733   1.036   3.448   9.981  0.2822 -0.4131  0.5245
 1424SOL    HW115734   1.117   3.399   9.964  1.3087 -0.1195  4.4620
 1424SOL    HW215735   1.056   3.490  10.065 -0.9136  1.7021 -0.2486
 1425SOL     OW15736   3.259   2.654   2.286 -0.1904 -0.0726  0.1644
 1425SOL    HW115737   3.303   2.581   2.243  1.3052  1.2018 -0.4864
 1425SOL    HW215738   3.329   2.682   2.345  0.7463 -0.6089 -0.6912
 1426SOL     OW15739   2.768   1.166   7.194 -0.1807 -0.2227 -0.3392
 1426SOL    HW115740   2.728   1.111   7.261  0.8201 -0.9328 -0.3267
 1426SOL    HW215741   2.845   1.205   7.234  0.1401  0.6262 -1.7910
 1427SOL     OW15742   3.879   4.560   7.226  0.5586 -0.1006 -0.0813
 1427SOL    HW115743   3.903   4.541   7.136 -2.1093  0.5616 -0.9354
 1427SOL    HW215744   3.883   4.655   7.213  1.4541  0.1542  1.9133
 1428SOL     OW15745   4.069   0.538  10.454 -0.1601  0.2499  0.0978
 1428SOL    HW115746   4.114   0.563  10.373 -1.1103  0.1145 -0.4727
 1428SOL    HW215747   4.030   0.622  10.479 -0.4223  0.1763 -0.0624
 1429SOL     OW15748   4.419   0.541   3.254 -0.2598 -0.6862 -0.1596
 1429SOL    HW115749   4.508   0.521   3.223  0.6458 -1.9169  3.2144
 1429SOL    HW215750   4.440   0.631   3.279  0.2492 -1.4714  2.1826
 1430SOL     OW15751   0.260   3.140   0.634  0.2923  0.2122 -0.1754
 1430SOL    HW115752   0.205   3.070   0.669  0.4663 -0.6170 -1.5570
 1430SOL    HW215753   0.347   3.100   0.643  0.4425  0.6231  0.2154
 1431SOL     OW15754   2.879   3.156   3.711  0.1404 -0.0580  0.0851
 1431SOL    HW115755   2.844   3.177   3.624  0.4917 -1.1915 -0.3394
 1431SOL    HW215756   2.962   3.203   3.704  1.1525 -1.7083  0.9328
 1432SOL     OW15757   3.253   4.637   4.352 -0.2991  0.0742 -0.1981
 1432SOL    HW115758   3.189   4.640   4.281 -2.7968 -0.9166  2.0231
 1432SOL    HW215759   3.199   4.665   4.427  0.1710 -2.3270  1.0259
 1433SOL     OW15760   2.140   0.840   6.068  0.8551 -0.0832  0.0231
 1433SOL    HW115761   2.162   0.929   6.096 -1.7625  0.4218  0.4318
 1433SOL    HW215762   2.179   0.789   6.139  0.1532 -0.3935  0.1813
 1434SOL     OW15763   2.444   1.046  12.312  0.4110  0.8821 -0.4320
 1434SOL    HW115764   2.487   1.030  12.397  0.4550  0.7566 -0.4775
 1434SOL    HW215765   2.367   0.990  12.320  0.7177  0.6183  0.7500
 1435SOL     OW15766   4.204   4.460  11.803 -0.3235  0.0841  0.2316
 1435SOL    HW115767   4.276   4.513  11.838 -0.1926  1.0736 -1.5330
 1435SOL    HW215768   4.152   4.457  11.884  0.2242 -1.4986  0.5395
 1436SOL     OW15769   0.283   1.239   3.091  0.4907 -0.1920  0.2127
 1436SOL    HW115770   0.327   1.238   3.006 -0.8444  0.7317 -0.4819
 1436SOL    HW215771   0.313   1.156   3.128 -1.0388 -0.6779  0.3896
 1437SOL     OW15772   0.313   3.792   3.870  0.1419  0.2142  0.3000
 1437SOL    HW115773   0.261   3.858   3.823 -1.9884 -1.7143 -0.0672
 1437SOL    HW215774   0.335   3.749   3.787 -0.5392 -0.4022  0.4401
 1438SOL     OW15775   0.584   2.798   8.563  0.1425 -0.0586 -0.0237
 1438SOL    HW115776   0.662   2.828   8.609  0.4045 -1.7601  0.6254
 1438SOL    HW215777   0.537   2.875   8.530  0.6368  0.5202  0.6225
 1439SOL     OW15778   1.423   2.983  14.968 -0.1528 -0.2144 -0.0056
 1439SOL    HW115779   1.427   2.888  14.963 -0.7987 -0.3091  1.2994
 1439SOL    HW215780   1.433   2.992  15.063  1.9456 -2.0503 -0.0379
 1440SOL     OW15781   2.270   1.837  17.137 -0.3293  0.0188  0.5408
 1440SOL    HW115782   2.271   1.741  17.133  1.5293  0.0642 -0.2514
 1440SOL    HW215783   2.354   1.862  17.099 -0.2361 -1.5337 -0.2588
 1441SOL     OW15784   0.964   3.968   8.572 -0.1349  0.2716 -0.0963
 1441SOL    HW115785   1.041   4.011   8.536  0.4086 -0.8870 -0.2833
 1441SOL    HW215786   0.894   4.013   8.524 -0.6511 -1.5909 -1.0789
 1442SOL     OW15787   4.360   3.579   3.160 -1.0864 -0.0620  0.6165
 1442SOL    HW115788   4.433   3.617   3.209 -0.9115  1.3874 -0.7628
 1442SOL    HW215789   4.335   3.659   3.113  0.6142 -0.4790 -0.9856
 1443SOL     OW15790   0.931   3.332   6.358  0.3687 -0.0408  0.5451
 1443SOL    HW115791   0.966   3.294   6.438  1.4025 -0.9788 -0.3447
 1443SOL    HW215792   0.880   3.260   6.321 -0.8998  0.3963  1.4515
 1444SOL     OW15793   0.972   2.263   7.786  0.4171  0.3635  0.0384
 1444SOL    HW115794   0.967   2.257   7.882 -0.3765 -2.1327 -0.1781
 1444SOL    HW215795   0.910   2.333   7.763 -0.4391 -0.8022 -1.1561
 1445SOL     OW15796   1.290   3.006   4.690 -0.5714  0.4487  0.4553
 1445SOL    HW115797   1.347   2.930   4.673  1.7420  2.4029 -0.5673
 1445SOL    HW215798   1.209   2.960   4.711 -0.8565  0.5693 -0.3492
 1446SOL     OW15799   2.831   1.241   5.192 -0.1948  0.1206  0.0865
 1446SOL    HW115800   2.888   1.190   5.134 -1.7920 -0.3504 -1.0742
 1446SOL    HW215801   2.806   1.314   5.134  1.0837  2.4438  2.4384
 1447SOL     OW15802   3.002   2.504   2.327  0.4727  0.4298  0.1405
 1447SOL    HW115803   3.054   2.441   2.376  0.8945  1.6936  1.3056
 1447SOL    HW215804   3.052   2.580   2.357 -2.4091  1.8710  1.3037
 1448SOL     OW15805   0.714   4.016   9.590  0.9806  0.6512  1.0368
 1448SOL    HW115806   0.737   4.105   9.562 -0.4104  0.2231 -1.4268
 1448SOL    HW215807   0.744   4.018   9.681 -0.2061  0.5816  1.4205
 1449SOL     OW15808   0.775   1.382   6.125  0.0331  0.3095 -0.3093
 1449SOL    HW115809   0.789   1.341   6.211 -0.4366  0.4578 -0.1625
 1449SOL    HW215810   0.759   1.473   6.151  0.4290 -0.0856  1.3534
 1450SOL     OW15811   2.221   4.310  12.382 -0.2938 -0.4770  0.1827
 1450SOL    HW115812   2.132   4.344  12.393  0.5345  2.0394 -0.7717
 1450SOL    HW215813   2.203   4.220  12.356  0.1889 -0.9656  1.5465
 1451SOL     OW15814   1.832   0.997   8.961 -0.2323  0.1443  0.2883
 1451SOL    HW115815   1.886   0.972   9.035  2.6277  0.4404 -1.6903
 1451SOL    HW215816   1.750   0.947   8.965 -0.6569  0.8600  0.4663
 1452SOL     OW15817   3.770   1.099   4.545 -0.2372 -0.2441 -0.1498
 1452SOL    HW115818   3.848   1.152   4.531 -2.0341  1.9911 -1.6622
 1452SOL    HW215819   3.740   1.062   4.462  0.8366  1.6752 -1.3952
 1453SOL     OW15820   1.844   4.671   2.247  0.5508 -0.6750 -0.2636
 1453SOL    HW115821   1.835   4.581   2.218 -1.5266 -0.3577 -0.5552
 1453SOL    HW215822   1.874   4.707   2.163  1.1231  1.5522  0.8771
 1454SOL     OW15823   3.273   3.742   1.510  0.4414  0.4755  0.3251
 1454SOL    HW115824   3.236   3.810   1.567  1.6723  2.2630 -1.0419
 1454SOL    HW215825   3.357   3.725   1.552  1.2881 -0.3792 -1.7122
 1455SOL     OW15826   1.759   2.928   2.940 -0.0905  0.2386  0.1512
 1455SOL    HW115827   1.691   2.905   3.004 -0.1730  0.0941  0.0124
 1455SOL    HW215828   1.764   3.022   2.958  0.0073 -0.1567  2.1827
 1456SOL     OW15829   2.592   2.656   4.713 -0.3596  0.2463  0.4775
 1456SOL    HW115830   2.542   2.584   4.752 -1.9951  0.3376 -1.4256
 1456SOL    HW215831   2.523   2.674   4.650 -2.1337 -1.5760  1.8994
 1457SOL     OW15832   3.711   2.246   4.568  0.6666  0.1717 -0.1690
 1457SOL    HW115833   3.709   2.217   4.659 -3.0707  0.3977 -0.1654
 1457SOL    HW215834   3.649   2.192   4.520  0.7278  1.5748 -1.8273
 1458SOL     OW15835   2.740   4.610   7.180  0.2579 -0.2426 -0.1492
 1458SOL    HW115836   2.701   4.560   7.251 -0.0534  1.7556  1.0787
 1458SOL    HW215837   2.827   4.616   7.221  0.3751  0.4026 -0.5022
 1459SOL     OW15838   3.786   3.201  10.359 -0.2345 -0.2592  0.4180
 1459SOL    HW115839   3.858   3.138  10.352  0.7075  0.7379  1.1927
 1459SOL    HW215840   3.827   3.286  10.374  1.2054 -0.8894  0.0178
 1460SOL     OW15841   0.053   1.172   9.144 -0.3005  0.1928  0.2319
 1460SOL    HW115842   0.023   1.112   9.212 -1.4470 -0.6897 -1.0398
 1460SOL    HW215843   0.085   1.245   9.197  0.7376  1.0409 -1.5356
 1461SOL     OW15844   4.184   0.239   5.239  0.5094  0.2177  0.1287
 1461SOL    HW115845   4.231   0.299   5.181 -1.4564  1.1716 -0.4536
 1461SOL    HW215846   4.232   0.259   5.320  0.9682  1.7524 -0.5296
 1462SOL     OW15847   0.283   1.328   5.257  0.0031 -0.1358 -0.0705
 1462SOL    HW115848   0.251   1.265   5.321  1.0012 -0.6505 -0.0837
 1462SOL    HW215849   0.260   1.295   5.170 -0.3305 -0.0721 -0.0093
 1463SOL     OW15850   2.702   3.550  12.046  0.3535  0.0978  0.5785
 1463SOL    HW115851   2.748   3.541  11.963  2.8327  1.1993  1.8152
 1463SOL    HW215852   2.740   3.473  12.089 -2.4674 -1.6882 -0.0942
 1464SOL     OW15853   4.628   2.462   9.827 -0.2021  0.3378  0.1231
 1464SOL    HW115854   4.676   2.528   9.876  0.3669 -0.6522  0.8885
 1464SOL    HW215855   4.591   2.399   9.889 -0.5210 -0.5294 -0.9372
 1465SOL     OW15856   1.165   0.292   5.890 -0.3499  0.0007 -0.1627
 1465SOL    HW115857   1.240   0.251   5.846  0.1231  0.6577  0.0383
 1465SOL    HW215858   1.199   0.321   5.974 -0.5168  0.4949 -0.2626
 1466SOL     OW15859   3.501   1.447   3.993 -0.4475 -0.0448  0.0166
 1466SOL    HW115860   3.465   1.359   3.991  0.6055 -0.4656 -0.1460
 1466SOL    HW215861   3.437   1.496   3.941  0.4083 -0.1350 -1.1165
 1467SOL     OW15862   0.145   1.364   3.668 -0.3266  0.0660 -0.3913
 1467SOL    HW115863   0.198   1.362   3.748 -1.5629  0.2307  0.4308
 1467SOL    HW215864   0.083   1.298   3.700  1.1532 -0.9544  0.3547
 1468SOL     OW15865   2.932   3.272   8.919  0.2739 -0.6292 -0.5625
 1468SOL    HW115866   2.954   3.269   9.012  1.3604 -2.8843 -0.8982
 1468SOL    HW215867   3.017   3.246   8.885 -0.5120 -0.7777 -2.3841
 1469SOL     OW15868   1.602   2.839   1.771 -0.1980 -0.0693 -0.0823
 1469SOL    HW115869   1.508   2.853   1.773 -0.0593  0.5083  2.3917
 1469SOL    HW215870   1.624   2.931   1.784 -0.2932 -0.0908  0.2272
 1470SOL     OW15871   1.584   3.148   0.834 -0.0068  0.0185 -0.1688
 1470SOL    HW115872   1.515   3.183   0.891  0.3979  0.5579 -0.0146
 1470SOL    HW215873   1.604   3.233   0.795 -2.0820  0.0107 -1.2612
 1471SOL     OW15874   3.592   0.766  13.654 -0.1895 -0.1473 -0.5244
 1471SOL    HW115875   3.497   0.756  13.646 -0.3024 -1.5291  2.5289
 1471SOL    HW215876   3.610   0.796  13.565 -2.5771 -0.4511 -1.1022
 1472SOL     OW15877   2.463   1.516   4.346 -0.1643  0.7764  0.2446
 1472SOL    HW115878   2.457   1.448   4.278  1.3355 -0.0671  0.9486
 1472SOL    HW215879   2.379   1.521   4.391 -0.3256  1.0895 -0.0930
 1473SOL     OW15880   0.478   4.527  16.626  0.1642 -0.1729 -0.2877
 1473SOL    HW115881   0.529   4.531  16.706  0.3235 -1.8150 -0.3079
 1473SOL    HW215882   0.496   4.612  16.586  0.7915 -0.7245 -1.1712
 1474SOL     OW15883   0.859   2.792   2.360 -0.0058 -0.0886 -0.0525
 1474SOL    HW115884   0.909   2.747   2.292 -2.0718 -0.6866 -1.1890
 1474SOL    HW215885   0.874   2.882   2.329 -2.0723 -0.4939 -2.1823
 1475SOL     OW15886   0.233   2.436  16.763  0.0054  0.0690 -0.2122
 1475SOL    HW115887   0.255   2.525  16.737  3.6937 -0.1751  2.1892
 1475SOL    HW215888   0.249   2.387  16.683  0.3767  0.2929 -0.2752
 1476SOL     OW15889   1.762   2.140  14.929  0.5522 -0.1842 -0.6141
 1476SOL    HW115890   1.689   2.086  14.900  1.9603 -2.0117 -0.7888
 1476SOL    HW215891   1.844   2.117  14.885  0.9798  1.1402 -0.4980
 1477SOL     OW15892   0.975   3.322   4.717  0.6232 -0.5614 -0.5283
 1477SOL    HW115893   0.984   3.372   4.636  0.0759  1.4630  0.6644
 1477SOL    HW215894   0.883   3.313   4.741  0.1378  0.5430 -1.9208
 1478SOL     OW15895   2.586   1.680   3.818 -0.0311  0.0502  0.0665
 1478SOL    HW115896   2.518   1.640   3.872  0.2095 -1.2194 -0.5693
 1478SOL    HW215897   2.562   1.773   3.823  2.6155  0.7324  0.1823
 1479SOL     OW15898   3.903   2.063   7.254 -0.3811 -0.5533 -0.8703
 1479SOL    HW115899   3.915   2.136   7.314  1.2914 -0.7837 -0.8995
 1479SOL    HW215900   3.956   2.085   7.177  2.5183  1.4662  1.6927
 1480SOL     OW15901   3.519   0.099  17.103 -0.3704 -0.5222  0.5451
 1480SOL    HW115902   3.458   0.091  17.030  1.1203  0.9523 -0.8788
 1480SOL    HW215903   3.459   0.111  17.177 -2.1241 -0.0464 -0.9760
 1481SOL     OW15904   3.152   1.748   7.258  0.1747 -0.1848 -0.2307
 1481SOL    HW115905   3.127   1.757   7.166 -0.7101 -1.1398 -0.0855
 1481SOL    HW215906   3.126   1.835   7.291  2.7268 -0.3371  2.2307
 1482SOL     OW15907   4.390   3.487  10.914  0.6872  0.5209  0.1771
 1482SOL    HW115908   4.382   3.461  10.822  0.1283  2.5010 -0.3445
 1482SOL    HW215909   4.429   3.574  10.905  1.5582  0.0512 -0.4827
 1483SOL     OW15910   4.433   2.224   8.373 -0.3606  0.4205 -0.1245
 1483SOL    HW115911   4.397   2.164   8.308  0.3287  0.7849 -0.8440
 1483SOL    HW215912   4.504   2.179   8.418 -0.6823  1.6349  1.5781
 1484SOL     OW15913   2.491   4.517   4.067  0.5928 -0.0825  0.1181
 1484SOL    HW115914   2.532   4.439   4.029  1.8651  0.9406 -0.6094
 1484SOL    HW215915   2.408   4.526   4.021  1.1350 -1.0207 -1.0664
 1485SOL     OW15916   1.889   4.448  17.423 -0.0250  0.3011 -0.4796
 1485SOL    HW115917   1.894   4.519  17.359  0.9390  0.5017 -0.1754
 1485SOL    HW215918   1.978   4.430  17.453  0.1723  2.9456  0.5020
 1486SOL     OW15919   2.338   3.938   0.817 -0.5529  0.1912  0.2411
 1486SOL    HW115920   2.276   3.922   0.746 -0.7637  2.1387 -0.0103
 1486SOL    HW215921   2.283   3.913   0.892 -1.1810  1.0476  0.0711
 1487SOL     OW15922   0.987   1.351   7.807  0.0851  0.0680 -0.1645
 1487SOL    HW115923   1.068   1.401   7.821 -0.5945  1.4549 -1.1438
 1487SOL    HW215924   1.000   1.285   7.875 -1.9257  2.0926  2.1720
 1488SOL     OW15925   2.142   2.952   7.462 -0.0288 -0.2311  0.0177
 1488SOL    HW115926   2.190   2.928   7.383 -0.7257  0.4545 -0.6064
 1488SOL    HW215927   2.206   2.971   7.531 -1.8946  2.3612  1.0193
 1489SOL     OW15928   1.747   2.988   5.893 -0.6839  0.1943 -0.3120
 1489SOL    HW115929   1.716   2.897   5.894  0.3264 -0.1491  0.0368
 1489SOL    HW215930   1.823   2.988   5.952  0.4483  0.9680 -1.7849
 1490SOL     OW15931   1.840   0.833  15.484 -0.3028 -0.6497  0.1180
 1490SOL    HW115932   1.824   0.740  15.502 -1.3887 -0.4339  0.2824
 1490SOL    HW215933   1.747   0.856  15.482  0.2551  1.4271 -1.6025
 1491SOL     OW15934   1.392   4.181   8.788 -0.3092 -0.2204 -0.2350
 1491SOL    HW115935   1.387   4.218   8.699 -0.4169  0.7841  0.1951
 1491SOL    HW215936   1.466   4.231   8.821  1.2056 -1.8933 -1.0509
 1492SOL     OW15937   1.106   1.118  13.472 -0.1137 -0.1733 -0.0757
 1492SOL    HW115938   1.013   1.096  13.475  0.1514 -1.2543 -0.0445
 1492SOL    HW215939   1.127   1.133  13.564  2.5804 -2.5115 -0.3145
 1493SOL     OW15940   0.767   4.255   7.910  0.5507 -0.1304  0.3109
 1493SOL    HW115941   0.839   4.199   7.884 -0.5811 -2.2572  1.7393
 1493SOL    HW215942   0.743   4.215   7.994 -0.4634  0.9542  0.5438
 1494SOL     OW15943   2.593   1.939   3.928  0.4023  0.1211  0.1435
 1494SOL    HW115944   2.516   1.980   3.969  1.1712  1.8347 -0.1436
 1494SOL    HW215945   2.577   1.976   3.841  1.1261 -3.4308 -1.4751
 1495SOL     OW15946   4.257   1.787   3.605  0.0913 -0.1638 -0.1841
 1495SOL    HW115947   4.292   1.699   3.618  1.1392  0.4619  1.3207
 1495SOL    HW215948   4.304   1.811   3.525  2.0343 -2.9051  0.1616
 1496SOL     OW15949   3.247   3.823   6.355 -0.0566  0.3594 -0.0646
 1496SOL    HW115950   3.188   3.857   6.287 -0.5015  0.4847  0.3799
 1496SOL    HW215951   3.270   3.901   6.406  0.1259 -1.0857  2.0337
 1497SOL     OW15952   2.515   3.085   5.299  0.0089  0.5871  0.0589
 1497SOL    HW115953   2.456   3.160   5.312  0.2608  0.8115 -0.0927
 1497SOL    HW215954   2.511   3.053   5.389 -1.5653  1.1431  0.1983
 1498SOL     OW15955   3.561   3.507   0.334  0.0787 -0.1259 -0.1053
 1498SOL    HW115956   3.581   3.475   0.246  0.6960 -1.5563  0.5590
 1498SOL    HW215957   3.543   3.424   0.379 -0.2833 -1.3614 -2.5465
 1499SOL     OW15958   2.056   4.628   4.375 -0.0985 -0.6758 -0.6079
 1499SOL    HW115959   2.088   4.713   4.344 -0.5236 -0.0478  0.6403
 1499SOL    HW215960   2.070   4.571   4.300  0.7974  0.5824 -1.4089
 1500SOL     OW15961   1.744   0.016  14.058 -0.6699 -0.0604 -0.3161
 1500SOL    HW115962   1.766   0.108  14.042  3.0230 -1.3156 -2.4041
 1500SOL    HW215963   1.769   4.697  13.975  2.0554 -1.5337  1.2454
 1501SOL     OW15964   4.141   1.651   3.325 -0.3690  0.6273 -0.1767
 1501SOL    HW115965   4.223   1.650   3.374 -0.3792  0.1481 -0.1705
 1501SOL    HW215966   4.114   1.559   3.321  1.1485  0.0918  1.6565
 1502SOL     OW15967   1.154   4.516  11.246  0.5932 -0.1673  0.3171
 1502SOL    HW115968   1.241   4.518  11.207 -0.8574  0.2397 -2.8605
 1502SOL    HW215969   1.180   4.511  11.338  0.2634  0.9701  0.4783
 1503SOL     OW15970   0.129   4.508   5.051  0.2457 -0.2482 -0.5707
 1503SOL    HW115971   0.133   4.464   4.966  0.9350 -0.4489 -0.4331
 1503SOL    HW215972   0.036   4.513   5.071  0.0659 -0.5432 -1.3455
 1504SOL     OW15973   1.135   1.951   5.348  0.0288  0.3347  0.0503
 1504SOL    HW115974   1.131   1.938   5.254 -1.5073 -0.3281  0.2149
 1504SOL    HW215975   1.180   2.036   5.356  1.3345  0.0335 -4.1356
 1505SOL     OW15976   2.046   4.275   5.645 -0.5753 -0.2040 -0.1797
 1505SOL    HW115977   2.091   4.287   5.729 -1.7800 -0.5245  0.5128
 1505SOL    HW215978   2.056   4.181   5.631 -1.3232 -0.2414 -0.4785
 1506SOL     OW15979   0.834   3.696   8.599 -0.4407  0.4789 -0.5533
 1506SOL    HW115980   0.811   3.730   8.512  1.4318  1.0004 -0.8504
 1506SOL    HW215981   0.885   3.770   8.633 -0.3000  0.5612 -0.9458
 1507SOL     OW15982   1.878   0.499  11.621  0.0124  0.2589 -0.3023
 1507SOL    HW115983   1.867   0.557  11.696  0.0443 -1.6982  1.2255
 1507SOL    HW215984   1.967   0.516  11.590  0.2888 -3.4189 -1.5101
 1508SOL     OW15985   4.246   0.184   1.442 -0.0571  0.2137 -0.4170
 1508SOL    HW115986   4.244   0.099   1.398  2.6033  0.4556 -1.0035
 1508SOL    HW215987   4.263   0.156   1.532  0.4283  0.8735 -0.3036
 1509SOL     OW15988   4.650   1.755   8.663  0.7114 -0.3175  0.3476
 1509SOL    HW115989   4.572   1.718   8.621  1.6363  0.9585 -2.4947
 1509SOL    HW215990   4.650   1.730   8.756  0.9822  1.1663  0.7439
 1510SOL     OW15991   0.007   0.326   6.288  0.6900  0.9145  0.0937
 1510SOL    HW115992   4.639   0.343   6.318  0.0314 -1.2585 -0.6196
 1510SOL    HW215993   0.053   0.406   6.311  1.7191 -0.4063  2.5440
 1511SOL     OW15994   3.305   0.902   2.638 -0.1539  0.6954  0.1513
 1511SOL    HW115995   3.306   0.814   2.676 -1.0854  1.3930  1.7779
 1511SOL    HW215996   3.228   0.939   2.681  0.9611 -0.7025  3.3318
 1512SOL     OW15997   0.212   2.157   0.267  0.1148  0.6093  0.5808
 1512SOL    HW115998   0.166   2.231   0.307 -2.8965 -1.2171  0.5070
 1512SOL    HW215999   0.270   2.134   0.339 -0.1925 -2.4396 -0.1500
 1513SOL     OW16000   4.311   2.913   1.567  0.3325 -0.1810  1.0054
 1513SOL    HW116001   4.310   2.966   1.487  1.0595 -0.0524  1.0888
 1513SOL    HW216002   4.240   2.849   1.554  2.0744 -1.6980 -0.9518
 1514SOL     OW16003   1.937   1.029   3.040  0.2192  0.1131  0.4337
 1514SOL    HW116004   2.007   1.043   3.104 -1.4727  1.1971  2.0561
 1514SOL    HW216005   1.977   1.064   2.961 -0.6383 -2.0516 -0.9782
 1515SOL     OW16006   1.994   2.213   6.131  0.4645  0.2351 -0.3161
 1515SOL    HW116007   2.008   2.156   6.207  4.1218  1.1608 -0.2768
 1515SOL    HW216008   1.943   2.153   6.077  0.7955 -1.9169  1.7675
 1516SOL     OW16009   1.635   4.378   1.092  0.0511  0.2997  0.1814
 1516SOL    HW116010   1.727   4.389   1.113  1.0791 -1.7284 -3.1404
 1516SOL    HW216011   1.600   4.321   1.161 -0.8634 -0.5387 -0.9633
 1517SOL     OW16012   3.475   1.099   9.059 -0.1241  0.4496 -0.7011
 1517SOL    HW116013   3.437   1.168   9.114 -1.3548  1.3988 -2.7355
 1517SOL    HW216014   3.569   1.103   9.079 -0.1432 -0.9062 -0.3620
 1518SOL     OW16015   1.414   2.717   3.930 -0.8752 -0.8591  0.3113
 1518SOL    HW116016   1.368   2.782   3.876 -0.4537 -0.0674  0.9051
 1518SOL    HW216017   1.490   2.762   3.966 -2.4832  0.6906  1.7772
 1519SOL     OW16018   1.766   4.163  11.748  0.4012 -0.7537  0.4105
 1519SOL    HW116019   1.759   4.097  11.679 -0.5720 -0.5537  0.3226
 1519SOL    HW216020   1.758   4.104  11.823 -0.3165 -3.1996 -1.5916
 1520SOL     OW16021   4.027   0.311   5.681 -0.2578 -0.0132 -0.3591
 1520SOL    HW116022   3.952   0.367   5.704 -1.5194 -2.3632  1.2639
 1520SOL    HW216023   3.982   0.252   5.621 -2.4475  1.0490  0.2211
 1521SOL     OW16024   4.406   2.435   7.567  0.5806 -0.1964 -0.6685
 1521SOL    HW116025   4.341   2.368   7.588  1.7849 -0.9867  0.5160
 1521SOL    HW216026   4.430   2.459   7.656 -2.9202  0.8645  0.0125
 1522SOL     OW16027   2.860   0.902   6.173 -0.2772  0.5734  0.5938
 1522SOL    HW116028   2.909   0.820   6.174  0.0302  0.7292 -1.1856
 1522SOL    HW216029   2.914   0.952   6.234  1.2167 -1.8289  1.2351
 1523SOL     OW16030   2.725   4.387   8.321 -0.3718 -0.3236  0.3058
 1523SOL    HW116031   2.800   4.442   8.342 -0.3633 -0.3277  0.2861
 1523SOL    HW216032   2.738   4.365   8.229 -0.4674 -1.5516  0.5765
 1524SOL     OW16033   1.414   3.674  17.447 -0.1695 -0.0583  0.7045
 1524SOL    HW116034   1.318   3.669  17.445 -0.2173  0.5765  1.1621
 1524SOL    HW216035   1.438   3.600  17.392  0.4554  0.6908 -0.0222
 1525SOL     OW16036   4.244   1.385   0.117  0.1718 -0.2491  0.0366
 1525SOL    HW116037   4.240   1.300   0.161  2.2787 -1.0091 -1.2166
 1525SOL    HW216038   4.316   1.420   0.169 -1.0541  2.8031 -0.3213
 1526SOL     OW16039   1.335   2.953   1.137  0.2527  0.2615  0.1616
 1526SOL    HW116040   1.346   2.958   1.232 -0.0633 -2.0521  0.3018
 1526SOL    HW216041   1.244   2.925   1.134  0.9384 -1.5836 -2.8093
 1527SOL     OW16042   1.396   1.913   6.210  0.1973 -0.0702  0.3160
 1527SOL    HW116043   1.482   1.879   6.236  1.4085  2.4747 -0.3138
 1527SOL    HW216044   1.351   1.902   6.293 -1.2620 -1.1321 -0.6086
 1528SOL     OW16045   1.197   3.824   0.747  0.2622 -0.2550  0.5280
 1528SOL    HW116046   1.148   3.743   0.762  1.9787 -1.0328  1.8641
 1528SOL    HW216047   1.158   3.870   0.672  0.3940 -1.0607 -0.0367
 1529SOL     OW16048   0.221   1.961  14.905 -0.1300  0.1366 -0.3677
 1529SOL    HW116049   0.299   1.907  14.894  0.3158  1.3538 -3.0484
 1529SOL    HW216050   0.212   1.965  15.000 -0.3307  1.5235 -0.4403
 1530SOL     OW16051   0.028   0.737   2.719 -0.2899  0.0532  0.0515
 1530SOL    HW116052   0.056   0.792   2.646 -2.5527 -0.9055 -1.5854
 1530SOL    HW216053   4.708   0.807   2.769 -0.4016 -0.5171  0.7631
 1531SOL     OW16054   2.660   0.319   8.158 -0.3880 -0.1197  0.0145
 1531SOL    HW116055   2.570   0.342   8.135 -0.5982  0.7758  1.6711
 1531SOL    HW216056   2.639   0.258   8.229  0.7050  0.2717  0.6842
 1532SOL     OW16057   4.648   2.204   4.002  0.3154 -0.8673 -0.0632
 1532SOL    HW116058   4.649   2.171   4.092  0.6048  1.5082  0.8151
 1532SOL    HW216059   4.569   2.160   3.971  0.8612  0.6567 -3.6246
 1533SOL     OW16060   4.579   2.319  10.426 -0.8156 -0.2282  0.2475
 1533SOL    HW116061   4.597   2.284  10.339  1.8226 -2.2391  1.6061
 1533SOL    HW216062   4.669   2.342  10.449 -1.4223  0.2883  2.1022
 1534SOL     OW16063   3.179   4.171   3.832  0.2496 -1.0649  0.4156
 1534SOL    HW116064   3.172   4.156   3.738  0.2758 -1.7310  0.5147
 1534SOL    HW216065   3.112   4.238   3.830  1.3452 -0.0627 -3.2600
 1535SOL     OW16066   0.368   4.104   7.956 -0.0384 -0.2751 -0.2077
 1535SOL    HW116067   0.317   4.023   7.957 -2.5431  1.3055 -0.1737
 1535SOL    HW216068   0.447   4.076   8.002 -0.5212  1.6672  1.8083
 1536SOL     OW16069   3.099   3.586  16.025 -0.0201  0.1773 -0.0876
 1536SOL    HW116070   3.085   3.673  15.988  1.2547  0.7032  0.6675
 1536SOL    HW216071   3.194   3.573  16.027  0.4915  3.8309 -0.4646
 1537SOL     OW16072   1.978   2.973   0.631 -0.1898  0.2864 -0.0592
 1537SOL    HW116073   1.989   2.881   0.652 -0.8590  0.3779  0.6969
 1537SOL    HW216074   2.047   2.986   0.567 -1.5279  1.4583 -1.2650
 1538SOL     OW16075   0.239   2.754   0.769 -0.3536  0.2121  0.3146
 1538SOL    HW116076   0.207   2.741   0.680 -0.1655 -0.6044  0.3720
 1538SOL    HW216077   0.196   2.835   0.799 -0.8633 -0.4169  1.2877
 1539SOL     OW16078   0.294   4.473   1.790 -0.0458 -0.1299 -0.1873
 1539SOL    HW116079   0.382   4.437   1.807  0.6093  1.5461 -0.0305
 1539SOL    HW216080   0.266   4.476   1.881  0.5306  1.1408 -0.0410
 1540SOL     OW16081   1.789   2.464   6.261 -0.1560 -0.1245  0.7847
 1540SOL    HW116082   1.814   2.491   6.173 -0.4129  0.3602  0.8585
 1540SOL    HW216083   1.805   2.546   6.308 -0.3285 -0.3813  1.2865
 1541SOL     OW16084   0.804   1.803   8.269 -0.5243  0.0354 -0.0210
 1541SOL    HW116085   0.848   1.725   8.306 -0.9667  1.5104  3.6573
 1541SOL    HW216086   0.718   1.803   8.311 -0.6135  3.9870 -0.2931
 1542SOL     OW16087   3.072   3.145   6.394 -0.0565  0.4609 -0.4613
 1542SOL    HW116088   3.070   3.157   6.489  0.2500 -0.6497 -0.3138
 1542SOL    HW216089   3.072   3.235   6.361 -1.0169  1.0777  1.2437
 1543SOL     OW16090   3.042   1.504  15.616 -0.0236  0.1121  0.5013
 1543SOL    HW116091   3.004   1.589  15.640 -0.9240  0.1203 -0.9632
 1543SOL    HW216092   3.052   1.504  15.521  0.9711  2.5344  0.5869
 1544SOL     OW16093   1.267   1.356   7.853 -0.1472  0.1852 -0.4115
 1544SOL    HW116094   1.318   1.438   7.856 -1.8383  1.1529  1.9590
 1544SOL    HW216095   1.275   1.315   7.939 -0.2063 -3.2242 -2.0406
 1545SOL     OW16096   0.070   2.616   5.102  0.1087 -0.1668 -0.0040
 1545SOL    HW116097   0.136   2.675   5.064 -1.6724  1.2699 -0.8601
 1545SOL    HW216098   0.009   2.610   5.029 -0.5694  0.0166  0.5414
 1546SOL     OW16099   0.753   4.657   8.660  0.0556  0.2750  0.8699
 1546SOL    HW116100   0.780   4.636   8.571  1.5364  1.4511  1.0498
 1546SOL    HW216101   0.657   4.651   8.656  0.1084 -2.4920  3.3781
 1547SOL     OW16102   3.865   0.106   7.200  0.0981 -0.3268  0.3244
 1547SOL    HW116103   3.864   0.136   7.109  0.5207  0.7476  0.6812
 1547SOL    HW216104   3.792   0.155   7.236  0.0516 -0.4042  0.3360
 1548SOL     OW16105   2.758   2.468   9.503 -0.0788 -0.3509 -0.6386
 1548SOL    HW116106   2.790   2.423   9.582  1.3496  1.7851  0.0156
 1548SOL    HW216107   2.688   2.528   9.527  1.2304  0.5795  0.8932
 1549SOL     OW16108   3.053   0.236   8.250 -0.0660  0.6329  0.7967
 1549SOL    HW116109   2.978   0.178   8.241  2.8549 -3.0288  0.1311
 1549SOL    HW216110   3.026   0.320   8.212 -0.5339  0.2212  0.2261
 1550SOL     OW16111   0.786   4.573   3.014 -0.1624  0.3258  0.4183
 1550SOL    HW116112   0.839   4.592   2.937  0.4653 -0.1154  0.7379
 1550SOL    HW216113   0.713   4.527   2.973  0.1386  0.2153  0.0095
 1551SOL     OW16114   0.356   0.269   7.113  0.0905  0.3166  0.0688
 1551SOL    HW116115   0.263   0.245   7.119  0.0536  0.7768  1.2128
 1551SOL    HW216116   0.365   0.295   7.021  0.4960 -1.9072 -0.5119
 1552SOL     OW16117   3.808   3.358   5.268  0.3969  0.4741 -0.0295
 1552SOL    HW116118   3.876   3.422   5.291  0.1256 -0.2972  2.8962
 1552SOL    HW216119   3.829   3.336   5.177 -4.1234  0.8658 -1.1418
 1553SOL     OW16120   4.309   2.315  13.000  0.3998  0.2356 -0.0064
 1553SOL    HW116121   4.274   2.252  13.063 -1.1999 -0.1051 -1.2500
 1553SOL    HW216122   4.292   2.403  13.035 -0.9442 -0.5454  1.3009
 1554SOL     OW16123   1.752   1.801  17.545 -0.3212  0.1658 -0.3180
 1554SOL    HW116124   1.792   1.886  17.526  0.2100 -0.7596 -3.3275
 1554SOL    HW216125   1.813   1.739  17.505 -3.0316 -2.1364 -0.8237
 1555SOL     OW16126   3.053   2.968   7.614 -0.6424 -0.4622 -0.2729
 1555SOL    HW116127   3.127   2.985   7.557 -1.6427  3.5456 -0.3993
 1555SOL    HW216128   3.065   2.875   7.636  2.8846  0.1025  0.2844
 1556SOL     OW16129   4.148   4.220   3.999  0.0876  0.0095  0.4398
 1556SOL    HW116130   4.118   4.294   3.947  1.1305  1.8126  2.4391
 1556SOL    HW216131   4.235   4.206   3.962 -1.5726 -1.3059 -3.0057
 1557SOL     OW16132   1.692   2.213   5.926 -0.0811 -0.3204 -0.3268
 1557SOL    HW116133   1.765   2.151   5.928  1.1118  1.0765  0.4111
 1557SOL    HW216134   1.625   2.156   5.891 -1.5725  0.9989  0.3501
 1558SOL     OW16135   2.846   0.060   6.663 -0.4283  0.5203  0.1677
 1558SOL    HW116136   2.773   0.050   6.603 -0.9626  0.3184  0.8488
 1558SOL    HW216137   2.802   0.079   6.746 -0.7405 -1.4584  0.4615
 1559SOL     OW16138   3.495   0.940   6.269  0.2073  0.4860  0.0231
 1559SOL    HW116139   3.458   0.976   6.188  0.1389  1.1980  0.3645
 1559SOL    HW216140   3.417   0.901   6.309  0.0734 -0.3588 -1.0714
 1560SOL     OW16141   0.465   1.987   5.272  0.0573 -0.2349 -0.0979
 1560SOL    HW116142   0.372   1.964   5.281  0.1999  0.0989  2.0869
 1560SOL    HW216143   0.500   1.898   5.273  3.0862  0.9801  1.5543
 1561SOL     OW16144   1.807   4.246   2.738 -0.2752 -0.4750 -0.2266
 1561SOL    HW116145   1.858   4.166   2.726  1.2388  0.8473 -2.6204
 1561SOL    HW216146   1.729   4.212   2.781 -1.5365  1.5673 -0.9178
 1562SOL     OW16147   0.018   3.840   1.848  0.1316 -0.2241  0.8921
 1562SOL    HW116148   0.105   3.879   1.849 -0.9372  2.2199 -4.1034
 1562SOL    HW216149   4.686   3.918   1.862  0.6668  0.2314  0.3355
 1563SOL     OW16150   0.341   1.967   0.117  0.2557  0.3047  0.1056
 1563SOL    HW116151   0.417   1.987   0.172  0.2774  0.4482  0.0249
 1563SOL    HW216152   0.278   2.022   0.163 -0.7902 -0.8254  0.0232
 1564SOL     OW16153   1.587   1.253  17.261  0.5202  0.5235 -0.4180
 1564SOL    HW116154   1.649   1.180  17.262 -0.9271 -0.7197 -1.0552
 1564SOL    HW216155   1.602   1.282  17.351  1.9942 -1.4345 -0.0468
 1565SOL     OW16156   3.632   3.447   9.029 -0.0272  0.2168 -0.1800
 1565SOL    HW116157   3.580   3.526   9.042  0.5435  0.8427 -1.7020
 1565SOL    HW216158   3.613   3.416   9.118  1.2960  0.4513  0.1807
 1566SOL     OW16159   1.105   1.803   7.159 -0.1775  0.1577  0.4957
 1566SOL    HW116160   1.051   1.818   7.237 -0.5807 -0.2653  0.2998
 1566SOL    HW216161   1.046   1.746   7.110 -0.5664 -0.0450  1.1994
 1567SOL     OW16162   3.641   1.382  17.265 -0.1596  0.5668 -0.0235
 1567SOL    HW116163   3.684   1.437  17.330  2.7043 -2.7618  0.8640
 1567SOL    HW216164   3.558   1.427  17.280 -2.4929 -3.8083  0.2608
 1568SOL     OW16165   2.620   0.509   4.959  0.0633  0.4617  0.1621
 1568SOL    HW116166   2.636   0.602   4.946 -0.5604  0.3349 -1.4330
 1568SOL    HW216167   2.559   0.482   4.890 -0.9128 -0.1788  1.2746
 1569SOL     OW16168   4.550   0.800   7.271 -0.7524 -0.0435  0.6631
 1569SOL    HW116169   4.474   0.793   7.212 -0.1802 -0.5673 -0.0161
 1569SOL    HW216170   4.557   0.893   7.290  0.6724  0.0405 -0.2958
 1570SOL     OW16171   3.556   1.534   8.729  0.4418 -0.2883  0.4943
 1570SOL    HW116172   3.546   1.611   8.673 -0.7154 -0.2231  0.7855
 1570SOL    HW216173   3.640   1.549   8.773  0.9860  0.7536 -0.9033
 1571SOL     OW16174   3.877   4.593   5.228 -0.5979  0.9404 -0.5617
 1571SOL    HW116175   3.886   4.611   5.322  1.0754  0.9352 -0.7228
 1571SOL    HW216176   3.941   4.651   5.187 -0.6273  1.5784  0.2990
 1572SOL     OW16177   1.987   3.359   2.843  0.0719 -0.2981  0.3501
 1572SOL    HW116178   2.010   3.372   2.935  0.8242 -2.0900  0.4123
 1572SOL    HW216179   2.021   3.273   2.821  1.7981 -0.2266  2.8088
 1573SOL     OW16180   4.435   0.183   4.096  0.1387 -0.0884 -0.6217
 1573SOL    HW116181   4.492   0.222   4.162  0.7250 -1.4054 -0.3568
 1573SOL    HW216182   4.507   0.142   4.048  0.9466  0.9793 -0.3233
 1574SOL     OW16183   1.815   2.828   1.971 -0.5819 -0.8441 -0.7026
 1574SOL    HW116184   1.746   2.824   1.905 -1.7365 -1.1373  0.5245
 1574SOL    HW216185   1.770   2.805   2.052 -1.8459  2.6313 -0.4025
 1575SOL     OW16186   2.942   1.240   3.600  0.5627  0.8596 -0.0363
 1575SOL    HW116187   2.878   1.172   3.622 -0.2417  2.4141  2.4355
 1575SOL    HW216188   3.018   1.200   3.642  0.2378  3.1552  2.7688
 1576SOL     OW16189   0.448   3.921   2.352 -0.0020  0.0229 -0.1883
 1576SOL    HW116190   0.357   3.902   2.330 -0.3776 -0.3039  1.6552
 1576SOL    HW216191   0.467   3.996   2.296 -2.2647  0.6261 -0.1673
 1577SOL     OW16192   2.871   3.471   6.790  0.3180 -0.1728 -0.4210
 1577SOL    HW116193   2.871   3.554   6.742  1.4261  0.0143 -0.0940
 1577SOL    HW216194   2.956   3.437   6.763  1.7691  2.5344  0.8367
 1578SOL     OW16195   3.839   0.979   0.553 -0.2992  0.1503 -0.1355
 1578SOL    HW116196   3.866   0.936   0.472 -1.7869  1.5662 -1.3864
 1578SOL    HW216197   3.743   0.974   0.545 -0.0035 -2.9406 -1.6659
 1579SOL     OW16198   3.686   3.050   6.779 -0.2387 -0.0999 -0.2105
 1579SOL    HW116199   3.781   3.043   6.773  0.1969  2.9726  2.8259
 1579SOL    HW216200   3.664   2.959   6.760  2.1993 -0.7007 -0.0582
 1580SOL     OW16201   1.935   0.018   6.612  0.0327 -0.2031  0.1350
 1580SOL    HW116202   1.957   0.057   6.527 -2.5153 -2.3502 -1.5165
 1580SOL    HW216203   1.989   0.065   6.676 -0.1982  1.5575 -0.9544
 1581SOL     OW16204   0.411   4.634  13.302 -0.1308 -0.3335  0.1565
 1581SOL    HW116205   0.342   4.610  13.239  0.6323 -1.6011 -0.1894
 1581SOL    HW216206   0.363   4.645  13.384  2.0286 -2.9384  1.7632
 1582SOL     OW16207   0.911   2.072   8.294  0.2696  0.0445 -0.2304
 1582SOL    HW116208   0.861   1.992   8.285  3.2559 -1.8280 -0.2098
 1582SOL    HW216209   0.857   2.124   8.353 -1.0381  1.0528 -2.2897
 1583SOL     OW16210   2.601   3.187   6.809  0.4873  0.2865 -0.4117
 1583SOL    HW116211   2.561   3.114   6.856 -0.6145 -0.6674 -2.8218
 1583SOL    HW216212   2.686   3.146   6.791  1.5716  1.9906  0.7922
 1584SOL     OW16213   3.350   3.837   5.913 -0.2145 -0.1467 -0.1989
 1584SOL    HW116214   3.437   3.837   5.873  0.3527 -0.7493  1.0367
 1584SOL    HW216215   3.316   3.759   5.869  0.6840 -1.4712  1.4371
 1585SOL     OW16216   0.729   4.218   6.815  0.2581 -0.8793 -0.1691
 1585SOL    HW116217   0.638   4.222   6.844  0.4773  1.0246  0.2482
 1585SOL    HW216218   0.752   4.308   6.793 -1.7276 -0.1324  0.7646
 1586SOL     OW16219   2.305   3.907   8.035 -0.4165  0.1560 -0.1471
 1586SOL    HW116220   2.338   3.947   8.116  0.7574  1.5499 -1.3136
 1586SOL    HW216221   2.389   3.901   7.990  0.0323 -1.1485  0.8552
 1587SOL     OW16222   1.180   3.022  11.482 -0.3370 -0.4984 -0.1509
 1587SOL    HW116223   1.192   3.021  11.576 -0.3855  1.2799 -0.1206
 1587SOL    HW216224   1.213   3.112  11.478  0.0765 -0.6687 -0.5324
 1588SOL     OW16225   0.782   4.571   9.535  0.1702 -0.0998  0.2216
 1588SOL    HW116226   0.721   4.640   9.511  2.2553  0.8736 -2.1965
 1588SOL    HW216227   0.754   4.568   9.627  0.6690  0.8415  0.4059
 1589SOL     OW16228   4.688   0.558   6.540  0.2740 -1.1441  0.2106
 1589SOL    HW116229   0.025   0.551   6.465 -0.1272 -1.5974 -0.0580
 1589SOL    HW216230   4.619   0.506   6.499  1.6592 -3.6843  1.0911
 1590SOL     OW16231   0.635   4.104   2.233 -0.5199 -0.0652  0.1475
 1590SOL    HW116232   0.630   4.040   2.162  0.7228 -0.7191  0.6425
 1590SOL    HW216233   0.584   4.176   2.196  1.6605  1.0345 -0.7081
 1591SOL     OW16234   1.657   3.429   4.536  0.1864  0.3282 -0.4801
 1591SOL    HW116235   1.571   3.472   4.536 -0.1350 -0.3205 -0.3343
 1591SOL    HW216236   1.707   3.505   4.566  0.0329  0.4154 -0.4437
 1592SOL     OW16237   1.497   0.406   3.101 -0.2483  0.1272  0.7301
 1592SOL    HW116238   1.486   0.348   3.026  2.4745 -1.1754  1.3543
 1592SOL    HW216239   1.476   0.350   3.175 -0.1689  0.6179  1.1205
 1593SOL     OW16240   0.069   2.679   7.195 -0.3416 -0.2362 -0.3418
 1593SOL    HW116241   4.701   2.710   7.209 -0.7551 -1.2436 -0.7433
 1593SOL    HW216242   0.063   2.618   7.121 -1.5522  0.2519 -0.6423
 1594SOL     OW16243   4.720   3.067   5.691 -0.0479 -0.0878 -0.2279
 1594SOL    HW116244   4.669   3.126   5.636 -1.4256 -0.7967  0.2954
 1594SOL    HW216245   0.049   3.129   5.743  0.4841 -1.0274  0.3851
 1595SOL     OW16246   4.370   4.421   5.922 -0.2351  0.5204  0.3758
 1595SOL    HW116247   4.293   4.442   5.868 -0.8760  3.0201  2.2213
 1595SOL    HW216248   4.420   4.367   5.861  0.5448 -0.0452  1.5196
 1596SOL     OW16249   1.386   2.943   2.315 -0.0367 -0.1726 -0.2569
 1596SOL    HW116250   1.321   2.950   2.246  3.7269 -2.6262 -4.0436
 1596SOL    HW216251   1.350   3.020   2.360  1.2996  0.5542 -0.3975
 1597SOL     OW16252   1.499   1.172   2.523 -0.4196  0.3110  0.1288
 1597SOL    HW116253   1.587   1.138   2.507 -1.2772 -1.1981 -1.4273
 1597SOL    HW216254   1.490   1.152   2.616 -2.8524 -1.6251 -0.5148
 1598SOL     OW16255   3.607   3.641   8.336  0.1576 -0.0122  0.4446
 1598SOL    HW116256   3.674   3.573   8.325  2.5461  2.2156  1.1896
 1598SOL    HW216257   3.541   3.591   8.383  0.0691 -1.9014 -1.6819
 1599SOL     OW16258   1.453   3.579  12.194  0.7511 -0.4981  0.0116
 1599SOL    HW116259   1.379   3.529  12.226 -0.2844  0.6960 -0.5118
 1599SOL    HW216260   1.490   3.619  12.272 -1.1138  1.9068 -0.3312
 1600SOL     OW16261   3.648   3.195   3.992 -0.2861 -0.1630 -0.0240
 1600SOL    HW116262   3.689   3.145   3.921 -1.3993  2.8882 -2.7919
 1600SOL    HW216263   3.710   3.266   4.008 -1.6210  1.0366 -0.2086
 1601SOL     OW16264   0.247   4.465  16.489  0.3518 -0.2086  0.1210
 1601SOL    HW116265   0.219   4.432  16.575  0.4494  2.1916  1.0611
 1601SOL    HW216266   0.335   4.490  16.515  1.0882 -1.0149 -1.6622
 1602SOL     OW16267   2.369   3.508   9.388  0.5162  0.3692  0.0183
 1602SOL    HW116268   2.358   3.477   9.299  0.6137 -1.1790  0.5350
 1602SOL    HW216269   2.285   3.472   9.417  1.3220 -1.7414 -0.3030
 1603SOL     OW16270   1.133   0.753  15.593 -0.5449 -0.1497 -0.1927
 1603SOL    HW116271   1.087   0.834  15.571 -0.5486 -0.2678 -0.6206
 1603SOL    HW216272   1.202   0.784  15.653 -1.9735  0.3279  1.1930
 1604SOL     OW16273   4.201   1.117   4.045 -0.4059  0.2916  0.1387
 1604SOL    HW116274   4.149   1.080   3.974  1.0215  1.3694 -1.4613
 1604SOL    HW216275   4.187   1.052   4.114  0.1709 -0.8819 -0.8602
 1605SOL     OW16276   1.640   4.318   0.125  0.2264 -0.1898 -0.1401
 1605SOL    HW116277   1.649   4.360   0.039 -3.0028  2.7685  0.9500
 1605SOL    HW216278   1.552   4.347   0.147  0.0317 -0.0169 -1.1305
 1606SOL     OW16279   3.925   0.815   7.114 -0.2792  0.2116 -0.3876
 1606SOL    HW116280   3.854   0.878   7.127  2.1343  2.5646  1.2070
 1606SOL    HW216281   3.988   0.813   7.185 -0.6188  1.0316 -0.0659
 1607SOL     OW16282   1.638   4.349   5.654 -0.0813  0.3608 -0.4265
 1607SOL    HW116283   1.543   4.338   5.648 -0.0369 -0.8797  1.1315
 1607SOL    HW216284   1.671   4.279   5.598 -1.0566 -1.4685  1.2818
 1608SOL     OW16285   0.456   1.842  14.826 -0.0215 -0.0869 -0.0600
 1608SOL    HW116286   0.516   1.866  14.897 -2.2186  0.7269  1.5241
 1608SOL    HW216287   0.500   1.876  14.748  1.6609  1.0196  1.3551
 1609SOL     OW16288   4.355   3.295  14.367  0.0183  0.6356 -0.6543
 1609SOL    HW116289   4.278   3.343  14.339 -0.2663  1.2376  1.1780
 1609SOL    HW216290   4.331   3.202  14.363  0.4619  0.4130  1.8518
 1610SOL     OW16291   3.353   1.824   4.618 -0.7066 -0.2330  0.1423
 1610SOL    HW116292   3.431   1.850   4.667  0.5721 -0.5936 -1.6898
 1610SOL    HW216293   3.298   1.902   4.608 -0.4685 -0.3102 -1.7709
 1611SOL     OW16294   2.990   1.248  13.529 -0.2804  0.0985 -0.1954
 1611SOL    HW116295   3.080   1.260  13.497  0.1593 -2.0227  0.2426
 1611SOL    HW216296   2.968   1.331  13.572 -0.0323  1.9231 -3.5278
 1612SOL     OW16297   4.280   1.541   1.454 -0.3233  0.1095 -0.3609
 1612SOL    HW116298   4.236   1.592   1.386 -0.4911  0.0686 -0.2856
 1612SOL    HW216299   4.293   1.611   1.518 -0.9351  0.6395 -0.8189
 1613SOL     OW16300   1.069   2.775   3.241 -0.0312  0.9275 -0.9059
 1613SOL    HW116301   1.134   2.771   3.311 -1.6372  1.1923  0.6263
 1613SOL    HW216302   1.114   2.710   3.187 -1.6159  0.7294 -1.9759
 1614SOL     OW16303   1.168   3.305   2.153  0.1106 -0.3365 -0.2628
 1614SOL    HW116304   1.208   3.354   2.082  1.5155 -1.6159 -0.3541
 1614SOL    HW216305   1.188   3.351   2.235 -0.3837 -1.9616  0.7890
 1615SOL     OW16306   0.638   2.785   0.560 -0.4290  0.4403  0.3252
 1615SOL    HW116307   0.695   2.826   0.496  0.3834 -0.9420  0.1709
 1615SOL    HW216308   0.565   2.753   0.507  0.6587 -0.4870 -0.6096
 1616SOL     OW16309   1.657   2.391  16.371 -0.8180 -0.0715 -0.1853
 1616SOL    HW116310   1.598   2.321  16.346  0.4730 -1.9268  1.9501
 1616SOL    HW216311   1.596   2.464  16.367 -1.1044 -0.2737  0.5490
 1617SOL     OW16312   0.780   0.560   2.634  0.3905 -0.2592  0.2425
 1617SOL    HW116313   0.746   0.585   2.548  1.7497 -1.1294 -0.5465
 1617SOL    HW216314   0.748   0.471   2.649 -0.3459 -0.1826 -0.8282
 1618SOL     OW16315   3.479   3.273   0.499  0.5701  0.2519 -0.0065
 1618SOL    HW116316   3.416   3.343   0.515  1.2423  1.2129 -1.5512
 1618SOL    HW216317   3.444   3.228   0.422 -0.9402  0.9273  0.2945
 1619SOL     OW16318   4.049   1.886   8.159  0.3313 -0.2422 -0.0782
 1619SOL    HW116319   3.960   1.910   8.186 -0.2828 -1.1979 -1.2830
 1619SOL    HW216320   4.067   1.825   8.231 -2.6129  1.9439  2.5203
 1620SOL     OW16321   2.548   4.629   5.494  0.2554 -0.3842 -0.0189
 1620SOL    HW116322   2.460   4.640   5.457  0.7564 -0.0397 -1.1212
 1620SOL    HW216323   2.571   0.000   5.506 -3.3534  0.4442  0.4871
 1621SOL     OW16324   2.683   1.581   8.738  0.2685 -0.5619  0.1825
 1621SOL    HW116325   2.694   1.487   8.754  1.5247 -0.0767  2.1223
 1621SOL    HW216326   2.677   1.615   8.827  2.1413 -0.6331  0.3306
 1622SOL     OW16327   3.298   3.780   2.639 -0.4427  0.0052 -0.3871
 1622SOL    HW116328   3.314   3.771   2.545  1.1264 -0.4506 -0.0731
 1622SOL    HW216329   3.247   3.861   2.639 -2.7598 -1.4509 -3.0755
 1623SOL     OW16330   1.760   4.628  15.968  0.4405 -0.4428 -0.2002
 1623SOL    HW116331   1.832   4.689  15.954  0.9918 -1.3492 -1.2565
 1623SOL    HW216332   1.793   4.539  15.973 -3.3280 -1.7346  1.7467
 1624SOL     OW16333   2.686   4.131   5.546  0.1173  0.0632 -0.2796
 1624SOL    HW116334   2.647   4.204   5.497  1.0372  1.8708  1.6980
 1624SOL    HW216335   2.753   4.172   5.601  0.6969 -2.6434  1.0270
 1625SOL     OW16336   2.431   2.600   7.419 -0.1025 -0.6022 -0.0293
 1625SOL    HW116337   2.439   2.591   7.514 -4.3694  0.5809  0.4585
 1625SOL    HW216338   2.470   2.685   7.398 -0.1432 -0.8097 -0.9454
 1626SOL     OW16339   0.909   3.100   1.298 -0.0074  0.4299 -0.3956
 1626SOL    HW116340   0.953   3.030   1.347 -0.4078  0.7919  0.4780
 1626SOL    HW216341   0.825   3.062   1.271  0.0599 -0.1480  0.2069
 1627SOL     OW16342   1.805   0.298  13.953 -0.7491  0.9149 -0.1703
 1627SOL    HW116343   1.813   0.380  14.002 -0.2429  1.8807 -1.8660
 1627SOL    HW216344   1.892   0.291  13.914 -0.1651  0.5889  1.1780
 1628SOL     OW16345   0.651   2.428   7.995  0.3751  0.1545 -0.3468
 1628SOL    HW116346   0.685   2.515   7.978 -1.5440  1.2048  1.1542
 1628SOL    HW216347   0.729   2.374   8.006  0.7757  0.9508  0.7538
 1629SOL     OW16348   1.549   0.247  13.879  0.1112 -0.0313 -0.2799
 1629SOL    HW116349   1.531   0.153  13.890 -2.2467  1.0020  4.6543
 1629SOL    HW216350   1.632   0.248  13.927  0.8574  0.2897 -1.5966
 1630SOL     OW16351   4.661   3.632   7.968 -0.3395  0.2586 -0.4962
 1630SOL    HW116352   4.653   3.723   7.998  0.4066  1.3495 -3.5671
 1630SOL    HW216353   4.567   3.619   7.954  0.0580 -0.7414 -2.3072
 1631SOL     OW16354   2.827   2.780  17.013 -0.6028 -0.2045  0.2621
 1631SOL    HW116355   2.873   2.858  17.046 -0.2154 -1.0883  1.7807
 1631SOL    HW216356   2.806   2.725  17.088 -2.1115 -0.1033 -0.0824
 1632SOL     OW16357   0.572   1.952  15.055 -0.0764 -0.3539  0.3451
 1632SOL    HW116358   0.488   1.991  15.081  0.3294 -0.0559  1.2355
 1632SOL    HW216359   0.635   1.974  15.124 -1.6662  0.5500  1.5103
 1633SOL     OW16360   3.570   1.381   6.484 -0.1105 -0.4882  0.3993
 1633SOL    HW116361   3.644   1.341   6.438 -0.3115  1.3799 -1.5435
 1633SOL    HW216362   3.507   1.318   6.450  0.9334 -1.8374  0.9767
 1634SOL     OW16363   0.689   3.534   0.702 -0.3073 -0.2061  0.1022
 1634SOL    HW116364   0.674   3.479   0.778 -0.8776  0.6065  0.5723
 1634SOL    HW216365   0.597   3.548   0.680 -0.3882  1.4162  1.4914
 1635SOL     OW16366   4.267   1.651   2.100  0.3112  0.2136  0.1453
 1635SOL    HW116367   4.310   1.644   2.015 -1.3329  0.4390 -0.6968
 1635SOL    HW216368   4.334   1.601   2.147  1.6655  0.1514 -1.8427
 1636SOL     OW16369   2.745   3.242  14.214 -0.1269 -0.0295  0.3288
 1636SOL    HW116370   2.834   3.276  14.202  0.1941 -1.2222 -0.7186
 1636SOL    HW216371   2.699   3.282  14.141  0.3838  1.9002  1.0684
 1637SOL     OW16372   0.344   0.463   5.835  0.1531 -0.0213  0.0469
 1637SOL    HW116373   0.330   0.554   5.859  0.9990  0.1139  0.0335
 1637SOL    HW216374   0.356   0.417   5.918 -1.6599  1.1782  0.9482
 1638SOL     OW16375   1.612   1.396  12.573 -0.3931  0.1707  0.1677
 1638SOL    HW116376   1.529   1.354  12.554  0.4183 -0.8198 -1.1754
 1638SOL    HW216377   1.675   1.337  12.532 -1.8419 -0.5445 -0.9717
 1639SOL     OW16378   0.406   0.438   9.002  0.4940 -0.2316 -0.2717
 1639SOL    HW116379   0.450   0.508   8.953  0.0417  1.2297  1.4301
 1639SOL    HW216380   0.315   0.445   8.975  0.0419 -1.3507  0.9859
 1640SOL     OW16381   0.302   3.138   4.361  0.8029 -0.1321  0.0277
 1640SOL    HW116382   0.264   3.093   4.437 -2.1567  4.3261  1.1810
 1640SOL    HW216383   0.393   3.109   4.363  0.5338 -0.7711  3.0093
 1641SOL     OW16384   1.613   0.921   7.156 -0.5045  0.5314 -0.3213
 1641SOL    HW116385   1.544   0.977   7.191  0.2556  1.4803 -0.3218
 1641SOL    HW216386   1.686   0.961   7.204  0.4362 -1.9800  0.3657
 1642SOL     OW16387   3.979   1.392   0.123 -0.0071  0.3497 -0.1491
 1642SOL    HW116388   3.961   1.408   0.216 -1.4887 -2.1638 -0.0096
 1642SOL    HW216389   4.074   1.401   0.119  0.2109 -3.6515 -3.1193
 1643SOL     OW16390   3.134   1.501   6.963 -0.2272 -0.0566  0.2800
 1643SOL    HW116391   3.144   1.596   6.953  1.5740  0.0048  2.6857
 1643SOL    HW216392   3.052   1.496   7.010 -0.5992  0.1904 -0.3374
 1644SOL     OW16393   4.140   0.525   2.338  0.0846 -0.5372  0.1515
 1644SOL    HW116394   4.047   0.501   2.340 -0.2926  0.9691  0.1896
 1644SOL    HW216395   4.165   0.435   2.362 -1.3281 -1.1305 -0.5889
 1645SOL     OW16396   3.906   0.634   0.848  0.1398 -0.9272  0.6157
 1645SOL    HW116397   3.948   0.585   0.778  0.4836 -0.9991  0.8699
 1645SOL    HW216398   3.930   0.726   0.836 -0.0228 -0.9805 -0.1474
 1646SOL     OW16399   3.746   1.067   4.017  0.0437  0.6044  0.5333
 1646SOL    HW116400   3.658   1.030   4.020  1.3231 -2.3940  0.6649
 1646SOL    HW216401   3.789   1.019   3.945 -0.7570 -0.0790  0.5123
 1647SOL     OW16402   2.267   1.517   5.674  0.5043 -0.9149 -0.4087
 1647SOL    HW116403   2.199   1.490   5.613  0.0135 -0.7725  0.0770
 1647SOL    HW216404   2.332   1.559   5.618 -1.1796  0.6855 -1.1540
 1648SOL     OW16405   1.785   2.485   3.236 -0.0345 -0.1788 -0.5318
 1648SOL    HW116406   1.835   2.479   3.155 -1.0060  0.4700 -1.1755
 1648SOL    HW216407   1.705   2.445   3.204 -0.7861  1.4014 -0.6133
 1649SOL     OW16408   2.883   1.943   3.055 -0.2627  0.1757  0.3111
 1649SOL    HW116409   2.799   1.952   3.012 -1.2601 -2.4143  1.7143
 1649SOL    HW216410   2.919   1.866   3.012 -1.4830 -0.8393  1.1245
 1650SOL     OW16411   0.689   1.536   9.412  0.1091  0.6574 -0.1205
 1650SOL    HW116412   0.715   1.482   9.337 -2.2572 -0.1093 -0.4017
 1650SOL    HW216413   0.694   1.472   9.483 -0.1670  0.5252 -0.2204
 1651SOL     OW16414   4.141   0.573   7.850  0.3547  0.2010  0.0439
 1651SOL    HW116415   4.195   0.647   7.824 -0.4197  0.9727  0.6523
 1651SOL    HW216416   4.174   0.557   7.938  2.2213 -3.2889 -1.2892
 1652SOL     OW16417   3.767   2.425   8.196 -0.6383  0.0880 -0.1709
 1652SOL    HW116418   3.789   2.478   8.273 -0.0035 -0.1255 -0.2045
 1652SOL    HW216419   3.831   2.451   8.129  0.2350 -0.6379  0.3841
 1653SOL     OW16420   1.762   3.653   4.615  0.4662 -0.5086  0.1647
 1653SOL    HW116421   1.772   3.689   4.527  0.6385  0.5614  0.6172
 1653SOL    HW216422   1.746   3.736   4.659 -0.9179 -1.1009  0.7818
 1654SOL     OW16423   2.735   4.100  10.775 -0.2571  0.0075 -0.3388
 1654SOL    HW116424   2.762   4.008  10.769 -0.6192 -0.3472  3.2554
 1654SOL    HW216425   2.719   4.119  10.683 -3.0847 -0.0929  0.1278
 1655SOL     OW16426   3.512   0.866   0.669 -0.4861  1.0661 -0.8909
 1655SOL    HW116427   3.579   0.804   0.697 -1.7213 -0.3953 -1.2002
 1655SOL    HW216428   3.441   0.841   0.728  1.2311 -3.4946 -0.7644
 1656SOL     OW16429   0.007   2.875   7.911  0.7819  0.0349 -0.1445
 1656SOL    HW116430   0.080   2.903   7.856  0.8152  1.6181  0.7099
 1656SOL    HW216431   0.036   2.791   7.947  0.7341 -0.6084 -1.6223
 1657SOL     OW16432   2.525   1.070   2.894 -0.1614  0.0151 -0.0658
 1657SOL    HW116433   2.448   1.054   2.840 -0.4337 -0.6149  0.5125
 1657SOL    HW216434   2.522   0.991   2.948 -1.0886  0.6356  0.7735
 1658SOL     OW16435   2.777   2.744   4.427  0.0295  0.0270  0.0312
 1658SOL    HW116436   2.702   2.801   4.445  0.6290  0.8145  0.0266
 1658SOL    HW216437   2.848   2.808   4.436 -0.5374  0.5894  0.5822
 1659SOL     OW16438   1.347   0.851   7.786 -0.2308  0.7055  0.3522
 1659SOL    HW116439   1.353   0.826   7.694 -1.7562  1.2203  0.1126
 1659SOL    HW216440   1.438   0.834   7.810 -0.6932 -2.5549 -0.2448
 1660SOL     OW16441   2.424   0.817   6.694  0.5311 -0.0551  0.1678
 1660SOL    HW116442   2.412   0.790   6.785 -0.3286 -0.8986 -0.1936
 1660SOL    HW216443   2.497   0.878   6.692  0.8912 -0.4925  0.1831
 1661SOL     OW16444   1.049   4.501   9.579 -0.0886  0.0109 -0.6326
 1661SOL    HW116445   1.060   4.416   9.536 -1.5789 -1.5121  2.0637
 1661SOL    HW216446   0.961   4.522   9.549 -0.0631  0.3694 -0.4609
 1662SOL     OW16447   0.344   3.280   7.734 -0.0156 -0.2140 -0.2289
 1662SOL    HW116448   0.255   3.268   7.701 -0.3112 -0.9366  0.8419
 1662SOL    HW216449   0.364   3.189   7.756 -1.5138 -0.3173  0.6822
 1663SOL     OW16450   4.391   2.942   8.759  0.0085  0.3356 -0.1326
 1663SOL    HW116451   4.407   2.913   8.849  0.0420 -0.6822 -0.4697
 1663SOL    HW216452   4.297   2.921   8.758 -0.1531  0.9929  2.6398
 1664SOL     OW16453   3.780   3.749   3.755 -0.0246  0.7162  0.2597
 1664SOL    HW116454   3.739   3.670   3.722  0.6300  1.0952 -1.4745
 1664SOL    HW216455   3.700   3.801   3.765 -0.0962  0.0646  2.8990
 1665SOL     OW16456   0.560   3.848  11.566 -0.6027  0.0300  0.4783
 1665SOL    HW116457   0.574   3.825  11.658 -0.7800 -0.8234  0.2903
 1665SOL    HW216458   0.464   3.843  11.573 -0.6692  2.2259  1.2655
 1666SOL     OW16459   2.410   3.061   9.933 -0.3800 -0.0185 -0.5275
 1666SOL    HW116460   2.339   3.021   9.983  0.8280 -0.2726  0.9949
 1666SOL    HW216461   2.364   3.142   9.910  0.8030  1.4256  2.2174
 1667SOL     OW16462   2.943   4.222   3.008  0.1565 -0.2242 -0.0117
 1667SOL    HW116463   2.955   4.130   3.033  0.2790 -0.7743 -2.0723
 1667SOL    HW216464   3.026   4.264   2.985  0.7206 -2.2155 -1.6269
 1668SOL     OW16465   0.419   2.806  10.259 -0.2071  0.8393 -0.3175
 1668SOL    HW116466   0.414   2.726  10.311  1.7229  1.8914  1.4932
 1668SOL    HW216467   0.449   2.868  10.325 -0.7064 -0.7190  1.3463
 1669SOL     OW16468   3.874   0.695  10.309  0.5110  0.0202 -0.6075
 1669SOL    HW116469   3.858   0.650  10.226 -0.3303 -0.4016 -0.2114
 1669SOL    HW216470   3.939   0.761  10.286 -0.2204  1.3395  1.1206
 1670SOL     OW16471   3.252   4.061  13.699  0.0675  0.0097  0.9848
 1670SOL    HW116472   3.239   4.123  13.627  1.3474  1.7732  2.2469
 1670SOL    HW216473   3.201   4.107  13.767 -0.8184 -1.7186  1.4798
 1671SOL     OW16474   3.644   2.312   7.040  0.1813  0.4197 -0.1057
 1671SOL    HW116475   3.571   2.258   7.010 -1.9842  4.1571 -1.6091
 1671SOL    HW216476   3.667   2.335   6.950 -0.0588 -1.3395 -0.6264
 1672SOL     OW16477   1.635   2.634   7.432 -0.1169  0.0416  0.3325
 1672SOL    HW116478   1.686   2.571   7.483  0.6966  0.1351 -0.3752
 1672SOL    HW216479   1.645   2.594   7.345  0.7454  0.9685  0.0051
 1673SOL     OW16480   0.016   4.132  15.727 -0.0120 -0.3134  0.1341
 1673SOL    HW116481   4.689   4.107  15.805  0.1440 -0.9862  0.0144
 1673SOL    HW216482   0.086   4.182  15.770  0.0778  0.4404 -0.8866
 1674SOL     OW16483   1.942   1.509   4.597 -0.3256  0.5663  0.2141
 1674SOL    HW116484   1.977   1.421   4.608 -0.9923  0.6350  2.7817
 1674SOL    HW216485   1.921   1.496   4.504  0.6274 -0.3806  0.1344
 1675SOL     OW16486   2.686   0.410   1.692  0.1905  0.0112  0.2485
 1675SOL    HW116487   2.711   0.318   1.703  0.5963  0.4376  2.8530
 1675SOL    HW216488   2.638   0.425   1.773  0.8000 -0.3097  0.6676
 1676SOL     OW16489   2.882   4.250   1.866 -0.5444 -0.3152  0.0991
 1676SOL    HW116490   2.913   4.315   1.803 -1.1768  0.2175  0.3351
 1676SOL    HW216491   2.832   4.183   1.818 -2.1217  0.7196  0.3092
 1677SOL     OW16492   2.492   1.741   1.271  0.1484  0.8217  0.0837
 1677SOL    HW116493   2.493   1.728   1.366 -0.9439 -0.3378 -0.0808
 1677SOL    HW216494   2.560   1.808   1.262  1.3513 -0.7381 -2.3234
 1678SOL     OW16495   3.633   2.107  12.387 -0.2954  0.2965  0.4788
 1678SOL    HW116496   3.559   2.060  12.349  0.3706 -1.2390  1.0628
 1678SOL    HW216497   3.640   2.170  12.316  0.4681 -2.6377 -2.0246
 1679SOL     OW16498   4.568   4.706   1.085 -0.5427 -0.5725  0.1113
 1679SOL    HW116499   4.542   0.048   1.018 -0.3573 -0.4179  0.1868
 1679SOL    HW216500   4.538   4.624   1.046  2.4926 -0.9671 -1.3507
 1680SOL     OW16501   1.232   3.407   5.979 -0.3579 -0.0938 -0.1985
 1680SOL    HW116502   1.325   3.383   5.977 -0.3303  0.1375 -1.5976
 1680SOL    HW216503   1.197   3.360   5.903 -1.7831  0.7621 -0.0550
 1681SOL     OW16504   3.706   1.138  16.153  0.3960 -0.1732 -0.1162
 1681SOL    HW116505   3.788   1.100  16.122 -1.0073 -3.5773  0.2976
 1681SOL    HW216506   3.680   1.180  16.071 -1.6025 -0.9757  0.1029
 1682SOL     OW16507   0.825   1.650   3.027  0.4324 -0.6204 -0.0982
 1682SOL    HW116508   0.808   1.743   3.043 -0.4103 -0.8749  0.4946
 1682SOL    HW216509   0.861   1.661   2.939 -0.9804 -3.9761 -1.0949
 1683SOL     OW16510   4.644   0.743   8.474  0.3298 -0.6981 -0.8321
 1683SOL    HW116511   4.666   0.792   8.554  1.0248 -0.2914 -1.2774
 1683SOL    HW216512   4.721   0.690   8.456  0.5895 -0.4801 -0.3596
 1684SOL     OW16513   1.423   1.100   6.497  0.1710 -0.1838 -0.0625
 1684SOL    HW116514   1.436   1.010   6.466  0.5726 -0.3757  0.6731
 1684SOL    HW216515   1.370   1.086   6.575 -0.9729 -0.7842 -0.9353
 1685SOL     OW16516   4.636   4.070   4.353 -0.1117 -0.3921  0.7932
 1685SOL    HW116517   4.664   4.101   4.439 -0.5880  2.6141 -0.1389
 1685SOL    HW216518   4.699   3.998   4.348 -1.4062 -1.3258 -1.9821
 1686SOL     OW16519   1.008   3.212   0.383  0.0495 -0.1289 -0.6562
 1686SOL    HW116520   0.932   3.244   0.431  2.1019 -0.0855  2.5459
 1686SOL    HW216521   1.063   3.289   0.375 -0.7063  0.5386  0.6123
 1687SOL     OW16522   0.715   4.417   5.684  0.6018  0.2999 -0.0837
 1687SOL    HW116523   0.744   4.501   5.720 -3.6648  2.2002 -1.0692
 1687SOL    HW216524   0.688   4.440   5.595  1.8097 -0.4731 -0.6548
 1688SOL     OW16525   2.178   0.534   2.763  0.2302  0.0885  0.4591
 1688SOL    HW116526   2.198   0.537   2.669  0.7257 -1.4593  0.5160
 1688SOL    HW216527   2.130   0.617   2.769 -2.2997 -1.0964 -3.4995
 1689SOL     OW16528   0.994   3.976   7.767 -0.3222 -0.6065  0.1626
 1689SOL    HW116529   0.989   4.021   7.683 -1.1751  2.2454  1.7644
 1689SOL    HW216530   0.999   4.055   7.820  1.9210 -1.0723  0.6399
 1690SOL     OW16531   0.279   0.020   8.231 -0.2029  0.2269  0.2780
 1690SOL    HW116532   0.297   0.089   8.167  1.1584  0.9348  1.4287
 1690SOL    HW216533   0.194   4.717   8.194 -0.4090 -0.1382  1.0034
 1691SOL     OW16534   3.738   1.412  12.376  0.2488  0.0401  0.0460
 1691SOL    HW116535   3.651   1.419  12.337 -0.2545 -0.7082  1.0263
 1691SOL    HW216536   3.797   1.412  12.300  0.7997 -1.0858  0.4748
 1692SOL     OW16537   4.608   2.945   6.961  0.3093  0.1678 -0.4094
 1692SOL    HW116538   4.676   2.880   6.943  0.5875  0.9635 -2.2521
 1692SOL    HW216539   4.668   3.016   6.985  0.6069 -0.4852  0.8211
 1693SOL     OW16540   2.653   0.143   4.874 -0.2773 -0.1552 -0.3351
 1693SOL    HW116541   2.636   0.206   4.804 -1.8338  0.9983  1.0810
 1693SOL    HW216542   2.581   0.152   4.936  1.6576  0.8705  1.7743
 1694SOL     OW16543   4.457   4.369  14.681 -0.2750 -0.0767  0.0196
 1694SOL    HW116544   4.411   4.361  14.765 -1.0045  0.6585 -0.3127
 1694SOL    HW216545   4.542   4.335  14.709  0.3461  0.2011 -1.5563
 1695SOL     OW16546   3.206   1.461  16.225  0.8526 -0.2684  0.2078
 1695SOL    HW116547   3.264   1.401  16.177 -1.0269 -0.2993 -2.0119
 1695SOL    HW216548   3.274   1.520  16.256  1.5811 -0.9393 -0.1108
 1696SOL     OW16549   1.720   1.070   6.727 -0.1613 -0.0166 -0.3582
 1696SOL    HW116550   1.812   1.046   6.743 -0.3916  0.9308  2.3735
 1696SOL    HW216551   1.737   1.155   6.686 -0.3240  0.1763 -0.0266
 1697SOL     OW16552   2.184   1.457  17.664 -0.2756  0.7123  0.0947
 1697SOL    HW116553   2.110   1.480   0.032  0.7520  1.5875  1.0847
 1697SOL    HW216554   2.257   1.471   0.036 -0.6296  2.0313  0.2143
 1698SOL     OW16555   1.423   4.526   4.884  0.2003 -0.3048 -0.4633
 1698SOL    HW116556   1.465   4.548   4.967  1.8683  1.0815 -1.6574
 1698SOL    HW216557   1.484   4.557   4.816  1.2128 -0.6303  0.2912
 1699SOL     OW16558   2.394   2.353   7.647  0.2560  0.4091 -0.2520
 1699SOL    HW116559   2.402   2.448   7.650  2.5869  0.2160 -0.0668
 1699SOL    HW216560   2.484   2.326   7.663  0.2346  1.7223  2.0587
 1700SOL     OW16561   0.273   0.022   2.887  0.1188  0.5563 -0.3218
 1700SOL    HW116562   0.204   0.027   2.820  0.4670 -0.9292 -0.7869
 1700SOL    HW216563   0.229   4.686   2.950 -2.2374  0.8392 -1.6833
 1701SOL     OW16564   0.211   2.043   6.019 -0.1244 -0.5755  0.2323
 1701SOL    HW116565   0.183   2.097   5.945  0.6352 -0.7864 -0.2089
 1701SOL    HW216566   0.189   2.114   6.079  1.0813  0.3367 -0.4225
 1702SOL     OW16567   4.588   3.485   5.719 -0.7179  0.1936  0.0054
 1702SOL    HW116568   4.662   3.522   5.670 -0.2786 -0.8215 -0.1178
 1702SOL    HW216569   4.606   3.539   5.795 -2.4640  0.3283  0.3059
 1703SOL     OW16570   2.106   2.612   3.612  0.7924 -0.1334  0.0015
 1703SOL    HW116571   2.133   2.659   3.690  1.0035 -1.7986  0.9279
 1703SOL    HW216572   2.011   2.600   3.623  0.7129 -1.5072 -2.1127
 1704SOL     OW16573   0.038   4.325   1.778  0.1842  0.2919 -0.7137
 1704SOL    HW116574   0.007   4.370   1.699  0.0670  3.9175  1.3974
 1704SOL    HW216575   0.111   4.387   1.791 -2.5039  3.5787 -1.2933
 1705SOL     OW16576   3.780   0.933   6.449  0.1036  0.2735  0.2773
 1705SOL    HW116577   3.816   0.871   6.514 -1.8726  0.1868  1.2738
 1705SOL    HW216578   3.780   0.884   6.367 -3.2315 -2.8782  2.1446
 1706SOL     OW16579   3.203   1.461  13.437  0.0408 -0.3063  0.6525
 1706SOL    HW116580   3.280   1.515  13.458 -0.2700 -0.3760  1.9391
 1706SOL    HW216581   3.239   1.389  13.386  0.9341 -0.1553  1.0654
 1707SOL     OW16582   0.009   0.917  16.777 -0.6541  0.2243  0.6127
 1707SOL    HW116583   4.690   0.871  16.851  0.7590 -0.5633  0.8920
 1707SOL    HW216584   4.658   0.920  16.715 -0.4228 -1.7407  0.2544
 1708SOL     OW16585   0.290   0.902  16.367  0.0591  0.1147  0.1696
 1708SOL    HW116586   0.360   0.931  16.426  2.6090 -1.1297 -2.2538
 1708SOL    HW216587   0.243   0.846  16.429  1.0108 -0.0573  0.7319
 1709SOL     OW16588   1.038   4.349   7.344  0.1759 -0.2328  0.5758
 1709SOL    HW116589   0.986   4.418   7.385 -1.5998 -0.0051 -2.0774
 1709SOL    HW216590   1.117   4.400   7.323 -0.4780  1.2772  1.7414
 1710SOL     OW16591   4.008   3.174  10.062 -0.0726 -0.2794 -0.0742
 1710SOL    HW116592   4.068   3.189   9.988  1.0325  0.4386  0.9716
 1710SOL    HW216593   4.008   3.079  10.054 -0.7556 -0.2901  0.0972
 1711SOL     OW16594   0.111   1.568   6.504  0.0767 -0.3348  0.0268
 1711SOL    HW116595   0.029   1.594   6.462  0.9107 -0.0341 -1.4304
 1711SOL    HW216596   0.125   1.646   6.558 -0.3984  0.4830 -1.0278
 1712SOL     OW16597   1.324   3.033  15.575 -0.1068  0.0715 -0.2815
 1712SOL    HW116598   1.233   3.053  15.597 -0.6729  0.2383 -2.7332
 1712SOL    HW216599   1.357   3.122  15.559 -2.3904  0.7099 -1.5133
 1713SOL     OW16600   3.366   0.309   1.306 -0.6194  0.0669  0.3067
 1713SOL    HW116601   3.397   0.399   1.315  1.0680 -0.4140 -0.6615
 1713SOL    HW216602   3.444   0.269   1.346 -2.6147 -3.2565  0.8791
 1714SOL     OW16603   3.365   2.691   1.595 -0.3375 -0.2831  0.2507
 1714SOL    HW116604   3.335   2.735   1.516  1.3793 -0.4282 -0.4918
 1714SOL    HW216605   3.314   2.741   1.659 -2.7580  0.7678 -2.5190
 1715SOL     OW16606   4.263   1.119   2.110  0.2331 -0.0798 -0.0925
 1715SOL    HW116607   4.337   1.063   2.083 -0.8658 -1.7299  0.3458
 1715SOL    HW216608   4.248   1.156   2.022  2.0709  0.6987 -0.0825
 1716SOL     OW16609   4.094   0.035   3.336  0.2255 -0.5027  0.2568
 1716SOL    HW116610   4.072   4.668   3.364  0.7018  0.1268  2.6394
 1716SOL    HW216611   4.097   0.076   3.423  1.6297 -0.4090  0.1592
 1717SOL     OW16612   1.915   2.655   4.680 -0.1099  0.1500  0.5698
 1717SOL    HW116613   1.899   2.740   4.638 -2.0905 -1.5567 -2.0700
 1717SOL    HW216614   1.937   2.593   4.611  0.1210 -0.5951  1.3099
 1718SOL     OW16615   1.421   2.239  16.391 -0.2183  0.0357  0.0318
 1718SOL    HW116616   1.444   2.214  16.302  0.4240  1.7270 -0.2766
 1718SOL    HW216617   1.351   2.304  16.390 -1.7465 -1.6204 -0.9968
 1719SOL     OW16618   0.438   4.716   4.608 -0.2083  0.1448 -0.3258
 1719SOL    HW116619   0.443   4.621   4.618 -1.0748  0.0583 -0.7370
 1719SOL    HW216620   0.465   0.023   4.695 -1.2880 -1.2750  0.4654
 1720SOL     OW16621   1.024   1.970   6.422  0.2236  0.6384 -0.6033
 1720SOL    HW116622   1.042   2.030   6.349  0.4524  0.7709 -0.4386
 1720SOL    HW216623   1.017   1.887   6.374 -0.6361 -0.7642  1.9850
 1721SOL     OW16624   3.547   1.830   3.291  0.6059 -0.4965 -0.3383
 1721SOL    HW116625   3.518   1.833   3.382 -0.8895  0.0461 -0.8302
 1721SOL    HW216626   3.475   1.869   3.240  0.8304 -1.7520 -1.6211
 1722SOL     OW16627   3.121   2.238   9.534 -0.3210  0.3037  0.4480
 1722SOL    HW116628   3.127   2.152   9.575  2.2624  0.0795 -0.3388
 1722SOL    HW216629   3.090   2.293   9.606  0.0394 -1.4737  1.9491
 1723SOL     OW16630   4.590   4.528   5.684  0.2784  0.1636 -0.3941
 1723SOL    HW116631   4.612   4.620   5.701 -1.3907  0.6862 -1.0901
 1723SOL    HW216632   4.672   4.489   5.653  0.0448 -1.2946  0.8246
 1724SOL     OW16633   3.372   2.269  15.713  0.9133  0.3323  0.1701
 1724SOL    HW116634   3.422   2.328  15.770 -2.3674  0.8241  2.5445
 1724SOL    HW216635   3.287   2.280  15.754  1.1484 -1.7145  1.2059
 1725SOL     OW16636   1.448   3.461  17.298 -0.2857  0.7094 -0.3896
 1725SOL    HW116637   1.379   3.439  17.234 -0.1996  1.4507 -0.7340
 1725SOL    HW216638   1.493   3.377  17.309  0.8838  0.9994 -2.8715
 1726SOL     OW16639   1.370   0.176   5.742 -0.2856 -0.4929 -0.4225
 1726SOL    HW116640   1.430   0.139   5.677  0.4670  1.6372 -0.9286
 1726SOL    HW216641   1.421   0.248   5.779 -1.3050  0.3014 -0.5840
 1727SOL     OW16642   3.393   3.572  14.688 -0.1791 -0.0527 -0.1182
 1727SOL    HW116643   3.337   3.495  14.675  0.1186 -0.7205  2.5928
 1727SOL    HW216644   3.399   3.573  14.784 -0.7651 -0.4103 -0.0773
 1728SOL     OW16645   0.481   2.070   0.354 -0.3370  0.3087  0.2626
 1728SOL    HW116646   0.518   1.983   0.337 -1.5967  0.0164 -0.8724
 1728SOL    HW216647   0.557   2.114   0.393  2.7656 -3.3781 -1.5921
 1729SOL     OW16648   1.353   3.483   8.391 -0.3870  0.2048 -0.1114
 1729SOL    HW116649   1.394   3.520   8.314 -0.8591  1.3420  0.1844
 1729SOL    HW216650   1.274   3.535   8.404 -0.5776 -0.1228  0.0527
 1730SOL     OW16651   2.896   0.957  14.422 -0.1212  0.1343 -0.0629
 1730SOL    HW116652   2.817   1.005  14.446 -0.4160 -0.8032  0.7796
 1730SOL    HW216653   2.896   0.984  14.329  1.8389 -0.0858 -0.1164
 1731SOL     OW16654   1.134   0.241  12.110  0.5419  0.2593  0.4189
 1731SOL    HW116655   1.054   0.204  12.072  1.7633 -0.3999 -1.5616
 1731SOL    HW216656   1.207   0.204  12.059 -0.0839  0.8269 -0.9059
 1732SOL     OW16657   0.432   2.263  10.897  0.2515 -0.5898  0.0332
 1732SOL    HW116658   0.484   2.211  10.958  0.2713 -1.7593 -0.9878
 1732SOL    HW216659   0.379   2.192  10.863 -1.3524  0.4917  0.2734
 1733SOL     OW16660   2.211   0.492   3.680 -0.3142 -0.2212 -0.2006
 1733SOL    HW116661   2.135   0.545   3.703 -0.9757 -2.1947  2.1535
 1733SOL    HW216662   2.201   0.491   3.584 -1.7952 -1.8693 -0.0082
 1734SOL     OW16663   0.986   2.729   0.487 -0.4403 -0.2545  0.1819
 1734SOL    HW116664   0.907   2.780   0.468 -0.1810  0.7088  1.6994
 1734SOL    HW216665   1.046   2.772   0.426 -1.7637  1.9370  0.4158
 1735SOL     OW16666   1.320   1.954  16.058  0.3303  0.3465  0.0072
 1735SOL    HW116667   1.282   1.872  16.025 -1.0522  0.5778  1.0264
 1735SOL    HW216668   1.243   1.975  16.111 -0.3166  0.8212 -1.1220
 1736SOL     OW16669   4.436   2.022   1.151 -0.6762  0.5730 -0.2809
 1736SOL    HW116670   4.422   2.090   1.085 -1.0332  1.4216  0.6750
 1736SOL    HW216671   4.393   1.948   1.108  0.4749  0.9655 -2.1136
 1737SOL     OW16672   2.693   3.159   2.683  0.0990 -0.6658  0.4605
 1737SOL    HW116673   2.767   3.199   2.638 -0.0064 -1.3155 -0.2801
 1737SOL    HW216674   2.731   3.087   2.732  1.0099 -0.2361  0.3876
 1738SOL     OW16675   0.009   0.266  13.495 -0.0439  0.4789 -0.7025
 1738SOL    HW116676   0.010   0.359  13.519 -0.5001  0.1716  0.4935
 1738SOL    HW216677   0.027   0.265  13.401  1.0434  0.2878 -0.4826
 1739SOL     OW16678   3.855   0.744   7.805 -0.4383  0.4055  0.2883
 1739SOL    HW116679   3.913   0.766   7.732  0.0056 -4.3425 -0.8093
 1739SOL    HW216680   3.881   0.653   7.821 -3.3196 -0.4461  0.0096
 1740SOL     OW16681   2.426   0.403   0.767 -0.7456 -0.4806 -0.0304
 1740SOL    HW116682   2.411   0.385   0.860  1.1475 -0.0030  0.3834
 1740SOL    HW216683   2.461   0.491   0.783  0.9932 -1.1588 -0.0097
 1741SOL     OW16684   3.267   1.169   2.168 -0.2705  0.7485  0.2159
 1741SOL    HW116685   3.190   1.187   2.113 -0.5699 -0.0395  0.3876
 1741SOL    HW216686   3.333   1.207   2.110 -0.3765  1.0022  0.2621
 1742SOL     OW16687   1.367   4.647   2.272 -0.0595 -0.0400  0.1344
 1742SOL    HW116688   1.409   4.565   2.246  1.8231  0.1142  2.7879
 1742SOL    HW216689   1.442   4.699   2.300  1.1955 -1.2281 -0.9876
 1743SOL     OW16690   1.441   0.464   7.744  0.1847  0.2317 -0.0183
 1743SOL    HW116691   1.431   0.391   7.683  1.5632  0.5041 -0.5709
 1743SOL    HW216692   1.491   0.532   7.699  0.9484 -0.7501 -0.6338
 1744SOL     OW16693   0.726   4.134  10.427 -0.3688  0.2939  0.3025
 1744SOL    HW116694   0.804   4.168  10.470 -1.0191 -2.9961  4.1639
 1744SOL    HW216695   0.671   4.210  10.408  1.7815  0.9329 -3.2684
 1745SOL     OW16696   0.637   0.181  16.285 -0.5262 -0.4904 -0.2087
 1745SOL    HW116697   0.716   0.146  16.245  0.1048  0.3157  0.3133
 1745SOL    HW216698   0.583   0.189  16.207 -3.8760 -5.5236  1.6078
 1746SOL     OW16699   4.621   2.754  12.921  0.8500 -0.0400 -0.0246
 1746SOL    HW116700   4.647   2.730  13.010  2.9385  1.6836 -0.1634
 1746SOL    HW216701   4.595   2.845  12.931 -0.4908 -0.7242  2.5441
 1747SOL     OW16702   0.092   1.015  16.217  0.3532  0.1394  0.6161
 1747SOL    HW116703   0.099   0.953  16.145  5.8112  1.3450  0.1235
 1747SOL    HW216704   0.170   0.992  16.267 -0.3866 -1.0034  1.2536
 1748SOL     OW16705   0.674   4.622  17.361 -0.2623  0.0678  0.3066
 1748SOL    HW116706   0.600   4.589  17.311  0.4828 -2.5110  0.8716
 1748SOL    HW216707   0.655   4.587  17.449  1.0629 -1.0534  0.1504
 1749SOL     OW16708   0.532   0.588   8.405 -0.0188  0.0880  0.2441
 1749SOL    HW116709   0.482   0.548   8.477  2.1959 -2.0735  0.5649
 1749SOL    HW216710   0.488   0.556   8.326  1.8738  0.9417 -1.1624
 1750SOL     OW16711   1.248   2.723  11.135 -0.0577  0.3147  0.4615
 1750SOL    HW116712   1.312   2.660  11.105 -1.1281 -0.9508  0.8395
 1750SOL    HW216713   1.171   2.669  11.150 -0.4238  0.3210 -1.3626
 1751SOL     OW16714   2.131   0.604   5.884  0.5762  0.2230  0.2143
 1751SOL    HW116715   2.039   0.583   5.900  0.3556  0.7993 -0.2897
 1751SOL    HW216716   2.144   0.687   5.931 -1.2221  2.4376 -3.1815
 1752SOL     OW16717   0.790   3.562   6.259 -0.6093  0.6086  0.2474
 1752SOL    HW116718   0.872   3.515   6.275 -1.3652 -0.8818 -0.2608
 1752SOL    HW216719   0.730   3.500   6.217 -0.0488 -0.4217  0.9506
 1753SOL     OW16720   2.965   0.106   5.884 -0.5221  0.0143  0.6525
 1753SOL    HW116721   2.992   0.017   5.906  0.7669  0.1429 -0.3738
 1753SOL    HW216722   2.943   0.096   5.791 -1.0835  2.1522  0.5394
 1754SOL     OW16723   2.139   0.499  14.867  0.0649 -0.1011 -0.1217
 1754SOL    HW116724   2.082   0.461  14.934  1.4688 -2.6219 -0.3402
 1754SOL    HW216725   2.164   0.420  14.819 -1.9310  0.0777 -1.4729
 1755SOL     OW16726   0.968   2.017   5.617 -0.0479  0.3711 -0.1197
 1755SOL    HW116727   1.042   2.052   5.666 -0.5924 -0.3849  1.2464
 1755SOL    HW216728   0.903   2.043   5.683  0.8629 -1.3504  1.4429
 1756SOL     OW16729   2.352   3.505   6.873  0.0045  0.1671 -0.9881
 1756SOL    HW116730   2.352   3.416   6.908 -1.2379 -0.1840 -1.8904
 1756SOL    HW216731   2.420   3.544   6.928 -0.7181  0.1320 -0.0783
 1757SOL     OW16732   2.949   0.768  11.400  0.0579  0.6724 -0.6106
 1757SOL    HW116733   2.901   0.804  11.475 -1.9120  0.9811 -2.0437
 1757SOL    HW216734   3.002   0.702  11.444  0.3231  0.4625 -1.2452
 1758SOL     OW16735   0.853   2.600   4.126  0.8355 -0.1631 -0.7695
 1758SOL    HW116736   0.773   2.614   4.074  0.4122  0.3915  0.0262
 1758SOL    HW216737   0.895   2.521   4.095  1.7091 -0.3582  0.9231
 1759SOL     OW16738   3.139   2.309   9.816  0.7258  0.5733  0.1902
 1759SOL    HW116739   3.233   2.293   9.818 -0.4415 -6.4932 -0.8466
 1759SOL    HW216740   3.142   2.397   9.852  2.0279  1.3839 -1.8998
 1760SOL     OW16741   3.252   1.387  15.758 -0.0921  0.2137  0.0219
 1760SOL    HW116742   3.196   1.422  15.689 -1.7868  0.5217  1.5422
 1760SOL    HW216743   3.311   1.331  15.707 -0.8503 -1.4886  1.0409
 1761SOL     OW16744   2.196   1.310   7.866  0.1676  0.0797  0.2360
 1761SOL    HW116745   2.257   1.236   7.873 -0.8268 -0.7558  0.1537
 1761SOL    HW216746   2.225   1.359   7.788 -1.5858  0.3502 -0.2515
 1762SOL     OW16747   1.821   4.657   3.774 -0.5474  0.3407  0.0180
 1762SOL    HW116748   1.771   4.576   3.767  0.7353 -0.2539 -2.3567
 1762SOL    HW216749   1.906   4.631   3.739  0.6838  2.2594  1.5442
 1763SOL     OW16750   1.232   1.806   4.344 -0.8837 -0.8391 -0.2904
 1763SOL    HW116751   1.225   1.774   4.434 -1.8273  0.2526  0.0250
 1763SOL    HW216752   1.327   1.811   4.343 -0.9759  0.6219 -1.3132
 1764SOL     OW16753   3.702   4.223   1.917  0.3039 -0.2445  0.2464
 1764SOL    HW116754   3.781   4.271   1.942 -0.8253  0.6657  2.0775
 1764SOL    HW216755   3.648   4.225   1.996 -0.4117 -2.0758 -0.1921
 1765SOL     OW16756   0.145   2.235   6.181 -0.7938  0.1132  0.0586
 1765SOL    HW116757   0.104   2.215   6.265  1.2600  0.3130  1.1171
 1765SOL    HW216758   0.115   2.325   6.168 -0.7733 -0.0339 -1.0041
 1766SOL     OW16759   2.332   4.648  10.932 -0.3422  0.1728  0.6349
 1766SOL    HW116760   2.387   4.574  10.957 -0.7238 -0.5483 -0.6465
 1766SOL    HW216761   2.388   4.709  10.884  0.4784 -1.1741 -0.1162
 1767SOL     OW16762   2.154   0.100   4.186 -0.6475 -0.2054  0.3281
 1767SOL    HW116763   2.139   0.176   4.130 -0.1619  0.8556  1.6505
 1767SOL    HW216764   2.243   0.068   4.167 -0.8580 -0.0018 -1.0215
 1768SOL     OW16765   4.172   0.316  14.616 -0.1245  0.1240  0.2060
 1768SOL    HW116766   4.252   0.337  14.568 -1.1099 -2.3283 -2.4771
 1768SOL    HW216767   4.206   0.293  14.703  0.5131 -0.1184 -0.1136
 1769SOL     OW16768   0.595   3.141  10.237 -0.0014 -0.2784  0.7191
 1769SOL    HW116769   0.566   3.121  10.148  1.7289  0.2602  0.0556
 1769SOL    HW216770   0.557   3.229  10.243 -2.0047 -0.9859 -1.3543
 1770SOL     OW16771   1.736   3.791   8.874  0.9065 -1.3837  0.2069
 1770SOL    HW116772   1.682   3.719   8.842  1.4542 -1.2945 -0.9462
 1770SOL    HW216773   1.672   3.852   8.910 -1.1089 -3.2914 -0.1445
 1771SOL     OW16774   0.069   3.873   9.067 -0.0066  0.4861 -0.0519
 1771SOL    HW116775   0.001   3.936   9.042 -1.5032 -1.0506  0.0874
 1771SOL    HW216776   0.137   3.933   9.094  0.1811  1.1405 -2.0267
 1772SOL     OW16777   2.700   4.092   8.447  0.3237  0.1726 -0.1511
 1772SOL    HW116778   2.791   4.118   8.460  1.3142 -3.0381 -0.4792
 1772SOL    HW216779   2.689   4.014   8.501 -1.6244  0.9673  0.5970
 1773SOL     OW16780   3.926   3.440  12.481 -0.3434  0.1663  0.4007
 1773SOL    HW116781   3.838   3.410  12.507  0.0076 -1.3066 -0.0886
 1773SOL    HW216782   3.910   3.483  12.397  0.3017 -0.5162 -0.0668
 1774SOL     OW16783   0.581   0.094   9.279 -0.8465  0.6680 -0.4368
 1774SOL    HW116784   0.664   0.133   9.253  1.3466 -2.2900  2.1095
 1774SOL    HW216785   0.609   0.094   9.371  0.7218  1.0324 -0.9256
 1775SOL     OW16786   1.673   3.818   8.360 -0.2804 -0.5134 -0.4930
 1775SOL    HW116787   1.735   3.825   8.287  0.0854 -0.0621 -0.1351
 1775SOL    HW216788   1.663   3.911   8.379 -1.1986 -1.0842  1.7306
 1776SOL     OW16789   4.692   1.406   0.558 -0.1710 -0.0995 -0.2430
 1776SOL    HW116790   4.600   1.432   0.562 -0.0095  0.4356  0.0242
 1776SOL    HW216791   4.711   1.378   0.648  1.8474  1.6861 -0.1049
 1777SOL     OW16792   1.460   3.313   0.233 -0.0015  0.4861  0.6330
 1777SOL    HW116793   1.531   3.256   0.262  0.4126  0.9220  0.4623
 1777SOL    HW216794   1.425   3.265   0.158  1.0183  1.5599 -0.5304
 1778SOL     OW16795   1.805   3.572   8.080 -0.9957 -0.0134  0.4014
 1778SOL    HW116796   1.775   3.539   7.995 -0.6033 -2.0207  1.0289
 1778SOL    HW216797   1.892   3.594   8.048 -1.0486 -1.1593 -0.5231
 1779SOL     OW16798   0.806   1.954   2.389  0.4299 -0.4383  0.3693
 1779SOL    HW116799   0.745   1.889   2.425  0.5617 -0.7936 -0.0569
 1779SOL    HW216800   0.796   1.930   2.297 -1.7208  2.3395 -0.1154
 1780SOL     OW16801   2.124   0.817   9.073 -0.1187  0.4924 -0.0326
 1780SOL    HW116802   2.076   0.868   9.139 -2.7533 -1.7832 -0.2093
 1780SOL    HW216803   2.153   0.741   9.123  3.4971  0.6106 -1.9824
 1781SOL     OW16804   3.597   4.366   8.929 -0.5740 -0.2885 -0.1082
 1781SOL    HW116805   3.531   4.403   8.988  2.0700 -1.8444  3.8146
 1781SOL    HW216806   3.585   4.422   8.852 -0.8837  2.5386  2.0152
 1782SOL     OW16807   4.145   1.398   6.404  0.8431 -0.5703 -0.3161
 1782SOL    HW116808   4.125   1.350   6.323 -0.6503  0.3081 -0.4785
 1782SOL    HW216809   4.232   1.418   6.370  1.5473 -2.9135  0.1001
 1783SOL     OW16810   1.091   0.236   1.637 -0.6733  0.0177  0.6923
 1783SOL    HW116811   1.118   0.311   1.585 -0.0247 -0.9441 -0.3754
 1783SOL    HW216812   1.123   0.272   1.720  1.9167  0.8971 -0.6958
 1784SOL     OW16813   1.029   3.377   3.234  0.0790  0.6611 -0.0627
 1784SOL    HW116814   1.082   3.326   3.295  2.5787  3.3082 -0.0328
 1784SOL    HW216815   1.017   3.454   3.291 -2.5401 -0.8308  1.4316
 1785SOL     OW16816   1.666   2.545  13.936 -1.2650  0.6533  0.1044
 1785SOL    HW116817   1.727   2.490  13.888 -0.4573  1.0710  0.6579
 1785SOL    HW216818   1.584   2.532  13.887  0.1492 -0.3525 -2.0059
 1786SOL     OW16819   4.323   1.882   9.430  0.4129 -0.9551  0.2255
 1786SOL    HW116820   4.290   1.816   9.492  2.4790 -1.6728  0.5896
 1786SOL    HW216821   4.358   1.940   9.498  0.3335  0.1397 -0.6758
 1787SOL     OW16822   1.616   2.859  17.154 -0.1173  0.2714  0.3256
 1787SOL    HW116823   1.562   2.928  17.116  0.3780 -0.1388 -1.1271
 1787SOL    HW216824   1.555   2.825  17.219  0.4736 -0.1440  0.6593
 1788SOL     OW16825   3.918   1.455   1.290 -0.2591  0.1936  0.3332
 1788SOL    HW116826   3.926   1.526   1.354 -1.4490  2.4656 -2.0465
 1788SOL    HW216827   3.836   1.473   1.244  0.1688 -0.1046 -0.5468
 1789SOL     OW16828   1.589   2.348   4.329 -0.1373 -0.0677 -0.0979
 1789SOL    HW116829   1.659   2.282   4.329  0.6854  0.8067  1.8061
 1789SOL    HW216830   1.506   2.302   4.340  0.6450 -1.3807  0.2685
 1790SOL     OW16831   1.561   2.512   5.414 -0.2144  0.0631  0.2632
 1790SOL    HW116832   1.528   2.474   5.333  1.0159 -1.0500  0.2726
 1790SOL    HW216833   1.638   2.555   5.378 -1.2855  1.9440  0.2416
 1791SOL     OW16834   1.979   2.139   2.547 -0.3181 -0.0255 -0.1290
 1791SOL    HW116835   1.999   2.084   2.472  0.3491 -0.2011  0.1742
 1791SOL    HW216836   1.906   2.192   2.515  0.5081  0.5857 -0.9992
 1792SOL     OW16837   1.930   0.146  12.199 -0.1563  0.0693  0.4203
 1792SOL    HW116838   1.940   0.176  12.290  0.5304  1.3313 -0.0763
 1792SOL    HW216839   1.850   0.093  12.193 -1.0444  1.3890  0.6208
 1793SOL     OW16840   3.587   0.666   4.376 -0.5405 -0.3487  0.6460
 1793SOL    HW116841   3.664   0.628   4.335 -0.2230 -0.6310  1.4943
 1793SOL    HW216842   3.614   0.679   4.467  1.4322 -0.6227  0.1008
 1794SOL     OW16843   0.300   2.642   9.754 -0.6846 -0.1501 -0.0448
 1794SOL    HW116844   0.212   2.642   9.791 -1.2593 -0.6301 -1.4208
 1794SOL    HW216845   0.330   2.562   9.797  1.2766  0.4911 -0.2210
 1795SOL     OW16846   4.579   3.350   4.245  0.0749  0.1512  0.1881
 1795SOL    HW116847   4.524   3.353   4.166 -0.9341  0.9567  0.9361
 1795SOL    HW216848   4.659   3.303   4.219 -0.7716 -0.8269 -0.6801
 1796SOL     OW16849   0.783   2.672   3.306  0.6278 -0.0938 -0.4121
 1796SOL    HW116850   0.877   2.677   3.291  0.4235 -1.2440 -2.0443
 1796SOL    HW216851   0.793   2.625   3.389 -0.9411  0.8989  0.3319
 1797SOL     OW16852   4.676   1.163   9.600 -0.1445  0.1506 -0.1074
 1797SOL    HW116853   0.034   1.198   9.640  1.1022 -1.7808 -0.8861
 1797SOL    HW216854   4.616   1.231   9.628  0.3549  1.1753 -1.5484
 1798SOL     OW16855   2.158   2.693   6.398 -0.0076  0.0005 -0.1917
 1798SOL    HW116856   2.252   2.706   6.383  0.0487 -0.4713 -0.2579
 1798SOL    HW216857   2.158   2.622   6.462  0.9410  0.1297 -0.0407
 1799SOL     OW16858   4.598   1.044   3.461 -0.3267 -0.0241  0.2302
 1799SOL    HW116859   4.550   1.031   3.379 -0.3615  0.5831  0.1521
 1799SOL    HW216860   4.664   0.975   3.456  0.7029  1.0552 -0.7628
 1800SOL     OW16861   2.355   3.072   8.516  0.1912  0.1816  0.4208
 1800SOL    HW116862   2.329   3.163   8.529 -2.3482 -0.2968 -1.4973
 1800SOL    HW216863   2.403   3.070   8.599 -0.4072 -0.2157  0.7554
 1801SOL     OW16864   3.028   1.758   4.491 -0.2724 -0.0018  0.1516
 1801SOL    HW116865   3.085   1.800   4.426  0.5559 -2.4058 -0.6836
 1801SOL    HW216866   3.033   1.664   4.471 -0.5463 -0.3476  1.7563
 1802SOL     OW16867   0.590   3.000   7.610 -0.2331  0.2964  0.3605
 1802SOL    HW116868   0.643   2.923   7.589 -0.2699  0.2554  0.4192
 1802SOL    HW216869   0.662   3.064   7.607 -1.1618  1.3550  0.4673
 1803SOL     OW16870   1.194   3.096   4.258 -0.7022  0.5677  0.1510
 1803SOL    HW116871   1.119   3.124   4.206  0.3596  1.6633 -0.7874
 1803SOL    HW216872   1.148   3.045   4.324 -0.1558 -0.8936 -0.6019
 1804SOL     OW16873   0.723   2.425   3.119  0.1392 -0.1220  0.1702
 1804SOL    HW116874   0.749   2.515   3.142  0.7061 -0.0457 -0.7929
 1804SOL    HW216875   0.770   2.401   3.039  0.1742  0.5465 -0.0102
 1805SOL     OW16876   2.249   4.600   7.366  0.6539  0.1380 -0.2293
 1805SOL    HW116877   2.159   4.612   7.334  1.3190  1.3584 -1.6216
 1805SOL    HW216878   2.287   4.557   7.289  1.3684 -2.9865  1.8717
 1806SOL     OW16879   4.554   0.636  15.815 -0.1535  0.1995 -0.3751
 1806SOL    HW116880   4.548   0.723  15.775  2.4338  1.2802  1.6151
 1806SOL    HW216881   4.507   0.575  15.758 -0.6827 -0.2642  0.5686
 1807SOL     OW16882   2.633   3.883   3.674 -0.5144  0.3712 -0.2172
 1807SOL    HW116883   2.722   3.919   3.667  0.1913 -1.1854  0.7156
 1807SOL    HW216884   2.657   3.829   3.749  1.5089 -0.1781 -1.2661
 1808SOL     OW16885   1.324   4.582   9.689 -0.2336 -0.4759  0.4786
 1808SOL    HW116886   1.365   4.584   9.603 -1.6149 -2.2211 -0.2256
 1808SOL    HW216887   1.238   4.614   9.662  0.1731  2.3054  2.4672
 1809SOL     OW16888   3.785   2.421   5.463  0.1672  0.1892 -0.6578
 1809SOL    HW116889   3.854   2.446   5.401  1.6377  1.0510  1.3259
 1809SOL    HW216890   3.834   2.409   5.544  1.7963  1.7732 -1.4001
 1810SOL     OW16891   3.180   4.148   1.915  0.0258  0.5187  0.3437
 1810SOL    HW116892   3.139   4.198   1.845  0.4384  0.6526  0.1960
 1810SOL    HW216893   3.231   4.081   1.869  1.3365  2.4596 -1.0425
 1811SOL     OW16894   1.906   4.709  17.255  0.1656 -0.2846  0.5299
 1811SOL    HW116895   1.935   0.077  17.274 -1.7490 -0.0740  2.4328
 1811SOL    HW216896   1.978   4.668  17.208  1.3633  2.7174 -0.2215
 1812SOL     OW16897   4.363   3.617  16.858 -0.7169 -0.2688 -0.0905
 1812SOL    HW116898   4.328   3.586  16.775 -1.3177 -0.6923  0.3268
 1812SOL    HW216899   4.425   3.545  16.867  1.9562  1.9695 -0.3455
 1813SOL     OW16900   1.068   0.216   9.104  0.4586  0.1862  0.1681
 1813SOL    HW116901   1.155   0.254   9.088  0.3165  0.0459 -0.9242
 1813SOL    HW216902   1.031   0.212   9.016 -1.3284  1.7777  0.8515
 1814SOL     OW16903   1.160   0.641   4.546 -0.0234 -0.1576  0.0676
 1814SOL    HW116904   1.098   0.603   4.609 -1.2369  0.9267 -0.4869
 1814SOL    HW216905   1.095   0.642   4.476 -1.5934 -0.4422  1.5223
 1815SOL     OW16906   1.396   4.003  13.248  0.1431 -0.5372 -0.0292
 1815SOL    HW116907   1.364   4.076  13.195  1.6798 -0.2175 -0.5089
 1815SOL    HW216908   1.324   3.940  13.241 -0.1510 -0.0964 -0.9754
 1816SOL     OW16909   1.350   3.258  14.898  0.2319  0.3792  0.0677
 1816SOL    HW116910   1.280   3.216  14.848  0.4364  0.5684 -0.3748
 1816SOL    HW216911   1.399   3.180  14.924 -0.4815  0.1431  0.7045
 1817SOL     OW16912   1.073   3.302   2.594  0.0050  0.7897 -0.0592
 1817SOL    HW116913   1.054   3.313   2.501 -0.9222  0.1613  0.0482
 1817SOL    HW216914   0.990   3.330   2.634 -2.1798 -2.5391 -2.1866
 1818SOL     OW16915   0.876   3.921   2.904  0.7677 -0.5823 -0.7011
 1818SOL    HW116916   0.938   3.875   2.960  0.7934  0.1951 -0.0877
 1818SOL    HW216917   0.929   3.998   2.882  1.6989 -0.9582  0.2762
 1819SOL     OW16918   2.607   2.116  12.995 -0.2333  0.3398 -0.2553
 1819SOL    HW116919   2.650   2.132  13.079  0.1107 -2.1190  0.0441
 1819SOL    HW216920   2.687   2.104  12.943 -1.2366 -1.0996 -1.4753
 1820SOL     OW16921   1.637   1.418  16.800 -0.3095  0.8444  0.6554
 1820SOL    HW116922   1.698   1.394  16.870  1.2020  1.0212 -0.5821
 1820SOL    HW216923   1.692   1.389  16.727 -1.9474  2.2883 -1.1551
 1821SOL     OW16924   3.587   4.267   0.209 -0.2987 -0.0305  0.0304
 1821SOL    HW116925   3.509   4.228   0.248 -0.2098  0.9939  1.2429
 1821SOL    HW216926   3.614   4.186   0.166  1.5673  1.0197 -0.7670
 1822SOL     OW16927   3.902   0.886  12.552  0.2099  0.2912  0.4701
 1822SOL    HW116928   3.807   0.900  12.545  0.4198  2.1737  1.4943
 1822SOL    HW216929   3.930   0.879  12.460  1.0392  1.6917  0.6243
 1823SOL     OW16930   3.054   3.827  15.923 -0.1104  0.0843 -0.4602
 1823SOL    HW116931   3.071   3.892  15.854  2.3184  0.3406  0.4007
 1823SOL    HW216932   3.068   3.881  16.000 -1.1183  0.7616 -0.7441
 1824SOL     OW16933   2.787   4.149   6.454  0.3304  0.0926 -0.0572
 1824SOL    HW116934   2.826   4.103   6.380  0.0348  0.2607 -0.3167
 1824SOL    HW216935   2.842   4.115   6.524  0.4424 -0.7938 -0.5796
 1825SOL     OW16936   2.330   1.004   2.702  0.0840 -0.0483  0.0945
 1825SOL    HW116937   2.319   1.089   2.659  1.8401 -1.0064 -2.2609
 1825SOL    HW216938   2.296   0.960   2.624 -0.3048 -0.3270  0.4261
 1826SOL     OW16939   4.195   0.882   3.475  0.3772 -0.1958 -0.4166
 1826SOL    HW116940   4.180   0.976   3.466  0.6313  0.0876  2.0044
 1826SOL    HW216941   4.242   0.879   3.559  2.1535  0.9429 -1.3562
 1827SOL     OW16942   0.053   4.231   9.627 -0.7450 -0.2689 -0.2413
 1827SOL    HW116943   0.076   4.275   9.708  0.8339  0.5091 -1.1071
 1827SOL    HW216944   4.688   4.265   9.606 -0.3114  0.5012 -0.7809
 1828SOL     OW16945   1.741   4.015   0.521  0.2659 -0.2107 -0.5282
 1828SOL    HW116946   1.760   4.109   0.517 -1.9694  0.1759 -1.8632
 1828SOL    HW216947   1.826   3.971   0.519 -0.9200 -2.5355 -0.0456
 1829SOL     OW16948   2.368   1.441   8.499  0.3478  0.4422 -0.8194
 1829SOL    HW116949   2.327   1.526   8.515 -1.5152 -0.6872  0.2826
 1829SOL    HW216950   2.346   1.425   8.407  2.2381 -1.7789 -0.8895
 1830SOL     OW16951   2.936   4.690   7.368  0.1403 -0.1585 -0.2061
 1830SOL    HW116952   3.004   0.030   7.340  0.6000  0.1653  1.6676
 1830SOL    HW216953   2.907   0.012   7.448 -1.0516  1.4211 -1.4835
 1831SOL     OW16954   2.500   2.026   3.381 -0.2433  0.6510  0.0443
 1831SOL    HW116955   2.532   1.948   3.335 -0.9546 -0.0731  0.7608
 1831SOL    HW216956   2.416   2.005   3.422  0.0431  0.2315  0.4227
 1832SOL     OW16957   4.517   4.414   9.849 -0.0694  0.2785 -0.6346
 1832SOL    HW116958   4.476   4.329   9.839 -3.7980  1.7434  2.0219
 1832SOL    HW216959   4.539   4.406   9.942 -0.3583  1.7005 -0.4429
 1833SOL     OW16960   3.439   3.304   4.111 -0.0809  0.1407  0.1975
 1833SOL    HW116961   3.514   3.250   4.085  1.7975  3.0330 -0.3661
 1833SOL    HW216962   3.380   3.298   4.036  1.3893  3.3182 -1.1959
 1834SOL     OW16963   0.724   4.126   7.340 -0.1499 -0.5148  0.0383
 1834SOL    HW116964   0.776   4.128   7.260  0.0277 -0.6234  0.1519
 1834SOL    HW216965   0.678   4.043   7.331  1.5511 -1.3760 -0.6461
 1835SOL     OW16966   2.320   1.995  14.116  0.2237  0.3387  0.1634
 1835SOL    HW116967   2.411   1.996  14.144  0.4967 -1.1902 -0.6706
 1835SOL    HW216968   2.299   2.088  14.122 -0.0772  0.2874 -0.0785
 1836SOL     OW16969   0.425   4.557   9.488  0.1959  0.2231  0.0275
 1836SOL    HW116970   0.474   4.569   9.407 -2.2818  2.1510 -1.1837
 1836SOL    HW216971   0.396   4.466   9.480 -0.1501  0.2423  1.0324
 1837SOL     OW16972   1.054   2.514   8.928  0.1122  0.8074  0.4217
 1837SOL    HW116973   1.094   2.429   8.912 -0.2987  0.4655  1.2314
 1837SOL    HW216974   0.967   2.481   8.950 -0.1955  0.8015 -0.7871
 1838SOL     OW16975   4.649   3.926   3.834  0.2284  0.1694  0.6815
 1838SOL    HW116976   4.678   3.992   3.771 -1.1188 -0.6998 -0.8717
 1838SOL    HW216977   4.601   3.978   3.899 -1.4123 -0.2393 -0.1900
 1839SOL     OW16978   2.325   2.798   0.415  0.1200  0.0002  0.2194
 1839SOL    HW116979   2.336   2.705   0.436 -0.7438  0.1266  1.2503
 1839SOL    HW216980   2.349   2.843   0.496 -3.1746  0.0332  1.1579
 1840SOL     OW16981   1.476   0.922   4.456 -0.0267  0.0279 -0.5051
 1840SOL    HW116982   1.552   0.871   4.486 -0.8297 -0.2750  1.0267
 1840SOL    HW216983   1.515   0.999   4.415 -0.3594 -0.0633 -0.9866
 1841SOL     OW16984   0.417   0.025   5.373  0.5679 -0.1679  0.8197
 1841SOL    HW116985   0.407   0.000   5.465 -1.2680  0.8755  0.9012
 1841SOL    HW216986   0.494   0.081   5.380  0.5416  0.1665 -1.3941
 1842SOL     OW16987   0.121   3.776   9.443 -0.1577  0.2840  0.1108
 1842SOL    HW116988   0.160   3.840   9.383 -1.6375  0.5744 -0.5396
 1842SOL    HW216989   0.071   3.725   9.379 -0.3363  0.8407 -0.2037
 1843SOL     OW16990   2.595   4.708   2.777 -0.6690 -0.5222  0.6127
 1843SOL    HW116991   2.528   0.011   2.840 -1.4469  0.8117 -0.7190
 1843SOL    HW216992   2.535   4.644   2.739 -1.1432 -0.0960  0.6407
 1844SOL     OW16993   1.624   1.256   1.331 -0.0993  0.1894  0.5536
 1844SOL    HW116994   1.719   1.263   1.344 -0.1040  1.6741 -0.2194
 1844SOL    HW216995   1.597   1.346   1.314  1.0386  0.3975 -0.1917
 1845SOL     OW16996   3.784   4.686   6.139  0.2928  0.2356 -0.3520
 1845SOL    HW116997   3.781   4.707   6.232 -1.9705  0.6092 -0.4913
 1845SOL    HW216998   3.713   4.624   6.122  0.5545 -0.4624  1.1717
 1846SOL     OW16999   1.585   0.161  16.604 -0.5397  0.2820  0.1117
 1846SOL    HW117000   1.518   0.095  16.583 -2.2298  2.3137 -0.8719
 1846SOL    HW217001   1.541   0.197  16.681 -4.1981  2.9642 -3.1855
 1847SOL     OW17002   4.617   1.882  13.483  0.0810 -0.4643  0.5757
 1847SOL    HW117003   4.565   1.828  13.543 -1.0898 -1.1850 -1.1151
 1847SOL    HW217004   4.667   1.924  13.553 -0.3357 -0.8545  1.1121
 1848SOL     OW17005   3.915   4.341   5.990  0.5139 -0.0538 -0.2476
 1848SOL    HW117006   3.913   4.433   5.964 -1.5505 -0.5744 -1.8526
 1848SOL    HW217007   3.873   4.297   5.916 -0.0351 -0.6046  0.3913
 1849SOL     OW17008   2.670   3.940  16.194 -0.2025  0.0041 -0.0859
 1849SOL    HW117009   2.661   4.011  16.130  1.6719  1.3149  1.1281
 1849SOL    HW217010   2.672   3.985  16.278  3.0283  0.8549 -0.6166
 1850SOL     OW17011   1.825   0.149  11.832  0.3497  0.3628  0.6432
 1850SOL    HW117012   1.856   0.140  11.742  2.1048 -1.5719  1.4133
 1850SOL    HW217013   1.735   0.177  11.816  0.4540  0.5358  0.3647
 1851SOL     OW17014   4.477   3.716   7.283 -0.2099  0.2800  0.5038
 1851SOL    HW117015   4.448   3.783   7.345  0.0987  1.8113 -1.0077
 1851SOL    HW217016   4.459   3.752   7.196  0.7608 -1.1441 -0.2879
 1852SOL     OW17017   4.583   3.682   5.077  0.2178  0.0912  0.1318
 1852SOL    HW117018   4.502   3.733   5.078 -0.0990 -0.3827 -0.8118
 1852SOL    HW217019   4.543   3.609   5.029 -1.3224  0.0612  1.4358
 1853SOL     OW17020   2.060   3.750   5.817  0.1449  0.4397  0.4047
 1853SOL    HW117021   2.126   3.786   5.758  0.6257  1.3007  1.4659
 1853SOL    HW217022   2.045   3.828   5.872  0.2491  1.5070 -1.0837
 1854SOL     OW17023   0.745   1.889  10.482 -0.2287  0.4833 -0.3953
 1854SOL    HW117024   0.813   1.956  10.468  1.4674 -1.1231  0.2249
 1854SOL    HW217025   0.729   1.894  10.576 -0.1649 -0.2728 -0.3450
 1855SOL     OW17026   3.466   2.067   9.143  0.7101  0.5628  0.1151
 1855SOL    HW117027   3.554   2.080   9.178 -0.2915 -1.5680  3.3927
 1855SOL    HW217028   3.417   2.057   9.225  0.0966  1.5503 -0.1350
 1856SOL     OW17029   3.619   2.117   7.870 -0.0401  0.4755  0.2744
 1856SOL    HW117030   3.686   2.051   7.852 -0.5690  0.9671 -3.3985
 1856SOL    HW217031   3.611   2.107   7.965  0.0953  0.2748  0.2637
 1857SOL     OW17032   2.842   3.615  14.594  0.0867 -0.2907  0.6002
 1857SOL    HW117033   2.809   3.610  14.504 -1.6632  0.4511  1.2155
 1857SOL    HW217034   2.784   3.680  14.635  2.6936  1.9453  0.7483
 1858SOL     OW17035   3.393   4.206   7.126  0.2286  0.3342 -0.1952
 1858SOL    HW117036   3.302   4.207   7.154 -0.2333 -3.5959 -1.5117
 1858SOL    HW217037   3.408   4.114   7.105 -2.3341  0.0197 -0.6490
 1859SOL     OW17038   2.333   4.712   3.696 -0.6970 -0.8652  0.9778
 1859SOL    HW117039   2.244   4.694   3.666 -0.3622 -1.8897  0.6198
 1859SOL    HW217040   2.338   0.083   3.672 -3.4453 -0.3196  2.4042
 1860SOL     OW17041   0.575   2.022   7.526 -0.0675  0.2078 -0.6479
 1860SOL    HW117042   0.648   2.060   7.576  0.3327 -2.9154  1.0936
 1860SOL    HW217043   0.547   1.943   7.572 -0.1582  0.2265 -0.6719
 1861SOL     OW17044   2.734   3.587   1.643 -0.5750 -0.3591 -0.3275
 1861SOL    HW117045   2.791   3.530   1.694  0.6662 -2.7082 -4.3442
 1861SOL    HW217046   2.700   3.512   1.594  1.9966 -1.6586 -0.1396
 1862SOL     OW17047   3.113   1.638  17.125  0.1154  0.1155 -0.1286
 1862SOL    HW117048   3.024   1.653  17.157 -0.3571 -0.1388 -1.3136
 1862SOL    HW217049   3.132   1.719  17.077  1.2218 -1.2532 -2.0163
 1863SOL     OW17050   0.394   4.509   5.221 -0.0044 -0.1565 -0.7028
 1863SOL    HW117051   0.409   4.591   5.268 -3.7399  0.4414 -0.5481
 1863SOL    HW217052   0.340   4.539   5.147  0.6643  2.4712 -0.1198
 1864SOL     OW17053   4.324   2.266   5.750  0.4647 -0.3502 -0.0436
 1864SOL    HW117054   4.237   2.228   5.742  0.4234 -0.3400  0.3278
 1864SOL    HW217055   4.353   2.245   5.839  0.4951 -3.0842 -0.6927
 1865SOL     OW17056   0.299   3.495  14.418 -0.1398  0.0977 -0.1737
 1865SOL    HW117057   0.325   3.440  14.343 -0.4388 -1.7463  1.0874
 1865SOL    HW217058   0.383   3.502  14.464  1.0801 -0.0250 -2.3221
 1866SOL     OW17059   2.463   0.829   3.033  0.3108  0.3890  0.2192
 1866SOL    HW117060   2.399   0.830   3.104 -0.3803  2.3679 -0.4280
 1866SOL    HW217061   2.434   0.751   2.987  1.0457 -0.0876  0.5754
 1867SOL     OW17062   2.397   3.084   1.934 -0.0662 -0.1903  0.0592
 1867SOL    HW117063   2.445   3.021   1.987 -0.2895 -1.0621 -0.7795
 1867SOL    HW217064   2.352   3.139   1.998  1.2814  0.7651  0.1917
 1868SOL     OW17065   4.179   0.830   6.889  0.6013  0.0549 -0.1270
 1868SOL    HW117066   4.143   0.741   6.879  2.7912 -1.0169  1.6057
 1868SOL    HW217067   4.172   0.879   6.807  2.0355  1.5165  0.6262
 1869SOL     OW17068   3.337   0.494  10.363 -0.8877  0.2711  0.6961
 1869SOL    HW117069   3.376   0.441  10.433  0.2350 -1.5582 -1.3308
 1869SOL    HW217070   3.414   0.536  10.326 -1.6139  2.2258  1.4203
 1870SOL     OW17071   1.621   1.732   1.946  0.4185  0.8775 -0.0150
 1870SOL    HW117072   1.655   1.803   1.891 -1.8579  0.4968 -1.8946
 1870SOL    HW217073   1.681   1.659   1.933 -0.2946  0.2157  0.4325
 1871SOL     OW17074   1.652   4.479  12.645  0.1229 -0.2144  0.5709
 1871SOL    HW117075   1.592   4.404  12.643  1.3941 -1.1691 -1.6215
 1871SOL    HW217076   1.731   4.430  12.623  0.3360 -0.8247  2.7101
 1872SOL     OW17077   3.328   0.544   8.734  0.1947  0.0833  0.0875
 1872SOL    HW117078   3.278   0.622   8.761  2.1073  0.9110  1.2542
 1872SOL    HW217079   3.257   0.486   8.708  0.0771  0.2239  0.0903
 1873SOL     OW17080   1.218   0.118   7.378  0.4034  0.0039 -0.1100
 1873SOL    HW117081   1.242   0.111   7.470 -1.7434 -0.2809  0.4410
 1873SOL    HW217082   1.174   0.203   7.381  0.4186 -0.0310  1.0068
 1874SOL     OW17083   0.236   1.578   5.380 -0.8065 -0.3257  0.0702
 1874SOL    HW117084   0.265   1.524   5.454  3.9075 -0.2235 -1.6696
 1874SOL    HW217085   0.233   1.502   5.322  0.0292  0.2525 -0.7402
 1875SOL     OW17086   2.074   4.710   3.579  0.5118  0.0988  0.3248
 1875SOL    HW117087   2.062   0.056   3.513  3.1898  0.0671 -0.2042
 1875SOL    HW217088   2.029   4.638   3.535  2.2821  0.4944 -2.1206
 1876SOL     OW17089   0.562   3.892  13.851  0.7140 -0.1339  0.3129
 1876SOL    HW117090   0.641   3.884  13.797  0.2627  2.1068 -0.6506
 1876SOL    HW217091   0.525   3.805  13.838  1.5696 -0.3882 -0.4624
 1877SOL     OW17092   1.650   1.222   3.977  0.1605  0.9048  0.0529
 1877SOL    HW117093   1.675   1.314   3.977 -1.1426  1.2326 -2.7117
 1877SOL    HW217094   1.731   1.177   4.003  0.4318  1.1093 -0.4287
 1878SOL     OW17095   1.589   4.126   5.805  0.0726  0.1353 -0.0596
 1878SOL    HW117096   1.566   4.188   5.735 -0.5437  0.2837  0.2740
 1878SOL    HW217097   1.500   4.099   5.824  0.1332 -0.3729 -0.5000
 1879SOL     OW17098   3.817   3.537   0.444 -1.2548 -0.1394  0.5429
 1879SOL    HW117099   3.729   3.545   0.407 -0.2782 -0.9389 -1.9202
 1879SOL    HW217100   3.844   3.629   0.444 -1.8626  0.0410 -0.8787
 1880SOL     OW17101   3.632   3.327   6.836  0.1214 -0.2759 -0.2528
 1880SOL    HW117102   3.663   3.253   6.785 -0.2544  1.5133 -3.0962
 1880SOL    HW217103   3.545   3.290   6.852  0.3395 -0.0196  1.5865
 1881SOL     OW17104   0.225   1.725   4.149  0.4193 -0.1545  0.1363
 1881SOL    HW117105   0.246   1.786   4.079  0.2591 -0.4247 -0.1490
 1881SOL    HW217106   0.179   1.776   4.216 -1.1856  0.7779 -1.6760
 1882SOL     OW17107   3.894   2.674   9.316  0.0281 -0.4195  0.0842
 1882SOL    HW117108   3.921   2.692   9.226  0.7665  0.5396  0.4929
 1882SOL    HW217109   3.830   2.745   9.329 -0.0352 -0.3650 -0.5289
 1883SOL     OW17110   4.229   4.234  16.276  0.0418 -0.3873  0.2016
 1883SOL    HW117111   4.149   4.285  16.261  0.3514 -0.7755 -2.6420
 1883SOL    HW217112   4.251   4.193  16.193 -0.8494 -2.7731  1.1428
 1884SOL     OW17113   4.359   4.664  11.155  0.0615  0.1104  0.1527
 1884SOL    HW117114   4.361   4.659  11.250 -0.8483 -1.1308  0.1067
 1884SOL    HW217115   4.311   4.588  11.121  0.5137 -0.2214  0.2529
 1885SOL     OW17116   1.324   4.146   5.099 -0.3812 -0.3055  0.0646
 1885SOL    HW117117   1.402   4.150   5.042  0.7038 -1.2536  1.4754
 1885SOL    HW217118   1.330   4.239   5.121  2.5812  0.0923 -2.3530
 1886SOL     OW17119   1.941   0.602   4.476 -0.0224  0.4885 -0.1095
 1886SOL    HW117120   1.938   0.568   4.566  2.5048  0.6884  0.0396
 1886SOL    HW217121   1.982   0.688   4.474 -3.3971  2.1122 -0.2518
 1887SOL     OW17122   3.018   1.158   5.022 -0.0964  0.0570 -0.1157
 1887SOL    HW117123   3.106   1.172   5.058 -0.2935  2.1194 -0.4680
 1887SOL    HW217124   3.025   1.214   4.945 -0.7019  0.3581  0.0513
 1888SOL     OW17125   0.662   4.611   6.179 -0.5903  0.1180 -0.4547
 1888SOL    HW117126   0.750   4.574   6.189 -0.1405  1.8028  1.7975
 1888SOL    HW217127   0.604   4.539   6.204  0.4715 -0.3213  0.7953
 1889SOL     OW17128   2.627   3.614  16.158 -0.2489 -0.0208 -0.7297
 1889SOL    HW117129   2.646   3.569  16.240  0.4235  1.0959 -0.2687
 1889SOL    HW217130   2.628   3.704  16.190  1.0573 -0.0155 -0.7873
 1890SOL     OW17131   2.366   1.424   6.753  0.6705  0.4376  0.7422
 1890SOL    HW117132   2.461   1.417   6.743  0.8216  1.5350  1.4242
 1890SOL    HW217133   2.349   1.503   6.703  0.5155 -1.1572 -1.7308
 1891SOL     OW17134   4.166   3.105   5.440 -0.2085  0.3634  0.1389
 1891SOL    HW117135   4.119   3.064   5.513 -1.6384 -0.1960 -1.0925
 1891SOL    HW217136   4.190   3.191   5.474  2.4423 -0.1899 -0.3623
 1892SOL     OW17137   1.976   3.904   2.082  0.1405  0.3061  0.0676
 1892SOL    HW117138   1.991   3.979   2.024  2.6218 -0.3893 -0.1992
 1892SOL    HW217139   1.925   3.848   2.024  2.3661 -0.2621 -1.3644
 1893SOL     OW17140   4.032   2.764   6.681  0.2292 -0.1964 -0.7645
 1893SOL    HW117141   4.021   2.855   6.707  0.7702 -0.5033  0.5320
 1893SOL    HW217142   4.048   2.775   6.587 -0.0082  1.9894 -0.5269
 1894SOL     OW17143   2.429   0.810   6.203  1.2254  0.2437 -0.3148
 1894SOL    HW117144   2.509   0.790   6.252  1.2009 -2.5266 -1.4140
 1894SOL    HW217145   2.402   0.723   6.173  2.1214 -0.3700  0.6791
 1895SOL     OW17146   0.370   3.026  17.576  0.1279 -0.4831 -0.0017
 1895SOL    HW117147   0.328   3.107  17.547  1.4139  0.7466  1.5476
 1895SOL    HW217148   0.292   2.979  17.604 -1.0286 -0.3750 -3.0916
 1896SOL     OW17149   3.289   3.892   5.125  0.1250 -0.1557 -0.0375
 1896SOL    HW117150   3.241   3.961   5.079 -2.4642 -2.0286 -0.0911
 1896SOL    HW217151   3.223   3.869   5.190  0.2852 -1.3058 -0.2819
 1897SOL     OW17152   3.065   2.227   8.596 -0.2662 -0.1964  0.1041
 1897SOL    HW117153   3.057   2.204   8.503  0.5148  0.1234 -0.0409
 1897SOL    HW217154   2.980   2.204   8.633  0.0480  0.4442  1.2135
 1898SOL     OW17155   1.475   3.688   8.802 -0.8685 -0.2901 -0.0732
 1898SOL    HW117156   1.380   3.681   8.814 -0.7495 -1.2728  0.3018
 1898SOL    HW217157   1.477   3.773   8.759  0.4193 -0.6367 -0.6935
 1899SOL     OW17158   0.763   3.571   5.850 -0.2200 -0.4783  0.0378
 1899SOL    HW117159   0.728   3.523   5.775  2.4757  0.5327 -1.8567
 1899SOL    HW217160   0.766   3.511   5.924 -0.4324  0.0920  0.5018
 1900SOL     OW17161   4.448   1.439   4.202 -0.1956  0.2629 -0.3598
 1900SOL    HW117162   4.495   1.466   4.281  1.0687  1.0248 -1.3802
 1900SOL    HW217163   4.432   1.528   4.170 -2.9260 -0.1316 -0.1456
 1901SOL     OW17164   3.158   0.053   2.689  0.0671  0.6741 -0.0685
 1901SOL    HW117165   3.168   0.050   2.784  1.4417 -1.5573 -0.2713
 1901SOL    HW217166   3.210   0.128   2.661 -0.1267  0.7287 -0.2856
 1902SOL     OW17167   4.359   4.120   3.507  0.5976  0.4760  0.0559
 1902SOL    HW117168   4.337   4.106   3.600 -2.0973  3.1054 -0.1996
 1902SOL    HW217169   4.290   4.072   3.462  1.2748  0.9283 -1.4509
 1903SOL     OW17170   1.065   3.109   9.255 -0.3262  0.7607 -0.4338
 1903SOL    HW117171   1.013   3.029   9.265  1.1272 -0.0081  0.9584
 1903SOL    HW217172   1.135   3.096   9.319 -2.2565  0.3992  1.6051
 1904SOL     OW17173   4.309   3.375  12.294  0.2833 -0.1649  0.4661
 1904SOL    HW117174   4.323   3.448  12.234 -2.8985 -0.0697 -0.1802
 1904SOL    HW217175   4.397   3.343  12.314  0.3069  0.6368  1.6785
 1905SOL     OW17176   1.392   4.697   9.430  0.1065 -0.1096 -0.6867
 1905SOL    HW117177   1.382   0.061   9.388  0.7792  0.5341  0.4708
 1905SOL    HW217178   1.381   4.643   9.352 -0.2643 -1.8236  0.5496
 1906SOL     OW17179   2.687   3.530  15.652  0.2157  0.5749  0.8896
 1906SOL    HW117180   2.629   3.607  15.655 -1.3414 -0.6058  1.5004
 1906SOL    HW217181   2.770   3.575  15.668  0.5782  0.4415 -0.6042
 1907SOL     OW17182   3.077   4.717   4.156  0.5828  0.0893 -0.2504
 1907SOL    HW117183   3.013   4.655   4.121 -0.2413 -0.3140  1.9599
 1907SOL    HW217184   3.045   0.084   4.144 -1.5161 -0.6009  0.2242
 1908SOL     OW17185   2.645   3.468  13.661 -0.0955  0.0223 -0.2718
 1908SOL    HW117186   2.629   3.380  13.628 -2.2039  0.0622  0.5706
 1908SOL    HW217187   2.653   3.449  13.755  0.8304  0.5685 -0.2443
 1909SOL     OW17188   1.165   0.830  11.171 -0.1456  0.3279 -0.4966
 1909SOL    HW117189   1.161   0.925  11.184  1.8170  0.2595  0.5756
 1909SOL    HW217190   1.074   0.827  11.142 -0.9714  1.6444  1.9644
 1910SOL     OW17191   0.250   2.982   3.374  0.1266 -0.3296  0.6449
 1910SOL    HW117192   0.217   3.066   3.342  0.3135  0.0618  1.4752
 1910SOL    HW217193   0.344   2.997   3.375  0.0866 -0.0512 -0.0212
 1911SOL     OW17194   1.655   0.527  17.047  0.1042  0.1802 -0.4247
 1911SOL    HW117195   1.589   0.505  16.981  0.2554 -1.4707 -0.0430
 1911SOL    HW217196   1.725   0.469  17.016  0.4804  0.1565  0.4606
 1912SOL     OW17197   2.292   3.042   6.692  0.1771 -0.1955 -0.4872
 1912SOL    HW117198   2.255   3.082   6.771  0.0871 -1.0395 -0.1047
 1912SOL    HW217199   2.349   3.116   6.671  0.4129 -0.1091  0.4872
 1913SOL     OW17200   3.017   1.058   2.552 -0.3814 -0.0768  0.0079
 1913SOL    HW117201   2.937   1.027   2.508 -0.4227 -0.5085  0.3909
 1913SOL    HW217202   2.992   1.067   2.643  0.6433 -1.9207  0.4688
 1914SOL     OW17203   2.642   0.323   6.255  0.1749  0.2729  0.0882
 1914SOL    HW117204   2.690   0.366   6.184 -0.1306  0.1305 -0.2072
 1914SOL    HW217205   2.678   0.235   6.252 -0.3121  0.1087 -1.1979
 1915SOL     OW17206   1.549   1.813   3.168  0.5954  0.4216  0.1068
 1915SOL    HW117207   1.598   1.806   3.086  0.2050 -2.7871  0.1169
 1915SOL    HW217208   1.533   1.721   3.193 -0.2556  0.9151  1.3812
 1916SOL     OW17209   2.555   0.886  10.851 -0.0515 -0.2163 -0.5907
 1916SOL    HW117210   2.511   0.869  10.767 -0.9603 -2.0807  0.2556
 1916SOL    HW217211   2.520   0.975  10.859  0.3404  0.0348 -1.5617
 1917SOL     OW17212   0.746   3.015   9.554 -0.1855  0.5912  0.2414
 1917SOL    HW117213   0.651   3.027   9.556 -0.1200  1.1861 -0.3821
 1917SOL    HW217214   0.757   3.010   9.649 -0.2807 -2.9473  0.0604
 1918SOL     OW17215   4.622   3.720  12.800 -0.2940 -0.1377 -0.1907
 1918SOL    HW117216   4.576   3.653  12.749  2.6821 -1.1719 -1.5399
 1918SOL    HW217217   4.687   3.761  12.743  0.0674 -1.4431 -0.7023
 1919SOL     OW17218   2.329   3.986   2.357 -0.7668 -0.4562 -0.2188
 1919SOL    HW117219   2.339   3.914   2.419  0.6112 -0.9393 -0.9947
 1919SOL    HW217220   2.421   4.005   2.343 -1.2421  2.8443  1.1692
 1920SOL     OW17221   2.213   3.404   7.525  0.4112 -0.3165  0.2141
 1920SOL    HW117222   2.271   3.335   7.494  0.5886 -0.2603  0.4224
 1920SOL    HW217223   2.211   3.389   7.619 -2.6689  0.7137  0.3076
 1921SOL     OW17224   3.522   2.624  15.985  0.1008  0.0019  0.5250
 1921SOL    HW117225   3.561   2.619  16.073  2.4755 -0.1809 -0.5412
 1921SOL    HW217226   3.545   2.536  15.957  1.1054  1.1275 -2.1694
 1922SOL     OW17227   3.635   0.179   7.742 -0.5936  0.5325  0.1582
 1922SOL    HW117228   3.614   0.257   7.794 -0.0760  0.0336  1.1178
 1922SOL    HW217229   3.635   0.116   7.815  3.8583  0.2223 -0.1471
 1923SOL     OW17230   3.500   3.770   2.166  0.3287 -0.9110  0.0254
 1923SOL    HW117231   3.580   3.804   2.207 -2.0120  4.0202  0.5004
 1923SOL    HW217232   3.470   3.855   2.134  1.8568  0.2630  1.6839
 1924SOL     OW17233   3.358   2.216   6.955  0.3522 -0.5910 -0.5552
 1924SOL    HW117234   3.334   2.205   6.863 -0.0001  1.5698 -0.7214
 1924SOL    HW217235   3.275   2.194   6.998  0.7798 -1.2679 -0.0741
 1925SOL     OW17236   2.326   1.902   4.856  0.0753 -0.2931 -0.0708
 1925SOL    HW117237   2.279   1.831   4.899  0.1802 -0.5343 -0.3603
 1925SOL    HW217238   2.256   1.960   4.824 -0.9184 -1.5927 -0.2493
 1926SOL     OW17239   2.121   4.559  16.667 -0.3183 -0.3147 -0.4824
 1926SOL    HW117240   2.038   4.513  16.663  0.1191 -0.9411 -2.1354
 1926SOL    HW217241   2.117   4.619  16.742 -1.2790  1.4683 -1.9593
 1927SOL     OW17242   1.334   0.440  13.921  0.6626 -0.0590 -0.0491
 1927SOL    HW117243   1.402   0.373  13.918 -0.0685 -0.8194  0.3099
 1927SOL    HW217244   1.260   0.392  13.883  0.7330 -0.9339  0.9126
 1928SOL     OW17245   4.062   2.477   6.968 -0.3219 -0.4043  0.6805
 1928SOL    HW117246   4.111   2.476   6.886 -0.9820  0.0667  0.2800
 1928SOL    HW217247   4.111   2.552   7.004  0.3944 -0.3268 -0.4557
 1929SOL     OW17248   4.403   3.637   7.749  0.6244 -0.2133 -0.5206
 1929SOL    HW117249   4.384   3.627   7.843 -3.3034 -1.9393 -1.4757
 1929SOL    HW217250   4.320   3.599   7.719  0.4270  0.9915 -1.4883
 1930SOL     OW17251   2.476   2.915  16.634  0.2523  0.1728  0.1006
 1930SOL    HW117252   2.497   3.001  16.669  2.0373 -0.2199 -0.0041
 1930SOL    HW217253   2.521   2.856  16.695  1.0490 -0.3463 -0.9694
 1931SOL     OW17254   3.164   0.394   9.700 -0.1555 -0.7772 -0.1671
 1931SOL    HW117255   3.153   0.479   9.742  0.1374 -1.5701  1.5341
 1931SOL    HW217256   3.249   0.376   9.741  0.0526 -0.1004 -0.3100
 1932SOL     OW17257   0.117   3.454  11.128 -0.4900 -0.3523 -0.5506
 1932SOL    HW117258   0.125   3.525  11.065 -1.6798  1.4738  1.3390
 1932SOL    HW217259   0.102   3.494  11.214 -1.0331 -1.6119 -0.0470
 1933SOL     OW17260   0.613   2.467  17.087  0.2928  0.1746  0.5319
 1933SOL    HW117261   0.549   2.475  17.016  1.4345 -0.2831 -0.5457
 1933SOL    HW217262   0.560   2.450  17.165  0.6016 -0.5165  0.5858
 1934SOL     OW17263   0.390   2.106   9.859  0.0110 -0.1247  0.1398
 1934SOL    HW117264   0.478   2.116   9.822 -0.6174  0.8909 -1.0946
 1934SOL    HW217265   0.401   2.137   9.948  0.3974 -2.7746  1.0202
 1935SOL     OW17266   0.709   2.913   4.745 -0.0887  0.3215 -0.0892
 1935SOL    HW117267   0.614   2.924   4.747  0.0741  1.2439  1.9964
 1935SOL    HW217268   0.718   2.821   4.721  0.9426  0.6404 -0.9403
 1936SOL     OW17269   3.778   1.651   0.750 -0.1034 -0.0732 -0.0963
 1936SOL    HW117270   3.690   1.621   0.728  0.4360 -0.9464 -1.0819
 1936SOL    HW217271   3.760   1.671   0.841 -0.3804  0.3468 -0.2442
 1937SOL     OW17272   2.579   4.511   7.824 -0.8586 -0.0497  0.3729
 1937SOL    HW117273   2.651   4.449   7.826 -0.4940  0.3627 -0.1351
 1937SOL    HW217274   2.510   4.458   7.864  0.3173 -0.4728  1.8216
 1938SOL     OW17275   4.504   1.441  10.849  0.0239 -0.3675 -0.1316
 1938SOL    HW117276   4.451   1.501  10.796 -0.3848 -0.2577  0.4017
 1938SOL    HW217277   4.586   1.485  10.826 -0.5939  1.0726  0.3740
 1939SOL     OW17278   4.678   2.374   8.300 -0.3783  0.4160  0.0627
 1939SOL    HW117279   4.719   2.409   8.379 -0.2115 -1.0042  0.6129
 1939SOL    HW217280   4.603   2.322   8.328  0.8879 -3.2864 -3.3507
 1940SOL     OW17281   2.450   1.221   5.307  0.3198 -0.8620  0.3315
 1940SOL    HW117282   2.443   1.299   5.252 -0.0350 -0.5750  0.7871
 1940SOL    HW217283   2.448   1.149   5.244  1.3241 -1.2415  0.7391
 1941SOL     OW17284   3.534   3.794   3.420 -0.6220 -0.2709  0.7549
 1941SOL    HW117285   3.517   3.882   3.387  0.2730  0.0557  1.1879
 1941SOL    HW217286   3.483   3.744   3.356  0.0654  0.6652 -0.5259
 1942SOL     OW17287   2.770   3.376   3.289  0.2153 -0.1343 -0.5911
 1942SOL    HW117288   2.725   3.306   3.337  1.2287 -0.3320  0.0871
 1942SOL    HW217289   2.850   3.325   3.270  2.1039  2.6181  0.0095
 1943SOL     OW17290   2.961   0.412  17.661  0.2676 -0.4496 -0.0077
 1943SOL    HW117291   2.902   0.418   0.048 -0.6242 -1.0482 -0.6679
 1943SOL    HW217292   2.993   0.503  17.661  2.5058 -1.2402 -0.0251
 1944SOL     OW17293   0.328   2.726   3.052 -0.0840  0.0275 -0.2470
 1944SOL    HW117294   0.251   2.717   2.996  0.3147  0.7061 -0.9091
 1944SOL    HW217295   0.287   2.714   3.138 -3.0548  0.6627 -1.5719
 1945SOL     OW17296   1.083   0.249  12.739 -0.3880 -0.1170  0.8415
 1945SOL    HW117297   1.141   0.261  12.663  0.0616 -0.7591  1.0822
 1945SOL    HW217298   1.152   0.221  12.799 -1.5776 -0.9330  1.8249
 1946SOL     OW17299   2.153   1.592   7.402  0.4266  0.1277 -0.2296
 1946SOL    HW117300   2.125   1.675   7.361  0.0121 -0.3916 -1.0116
 1946SOL    HW217301   2.114   1.611   7.487  0.5100  0.4393 -0.2596
 1947SOL     OW17302   3.900   4.335   1.192 -0.0078 -0.3591 -0.0444
 1947SOL    HW117303   3.875   4.246   1.219  0.6263 -0.2424  0.9389
 1947SOL    HW217304   3.869   4.346   1.102 -0.2693 -0.5675  0.0172
 1948SOL     OW17305   0.457   2.441   6.662  0.3399 -0.4092 -0.1676
 1948SOL    HW117306   0.520   2.505   6.694  0.1640 -0.1903 -0.2627
 1948SOL    HW217307   0.514   2.364   6.653  0.4030 -0.3559 -0.2239
 1949SOL     OW17308   2.014   1.824   2.352 -0.3976  0.6127  0.2600
 1949SOL    HW117309   2.100   1.783   2.358  0.8047  2.8381 -1.3956
 1949SOL    HW217310   1.944   1.767   2.384 -2.1245  0.1375 -4.3627
 1950SOL     OW17311   2.220   2.955  16.833  0.1610 -0.3725  0.1219
 1950SOL    HW117312   2.232   3.043  16.870  0.2649 -0.3858  0.1196
 1950SOL    HW217313   2.176   2.918  16.909 -1.0738 -3.8548 -2.3008
 1951SOL     OW17314   0.991   2.860  10.066 -0.4739 -0.1844  0.3366
 1951SOL    HW117315   0.971   2.954  10.067 -1.9694 -0.4705 -1.1083
 1951SOL    HW217316   1.084   2.858  10.088 -0.2638 -0.3348 -0.5584
 1952SOL     OW17317   0.696   0.750   3.523  0.3539 -0.4142 -0.5703
 1952SOL    HW117318   0.647   0.684   3.475  0.5343  0.3967 -1.8480
 1952SOL    HW217319   0.684   0.820   3.460  1.1118 -1.2512 -1.6627
 1953SOL     OW17320   3.429   3.982  10.599 -0.2287  0.0873 -0.3425
 1953SOL    HW117321   3.518   4.016  10.605  0.7123 -2.5059  0.3790
 1953SOL    HW217322   3.384   4.060  10.568  1.6252 -0.0448 -3.3624
 1954SOL     OW17323   1.648   2.148   2.991 -0.1078 -0.8558 -0.6865
 1954SOL    HW117324   1.639   2.233   3.035  0.3174 -1.3615  0.3744
 1954SOL    HW217325   1.742   2.153   2.973  0.4693  0.2091  2.6685
 1955SOL     OW17326   1.750   2.257   7.532 -0.0705  0.0168 -0.1367
 1955SOL    HW117327   1.757   2.310   7.612 -1.7791  0.6218 -0.3866
 1955SOL    HW217328   1.724   2.175   7.573  0.1424 -0.6417 -1.3364
 1956SOL     OW17329   2.829   0.926  11.614  0.0630 -0.3671 -0.1726
 1956SOL    HW117330   2.884   0.896  11.686  1.3113  0.1114 -0.9302
 1956SOL    HW217331   2.746   0.934  11.662 -1.0845 -0.9977 -2.0212
 1957SOL     OW17332   4.304   1.250  11.291 -0.0399 -0.1867  0.2560
 1957SOL    HW117333   4.222   1.209  11.315  0.3461 -1.0521  0.0960
 1957SOL    HW217334   4.276   1.329  11.245 -1.4015 -1.2397 -0.7289
 1958SOL     OW17335   0.340   1.608   2.538  0.3127  0.7732  0.0245
 1958SOL    HW117336   0.332   1.531   2.595  0.4373  1.4855  1.0125
 1958SOL    HW217337   0.283   1.669   2.584  0.1813  1.6372 -1.2799
 1959SOL     OW17338   2.822   1.390   5.790  0.6698  0.2868 -0.6572
 1959SOL    HW117339   2.914   1.408   5.810  1.2278 -0.9738 -2.0922
 1959SOL    HW217340   2.805   1.465   5.732 -0.5047  0.7815  0.3335
 1960SOL     OW17341   2.875   1.676   3.685 -0.1796  0.5337 -0.4072
 1960SOL    HW117342   2.886   1.719   3.770  1.3481 -1.4002  0.3533
 1960SOL    HW217343   2.869   1.751   3.626  1.4949  2.5676  2.0262
 1961SOL     OW17344   2.365   4.269  13.973  0.1533 -0.7026 -0.2145
 1961SOL    HW117345   2.292   4.330  13.971  0.2136 -0.7633 -4.5113
 1961SOL    HW217346   2.410   4.300  14.052 -2.7245 -0.0590  1.1812
 1962SOL     OW17347   3.353   4.393   9.656  0.1822 -0.5287 -0.0118
 1962SOL    HW117348   3.323   4.376   9.745  2.3465 -1.6512  0.5023
 1962SOL    HW217349   3.448   4.404   9.663 -0.0642  1.0705  0.8407
 1963SOL     OW17350   0.399   3.917   7.549 -0.7698  0.0913 -0.6075
 1963SOL    HW117351   0.433   4.006   7.550  0.8059 -0.5166  0.5158
 1963SOL    HW217352   0.370   3.897   7.460 -0.7732 -0.1878 -0.5448
 1964SOL     OW17353   2.074   0.770   3.638 -0.1389  0.1616 -0.6304
 1964SOL    HW117354   2.074   0.866   3.635 -1.2130  0.1733 -0.3110
 1964SOL    HW217355   2.106   0.764   3.728 -2.0155  1.0925  0.1036
 1965SOL     OW17356   0.462   2.872  14.158 -0.1425  0.0562  0.0826
 1965SOL    HW117357   0.459   2.776  14.155 -1.8151  0.1829 -2.3399
 1965SOL    HW217358   0.535   2.893  14.217 -1.4349  0.9959  1.3372
 1966SOL     OW17359   4.331   3.942   6.284  0.3254  0.1854  0.0214
 1966SOL    HW117360   4.241   3.914   6.268  0.2511 -0.5732  1.7408
 1966SOL    HW217361   4.317   4.036   6.294  1.1089  0.2011  0.9137
 1967SOL     OW17362   4.555   4.149   4.061  0.0346  0.2746  0.5547
 1967SOL    HW117363   4.597   4.216   4.115  1.7709 -1.4384  1.3164
 1967SOL    HW217364   4.512   4.101   4.131  2.1127 -3.1729 -0.5511
 1968SOL     OW17365   4.334   4.601   5.142  0.9602  0.0963  0.0130
 1968SOL    HW117366   4.327   4.563   5.055 -0.0622  0.1608  0.0627
 1968SOL    HW217367   4.397   4.549   5.192 -0.3760 -1.3669  0.1463
 1969SOL     OW17368   1.948   2.482  10.575 -0.9223 -0.0825 -0.2492
 1969SOL    HW117369   2.041   2.460  10.569 -0.7313  0.0662  2.1696
 1969SOL    HW217370   1.930   2.479  10.669  0.7072 -1.9734 -0.0045
 1970SOL     OW17371   1.643   4.629   4.289 -0.0019  0.0603 -0.3810
 1970SOL    HW117372   1.567   4.606   4.236  0.6008 -0.0268 -1.1997
 1970SOL    HW217373   1.610   4.667   4.371 -0.3756 -1.0385 -0.0306
 1971SOL     OW17374   1.140   0.804  12.459 -0.5862 -0.1779  0.2575
 1971SOL    HW117375   1.065   0.854  12.493 -0.1916 -0.6258  1.7940
 1971SOL    HW217376   1.088   0.728  12.432  1.2444 -1.5953  0.7167
 1972SOL     OW17377   0.445   0.396   3.140  0.1474 -0.2632 -0.7003
 1972SOL    HW117378   0.406   0.352   3.065  0.1263  0.9234 -1.3751
 1972SOL    HW217379   0.446   0.490   3.121  0.1801  0.1496  1.3513
 1973SOL     OW17380   0.453   3.012  10.460 -0.1286 -0.6376 -0.4057
 1973SOL    HW117381   0.359   3.027  10.467 -0.0832 -0.1647 -0.8197
 1973SOL    HW217382   0.477   3.073  10.391 -0.3640  2.2023  2.0110
 1974SOL     OW17383   0.530   3.338   5.835  0.2938  0.7301  0.2113
 1974SOL    HW117384   0.520   3.418   5.785 -1.1949  0.6062  0.3200
 1974SOL    HW217385   0.552   3.378   5.919  1.4108  0.5316  0.0220
 1975SOL     OW17386   1.447   3.086  10.398 -0.8545 -0.3098 -0.0394
 1975SOL    HW117387   1.510   3.020  10.370 -3.5094 -2.8623 -0.0247
 1975SOL    HW217388   1.381   3.031  10.440 -1.0488 -0.5153 -0.6057
 1976SOL     OW17389   4.596   1.112   0.982  0.2535 -0.0013 -0.0529
 1976SOL    HW117390   4.632   1.102   1.071 -1.5133 -0.1879  0.6458
 1976SOL    HW217391   4.568   1.203   0.990  1.7081  0.4884 -0.4481
 1977SOL     OW17392   4.362   2.889  16.413  0.8197 -0.0452  0.1710
 1977SOL    HW117393   4.415   2.895  16.333  0.5746 -0.3358 -0.0126
 1977SOL    HW217394   4.400   2.816  16.462  0.5453  0.4254  1.0951
 1978SOL     OW17395   0.262   2.740   3.955 -0.1776  0.4646 -0.2801
 1978SOL    HW117396   0.281   2.832   3.939  0.4790 -0.0020 -2.1187
 1978SOL    HW217397   0.202   2.759   4.028  0.6861  0.3187  0.4632
 1979SOL     OW17398   0.736   2.551   3.753 -0.0568 -0.2599 -0.1478
 1979SOL    HW117399   0.718   2.458   3.762  1.7650 -0.6685 -0.8423
 1979SOL    HW217400   0.647   2.582   3.768  0.1394 -0.4263  1.4171
 1980SOL     OW17401   1.716   4.423   3.817 -0.6577  0.2802  0.3578
 1980SOL    HW117402   1.662   4.382   3.885 -1.1953 -1.5572 -1.1936
 1980SOL    HW217403   1.717   4.366   3.740  1.8344 -0.1873  0.7229
 1981SOL     OW17404   3.251   4.303   4.915  0.4063 -0.0158 -0.3670
 1981SOL    HW117405   3.180   4.243   4.896  1.1665 -0.7308 -0.9818
 1981SOL    HW217406   3.325   4.262   4.870  0.3281 -1.4321  0.8101
 1982SOL     OW17407   4.706   1.557   3.970 -0.0192 -0.1468  0.2235
 1982SOL    HW117408   4.673   1.580   3.883  2.8621  0.1632 -0.8102
 1982SOL    HW217409   4.650   1.614   4.022  0.1677  0.2231  0.0248
 1983SOL     OW17410   0.768   1.802  11.140 -0.4117  0.3978  0.7828
 1983SOL    HW117411   0.677   1.785  11.164 -0.6033 -1.0118 -0.9289
 1983SOL    HW217412   0.755   1.862  11.067 -2.7051  0.1544  0.9837
 1984SOL     OW17413   2.536   1.242   6.480 -0.5380  0.9586 -0.4512
 1984SOL    HW117414   2.613   1.185   6.482 -0.2360  1.3643 -0.4620
 1984SOL    HW217415   2.563   1.301   6.550  0.1052  0.0739  0.0554
 1985SOL     OW17416   4.594   0.170   3.408 -0.3645 -0.3994 -0.0107
 1985SOL    HW117417   4.632   0.165   3.320 -1.0784  0.8015 -0.3787
 1985SOL    HW217418   4.517   0.114   3.395 -2.1504  2.1899 -0.4869
 1986SOL     OW17419   3.352   3.883   1.889  0.1310  0.1339 -0.1555
 1986SOL    HW117420   3.417   3.899   1.821 -0.2089  3.0037  0.1972
 1986SOL    HW217421   3.271   3.866   1.841  0.0364  1.4967 -0.4723
 1987SOL     OW17422   1.256   1.195   7.636  0.2342  0.7500  0.9643
 1987SOL    HW117423   1.277   1.254   7.709  0.4895  2.5676 -0.5953
 1987SOL    HW217424   1.342   1.180   7.598 -0.6510 -0.5802 -0.5111
 1988SOL     OW17425   0.334   0.142   7.973  0.3400 -0.0867  0.1848
 1988SOL    HW117426   0.270   0.210   7.951  0.1818 -0.5279 -0.7409
 1988SOL    HW217427   0.325   0.085   7.896 -1.8760 -2.6389  2.3422
 1989SOL     OW17428   4.269   3.037  14.386 -0.2145  0.2855 -0.1389
 1989SOL    HW117429   4.228   2.998  14.309 -1.4911 -0.4068  0.9005
 1989SOL    HW217430   4.200   3.012  14.447 -0.8843 -0.0826 -1.0667
 1990SOL     OW17431   3.694   4.074   4.051 -0.0235  0.2774  0.0332
 1990SOL    HW117432   3.765   4.106   3.996  0.3208  0.8102  0.7999
 1990SOL    HW217433   3.640   4.153   4.056  0.0708  0.5195 -2.6317
 1991SOL     OW17434   4.577   3.124  16.332  0.0640  0.1517  0.2078
 1991SOL    HW117435   4.619   3.049  16.373  2.2716  0.0972 -2.1427
 1991SOL    HW217436   4.532   3.087  16.256  0.3747  0.3360 -0.0658
 1992SOL     OW17437   2.361   2.572  11.126  0.0424  0.3623  0.1502
 1992SOL    HW117438   2.439   2.627  11.135  1.3692 -1.4285 -0.2682
 1992SOL    HW217439   2.384   2.526  11.045 -1.1070  1.5558 -0.8670
 1993SOL     OW17440   0.540   3.789   9.176  0.1267 -0.3852 -0.4912
 1993SOL    HW117441   0.627   3.827   9.190  0.1664 -0.4653 -0.5235
 1993SOL    HW217442   0.499   3.860   9.127  1.9514  0.6683 -0.5157
 1994SOL     OW17443   1.043   4.363   0.905  0.1649  0.2798  0.4526
 1994SOL    HW117444   1.031   4.288   0.964 -2.1874 -0.0609 -0.4472
 1994SOL    HW217445   1.096   4.429   0.950  0.3890  1.7515 -2.0056
 1995SOL     OW17446   1.767   1.229   5.828  0.0766  0.1470 -0.3033
 1995SOL    HW117447   1.746   1.154   5.772 -0.4603  0.8070 -0.9885
 1995SOL    HW217448   1.725   1.297   5.776  0.1559 -1.5736 -2.6393
 1996SOL     OW17449   1.780   1.986  16.036  0.5954 -0.4766  0.1744
 1996SOL    HW117450   1.830   2.056  15.993 -1.1978  0.5389 -0.2417
 1996SOL    HW217451   1.752   1.936  15.959  2.1732  1.6636 -1.8083
 1997SOL     OW17452   2.754   3.056  14.473  0.8088  0.0084 -0.0603
 1997SOL    HW117453   2.743   3.150  14.458 -1.3388 -0.4633 -1.4092
 1997SOL    HW217454   2.797   3.054  14.558  2.1359  0.6434 -0.7142
 1998SOL     OW17455   2.011   3.515  16.181  0.2069 -0.0562 -0.4823
 1998SOL    HW117456   2.105   3.504  16.195  0.1203 -0.7271 -0.4683
 1998SOL    HW217457   1.995   3.608  16.199  0.0701  0.1523 -1.6835
 1999SOL     OW17458   1.843   0.270  15.904  0.0254 -0.7944  0.1296
 1999SOL    HW117459   1.790   0.190  15.907 -1.2084  0.0012 -0.9119
 1999SOL    HW217460   1.934   0.240  15.894  0.9647  1.6789  1.2919
 2000SOL     OW17461   1.363   0.202   7.147 -0.3791  0.1083 -0.2630
 2000SOL    HW117462   1.336   0.166   7.232  2.3969 -1.8090 -0.1683
 2000SOL    HW217463   1.378   0.291   7.178 -0.9113 -0.2524  1.0493
 2001SOL     OW17464   4.041   1.523  15.666 -0.3750 -0.5134  0.2679
 2001SOL    HW117465   4.075   1.454  15.724  0.8753 -1.6941 -1.8939
 2001SOL    HW217466   4.084   1.601  15.700 -1.0941 -0.8545  1.9605
 2002SOL     OW17467   0.905   1.263   9.388  0.0493  0.0938  0.1186
 2002SOL    HW117468   0.854   1.251   9.469 -1.5255  0.1954 -0.8451
 2002SOL    HW217469   0.925   1.176   9.354 -0.7650  0.0721 -0.3019
 2003SOL     OW17470   4.305   0.684   9.471  0.0398 -0.1976 -0.0700
 2003SOL    HW117471   4.249   0.615   9.507 -0.4695  0.4719  0.4219
 2003SOL    HW217472   4.388   0.641   9.450 -0.0974  0.1188 -1.2889
 2004SOL     OW17473   1.374   4.617   6.790  0.5394 -0.4106 -0.1017
 2004SOL    HW117474   1.340   4.706   6.784 -1.3751 -1.1219  0.3796
 2004SOL    HW217475   1.459   4.637   6.749  0.4368  1.3766  0.5476
 2005SOL     OW17476   4.097   0.189  15.770 -0.4610 -0.0901 -0.3130
 2005SOL    HW117477   4.142   0.201  15.686  0.7275  1.6579  0.5532
 2005SOL    HW217478   4.168   0.172  15.833 -0.5498 -0.7195 -0.3882
 2006SOL     OW17479   3.423   1.184   8.267  0.1195  0.3842  0.2175
 2006SOL    HW117480   3.350   1.207   8.210 -1.0197  0.7108  1.8338
 2006SOL    HW217481   3.372   1.121   8.317  2.7585 -1.9427 -0.0348
 2007SOL     OW17482   4.127   2.983  16.514  0.3849  0.4401 -0.2770
 2007SOL    HW117483   4.110   3.027  16.431  2.0532 -0.1560 -0.9432
 2007SOL    HW217484   4.216   2.953  16.496 -0.0341  0.0207 -1.5880
 2008SOL     OW17485   3.277   3.344  12.300 -0.9938 -0.2864 -0.0297
 2008SOL    HW117486   3.198   3.371  12.348 -1.2308  0.8513 -1.0342
 2008SOL    HW217487   3.330   3.420  12.322  1.4039 -1.7888 -0.6905
 2009SOL     OW17488   0.692   3.334  17.099 -0.1271  0.1832  0.5746
 2009SOL    HW117489   0.608   3.323  17.142 -0.0028 -0.4742  0.6624
 2009SOL    HW217490   0.687   3.429  17.093 -1.5423 -0.0324 -1.8821
 2010SOL     OW17491   3.997   1.669   1.011  0.1452  0.0169 -0.6489
 2010SOL    HW117492   4.024   1.760   0.998  0.1265  0.2676  0.9989
 2010SOL    HW217493   3.903   1.688   1.005  0.2615 -0.0933 -2.6871
 2011SOL     OW17494   3.625   3.246   2.899  0.3552 -0.3604 -0.2693
 2011SOL    HW117495   3.600   3.247   2.806 -2.2835  1.4780  0.4552
 2011SOL    HW217496   3.540   3.255   2.941 -0.0193 -0.8062 -0.9243
 2012SOL     OW17497   3.321   1.925  15.319  0.0143  0.1530  0.4685
 2012SOL    HW117498   3.299   1.973  15.399 -1.3071  0.5166 -0.1097
 2012SOL    HW217499   3.231   1.906  15.291 -0.0450 -0.3433  1.0035
 2013SOL     OW17500   2.343   2.199   9.469  0.1238  0.1925 -0.3021
 2013SOL    HW117501   2.323   2.122   9.522  1.4294  2.7182  3.8529
 2013SOL    HW217502   2.333   2.263   9.539 -0.5151 -0.1654 -0.0618
 2014SOL     OW17503   4.594   1.852  13.038  0.2016  0.5025  0.0202
 2014SOL    HW117504   4.628   1.941  13.037  0.3137  0.4794  2.1900
 2014SOL    HW217505   4.566   1.846  12.946  2.0989  0.0814 -0.5443
 2015SOL     OW17506   3.319   2.706   7.167 -0.7216  0.0770 -0.1636
 2015SOL    HW117507   3.283   2.626   7.129 -0.2641 -0.2101  0.0097
 2015SOL    HW217508   3.360   2.673   7.247  0.6451  2.7802  0.2582
 2016SOL     OW17509   1.779   1.222   2.172  0.2793  0.1457  0.0329
 2016SOL    HW117510   1.686   1.224   2.191  0.2060 -1.5550 -0.1154
 2016SOL    HW217511   1.766   1.256   2.083 -1.7985  0.8700  0.6358
 2017SOL     OW17512   3.829   3.633   5.721  0.4256  0.0021 -0.3836
 2017SOL    HW117513   3.792   3.545   5.724 -0.1559  0.3287  2.2294
 2017SOL    HW217514   3.839   3.663   5.811  0.7672 -0.6967 -0.1890
 2018SOL     OW17515   1.508   3.639   5.370 -0.4364 -0.2229 -0.1062
 2018SOL    HW117516   1.537   3.557   5.330 -1.2016 -0.5548  0.0284
 2018SOL    HW217517   1.529   3.690   5.291  0.7752 -1.2634 -0.4505
 2019SOL     OW17518   1.492   0.141  12.500  0.6891  0.6589  0.5279
 2019SOL    HW117519   1.533   0.085  12.565  0.4132  1.4912  1.4083
 2019SOL    HW217520   1.561   0.207  12.488 -0.1910  1.7682  1.6385
 2020SOL     OW17521   2.045   0.068   7.031 -0.4766 -0.1343 -0.1756
 2020SOL    HW117522   2.078   0.118   7.105  1.9941 -1.4879 -0.3712
 2020SOL    HW217523   2.019   4.707   7.071 -0.3824  0.6340  1.4751
 2021SOL     OW17524   3.529   3.961   5.020  0.0312  0.3310 -0.1212
 2021SOL    HW117525   3.507   3.959   4.927 -0.0177  0.6067 -0.1150
 2021SOL    HW217526   3.437   3.958   5.046 -0.7759 -0.0972 -2.9666
 2022SOL     OW17527   2.423   2.006  12.501  0.2393 -0.3315 -0.6649
 2022SOL    HW117528   2.480   2.083  12.508 -0.3726  0.0081  0.5090
 2022SOL    HW217529   2.334   2.040  12.507  0.3241 -0.2350  0.0410
 2023SOL     OW17530   4.445   2.869   7.844 -0.6293  0.1923  0.3826
 2023SOL    HW117531   4.466   2.946   7.897  1.1329  2.6400 -3.8265
 2023SOL    HW217532   4.535   2.839   7.842 -0.7850 -0.1970 -1.1367
 2024SOL     OW17533   1.867   1.363  14.167  0.6844  0.0088  0.1552
 2024SOL    HW117534   1.787   1.398  14.204  1.6352  2.6457 -0.2712
 2024SOL    HW217535   1.882   1.427  14.097 -1.5112 -0.6014 -0.8772
 2025SOL     OW17536   3.072   0.105  10.292  0.1077 -0.1825 -0.5135
 2025SOL    HW117537   2.987   0.148  10.291 -0.2937 -0.8964  3.2733
 2025SOL    HW217538   3.128   0.176  10.259 -0.2893  0.9406  1.2298
 2026SOL     OW17539   0.677   3.129   9.266  0.4702  0.2943 -0.0411
 2026SOL    HW117540   0.734   3.063   9.305 -0.2416 -1.3171 -1.7308
 2026SOL    HW217541   0.677   3.202   9.328 -1.1091 -0.1907  0.5188
 2027SOL     OW17542   1.786   0.280   6.393 -0.2219  0.7933 -0.5867
 2027SOL    HW117543   1.833   0.211   6.346 -0.7655  1.0524 -1.5041
 2027SOL    HW217544   1.715   0.229   6.431  1.0700 -0.7694 -0.2605
 2028SOL     OW17545   2.527   0.225   0.213 -0.0758 -0.0477 -0.3942
 2028SOL    HW117546   2.519   0.320   0.213  0.0906 -0.0269  1.6255
 2028SOL    HW217547   2.614   0.196   0.241 -0.6094 -0.2586  1.0596
 2029SOL     OW17548   2.523   2.692   3.450 -0.0703  0.0207  0.6512
 2029SOL    HW117549   2.614   2.666   3.468  0.0550 -0.3479 -0.5363
 2029SOL    HW217550   2.513   2.756   3.521 -1.1597  1.0080 -0.4112
 2030SOL     OW17551   2.564   1.456   9.481 -0.1529 -0.1267 -0.8651
 2030SOL    HW117552   2.571   1.468   9.386  0.4533  1.7068 -0.5911
 2030SOL    HW217553   2.539   1.364   9.476 -0.9876 -0.0067  1.2735
 2031SOL     OW17554   3.140   2.183   7.160 -0.5979  0.0309  0.1826
 2031SOL    HW117555   3.090   2.198   7.240  1.0044  0.3197  1.1301
 2031SOL    HW217556   3.202   2.112   7.178 -0.6414 -0.6046 -2.2487
 2032SOL     OW17557   1.506   3.978   3.175 -0.2002  0.2911 -0.3347
 2032SOL    HW117558   1.535   4.055   3.224 -2.6654  2.0999 -1.7479
 2032SOL    HW217559   1.458   3.933   3.244  0.7514  1.2237  0.9491
 2033SOL     OW17560   2.599   0.997   5.882  0.0970  0.2661 -0.2944
 2033SOL    HW117561   2.627   1.053   5.810  0.2996  1.6260  0.8475
 2033SOL    HW217562   2.504   1.009   5.881 -0.2300 -2.0012  1.5514
 2034SOL     OW17563   0.810   2.317   2.889  0.2698  0.3662  0.1613
 2034SOL    HW117564   0.792   2.366   2.809 -1.6689  0.0958  0.4178
 2034SOL    HW217565   0.740   2.254   2.874  2.7578 -2.3954  0.3167
 2035SOL     OW17566   1.627   3.742   7.738  0.1795 -0.1147 -0.6405
 2035SOL    HW117567   1.666   3.655   7.749 -2.8630 -1.3579  0.2705
 2035SOL    HW217568   1.564   3.748   7.809 -2.2663  2.0075 -2.9756
 2036SOL     OW17569   4.155   3.361   3.195 -0.1769  0.6274 -0.0936
 2036SOL    HW117570   4.219   3.432   3.186  0.8015 -0.2316  0.0570
 2036SOL    HW217571   4.182   3.294   3.133  0.3136  0.7122  0.0283
 2037SOL     OW17572   1.551   0.018  14.878 -0.1879 -0.3277  0.6581
 2037SOL    HW117573   1.605   4.699  14.810 -0.8174 -0.6244  0.3414
 2037SOL    HW217574   1.498   0.079  14.827  0.9133 -0.4351 -0.6184
 2038SOL     OW17575   0.285   0.212  17.371 -0.0717  0.0150 -0.3844
 2038SOL    HW117576   0.329   0.129  17.384 -0.1054 -0.3251 -2.4071
 2038SOL    HW217577   0.205   0.189  17.323 -0.3160  1.4173 -0.6733
 2039SOL     OW17578   2.814   0.960   3.386  0.2437 -0.3625 -0.0704
 2039SOL    HW117579   2.754   0.891   3.359 -2.9181  2.6756 -0.8864
 2039SOL    HW217580   2.852   0.986   3.302 -0.1588 -0.5095 -0.2988
 2040SOL     OW17581   2.865   2.760   4.908 -0.1300 -0.2580 -0.3833
 2040SOL    HW117582   2.899   2.847   4.931  1.6749 -1.1465  0.2866
 2040SOL    HW217583   2.926   2.727   4.842 -0.0493 -1.3785  0.2585
 2041SOL     OW17584   1.558   2.951   3.558 -0.3232  0.2064 -0.6146
 2041SOL    HW117585   1.516   2.867   3.543  2.3071 -0.3891 -4.8176
 2041SOL    HW217586   1.651   2.930   3.551 -0.6819 -1.5101 -0.2777
 2042SOL     OW17587   2.176   4.672   5.890  0.3385 -0.2388  0.2617
 2042SOL    HW117588   2.170   4.663   5.795  1.4478  0.8004  0.0875
 2042SOL    HW217589   2.256   0.004   5.890 -0.0570  0.3564  0.3529
 2043SOL     OW17590   1.034   3.547   5.435  0.2311  0.0036  0.2764
 2043SOL    HW117591   1.019   3.619   5.373  0.3360 -0.0216  0.2215
 2043SOL    HW217592   1.124   3.550   5.468  0.7031  0.3368 -1.0394
 2044SOL     OW17593   2.350   0.036   9.212  0.5513 -0.3601 -0.0870
 2044SOL    HW117594   2.421   4.702   9.243  1.2292 -1.0685 -2.9760
 2044SOL    HW217595   2.366   0.031   9.118  1.0387 -1.7802  0.0781
 2045SOL     OW17596   0.029   2.934   1.585  0.1742 -0.4031  0.2217
 2045SOL    HW117597   4.671   2.930   1.639  0.2369  0.5152  0.3858
 2045SOL    HW217598   0.092   2.956   1.654  0.0571 -0.4189  0.3334
 2046SOL     OW17599   2.659   2.765   9.043  0.2942  0.0856  0.1410
 2046SOL    HW117600   2.642   2.856   9.021 -1.9744 -0.5018 -0.5100
 2046SOL    HW217601   2.748   2.785   9.074 -0.2947  5.0841 -1.4853
 2047SOL     OW17602   0.590   1.471   2.952  0.3853 -0.3730  0.4700
 2047SOL    HW117603   0.675   1.498   2.985 -0.4128  1.7612  0.7585
 2047SOL    HW217604   0.544   1.429   3.025 -1.5876  0.8761 -0.0471
 2048SOL     OW17605   3.564   2.253   2.285 -0.0990 -0.1197 -0.1217
 2048SOL    HW117606   3.576   2.161   2.261 -2.5945 -0.5075  0.1413
 2048SOL    HW217607   3.494   2.240   2.349  2.1813 -1.0333  2.1516
 2049SOL     OW17608   2.164   2.202   5.043  0.1386 -0.2435  0.2623
 2049SOL    HW117609   2.213   2.219   4.962  1.5497  0.9270  1.3526
 2049SOL    HW217610   2.202   2.261   5.108  0.2544 -1.5826  1.4210
 2050SOL     OW17611   4.167   2.584   4.218  0.1133  0.6040 -0.1419
 2050SOL    HW117612   4.254   2.547   4.204  0.0934  0.9928 -1.2491
 2050SOL    HW217613   4.121   2.504   4.244 -1.1145  0.7060 -2.0061
 2051SOL     OW17614   3.085   1.737   3.388 -0.1002  0.3396  0.0615
 2051SOL    HW117615   2.999   1.734   3.346 -1.1454 -0.0786  2.2300
 2051SOL    HW217616   3.113   1.648   3.367 -0.0603  0.3241  0.1794
 2052SOL     OW17617   0.360   4.221   8.324 -0.2411 -0.9651 -0.1120
 2052SOL    HW117618   0.455   4.232   8.318 -0.1844 -0.2855  2.1693
 2052SOL    HW217619   0.340   4.276   8.248 -0.0518  0.4047  0.8439
 2053SOL     OW17620   3.522   4.506   0.473  0.6001 -0.4348  0.4697
 2053SOL    HW117621   3.456   4.437   0.478  0.1750 -0.0624  0.0224
 2053SOL    HW217622   3.601   4.482   0.521  2.0163  0.4365 -1.3949
 2054SOL     OW17623   3.034   3.487   7.626 -0.2067 -0.2571 -0.4576
 2054SOL    HW117624   2.989   3.402   7.633  0.9203 -0.6439  2.0748
 2054SOL    HW217625   3.114   3.463   7.674  0.5455  1.5407 -0.8422
 2055SOL     OW17626   2.669   0.830   6.368 -0.4218 -0.2438  0.5417
 2055SOL    HW117627   2.671   0.904   6.428  0.0362 -0.1550  0.4199
 2055SOL    HW217628   2.735   0.855   6.302 -0.8092  0.5766  0.4673
 2056SOL     OW17629   2.305   0.243   8.188 -0.5155  0.1851 -0.4130
 2056SOL    HW117630   2.336   0.210   8.103 -2.2839  1.5917 -1.5988
 2056SOL    HW217631   2.352   0.188   8.250 -1.2603 -1.4092 -1.2541
 2057SOL     OW17632   1.439   2.977  16.793  0.4607  0.2623 -0.3946
 2057SOL    HW117633   1.534   2.977  16.798  0.4338  0.6806  0.1339
 2057SOL    HW217634   1.434   3.049  16.731 -0.6131  0.3176 -0.2475
 2058SOL     OW17635   1.209   3.565   6.362  0.1164 -0.2940 -0.6769
 2058SOL    HW117636   1.175   3.554   6.273 -0.8884 -1.6132 -0.1370
 2058SOL    HW217637   1.131   3.579   6.415  0.3485  1.3038 -0.7582
 2059SOL     OW17638   1.582   2.880  10.220 -0.2151  0.1686 -0.0565
 2059SOL    HW117639   1.587   2.939  10.145  0.4851  0.7426  0.4423
 2059SOL    HW217640   1.570   2.803  10.165 -1.6073 -0.9701  1.8434
 2060SOL     OW17641   3.487   4.648   4.219 -0.1583  0.3053  0.2843
 2060SOL    HW117642   3.411   4.669   4.274  0.0260  0.4690  0.4769
 2060SOL    HW217643   3.505   4.557   4.241  0.7535  0.0667 -1.4669
 2061SOL     OW17644   1.883   3.799   7.457  0.0032 -0.1024 -0.2969
 2061SOL    HW117645   1.872   3.719   7.509 -1.9674  1.1639  1.2563
 2061SOL    HW217646   1.920   3.771   7.374 -1.5996 -1.6209 -0.4841
 2062SOL     OW17647   4.070   0.037   5.140 -0.1147  0.0179 -0.5291
 2062SOL    HW117648   4.118   0.110   5.177 -1.5070  1.1091 -0.8865
 2062SOL    HW217649   4.146   4.702   5.149 -0.3163 -0.0421  0.7894
 2063SOL     OW17650   2.846   0.361   3.622  0.1439 -0.2189 -0.1901
 2063SOL    HW117651   2.848   0.381   3.716  1.9744 -0.1054 -0.2569
 2063SOL    HW217652   2.874   0.269   3.621 -0.8137 -0.4781 -2.1021
 2064SOL     OW17653   1.217   4.515   8.010 -0.1596  0.3699  0.6697
 2064SOL    HW117654   1.287   4.557   8.061  1.8745 -0.0475 -1.7620
 2064SOL    HW217655   1.162   4.472   8.075  0.1805 -2.9651 -1.2865
 2065SOL     OW17656   1.227   4.351   9.150 -0.3049 -0.0828 -0.1050
 2065SOL    HW117657   1.287   4.341   9.223  1.1099  0.3547 -1.2250
 2065SOL    HW217658   1.260   4.432   9.112  0.6724 -0.1127  0.6854
 2066SOL     OW17659   2.085   0.484  12.448 -0.0018  0.0342 -0.2152
 2066SOL    HW117660   2.138   0.548  12.400  0.0226  0.0049 -0.2268
 2066SOL    HW217661   2.021   0.460  12.381  0.6535 -0.6685 -0.5849
 2067SOL     OW17662   0.912   1.830   9.836  0.1470  0.0025  0.4539
 2067SOL    HW117663   0.946   1.755   9.887  2.9911  0.1982 -1.1342
 2067SOL    HW217664   0.927   1.816   9.743 -2.2598 -3.0122  0.5264
 2068SOL     OW17665   0.701   2.106   6.841  1.1081  0.0679 -0.4377
 2068SOL    HW117666   0.791   2.103   6.807  0.9396 -0.3329 -0.8426
 2068SOL    HW217667   0.651   2.164   6.783 -0.0673 -2.9790 -2.4456
 2069SOL     OW17668   0.330   2.304  15.144 -0.5860  0.0748 -0.0637
 2069SOL    HW117669   0.268   2.300  15.071 -1.6546  1.1652  0.7951
 2069SOL    HW217670   0.409   2.304  15.089 -1.6802 -0.7297 -1.6321
 2070SOL     OW17671   0.002   3.709   6.677  0.1948 -0.2828  0.2245
 2070SOL    HW117672   0.006   3.762   6.757 -0.0995 -0.1845  0.1735
 2070SOL    HW217673   4.711   3.771   6.606 -1.0132  0.5498  1.1526
 2071SOL     OW17674   0.397   4.055   8.801 -0.1902 -0.0131  0.0084
 2071SOL    HW117675   0.338   3.981   8.814 -0.1901  0.0353  0.2719
 2071SOL    HW217676   0.445   4.026   8.723  2.6736  0.2427  1.6911
 2072SOL     OW17677   3.016   0.641   8.998 -0.3094  0.4562  0.3029
 2072SOL    HW117678   2.995   0.555   8.962  2.9873  0.2017 -0.9728
 2072SOL    HW217679   2.923   0.662   8.997 -0.3210  0.4210  0.6839
 2073SOL     OW17680   3.852   2.729   8.370  0.2396 -0.3623 -0.5106
 2073SOL    HW117681   3.898   2.790   8.428  0.5815 -0.0266 -1.1293
 2073SOL    HW217682   3.918   2.732   8.300  0.1288  1.3321 -0.5479
 2074SOL     OW17683   0.237   4.522  12.372 -0.4383  0.1478  0.2626
 2074SOL    HW117684   0.229   4.615  12.393 -0.8760  0.3502 -0.7731
 2074SOL    HW217685   0.208   4.530  12.281 -1.1489 -2.2117  0.2984
 2075SOL     OW17686   1.572   1.148   7.868 -0.4594 -0.3787 -0.0420
 2075SOL    HW117687   1.567   1.148   7.963  0.3991 -0.8956  0.0043
 2075SOL    HW217688   1.660   1.185   7.853 -0.1469 -0.6575  1.1246
 2076SOL     OW17689   1.550   3.300  12.664 -0.1105 -0.2334 -0.9831
 2076SOL    HW117690   1.618   3.273  12.602 -0.6951 -0.7801 -1.3768
 2076SOL    HW217691   1.544   3.229  12.728  0.1454  0.3394 -0.3168
 2077SOL     OW17692   0.732   2.746   0.116 -0.4571  0.1899  0.0914
 2077SOL    HW117693   0.775   2.690   0.052 -2.4340  0.1338 -1.1571
 2077SOL    HW217694   0.640   2.724   0.104 -0.0724 -1.3185 -0.1056
 2078SOL     OW17695   2.780   4.460   5.846 -0.4171 -0.4259 -0.6064
 2078SOL    HW117696   2.702   4.469   5.901 -0.5869  0.8988 -1.0764
 2078SOL    HW217697   2.799   4.547   5.811  0.9171 -1.2810 -2.0007
 2079SOL     OW17698   4.310   3.164   6.417 -0.1514 -0.6544  0.0344
 2079SOL    HW117699   4.354   3.241   6.382 -0.4878 -1.4600 -2.1229
 2079SOL    HW217700   4.252   3.212   6.476  0.6158  0.3653 -0.0385
 2080SOL     OW17701   1.644   1.212   4.745  0.3256 -0.0399 -0.6080
 2080SOL    HW117702   1.548   1.209   4.750  0.4721 -2.4945  0.8945
 2080SOL    HW217703   1.644   1.303   4.774 -0.1469  0.6631 -2.8574
 2081SOL     OW17704   4.017   1.309   8.933 -0.0861  0.3094  0.3786
 2081SOL    HW117705   3.922   1.304   8.945 -0.0623 -1.3599 -0.0819
 2081SOL    HW217706   4.027   1.390   8.884 -2.0853 -1.0667 -2.2689
 2082SOL     OW17707   1.905   4.599   7.664 -0.6608 -0.2553  0.3646
 2082SOL    HW117708   1.829   4.573   7.716 -0.2384 -1.9226  0.1368
 2082SOL    HW217709   1.976   4.583   7.727  1.1565  1.1112 -1.3626
 2083SOL     OW17710   4.016   1.081   6.926 -0.4634 -0.0329  0.3008
 2083SOL    HW117711   3.947   1.033   6.880 -1.0988  0.0729  1.1417
 2083SOL    HW217712   4.034   1.010   6.988  3.6177  0.2809 -0.5322
 2084SOL     OW17713   1.448   3.063   5.967  0.0895  0.4467 -0.6316
 2084SOL    HW117714   1.373   3.005   5.977  0.1730 -0.0493 -2.8399
 2084SOL    HW217715   1.504   3.019   6.031 -0.5102  0.4904 -0.0793
 2085SOL     OW17716   0.070   3.205   6.283 -0.4655  0.4282 -0.5653
 2085SOL    HW117717   4.702   3.176   6.304 -0.5117 -0.0055 -1.3925
 2085SOL    HW217718   0.118   3.199   6.366 -0.3850  0.9929 -0.5722
 2086SOL     OW17719   0.895   3.183   4.283  0.0031  0.3835 -0.1507
 2086SOL    HW117720   0.852   3.107   4.323  1.9004 -1.6588 -1.9697
 2086SOL    HW217721   0.827   3.244   4.312  0.1945  0.4429  0.1717
 2087SOL     OW17722   4.099   3.279   3.977  0.5591 -0.3759  0.5888
 2087SOL    HW117723   4.139   3.201   3.939  0.8037 -0.6370  1.3886
 2087SOL    HW217724   4.007   3.253   3.987  1.0124 -1.7202  1.2612
 2088SOL     OW17725   1.807   3.945   5.797  0.2483 -0.6720 -0.1708
 2088SOL    HW117726   1.735   4.008   5.799  2.6167  2.0129  2.6543
 2088SOL    HW217727   1.882   3.988   5.839 -0.6858  1.7282 -1.0006
 2089SOL     OW17728   1.181   0.858  16.664 -0.3588  0.0697 -0.0589
 2089SOL    HW117729   1.153   0.801  16.592 -1.2366 -0.1493  0.4491
 2089SOL    HW217730   1.105   0.916  16.675  0.4148  1.0195  0.2131
 2090SOL     OW17731   1.363   1.498   4.164 -0.1526 -0.9067 -0.2017
 2090SOL    HW117732   1.449   1.523   4.199 -0.7715  1.5127 -0.4428
 2090SOL    HW217733   1.297   1.511   4.232 -0.4547  1.2489 -0.9215
 2091SOL     OW17734   1.469   0.660  12.980 -0.5607  0.2286  0.2814
 2091SOL    HW117735   1.380   0.683  12.954 -0.8186 -0.2206  0.7685
 2091SOL    HW217736   1.465   0.699  13.068 -3.8550 -0.2200  0.3375
 2092SOL     OW17737   1.686   3.309   8.756 -0.0275 -0.8032  0.1747
 2092SOL    HW117738   1.739   3.360   8.817 -1.9319  0.9623  0.3390
 2092SOL    HW217739   1.702   3.354   8.673 -1.0967  0.4266  0.6373
 2093SOL     OW17740   2.151   2.963   3.199 -0.0510  0.0026 -0.3062
 2093SOL    HW117741   2.111   2.919   3.123  0.9562  2.3025 -2.1655
 2093SOL    HW217742   2.238   2.924   3.208  0.3278  1.0757  0.6408
 2094SOL     OW17743   1.818   2.017  12.073  0.1174 -0.0492  0.3300
 2094SOL    HW117744   1.784   1.948  12.130  0.1473  0.8832  1.4496
 2094SOL    HW217745   1.740   2.046  12.026 -0.0617 -3.1793 -1.3261
 2095SOL     OW17746   1.258   3.684   7.643  0.1716 -0.3329 -0.4221
 2095SOL    HW117747   1.238   3.715   7.555  0.3428  1.8515  0.2960
 2095SOL    HW217748   1.280   3.764   7.691  0.5832 -1.1610  0.7638
 2096SOL     OW17749   2.944   4.217   2.343 -0.2876 -0.0934  0.4538
 2096SOL    HW117750   2.989   4.177   2.269 -1.6660 -1.1459  0.1964
 2096SOL    HW217751   2.861   4.245   2.306 -0.2821 -0.3674  0.2396
 2097SOL     OW17752   0.453   1.096   3.319  0.1925  0.1872  0.0474
 2097SOL    HW117753   0.375   1.061   3.361  0.0419  0.2269 -0.1966
 2097SOL    HW217754   0.454   1.183   3.357  0.1122  1.3254 -2.5545
 2098SOL     OW17755   2.706   0.009   6.191  0.6564 -0.0316 -0.2785
 2098SOL    HW117756   2.771   4.671   6.228 -1.3725 -2.8686 -1.2489
 2098SOL    HW217757   2.673   4.683   6.115 -2.3584  0.7646  0.5311
 2099SOL     OW17758   1.155   0.614   2.900  0.0350  0.9055 -0.2183
 2099SOL    HW117759   1.145   0.531   2.854  1.1164  0.3366  0.5735
 2099SOL    HW217760   1.169   0.661   2.818 -1.2401  2.8123  0.6377
 2100SOL     OW17761   2.840   1.526   1.873 -0.0150 -0.4980 -0.2816
 2100SOL    HW117762   2.754   1.546   1.911  0.1775  0.0995 -0.1517
 2100SOL    HW217763   2.837   1.597   1.809  0.7312  1.1931  1.5630
 2101SOL     OW17764   4.535   1.716  10.463 -0.1207 -0.4161 -0.2312
 2101SOL    HW117765   4.474   1.694  10.393  1.2672 -1.7686 -1.0110
 2101SOL    HW217766   4.602   1.652  10.438  0.5444 -0.3532  1.3945
 2102SOL     OW17767   1.808   4.701   5.725 -0.6900  0.0002 -0.5942
 2102SOL    HW117768   1.835   0.055   5.674  0.5339 -1.2138 -1.7361
 2102SOL    HW217769   1.827   4.630   5.664  0.8111  0.6504 -0.8617
 2103SOL     OW17770   0.818   3.245   7.343 -0.4036  0.5077 -0.3268
 2103SOL    HW117771   0.790   3.246   7.434  2.4899  1.1889  0.5331
 2103SOL    HW217772   0.743   3.203   7.300  1.7428  0.2339 -3.8478
 2104SOL     OW17773   0.873   4.166   6.072 -0.0250 -0.2737  0.2325
 2104SOL    HW117774   0.936   4.218   6.122  0.1008 -1.1781  1.0118
 2104SOL    HW217775   0.903   4.189   5.985 -1.6074 -1.8954 -0.7269
 2105SOL     OW17776   1.372   0.484   1.445 -0.3402 -0.2771  0.1400
 2105SOL    HW117777   1.365   0.468   1.539 -0.4697  1.6621  0.4540
 2105SOL    HW217778   1.369   0.579   1.450 -2.4058 -0.2227 -1.8643
 2106SOL     OW17779   2.498   2.989   9.472 -0.3198  0.0744 -0.4214
 2106SOL    HW117780   2.537   2.951   9.550 -0.5385  0.6752 -0.0192
 2106SOL    HW217781   2.415   2.941   9.464  1.0264 -2.3481 -0.0535
 2107SOL     OW17782   0.817   1.919   3.072 -0.3589  0.5839  0.1591
 2107SOL    HW117783   0.909   1.932   3.048 -0.8795  1.6314 -1.3199
 2107SOL    HW217784   0.776   1.949   2.991 -2.3671 -2.2978  0.1284
 2108SOL     OW17785   0.258   2.400   9.878 -0.6534  0.3006  0.4799
 2108SOL    HW117786   0.280   2.324   9.932 -1.3767 -0.1749  0.1135
 2108SOL    HW217787   0.239   2.461   9.949  0.4759  0.7942  0.3599
 2109SOL     OW17788   1.921   2.916   7.266  0.1163  0.0467 -0.1028
 2109SOL    HW117789   1.937   2.897   7.358 -1.7280  1.1518  0.4242
 2109SOL    HW217790   1.991   2.981   7.255  2.9932 -3.0033 -0.1084
 2110SOL     OW17791   2.603   4.713   7.607  0.4436  0.4354  0.0235
 2110SOL    HW117792   2.600   4.639   7.667  0.0978  1.1874  0.9378
 2110SOL    HW217793   2.510   0.011   7.604  0.3501 -0.2125 -1.0098
 2111SOL     OW17794   3.621   4.268   7.482 -1.0340  0.1682 -0.1408
 2111SOL    HW117795   3.574   4.259   7.399 -0.8203 -0.2805 -0.2137
 2111SOL    HW217796   3.555   4.300   7.543  0.1796 -1.6944  2.1360
 2112SOL     OW17797   3.574   3.734   7.322 -0.8007 -0.0931  0.0038
 2112SOL    HW117798   3.546   3.800   7.258  0.6619 -0.3075 -0.8513
 2112SOL    HW217799   3.618   3.670   7.267 -0.8122  1.4765 -1.8244
 2113SOL     OW17800   4.496   3.197   3.844  0.0003 -0.0449  0.2694
 2113SOL    HW117801   4.486   3.260   3.916 -2.2193  1.7685 -1.6255
 2113SOL    HW217802   4.590   3.186   3.854  0.2084  0.7851 -0.8620
 2114SOL     OW17803   1.570   4.510   5.145 -0.2474  0.1069 -0.1927
 2114SOL    HW117804   1.505   4.469   5.202 -0.7001  1.0572 -0.0284
 2114SOL    HW217805   1.656   4.472   5.158 -0.8697 -1.1653  0.1864
 2115SOL     OW17806   4.591   4.077  10.160 -0.0395  0.0726  0.0805
 2115SOL    HW117807   4.514   4.098  10.213 -0.3444 -0.1356 -0.2859
 2115SOL    HW217808   4.621   3.993  10.197 -0.8030 -0.7698 -1.2175
 2116SOL     OW17809   1.825   1.145   3.736  0.0540  0.1465  0.4509
 2116SOL    HW117810   1.833   1.109   3.648 -0.1602 -1.2785  1.0131
 2116SOL    HW217811   1.751   1.204   3.746 -0.4982 -0.5705  0.5882
 2117SOL     OW17812   0.928   4.055  17.043  0.2613  0.2091  0.1802
 2117SOL    HW117813   0.964   4.028  16.959  0.3120 -0.4307  0.4088
 2117SOL    HW217814   0.943   4.150  17.039 -0.9146  0.4102  0.7443
 2118SOL     OW17815   1.375   1.602   8.676  0.5760  0.1912 -0.0107
 2118SOL    HW117816   1.362   1.576   8.767  0.8950 -1.3022 -0.3867
 2118SOL    HW217817   1.298   1.559   8.638  1.6373 -1.7671  0.0791
 2119SOL     OW17818   4.584   3.241   9.183 -0.0926 -0.1388 -0.2799
 2119SOL    HW117819   4.555   3.210   9.097  1.1348 -0.5903 -0.5347
 2119SOL    HW217820   4.657   3.181   9.203  1.2109  0.8875 -1.9540
 2120SOL     OW17821   3.573   4.153  14.605  0.0264 -0.8431  0.1195
 2120SOL    HW117822   3.656   4.194  14.629 -1.1029  1.1527  0.5684
 2120SOL    HW217823   3.597   4.094  14.534  0.5328 -1.5483  0.8715
 2121SOL     OW17824   2.934   1.832  16.121 -0.0190 -0.7380  0.0809
 2121SOL    HW117825   2.989   1.776  16.066  0.3886  2.4448 -2.7020
 2121SOL    HW217826   2.961   1.783  16.198  0.7548 -0.1867  0.1535
 2122SOL     OW17827   3.387   0.086  16.867  0.1705  0.0620 -0.5817
 2122SOL    HW117828   3.334   0.085  16.787  0.5503 -0.0669 -0.8345
 2122SOL    HW217829   3.476   0.085  16.833 -0.2624  0.6077 -1.7247
 2123SOL     OW17830   1.734   1.545   3.903 -1.0492  0.4749 -0.1435
 2123SOL    HW117831   1.721   1.635   3.875 -3.0861  0.4843  0.8502
 2123SOL    HW217832   1.731   1.509   3.814  0.9518  0.3504 -0.1805
 2124SOL     OW17833   1.001   3.468  13.560 -0.2789  0.3260  0.2814
 2124SOL    HW117834   1.038   3.456  13.472  1.9447  1.1236  1.1262
 2124SOL    HW217835   1.013   3.561  13.579 -0.8378  0.6583 -0.9433
 2125SOL     OW17836   3.068   0.914   5.434  0.2456 -0.2248  0.4195
 2125SOL    HW117837   3.076   0.898   5.341  1.4642  2.0460  0.1323
 2125SOL    HW217838   3.046   1.008   5.430  0.1695 -0.3545 -2.0903
 2126SOL     OW17839   2.710   1.901  17.075 -0.3228  0.6588 -0.2895
 2126SOL    HW117840   2.703   1.913  17.170  0.1194  1.4022 -0.3536
 2126SOL    HW217841   2.625   1.930  17.041  0.0908  2.5229  0.2706
 2127SOL     OW17842   1.250   2.764  16.807  0.4166 -0.2774  0.1041
 2127SOL    HW117843   1.341   2.790  16.793  0.9679 -0.7079  2.7773
 2127SOL    HW217844   1.213   2.850  16.827 -0.8821 -0.8599  0.1886
 2128SOL     OW17845   0.093   2.984   0.824 -0.3349  0.5908  0.3619
 2128SOL    HW117846   0.037   3.061   0.811 -2.7622 -1.6128 -2.3701
 2128SOL    HW217847   0.033   2.932   0.878 -0.3003 -0.6698 -0.8077
 2129SOL     OW17848   1.219   3.816   1.798 -0.1269 -0.1721  0.8456
 2129SOL    HW117849   1.148   3.787   1.740 -0.4067  1.0947  0.5494
 2129SOL    HW217850   1.200   3.907   1.821 -2.8063 -0.6794  0.5397
 2130SOL     OW17851   0.082   1.018  17.362  0.1455  0.0464  0.3288
 2130SOL    HW117852   0.154   1.000  17.301  0.6762  1.8143  0.4140
 2130SOL    HW217853   0.045   1.098  17.326  1.9830  0.8895  0.2996
 2131SOL     OW17854   3.447   2.936   1.778 -0.6424  0.0443 -0.2128
 2131SOL    HW117855   3.360   2.938   1.819  0.1191  0.0880  1.3942
 2131SOL    HW217856   3.513   2.900   1.837  1.3919  1.5183 -1.6290
 2132SOL     OW17857   4.043   4.321  17.596  0.3879 -0.0574 -0.4058
 2132SOL    HW117858   4.077   4.404  17.564 -1.9403  0.2511 -2.0304
 2132SOL    HW217859   4.109   4.297  17.661 -1.2290 -0.1603  1.1931
 2133SOL     OW17860   3.248   1.739   9.138  0.0392 -1.2047 -0.0339
 2133SOL    HW117861   3.189   1.747   9.213  1.1981 -3.0953  1.0770
 2133SOL    HW217862   3.322   1.694   9.178 -0.7965 -1.7561  0.8925
 2134SOL     OW17863   3.344   3.860   7.459 -0.2295 -0.4316 -0.2519
 2134SOL    HW117864   3.295   3.854   7.377 -0.7411 -0.9797  0.0993
 2134SOL    HW217865   3.369   3.769   7.473 -0.4618 -0.4897 -0.2221
 2135SOL     OW17866   2.247   1.414  16.706 -0.1582 -0.4287 -0.0483
 2135SOL    HW117867   2.286   1.344  16.654  1.4052 -0.2489  0.9087
 2135SOL    HW217868   2.180   1.462  16.656  1.1508  0.5532 -0.8681
 2136SOL     OW17869   3.248   0.150   6.463  0.1469 -0.3072 -0.2965
 2136SOL    HW117870   3.335   0.190   6.464 -0.8291  1.8381 -2.0251
 2136SOL    HW217871   3.213   0.174   6.377  1.6979  0.6787 -0.6509
 2137SOL     OW17872   3.772   1.962   6.362 -0.6156  0.4241 -0.2833
 2137SOL    HW117873   3.789   1.869   6.376  1.7042  0.9470  0.3678
 2137SOL    HW217874   3.785   1.984   6.454 -3.1098  0.9031 -0.0364
 2138SOL     OW17875   1.317   0.956  13.191 -0.0745  0.2715 -0.0370
 2138SOL    HW117876   1.244   0.895  13.198 -1.4969  1.6437 -2.5790
 2138SOL    HW217877   1.372   0.919  13.259 -0.0496 -1.3325 -0.9266
 2139SOL     OW17878   2.048   3.386   8.402 -0.3007 -0.9093 -0.3279
 2139SOL    HW117879   2.002   3.451   8.455  1.3427  0.0501 -0.0704
 2139SOL    HW217880   2.094   3.439   8.337 -2.0725 -1.5660 -2.1249
 2140SOL     OW17881   1.672   3.653   6.730  0.8872 -0.0056 -0.2140
 2140SOL    HW117882   1.700   3.585   6.790  0.0355 -1.3842 -1.3874
 2140SOL    HW217883   1.728   3.630   6.655  1.2895 -0.5322  0.2525
 2141SOL     OW17884   2.175   3.868   0.611  0.4477  0.4185 -0.4434
 2141SOL    HW117885   2.115   3.798   0.587  0.2340  0.8793 -1.2603
 2141SOL    HW217886   2.143   3.929   0.545  1.4153 -0.0477 -1.3458
 2142SOL     OW17887   0.470   4.287   4.255 -0.1867  0.0194  0.0909
 2142SOL    HW117888   0.398   4.227   4.274 -1.4421  1.0033 -1.5364
 2142SOL    HW217889   0.430   4.369   4.283  2.3104  1.5131 -0.7178
 2143SOL     OW17890   0.511   3.268   4.159  0.1175 -0.2841 -0.5761
 2143SOL    HW117891   0.465   3.299   4.081 -3.0539 -0.4247  1.2264
 2143SOL    HW217892   0.494   3.174   4.169 -3.0592  0.2476 -0.9130
 2144SOL     OW17893   4.283   2.964   7.626  0.5153  0.0402 -0.4646
 2144SOL    HW117894   4.326   2.908   7.690  3.7000  0.3069 -2.3662
 2144SOL    HW217895   4.354   3.002   7.574  1.0010  2.8891  2.2787
 2145SOL     OW17896   3.855   4.632   1.075  0.3317 -0.5364  0.0847
 2145SOL    HW117897   3.864   4.563   1.141 -1.5768 -0.0229  0.8721
 2145SOL    HW217898   3.762   4.656   1.081  0.6658  0.8630 -0.3736
 2146SOL     OW17899   0.777   0.859  14.843  0.5740 -0.1616 -0.2493
 2146SOL    HW117900   0.825   0.809  14.909 -0.8341 -1.7446 -0.4403
 2146SOL    HW217901   0.704   0.799  14.829  2.1600 -2.3138  0.7565
 2147SOL     OW17902   1.679   2.367   8.396  0.3470  0.2747 -0.2834
 2147SOL    HW117903   1.655   2.458   8.378 -0.8704  0.0719  0.3001
 2147SOL    HW217904   1.600   2.343   8.445  0.5239  1.7718  0.7261
 2148SOL     OW17905   3.104   0.629   5.233  0.2810  0.0299 -0.1817
 2148SOL    HW117906   3.165   0.600   5.166  0.7164 -0.3755  0.3967
 2148SOL    HW217907   3.083   0.719   5.207 -0.6474 -1.3495 -4.2898
 2149SOL     OW17908   1.249   2.616   5.538 -0.0500  0.0414  0.0337
 2149SOL    HW117909   1.244   2.680   5.608  2.1643  0.9833 -0.6632
 2149SOL    HW217910   1.157   2.603   5.515  0.1306 -1.3600  0.0587
 2150SOL     OW17911   2.777   2.852   5.867 -0.8184  0.1841 -0.8561
 2150SOL    HW117912   2.791   2.923   5.805 -0.9094  0.9231 -0.0295
 2150SOL    HW217913   2.683   2.861   5.887 -0.8336 -0.2439 -0.7246
 2151SOL     OW17914   2.405   1.299   8.731  0.2873  0.4262 -0.1184
 2151SOL    HW117915   2.372   1.345   8.808 -0.5828 -1.5527  0.6971
 2151SOL    HW217916   2.406   1.367   8.663  1.1039  0.6779  0.1564
 2152SOL     OW17917   3.290   1.922   6.682  0.2397  0.1313 -0.7156
 2152SOL    HW117918   3.347   1.879   6.746 -1.3528  0.5956  1.0344
 2152SOL    HW217919   3.243   1.841   6.663  0.9823 -0.5570  0.3782
 2153SOL     OW17920   1.978   2.395   2.742  0.6891 -0.4639 -0.3516
 2153SOL    HW117921   1.955   2.334   2.673  0.2586 -1.3512  0.5833
 2153SOL    HW217922   1.952   2.479   2.704  1.6939  1.2776  2.7678
 2154SOL     OW17923   4.137   1.076   7.556 -0.3712  0.6300  0.1719
 2154SOL    HW117924   4.158   1.156   7.507  0.5805 -0.0578 -0.5323
 2154SOL    HW217925   4.089   1.104   7.634  0.6725  3.2751 -0.1271
 2155SOL     OW17926   4.131   2.801   5.779 -0.4185 -0.1485 -0.3405
 2155SOL    HW117927   4.183   2.721   5.782 -1.2593 -0.7061 -0.5305
 2155SOL    HW217928   4.048   2.754   5.770  0.1699 -1.4403  1.0203
 2156SOL     OW17929   2.411   4.421   6.898 -0.2394 -0.4196 -0.5985
 2156SOL    HW117930   2.448   4.497   6.943  0.5361 -1.7924  1.0749
 2156SOL    HW217931   2.325   4.458   6.876  1.1342  2.7693 -0.6553
 2157SOL     OW17932   0.477   4.397   3.969  0.3149  0.6063 -0.8719
 2157SOL    HW117933   0.433   4.323   4.013 -0.6499  2.5083  1.3756
 2157SOL    HW217934   0.421   4.401   3.892  0.8354 -0.1554 -1.2895
 2158SOL     OW17935   3.872   1.793   9.658 -0.5131 -0.1826 -0.0983
 2158SOL    HW117936   3.821   1.721   9.621  0.0854  0.4648 -2.2164
 2158SOL    HW217937   3.831   1.874   9.626  0.4945  0.2055 -0.4048
 2159SOL     OW17938   4.066   0.135   2.767  0.0621 -0.3967 -0.2757
 2159SOL    HW117939   4.114   0.217   2.752  0.1558 -0.9026 -2.7204
 2159SOL    HW217940   4.037   0.146   2.857 -0.7555 -0.4317 -0.5413
 2160SOL     OW17941   2.451   2.632   5.042 -0.3031 -0.0378 -0.7995
 2160SOL    HW117942   2.535   2.665   5.075  0.0774  0.1094 -1.8814
 2160SOL    HW217943   2.482   2.553   4.998  0.9461 -1.4911  2.7197
 2161SOL     OW17944   2.234   1.957   9.580 -0.1397  0.0795 -0.3020
 2161SOL    HW117945   2.180   1.880   9.559 -0.7691  0.0300  1.4697
 2161SOL    HW217946   2.278   1.917   9.655  0.9074 -1.0246 -1.4886
 2162SOL     OW17947   1.150   0.014   8.825  0.1216 -0.3093  0.6199
 2162SOL    HW117948   1.092   0.064   8.768 -2.5639 -3.8212  0.2601
 2162SOL    HW217949   1.215   0.082   8.841 -0.4872  0.7133 -1.2694
 2163SOL     OW17950   4.679   2.572   3.374 -0.4261 -0.1882  0.4191
 2163SOL    HW117951   4.682   2.514   3.297 -0.2613 -0.2558  0.4778
 2163SOL    HW217952   0.030   2.633   3.361  1.3256 -2.7881 -1.9608
 2164SOL     OW17953   3.658   0.640   4.649 -0.0216 -0.3590 -0.7782
 2164SOL    HW117954   3.655   0.544   4.645 -0.4641 -0.4123  0.8395
 2164SOL    HW217955   3.752   0.648   4.668 -0.0721  2.8675 -1.8846
 2165SOL     OW17956   3.373   2.447   2.993  0.4377  0.1050  0.2020
 2165SOL    HW117957   3.307   2.504   3.033  0.2796 -0.2066  0.3890
 2165SOL    HW217958   3.312   2.377   2.970  0.6491 -0.0942  0.2456
 2166SOL     OW17959   3.380   3.226  15.220 -0.3144 -0.0792 -0.3325
 2166SOL    HW117960   3.335   3.299  15.178  0.4983  0.7814  0.2987
 2166SOL    HW217961   3.302   3.170  15.224 -1.0756  0.9873 -0.2091
 2167SOL     OW17962   3.892   1.183  16.904  0.6861  0.1168  0.5314
 2167SOL    HW117963   3.931   1.260  16.862  1.4861 -0.5235  0.0949
 2167SOL    HW217964   3.816   1.220  16.948 -0.1542  1.3842 -1.9712
 2168SOL     OW17965   0.210   2.883   7.719  0.5453 -0.2153  0.1910
 2168SOL    HW117966   0.261   2.805   7.700 -2.4573 -2.3486  0.8434
 2168SOL    HW217967   0.235   2.939   7.645 -1.1794 -0.1426 -0.3361
 2169SOL     OW17968   1.264   0.517  11.867 -0.1168  0.1795  0.4890
 2169SOL    HW117969   1.210   0.550  11.939  0.0540  2.6976 -0.5334
 2169SOL    HW217970   1.202   0.457  11.825  1.9171 -2.2025  0.8938
 2170SOL     OW17971   3.094   1.760  13.695 -0.3145  0.2254 -0.4212
 2170SOL    HW117972   3.093   1.724  13.606 -2.4776 -0.5539 -0.0858
 2170SOL    HW217973   2.999   1.758  13.709 -0.0131 -1.2474  1.4134
 2171SOL     OW17974   3.616   1.924   2.550  0.5232  0.4707 -0.5499
 2171SOL    HW117975   3.641   1.861   2.617 -0.9861  1.3086  0.7685
 2171SOL    HW217976   3.556   1.981   2.598  0.7085  1.4843 -1.5008
 2172SOL     OW17977   1.602   4.359  13.743  0.3137  0.0452 -0.0090
 2172SOL    HW117978   1.604   4.384  13.835  0.3381 -2.8710  0.7609
 2172SOL    HW217979   1.510   4.339  13.728  0.1549  1.3892 -0.8723
 2173SOL     OW17980   4.337   3.168   7.103 -0.0539 -0.0877  0.6304
 2173SOL    HW117981   4.330   3.114   7.181  0.6538  1.5457  1.8144
 2173SOL    HW217982   4.430   3.187   7.102  0.1489 -1.0392  1.7947
 2174SOL     OW17983   4.346   3.239   5.852 -0.3507  0.1023 -0.0776
 2174SOL    HW117984   4.268   3.295   5.847 -1.1378 -1.0524 -0.8495
 2174SOL    HW217985   4.315   3.153   5.823  0.6906  0.0620 -1.0431
 2175SOL     OW17986   4.416   4.032  17.523  0.9666  0.2739  0.2963
 2175SOL    HW117987   4.427   4.123  17.496  2.8035  0.3552  1.3076
 2175SOL    HW217988   4.403   3.986  17.440 -1.4919  0.6238  0.4727
 2176SOL     OW17989   4.439   4.178  11.235  0.1572 -0.0408 -0.8280
 2176SOL    HW117990   4.387   4.259  11.230  2.7663  1.6644 -0.2420
 2176SOL    HW217991   4.460   4.170  11.142 -0.0409 -1.9115 -0.7003
 2177SOL     OW17992   1.600   3.695   0.591  0.2892 -0.6188  0.0538
 2177SOL    HW117993   1.558   3.666   0.509 -0.9342 -0.0299  0.4651
 2177SOL    HW217994   1.601   3.620   0.651 -0.0461 -0.6301  0.0449
 2178SOL     OW17995   3.300   3.610   7.377  0.7195 -0.7988  0.0919
 2178SOL    HW117996   3.207   3.604   7.355  0.6456  2.8678 -0.5347
 2178SOL    HW217997   3.333   3.554   7.306  0.5985  0.1987 -0.7490
 2179SOL     OW17998   1.422   3.722   7.938  0.1121  0.3385  0.6556
 2179SOL    HW117999   1.345   3.773   7.913 -0.7686 -0.8987  0.8689
 2179SOL    HW218000   1.406   3.633   7.908  3.6901  0.1170 -0.5939
 2180SOL     OW18001   1.827   1.206   7.868  0.2611  0.0909  0.1491
 2180SOL    HW118002   1.868   1.288   7.839  0.5608  0.4059  1.4440
 2180SOL    HW218003   1.787   1.234   7.951  1.5161  1.4584  0.3056
 2181SOL     OW18004   3.645   1.880   6.110 -0.6157 -0.2474  0.0825
 2181SOL    HW118005   3.564   1.839   6.080  0.4540 -1.3228 -1.3700
 2181SOL    HW218006   3.660   1.827   6.188 -1.6552  0.1171  0.5184
 2182SOL     OW18007   0.995   1.066   1.782  0.0111  0.1076 -0.4028
 2182SOL    HW118008   1.085   1.085   1.807  0.0545 -3.0260  1.7298
 2182SOL    HW218009   0.993   1.117   1.701  2.7559 -1.0615 -1.2015
 2183SOL     OW18010   2.589   0.439   3.206 -0.7583  0.4412  0.1801
 2183SOL    HW118011   2.609   0.461   3.297 -0.1005  0.6178 -0.0042
 2183SOL    HW218012   2.579   0.529   3.173  1.3541 -0.3003 -2.4701
 2184SOL     OW18013   3.217   3.202   1.805  0.1682 -0.1853 -0.0435
 2184SOL    HW118014   3.206   3.282   1.856 -1.2463  0.9490 -2.1486
 2184SOL    HW218015   3.136   3.154   1.824  0.3713 -0.5396 -0.0763
 2185SOL     OW18016   0.207   3.929   4.440  0.5368 -0.2480  0.4710
 2185SOL    HW118017   0.215   3.864   4.370 -1.3026 -1.4880  1.4144
 2185SOL    HW218018   0.292   3.913   4.482  0.0207  1.5404  2.1707
 2186SOL     OW18019   4.381   2.539  10.420  0.0152 -0.4303 -0.3574
 2186SOL    HW118020   4.460   2.487  10.434  0.6773  0.8027  0.4952
 2186SOL    HW218021   4.411   2.583  10.340 -0.8511 -1.7704 -1.4127
 2187SOL     OW18022   4.192   0.972  15.967  0.0651  0.3054 -0.0023
 2187SOL    HW118023   4.128   1.014  16.023 -0.1969 -1.6579  1.1686
 2187SOL    HW218024   4.247   0.934  16.035  1.4116 -1.4506 -2.0455
 2188SOL     OW18025   2.478   2.496   2.997  0.0666 -0.4979  0.0305
 2188SOL    HW118026   2.523   2.574   2.963 -0.4792 -0.0759  0.2857
 2188SOL    HW218027   2.427   2.476   2.918 -0.6188  1.9142 -0.1638
 2189SOL     OW18028   3.356   1.710  13.841 -0.0797 -0.0004 -0.2713
 2189SOL    HW118029   3.280   1.712  13.783 -0.6592 -0.9437  0.4613
 2189SOL    HW218030   3.433   1.735  13.790  0.3306  0.3735  0.5313
 2190SOL     OW18031   0.906   0.398   3.977 -0.6191 -0.5571  0.2928
 2190SOL    HW118032   0.996   0.426   3.989 -0.9597  1.3801 -1.7989
 2190SOL    HW218033   0.868   0.398   4.066 -0.3894 -0.2729  0.3893
 2191SOL     OW18034   3.771   2.124   3.407 -0.4530 -0.1541  0.0599
 2191SOL    HW118035   3.765   2.119   3.312 -1.3904 -2.6642  0.2717
 2191SOL    HW218036   3.793   2.037   3.440  2.1959  0.7345  0.6808
 2192SOL     OW18037   0.922   2.541   6.274 -0.4421 -0.0025  0.3137
 2192SOL    HW118038   0.948   2.562   6.363 -0.0277  0.7311  0.0167
 2192SOL    HW218039   0.935   2.446   6.270 -1.4156 -0.1191 -0.0091
 2193SOL     OW18040   1.337   4.146  15.003 -0.0994  0.6791 -0.9561
 2193SOL    HW118041   1.405   4.206  14.974  0.7079 -0.6432 -1.7867
 2193SOL    HW218042   1.352   4.144  15.098 -6.2572 -0.4808  0.0287
 2194SOL     OW18043   1.608   0.452  12.432 -0.2873  0.3535  0.1805
 2194SOL    HW118044   1.566   0.515  12.490  2.6383  1.9193  0.6170
 2194SOL    HW218045   1.584   0.488  12.347  1.6925 -0.6352 -0.8057
 2195SOL     OW18046   1.297   4.679   2.553  0.0408 -0.3964 -0.1557
 2195SOL    HW118047   1.246   0.031   2.519 -0.1930 -0.6347 -0.3270
 2195SOL    HW218048   1.353   4.665   2.477 -0.4050 -0.9551 -0.3820
 2196SOL     OW18049   2.994   2.080   6.937 -0.4763 -0.2847 -0.3633
 2196SOL    HW118050   3.031   2.118   7.016 -0.5010  0.5688 -0.7622
 2196SOL    HW218051   3.047   2.123   6.870 -0.9825  0.2106 -0.4434
 2197SOL     OW18052   0.703   2.558  16.533  0.7018 -0.0329 -0.0615
 2197SOL    HW118053   0.762   2.632  16.520  0.5232  0.2612  0.7918
 2197SOL    HW218054   0.620   2.596  16.504  0.1062 -2.6745 -1.8074
 2198SOL     OW18055   3.273   4.459  12.880 -0.0244 -0.4954 -0.4680
 2198SOL    HW118056   3.222   4.526  12.835 -2.7797 -0.9284  1.9280
 2198SOL    HW218057   3.272   4.383  12.822 -3.2724 -0.8964  0.0915
 2199SOL     OW18058   1.435   0.571  13.428 -0.1421 -0.0402  0.2503
 2199SOL    HW118059   1.440   0.511  13.354 -1.4605 -0.5099  0.5451
 2199SOL    HW218060   1.466   0.509  13.494 -2.3740 -1.2450  0.1494
 2200SOL     OW18061   2.475   0.217  12.043  0.2151  0.3517 -0.2084
 2200SOL    HW118062   2.480   0.206  12.138  2.3818  0.2893 -0.3418
 2200SOL    HW218063   2.380   0.208  12.039  0.3447 -0.2592 -1.5794
 2201SOL     OW18064   4.242   3.701  14.738  0.2193  0.3835  0.1480
 2201SOL    HW118065   4.234   3.746  14.654  2.0276 -1.3058 -0.9314
 2201SOL    HW218066   4.207   3.769  14.795  1.1589  0.2816  0.8511
 2202SOL     OW18067   3.780   0.667   3.022  0.0758 -0.0319 -0.4252
 2202SOL    HW118068   3.869   0.637   3.039  0.2003  0.7283  0.2051
 2202SOL    HW218069   3.737   0.665   3.107  1.0633  1.6176  0.0925
 2203SOL     OW18070   0.256   2.142   7.518 -0.2212  0.3762 -0.1837
 2203SOL    HW118071   0.260   2.112   7.608  1.9415 -0.1983 -0.4732
 2203SOL    HW218072   0.257   2.059   7.471 -1.8970  0.4626 -0.4016
 2204SOL     OW18073   4.267   3.891   1.200  0.3085  0.2273  0.4814
 2204SOL    HW118074   4.196   3.949   1.227 -0.2184  0.0172 -0.4618
 2204SOL    HW218075   4.288   3.843   1.280 -1.3834 -0.7482  0.3330
 2205SOL     OW18076   3.348   1.417   7.787  0.3041 -0.2633  0.5388
 2205SOL    HW118077   3.261   1.415   7.828 -1.6398  0.9825 -3.4919
 2205SOL    HW218078   3.377   1.327   7.802 -1.1326 -1.1485 -1.9214
 2206SOL     OW18079   3.569   3.046   1.388 -0.3103 -0.1739  0.0558
 2206SOL    HW118080   3.643   3.058   1.329  0.6071  0.6745  1.3649
 2206SOL    HW218081   3.502   3.036   1.321  0.1890  2.5225 -0.8322
 2207SOL     OW18082   4.606   0.871  15.671  0.4375 -0.1589  0.3784
 2207SOL    HW118083   4.555   0.856  15.591  0.9443  0.9188 -0.1526
 2207SOL    HW218084   4.696   0.850  15.645 -0.1413 -1.4910 -0.5372
 2208SOL     OW18085   2.590   3.892   7.997 -0.3076  0.4796 -0.4868
 2208SOL    HW118086   2.661   3.922   8.054 -0.2807 -0.4121 -0.0581
 2208SOL    HW218087   2.627   3.844   7.923  1.2403  2.1206 -0.8052
 2209SOL     OW18088   0.138   4.668   1.092 -1.0737 -0.4991 -0.1037
 2209SOL    HW118089   0.165   4.668   1.184  1.6754 -2.6697 -0.9089
 2209SOL    HW218090   0.050   4.704   1.097 -0.3934  1.2238 -0.4740
 2210SOL     OW18091   2.532   2.050   7.742 -0.3238 -0.8923 -0.0776
 2210SOL    HW118092   2.588   2.019   7.813  2.6534 -0.7860 -2.3721
 2210SOL    HW218093   2.572   2.137   7.731 -0.8440 -0.1408  3.8565
 2211SOL     OW18094   4.696   1.778   2.024  0.3594  0.0691 -0.0320
 2211SOL    HW118095   4.707   1.872   2.009  0.5472 -0.1763 -1.4816
 2211SOL    HW218096   4.644   1.784   2.104 -0.1564 -1.3898 -0.2537
 2212SOL     OW18097   2.651   2.926   7.608  0.5969 -0.3033 -0.0336
 2212SOL    HW118098   2.709   2.849   7.608  0.2176 -0.5818  0.6740
 2212SOL    HW218099   2.707   2.971   7.671  0.3041 -0.4774  0.3516
 2213SOL     OW18100   4.384   0.581   7.029 -0.1622 -0.0993  0.5920
 2213SOL    HW118101   4.471   0.617   7.012 -1.0422  1.7057 -0.0539
 2213SOL    HW218102   4.356   0.649   7.090  0.8343  0.1139  0.8136
 2214SOL     OW18103   4.586   1.286  12.290 -0.0013 -0.2422  0.6004
 2214SOL    HW118104   4.620   1.369  12.258 -4.4318  1.4616  0.2263
 2214SOL    HW218105   4.634   1.218  12.242 -1.0125  0.4968 -1.4613
 2215SOL     OW18106   2.779   1.425   8.287 -0.2038  0.7612  0.3031
 2215SOL    HW118107   2.864   1.390   8.314  0.1857  1.0538 -0.5555
 2215SOL    HW218108   2.802   1.516   8.307  1.5586  0.0976  1.2877
 2216SOL     OW18109   4.304   4.104  16.046 -0.2792 -0.5288  0.1037
 2216SOL    HW118110   4.270   4.162  15.978 -0.5741 -1.5410 -0.6090
 2216SOL    HW218111   4.349   4.034  15.998  0.8584  0.4057 -0.2140
 2217SOL     OW18112   2.709   2.645   9.942 -0.3527 -0.3646 -0.4263
 2217SOL    HW118113   2.674   2.558   9.964  0.1762 -0.1056  1.4148
 2217SOL    HW218114   2.627   2.694   9.937 -0.4624 -0.4072  1.1338
 2218SOL     OW18115   1.053   3.162  11.989 -0.4102  0.1226 -0.5473
 2218SOL    HW118116   0.958   3.155  11.987 -0.4573  0.6917 -0.2447
 2218SOL    HW218117   1.062   3.245  12.036  0.1626 -0.2302 -0.0452
 2219SOL     OW18118   4.630   3.107   6.532  0.1539  0.0819  0.0067
 2219SOL    HW118119   4.545   3.132   6.568 -1.6069 -1.1032 -3.3912
 2219SOL    HW218120   4.677   3.082   6.612 -0.2244 -0.0727  0.1825
 2220SOL     OW18121   4.415   3.526  15.237  0.0643 -0.5547 -0.0821
 2220SOL    HW118122   4.440   3.607  15.192  0.7364 -0.5637  0.2680
 2220SOL    HW218123   4.337   3.495  15.191  0.0330 -0.5610 -0.0246
 2221SOL     OW18124   1.576   2.513  15.784  0.0748  0.1390 -0.0623
 2221SOL    HW118125   1.493   2.484  15.822 -0.0459  0.4278 -0.1090
 2221SOL    HW218126   1.572   2.598  15.827 -3.3615 -0.0913  0.0339
 2222SOL     OW18127   4.687   3.674   9.218 -0.1314 -0.7751 -0.0799
 2222SOL    HW118128   4.720   3.745   9.163  1.1314  1.1962  3.2753
 2222SOL    HW218129   4.605   3.650   9.175 -0.2404 -2.5809  1.1180
 2223SOL     OW18130   1.367   1.990  10.585  0.4317 -0.1413  0.1407
 2223SOL    HW118131   1.280   1.957  10.605  0.2197  0.6976  0.6134
 2223SOL    HW218132   1.358   2.084  10.603  1.6722  0.3121 -1.5338
 2224SOL     OW18133   1.942   4.462  15.677  0.0489 -0.1874  0.2504
 2224SOL    HW118134   2.012   4.405  15.646  0.5665 -0.6358  2.2332
 2224SOL    HW218135   1.977   4.550  15.666 -1.4424  0.3324 -0.2982
 2225SOL     OW18136   0.468   3.628   9.829  0.6302  0.2908  0.2390
 2225SOL    HW118137   0.549   3.662   9.792  1.1900 -1.2479  0.0617
 2225SOL    HW218138   0.414   3.607   9.753  3.2147 -1.0164 -1.2503
 2226SOL     OW18139   4.238   4.056  16.624  0.1061 -0.5715 -0.0477
 2226SOL    HW118140   4.260   4.095  16.708 -3.3811 -2.3879  1.7300
 2226SOL    HW218141   4.312   3.996  16.618 -0.0785 -0.8221  0.1798
 2227SOL     OW18142   1.083   1.953   2.331 -0.0866  0.0990  0.3109
 2227SOL    HW118143   1.065   2.012   2.258 -3.2026  0.8697  1.7522
 2227SOL    HW218144   0.997   1.926   2.362  0.4312 -0.6377  1.1102
 2228SOL     OW18145   1.825   4.338   6.995  0.2031  0.2516  0.0029
 2228SOL    HW118146   1.776   4.340   6.913  1.7621 -1.9575 -0.9856
 2228SOL    HW218147   1.754   4.340   7.060 -0.5045 -0.1603 -0.7620
 2229SOL     OW18148   3.992   4.014   3.875  0.3439 -0.1544  0.4499
 2229SOL    HW118149   4.047   4.077   3.921  0.2622 -0.5426  1.0862
 2229SOL    HW218150   3.956   4.071   3.807  1.2447 -0.3050 -0.1358
 2230SOL     OW18151   2.412   3.337   7.899 -0.4435  0.1107 -0.0096
 2230SOL    HW118152   2.319   3.337   7.876 -0.2021  2.1715 -1.0208
 2230SOL    HW218153   2.432   3.244   7.890 -0.3930  0.2937 -1.7717
 2231SOL     OW18154   4.716   0.198   8.013  0.1214  0.0455  0.0339
 2231SOL    HW118155   0.060   0.264   8.035  0.2831  0.1357 -0.7315
 2231SOL    HW218156   4.646   0.226   8.072  0.6552  1.9857 -0.2574
 2232SOL     OW18157   1.600   2.822  13.959  0.0674 -0.3181  0.1520
 2232SOL    HW118158   1.634   2.733  13.964  1.6313  0.3348  1.0510
 2232SOL    HW218159   1.547   2.818  13.879  0.0300 -4.0710  0.3736
 2233SOL     OW18160   2.597   2.227   3.096  0.4401  0.7048  0.3178
 2233SOL    HW118161   2.590   2.160   3.028  1.3687 -1.6013  2.5161
 2233SOL    HW218162   2.549   2.303   3.064  0.1073  0.2050 -0.3691
 2234SOL     OW18163   3.150   0.196   6.709 -0.4017  0.2695 -0.0017
 2234SOL    HW118164   3.062   0.168   6.733 -0.2600 -0.1905 -0.0128
 2234SOL    HW218165   3.167   0.154   6.625  0.6843 -0.9280  0.8149
 2235SOL     OW18166   4.060   3.751  15.497 -0.4755  0.1729 -0.4385
 2235SOL    HW118167   4.038   3.830  15.546 -0.0744 -0.0488  0.0929
 2235SOL    HW218168   4.065   3.682  15.564  0.5821  0.1001 -0.5989
 2236SOL     OW18169   4.356   2.960   4.512  0.3272 -0.2095 -0.3098
 2236SOL    HW118170   4.292   2.919   4.454 -1.2043  1.2718  0.3281
 2236SOL    HW218171   4.385   3.030   4.454  1.6920  1.5527  2.4869
 2237SOL     OW18172   3.132   1.495   3.611  0.7056 -0.0986  0.1290
 2237SOL    HW118173   3.060   1.556   3.596  2.6506  1.6497 -1.9786
 2237SOL    HW218174   3.123   1.435   3.537  0.2634  2.8856 -2.2182
 2238SOL     OW18175   2.975   0.797   7.082 -0.4522  0.4854 -0.2262
 2238SOL    HW118176   3.034   0.728   7.050 -0.8644 -0.3211  0.7689
 2238SOL    HW218177   3.036   0.871   7.074 -0.0983  0.4684  2.3570
 2239SOL     OW18178   4.120   0.477   9.554  0.3445  0.1134  0.2857
 2239SOL    HW118179   4.094   0.467   9.462  0.6967 -0.9965  0.3036
 2239SOL    HW218180   4.050   0.430   9.600  1.3478 -1.6819 -0.0030
 2240SOL     OW18181   2.724   0.220   3.082 -0.2584  0.7892  0.2432
 2240SOL    HW118182   2.675   0.268   3.148 -3.4204  1.8293 -2.8786
 2240SOL    HW218183   2.762   0.149   3.135  0.8447  0.8923 -0.4034
 2241SOL     OW18184   1.006   4.264   4.123 -0.0836 -0.2324 -0.6455
 2241SOL    HW118185   0.974   4.251   4.213  0.6340 -2.0330 -0.6328
 2241SOL    HW218186   0.921   4.263   4.079  0.4023  2.4966 -1.6155
 2242SOL     OW18187   2.244   0.942  10.875  0.0867  0.4329 -0.1879
 2242SOL    HW118188   2.322   0.887  10.884 -0.4204  0.0559  1.8236
 2242SOL    HW218189   2.179   0.887  10.830  1.6263 -0.2086 -1.6296
 2243SOL     OW18190   3.888   2.167   8.097  0.0725  0.3809  0.1733
 2243SOL    HW118191   3.843   2.221   8.163  0.0914 -1.5323  1.7569
 2243SOL    HW218192   3.853   2.080   8.113  0.9297 -0.0281 -0.2138
 2244SOL     OW18193   0.990   2.800   8.486  0.2649  0.4255  0.1908
 2244SOL    HW118194   0.968   2.718   8.531  0.7045  0.3121  0.1949
 2244SOL    HW218195   1.073   2.815   8.531  0.8790  2.8259 -1.7828
 2245SOL     OW18196   2.887   1.184   7.672  0.2849 -0.2239 -0.4564
 2245SOL    HW118197   2.955   1.131   7.632 -0.8170 -1.9245 -0.0831
 2245SOL    HW218198   2.872   1.242   7.598 -1.1642  2.2015  1.7031
 2246SOL     OW18199   4.424   4.350   1.417 -0.1972 -0.6676 -0.2306
 2246SOL    HW118200   4.328   4.356   1.414 -0.2886 -2.6479 -1.9272
 2246SOL    HW218201   4.445   4.338   1.324  2.1445  0.4500  0.1723
 2247SOL     OW18202   2.538   3.157   4.902 -0.7360 -0.2402 -0.5253
 2247SOL    HW118203   2.554   3.068   4.871 -0.1545 -0.1573 -0.4726
 2247SOL    HW218204   2.540   3.204   4.819  0.4441  0.6884  0.0214
 2248SOL     OW18205   1.502   3.755   2.570  0.2720 -0.0936  0.9251
 2248SOL    HW118206   1.583   3.781   2.615 -0.7836  2.4698  1.3344
 2248SOL    HW218207   1.506   3.661   2.587  1.3538 -0.1892  0.0954
 2249SOL     OW18208   0.613   0.626   3.269  0.0399 -0.2295  0.4320
 2249SOL    HW118209   0.554   0.649   3.197  0.0900  1.4875  0.9222
 2249SOL    HW218210   0.664   0.554   3.231  0.0651  0.1386 -0.2512
 2250SOL     OW18211   0.673   2.811  14.858  0.0507  0.8944  0.6092
 2250SOL    HW118212   0.625   2.859  14.926 -2.6036 -2.2250  0.9646
 2250SOL    HW218213   0.600   2.780  14.803  0.7079 -0.0838  0.2902
 2251SOL     OW18214   0.051   2.314   0.394 -0.2506  0.0482 -0.0122
 2251SOL    HW118215   4.684   2.334   0.363  0.3048  1.1477 -0.8752
 2251SOL    HW218216   0.044   2.299   0.488  0.9559  0.9591  0.2128
 2252SOL     OW18217   2.269   2.046   7.324  0.4016 -0.6507  0.5136
 2252SOL    HW118218   2.274   1.978   7.257 -2.1071 -0.7314  0.3891
 2252SOL    HW218219   2.340   2.022   7.383  0.6583  2.8284  1.6405
 2253SOL     OW18220   1.318   0.385   0.536  0.5489 -0.4512  0.0826
 2253SOL    HW118221   1.361   0.339   0.608  3.0724  1.0595 -0.4518
 2253SOL    HW218222   1.402   0.410   0.497 -0.2176  3.8406  1.1973
 2254SOL     OW18223   2.817   3.421   1.218  1.0196  0.6322 -0.2260
 2254SOL    HW118224   2.811   3.450   1.309  3.0265  0.9012 -0.1670
 2254SOL    HW218225   2.797   3.327   1.217  0.4072  0.7388  1.8889
 2255SOL     OW18226   2.676   4.708   4.078  0.8873 -0.0770  0.2208
 2255SOL    HW118227   2.672   4.651   4.154  0.8676  0.0801  0.3364
 2255SOL    HW218228   2.589   4.692   4.041  1.6661  0.0198 -1.6560
 2256SOL     OW18229   0.991   1.109   9.078 -0.0673 -0.5465  0.1745
 2256SOL    HW118230   0.967   1.074   9.164 -1.0609 -1.1834 -0.3597
 2256SOL    HW218231   1.058   1.046   9.051 -1.0760 -0.8618 -1.5822
 2257SOL     OW18232   2.799   0.484  10.611  0.5462 -0.0665  0.3026
 2257SOL    HW118233   2.886   0.524  10.622  1.7891 -3.3328  2.1901
 2257SOL    HW218234   2.783   0.498  10.518  0.2730  0.6415  0.4497
 2258SOL     OW18235   0.698   1.774  15.287 -0.0376  1.1456  0.1462
 2258SOL    HW118236   0.740   1.859  15.275 -3.3694  2.3666 -2.7877
 2258SOL    HW218237   0.658   1.790  15.373  0.8821  1.0028  0.5931
 2259SOL     OW18238   0.849   2.380   9.290  0.1705 -0.6464  0.0150
 2259SOL    HW118239   0.827   2.288   9.308 -0.2079 -0.7552 -1.0094
 2259SOL    HW218240   0.765   2.424   9.305  0.4135 -1.3258  3.4096
 2260SOL     OW18241   4.090   0.700   1.251  0.1149  0.3838 -0.0544
 2260SOL    HW118242   4.055   0.785   1.225 -1.9075 -0.7354 -0.9599
 2260SOL    HW218243   4.183   0.713   1.232  0.3701  0.1892  1.0602
 2261SOL     OW18244   4.154   3.327   6.604 -1.0886  0.6305  0.6700
 2261SOL    HW118245   4.126   3.311   6.694 -3.5542 -0.0947 -0.2425
 2261SOL    HW218246   4.193   3.414   6.609  1.4096 -0.3968 -1.0948
 2262SOL     OW18247   1.388   2.612   5.884 -0.4728 -0.2440  0.4633
 2262SOL    HW118248   1.300   2.647   5.866  0.0346  0.3478 -0.8575
 2262SOL    HW218249   1.438   2.690   5.859  2.1284 -2.1458 -0.2281
 2263SOL     OW18250   4.250   2.311  10.335  0.0686  0.0691  0.3583
 2263SOL    HW118251   4.330   2.266  10.307  1.0038  0.8386  1.7881
 2263SOL    HW218252   4.288   2.391  10.370  0.7586  0.2899 -0.8812
 2264SOL     OW18253   2.176   1.895   7.885  0.1185 -0.0543 -0.0080
 2264SOL    HW118254   2.235   1.821   7.873 -0.2482 -0.3651  0.0802
 2264SOL    HW218255   2.214   1.964   7.831  1.8120  1.0203  2.5577
 2265SOL     OW18256   0.116   2.217  12.466 -0.1013 -0.5868  0.0416
 2265SOL    HW118257   0.139   2.273  12.392  1.8536 -1.9003 -0.3545
 2265SOL    HW218258   0.181   2.248  12.529  0.5588 -2.6945  0.4147
 2266SOL     OW18259   0.550   2.390   3.306 -0.1331  0.0718  0.1344
 2266SOL    HW118260   0.614   2.434   3.362 -0.4839  0.9946 -0.1785
 2266SOL    HW218261   0.610   2.387   3.231  0.1189 -0.1138  0.3425
 2267SOL     OW18262   4.180   2.206   3.545  0.1238  0.2361 -0.5502
 2267SOL    HW118263   4.134   2.241   3.468  2.7272 -1.2422 -2.7781
 2267SOL    HW218264   4.174   2.277   3.608 -1.5711 -1.0186  0.7182
 2268SOL     OW18265   0.816   0.119   4.948  0.7786  0.1741  0.3834
 2268SOL    HW118266   0.851   0.106   4.859  1.5444  1.8066  0.4372
 2268SOL    HW218267   0.896   0.120   5.000  2.4315 -1.7024 -2.0992
 2269SOL     OW18268   0.017   1.983  12.556 -0.2353  0.5952  0.1553
 2269SOL    HW118269   0.043   2.056  12.500 -2.4265  0.6559 -0.7793
 2269SOL    HW218270   0.105   1.969  12.592  0.1878  0.3759 -0.9570
 2270SOL     OW18271   0.279   2.898  16.358  0.0541 -0.3549 -0.2878
 2270SOL    HW118272   0.223   2.829  16.393 -1.1485 -0.5792 -2.6313
 2270SOL    HW218273   0.306   2.920  16.447  0.4954  1.3353 -0.8302
 2271SOL     OW18274   2.311   4.402   3.363 -0.8634 -0.2070 -0.3051
 2271SOL    HW118275   2.261   4.479   3.334  0.9350  0.6410 -1.1356
 2271SOL    HW218276   2.246   4.331   3.360 -0.1792 -0.7869 -1.3429
 2272SOL     OW18277   2.435   2.776   8.389 -0.0262  0.6646  0.0723
 2272SOL    HW118278   2.455   2.684   8.370 -2.3635  1.1018 -4.5655
 2272SOL    HW218279   2.387   2.757   8.469  0.3146  1.6827  0.5179
 2273SOL     OW18280   1.912   1.063  17.629  0.0615  0.2480 -0.5034
 2273SOL    HW118281   1.942   1.066   0.032 -0.2402  0.0379 -0.4004
 2273SOL    HW218282   1.832   1.114  17.641 -0.6781 -0.3768 -2.8865
 2274SOL     OW18283   2.880   1.031   4.529 -0.2697  0.1767 -0.1236
 2274SOL    HW118284   2.968   0.999   4.508 -0.9678 -2.2241  0.6349
 2274SOL    HW218285   2.892   1.126   4.529  1.0962  0.0092  0.1856
 2275SOL     OW18286   1.651   0.174   9.008 -0.4377  0.2446 -0.0760
 2275SOL    HW118287   1.655   0.263   8.974  4.7014  0.9058  2.2747
 2275SOL    HW218288   1.739   0.159   9.042  0.2750  0.0904 -1.9819
 2276SOL     OW18289   1.341   3.475   6.795 -0.7043  0.6886  0.1901
 2276SOL    HW118290   1.331   3.551   6.737  0.4923 -0.9927 -2.2363
 2276SOL    HW218291   1.283   3.411   6.754 -1.3948  0.4868  1.4797
 2277SOL     OW18292   2.731   3.416   6.447  0.0451  0.4268  0.1493
 2277SOL    HW118293   2.815   3.407   6.493  1.2333  0.3846 -2.0136
 2277SOL    HW218294   2.768   3.449   6.366  2.1775 -0.7221  0.6547
 2278SOL     OW18295   1.243   3.498   1.504  0.0969  0.0859  0.1728
 2278SOL    HW118296   1.268   3.506   1.596 -0.6240 -0.4941  0.4233
 2278SOL    HW218297   1.159   3.544   1.499  0.5542  0.8775 -0.2442
 2279SOL     OW18298   0.369   0.041   9.664 -0.0065  0.2509  0.9198
 2279SOL    HW118299   0.389   4.696   9.598 -2.2023  0.0715  0.4261
 2279SOL    HW218300   0.285   0.078   9.635  0.6424  1.2813  0.3657
 2280SOL     OW18301   0.410   2.642  15.177 -0.0228 -0.3598  0.1083
 2280SOL    HW118302   0.361   2.653  15.258 -0.4117  1.8284 -0.4251
 2280SOL    HW218303   0.415   2.736  15.163  1.1787 -0.4267  0.0459
 2281SOL     OW18304   2.828   0.872  10.844 -0.2311  1.0846  0.0304
 2281SOL    HW118305   2.828   0.881  10.939 -0.6364  1.2091  0.0173
 2281SOL    HW218306   2.735   0.863  10.826  0.2320  0.2432 -2.0340
 2282SOL     OW18307   4.470   1.646   8.364  0.6249 -0.2952 -0.0266
 2282SOL    HW118308   4.544   1.686   8.318  1.4026 -0.3283  1.1881
 2282SOL    HW218309   4.406   1.654   8.294  0.1944  1.5891  0.5895
 2283SOL     OW18310   1.512   2.807   7.678  0.0645 -0.4202 -0.1786
 2283SOL    HW118311   1.589   2.813   7.621  0.9130  0.8084  1.0997
 2283SOL    HW218312   1.484   2.897   7.660 -0.5952 -0.2699  1.5873
 2284SOL     OW18313   0.569   2.189  13.981 -0.4709 -0.5878  0.0877
 2284SOL    HW118314   0.502   2.246  14.019 -1.2915  0.6567 -3.2612
 2284SOL    HW218315   0.515   2.150  13.913  0.2350 -1.5575  0.0752
 2285SOL     OW18316   2.038   1.254  16.504 -0.2521  0.0396  0.1088
 2285SOL    HW118317   2.024   1.265  16.598  1.7745  2.2885  0.1222
 2285SOL    HW218318   2.100   1.324  16.487  0.2883 -0.7537 -1.1536
 2286SOL     OW18319   3.455   2.888   4.754  0.0842 -0.6416 -0.3699
 2286SOL    HW118320   3.532   2.836   4.733 -0.5471  0.3607 -5.3561
 2286SOL    HW218321   3.427   2.840   4.832  0.3690 -0.8225 -0.3797
 2287SOL     OW18322   1.069   1.374   3.852 -0.5259 -0.1624  0.3365
 2287SOL    HW118323   1.066   1.321   3.772  2.4445  1.4732 -0.8419
 2287SOL    HW218324   1.119   1.319   3.912 -2.5204 -1.9341  0.3732
 2288SOL     OW18325   1.876   2.300   8.245 -0.3059  0.3085  0.2971
 2288SOL    HW118326   1.867   2.394   8.228  0.1880  0.3076  0.0295
 2288SOL    HW218327   1.791   2.288   8.286 -0.9860 -2.2448 -1.8670
 2289SOL     OW18328   3.405   2.816   5.032 -0.5429  0.3799 -0.5865
 2289SOL    HW118329   3.316   2.804   5.001 -0.0457 -3.7708 -0.4344
 2289SOL    HW218330   3.390   2.844   5.122  1.5507 -0.3762  0.0127
 2290SOL     OW18331   2.130   0.897   9.669  0.1423  0.5393 -0.2580
 2290SOL    HW118332   2.136   0.976   9.616  0.4574 -0.9375 -2.3978
 2290SOL    HW218333   2.163   0.947   9.744 -0.2193 -1.5552  1.3145
 2291SOL     OW18334   1.343   2.386   4.835 -0.3457  0.7931  0.3663
 2291SOL    HW118335   1.364   2.421   4.922  1.4469  0.8688 -0.0865
 2291SOL    HW218336   1.293   2.464   4.814 -0.6274  0.8317  1.1877
 2292SOL     OW18337   4.679   1.791  17.641 -0.3269 -0.0002  0.0415
 2292SOL    HW118338   0.023   1.849  17.602 -0.0661 -0.7943 -0.7213
 2292SOL    HW218339   4.713   1.797   0.041 -1.4058 -1.2118  0.5395
 2293SOL     OW18340   0.137   1.658  13.634 -0.0823  0.0576  0.4417
 2293SOL    HW118341   0.191   1.693  13.564 -0.1082 -0.7894 -0.0043
 2293SOL    HW218342   0.054   1.648  13.587  1.3955 -4.5027 -1.2429
 2294SOL     OW18343   1.213   2.664   4.467 -0.4257  0.0881  0.2598
 2294SOL    HW118344   1.211   2.627   4.379  0.8309  1.7185 -0.4681
 2294SOL    HW218345   1.216   2.583   4.518 -0.8439 -0.7458 -1.0509
 2295SOL     OW18346   4.523   2.774  13.596  0.1761  0.1801  0.4017
 2295SOL    HW118347   4.579   2.851  13.600  0.4267  0.0027  0.2683
 2295SOL    HW218348   4.548   2.724  13.674  0.1933  1.0221  0.9346
 2296SOL     OW18349   3.878   1.550   3.025  0.2647  0.4318 -0.5371
 2296SOL    HW118350   3.954   1.586   2.980  0.9700 -1.7514 -1.1002
 2296SOL    HW218351   3.855   1.628   3.075 -0.0449 -0.6621  1.0285
 2297SOL     OW18352   1.107   1.899  10.675 -0.2379  0.4034  0.4023
 2297SOL    HW118353   1.140   1.974  10.725 -2.5118  2.2106 -0.7949
 2297SOL    HW218354   1.118   1.836  10.746 -1.5079  0.5786  0.7523
 2298SOL     OW18355   2.892   2.271  12.910  0.5603 -0.6823  0.2758
 2298SOL    HW118356   2.861   2.277  12.820  1.1026  0.9718  0.1914
 2298SOL    HW218357   2.928   2.357  12.932  2.0161 -1.3300  0.4156
 2299SOL     OW18358   0.436   2.190  15.969  0.1246 -0.4594 -0.4353
 2299SOL    HW118359   0.475   2.180  16.056 -0.5728 -0.5941 -0.1405
 2299SOL    HW218360   0.483   2.136  15.905 -0.3542 -1.2901 -0.0914
 2300SOL     OW18361   0.659   1.505   3.955 -0.8711 -0.3481  0.2246
 2300SOL    HW118362   0.720   1.546   4.017  0.6807 -2.6239  0.2031
 2300SOL    HW218363   0.692   1.418   3.975 -1.5868 -0.8619 -0.8346
 2301SOL     OW18364   0.250   2.198   6.770  0.1553 -0.0867  0.5174
 2301SOL    HW118365   0.217   2.277   6.728  0.8227  0.3338  0.7749
 2301SOL    HW218366   0.195   2.174   6.844 -0.9278  1.1990  0.1087
 2302SOL     OW18367   2.593   1.840  12.362  0.1325  0.0515 -0.1228
 2302SOL    HW118368   2.521   1.797  12.316  1.9193 -1.2778 -1.6471
 2302SOL    HW218369   2.550   1.918  12.399  0.8603  0.7853 -0.8245
 2303SOL     OW18370   2.045   3.845   4.873 -0.5393  0.1171  0.4562
 2303SOL    HW118371   2.074   3.908   4.807  3.5438 -1.4760  0.7461
 2303SOL    HW218372   2.103   3.862   4.947 -0.0917 -2.5803  0.7247
 2304SOL     OW18373   3.241   0.421   8.364 -0.6702  0.0367  0.3122
 2304SOL    HW118374   3.209   0.447   8.451 -2.7390  0.0749 -0.4467
 2304SOL    HW218375   3.169   0.364   8.336 -1.1235  0.6203  0.2817
 2305SOL     OW18376   1.660   2.816   6.539 -1.0765  0.4376  0.6270
 2305SOL    HW118377   1.724   2.864   6.591 -1.1778  0.9324  0.2934
 2305SOL    HW218378   1.704   2.780   6.462 -2.2590  1.8499 -0.7123
 2306SOL     OW18379   1.713   1.754  12.517  0.2102 -0.0449 -0.5059
 2306SOL    HW118380   1.790   1.732  12.463 -1.2362 -1.1526 -2.1230
 2306SOL    HW218381   1.653   1.679  12.508 -1.3089  1.3374 -1.8719
 2307SOL     OW18382   0.073   4.015   4.698 -0.5992 -0.3837 -0.3476
 2307SOL    HW118383   0.109   3.982   4.615 -0.1614  1.4944 -0.9037
 2307SOL    HW218384   0.049   3.932   4.740  0.8456  0.8818  2.9417
 2308SOL     OW18385   0.564   2.649   8.241 -0.0672  0.2375 -0.0394
 2308SOL    HW118386   0.580   2.652   8.147  1.0554  0.8637  0.1609
 2308SOL    HW218387   0.542   2.741   8.257  1.7510  0.5895  0.5228
 2309SOL     OW18388   2.538   0.896  10.088 -0.1997 -0.1539  0.0391
 2309SOL    HW118389   2.486   0.939  10.156 -0.6267 -1.8408  0.7938
 2309SOL    HW218390   2.601   0.966  10.070  0.3252 -0.5816  0.2115
 2310SOL     OW18391   4.490   3.933   2.294  0.0185 -0.2869 -0.1315
 2310SOL    HW118392   4.501   3.885   2.213  0.9281 -0.7392  0.2591
 2310SOL    HW218393   4.411   3.896   2.333 -0.0310 -0.8414 -0.7781
 2311SOL     OW18394   2.731   0.973   6.970 -0.1575 -0.0393 -0.1064
 2311SOL    HW118395   2.716   1.036   7.041  1.2195 -1.0387  1.0597
 2311SOL    HW218396   2.810   0.934   7.006 -0.0693  1.8834  1.7419
 2312SOL     OW18397   4.158   1.243   6.157 -0.5267 -0.1019 -0.1263
 2312SOL    HW118398   4.197   1.165   6.118 -0.3423 -0.3523  0.5471
 2312SOL    HW218399   4.064   1.226   6.156 -0.8269  1.5175  1.2611
 2313SOL     OW18400   0.852   2.943   2.935  0.1052  0.3130 -0.5096
 2313SOL    HW118401   0.876   3.033   2.913 -2.4494  1.1375  0.0346
 2313SOL    HW218402   0.875   2.900   2.853 -1.2056  2.0771 -1.8021
 2314SOL     OW18403   3.556   3.979   1.055 -0.4589 -0.2296  0.1159
 2314SOL    HW118404   3.594   4.029   0.983 -2.1986  1.3193  0.2692
 2314SOL    HW218405   3.537   4.046   1.120  0.3318  0.4041 -0.3085
 2315SOL     OW18406   4.681   3.711  16.535 -0.5707 -0.0891 -0.1412
 2315SOL    HW118407   0.054   3.707  16.548 -1.0239  0.7487  3.6582
 2315SOL    HW218408   4.661   3.628  16.491 -1.6717  1.6228 -2.8448
 2316SOL     OW18409   0.304   3.799   7.758 -0.0586 -0.2229  0.2659
 2316SOL    HW118410   0.226   3.757   7.722 -0.3701  0.9648 -0.4472
 2316SOL    HW218411   0.341   3.838   7.679  0.8684 -0.4210  0.6012
 2317SOL     OW18412   0.493   1.949   1.569 -0.1176 -0.2923  0.3515
 2317SOL    HW118413   0.555   1.952   1.642 -0.4712  3.2067  0.5048
 2317SOL    HW218414   0.537   1.899   1.500 -1.5641  0.7481 -1.3246
 2318SOL     OW18415   2.195   2.220  16.914 -0.3009 -0.5112 -0.2653
 2318SOL    HW118416   2.245   2.201  16.835  0.5860 -0.4467  0.2894
 2318SOL    HW218417   2.165   2.134  16.944  0.1630 -1.4932 -2.5681
 2319SOL     OW18418   0.828   3.624   3.092  0.1780  0.4100 -0.5512
 2319SOL    HW118419   0.758   3.676   3.131 -0.3049 -0.3978 -0.3395
 2319SOL    HW218420   0.889   3.697   3.088 -0.5509  0.9611 -1.4771
 2320SOL     OW18421   3.872   3.694   8.824  0.6484  0.3053 -0.2692
 2320SOL    HW118422   3.825   3.745   8.758  1.4867  0.2322 -0.9309
 2320SOL    HW218423   3.853   3.756   8.894 -0.3449 -0.2570 -0.0391
 2321SOL     OW18424   2.697   2.516   3.732 -0.1526  0.6370 -0.4603
 2321SOL    HW118425   2.606   2.502   3.758  0.2760  1.1723  1.3460
 2321SOL    HW218426   2.698   2.553   3.644 -2.1568  0.6033 -0.5038
 2322SOL     OW18427   2.951   1.998   5.677  0.1217 -0.0305  0.3877
 2322SOL    HW118428   2.872   2.007   5.624  2.2549  0.2081 -2.7676
 2322SOL    HW218429   2.919   1.969   5.762  1.5707 -0.9810  0.6170
 2323SOL     OW18430   0.777   1.577  11.347  0.0407  0.2461 -0.1942
 2323SOL    HW118431   0.845   1.514  11.373 -0.3534 -0.3645 -0.6412
 2323SOL    HW218432   0.752   1.539  11.263  0.0431 -2.5198  1.0388
 2324SOL     OW18433   4.663   1.351   8.323 -0.0466 -0.3030  0.4824
 2324SOL    HW118434   4.570   1.359   8.348  0.0618  1.2634  0.3749
 2324SOL    HW218435   4.710   1.382   8.400  0.5048  0.8710 -0.3313
 2325SOL     OW18436   1.867   4.678   4.792  0.3144 -0.4208  0.7494
 2325SOL    HW118437   1.962   4.672   4.780  0.2910  0.6760  0.0685
 2325SOL    HW218438   1.844   0.033   4.740  1.2670  0.2949  1.3830
 2326SOL     OW18439   2.172   0.620   2.017  0.1222  0.0031 -0.5361
 2326SOL    HW118440   2.160   0.697   1.963  1.4103  2.2858  2.4496
 2326SOL    HW218441   2.084   0.613   2.055  1.5799 -0.5197  2.7805
 2327SOL     OW18442   2.773   0.820   8.333 -0.4677 -0.2834 -0.8409
 2327SOL    HW118443   2.737   0.843   8.418  0.1436  1.6725 -1.1020
 2327SOL    HW218444   2.693   0.804   8.282  1.1655 -2.6406 -2.6420
 2328SOL     OW18445   0.292   0.982   7.176  0.2729 -0.3448  0.5254
 2328SOL    HW118446   0.212   0.966   7.125  0.5305 -1.0932  0.3622
 2328SOL    HW218447   0.266   0.978   7.268 -0.6149  0.8953  0.3371
 2329SOL     OW18448   2.805   3.921   6.850  0.5501  0.1085 -0.2907
 2329SOL    HW118449   2.826   3.978   6.776  0.2013 -2.7364 -2.5802
 2329SOL    HW218450   2.715   3.949   6.871  1.0445  0.8883  0.7876
 2330SOL     OW18451   2.723   4.581   2.514 -0.0012  0.2815 -0.2839
 2330SOL    HW118452   2.648   4.573   2.572  0.3469 -1.2910 -0.0471
 2330SOL    HW218453   2.800   4.574   2.570 -0.5016  0.0475  0.3675
 2331SOL     OW18454   3.060   3.652  15.533 -0.3050  0.4397  0.4130
 2331SOL    HW118455   2.994   3.652  15.603 -0.1366  0.0150  0.5754
 2331SOL    HW218456   3.011   3.703  15.469  1.6433  0.7912 -0.7993
 2332SOL     OW18457   3.422   4.395   3.185  0.1799  0.5108 -0.1082
 2332SOL    HW118458   3.339   4.381   3.140 -0.4069  0.2950  1.0432
 2332SOL    HW218459   3.466   4.443   3.115  1.2437  0.1145  0.2890
 2333SOL     OW18460   1.824   3.551  17.223  0.7633  0.0936  0.1794
 2333SOL    HW118461   1.827   3.509  17.309  1.9435  1.6099  0.9053
 2333SOL    HW218462   1.766   3.626  17.237 -0.1923 -0.7954  0.9510
 2334SOL     OW18463   3.866   0.703   8.126  0.1554 -0.3630  0.2336
 2334SOL    HW118464   3.803   0.654   8.179  0.6739 -1.0685  0.1950
 2334SOL    HW218465   3.863   0.643   8.051  0.3673  2.0404 -1.7182
 2335SOL     OW18466   0.623   2.296  10.705  0.2546 -0.0404 -0.1200
 2335SOL    HW118467   0.686   2.356  10.745  0.8933 -1.1523  0.5612
 2335SOL    HW218468   0.561   2.287  10.777  0.1938 -1.6725 -0.3684
 2336SOL     OW18469   3.928   1.208  11.510  0.1504  0.2157  0.0178
 2336SOL    HW118470   3.932   1.250  11.424  1.4647  2.1721  1.0536
 2336SOL    HW218471   3.854   1.255  11.548  0.3073 -0.3212  0.9997
 2337SOL     OW18472   1.257   1.801   5.709  1.0398 -1.6315  0.0670
 2337SOL    HW118473   1.177   1.787   5.759  1.2903 -0.5678  0.7642
 2337SOL    HW218474   1.325   1.809   5.776  0.2166  0.2978  0.6608
 2338SOL     OW18475   2.000   2.257   6.909 -0.0975 -0.0927  0.0098
 2338SOL    HW118476   1.941   2.200   6.858 -0.5508 -0.1081  0.5492
 2338SOL    HW218477   2.007   2.207   6.990 -0.2361  0.7042  0.5075
 2339SOL     OW18478   1.579   3.413   5.246 -0.4154  0.5350 -0.3655
 2339SOL    HW118479   1.658   3.384   5.201 -0.6409  1.2310 -1.2215
 2339SOL    HW218480   1.512   3.381   5.186 -0.9319 -1.5604  1.3499
 2340SOL     OW18481   2.315   1.812  15.314 -0.0367  0.2228  0.6418
 2340SOL    HW118482   2.314   1.908  15.315  0.0481  0.2288  0.3195
 2340SOL    HW218483   2.407   1.795  15.294  0.2508  2.6014 -0.0769
 2341SOL     OW18484   3.130   0.945  15.891  0.4257  0.2536  0.4926
 2341SOL    HW118485   3.146   1.036  15.917 -0.2516  0.2025  1.0945
 2341SOL    HW218486   3.092   0.960  15.805  0.5784  1.0291  0.5573
 2342SOL     OW18487   0.364   0.752   4.904 -0.0688  0.1682 -0.0994
 2342SOL    HW118488   0.431   0.792   4.959 -0.5692  2.3739 -1.0904
 2342SOL    HW218489   0.373   0.657   4.905  1.1654  0.2574 -2.4292
 2343SOL     OW18490   0.571   4.003  13.406  0.3584 -0.1349  0.8553
 2343SOL    HW118491   0.573   4.022  13.312 -0.3453 -0.8436  0.6998
 2343SOL    HW218492   0.639   3.936  13.408 -0.5100 -1.0661 -1.0227
 2344SOL     OW18493   3.751   0.403   9.206  0.5215 -0.1360 -0.6355
 2344SOL    HW118494   3.750   0.457   9.127  2.4318  0.1835 -0.4244
 2344SOL    HW218495   3.670   0.354   9.190 -0.1437  1.1539 -1.2454
 2345SOL     OW18496   3.726   3.015   0.434 -0.1745  0.1397 -0.3974
 2345SOL    HW118497   3.818   3.017   0.407  0.5295  1.5278  2.1580
 2345SOL    HW218498   3.697   2.923   0.433 -1.2715  0.4677  1.8249
 2346SOL     OW18499   2.098   4.552   2.073 -0.9891  0.4602 -0.2861
 2346SOL    HW118500   2.075   4.521   2.161  0.8536 -2.6006 -0.8811
 2346SOL    HW218501   2.132   4.468   2.041 -0.7935  1.1278 -1.8349
 2347SOL     OW18502   4.502   1.219   6.663  0.7629  0.5394  0.0075
 2347SOL    HW118503   4.588   1.197   6.629 -0.6316 -0.5684 -2.8756
 2347SOL    HW218504   4.455   1.135   6.659 -1.8122  2.0310 -0.6788
 2348SOL     OW18505   1.466   4.348   3.517 -0.0128  0.2086  0.0298
 2348SOL    HW118506   1.459   4.417   3.583  0.5474  0.2193  0.0785
 2348SOL    HW218507   1.376   4.353   3.485 -0.3287  0.3492  0.9318
 2349SOL     OW18508   3.470   0.879   4.706 -0.3746  0.0581 -0.3111
 2349SOL    HW118509   3.469   0.935   4.628  1.0877  1.8816  0.9989
 2349SOL    HW218510   3.532   0.811   4.680 -1.8456 -1.2720 -0.3802
 2350SOL     OW18511   1.994   0.813   2.190  0.1150  0.2678  0.2279
 2350SOL    HW118512   2.015   0.889   2.244 -0.8587 -0.3289  1.4452
 2350SOL    HW218513   1.965   0.755   2.260  0.0865  0.1253  0.0990
 2351SOL     OW18514   2.388   3.288   6.649 -0.4896 -0.1032 -0.2314
 2351SOL    HW118515   2.462   3.277   6.709  2.3329  1.4668 -3.3580
 2351SOL    HW218516   2.406   3.372   6.607  1.4529 -0.6233 -0.4889
 2352SOL     OW18517   1.739   2.341   3.459 -0.8970  0.3353  0.1071
 2352SOL    HW118518   1.774   2.373   3.376 -0.3957 -2.9835 -0.9801
 2352SOL    HW218519   1.648   2.369   3.461 -1.0792 -0.2177 -0.3027
 2353SOL     OW18520   3.681   2.489   3.299 -0.1667  0.1573  0.1564
 2353SOL    HW118521   3.742   2.525   3.363 -0.9075  0.8392  0.4786
 2353SOL    HW218522   3.740   2.469   3.226 -1.7425 -2.8014 -0.3149
 2354SOL     OW18523   0.973   1.591   7.499  0.0211  0.2015 -1.0586
 2354SOL    HW118524   0.886   1.583   7.538 -0.7938  2.1926 -2.4920
 2354SOL    HW218525   0.965   1.517   7.438 -3.3534  1.6690 -2.4430
 2355SOL     OW18526   1.258   0.065   0.848 -0.2566  0.1665 -0.4200
 2355SOL    HW118527   1.330   0.108   0.803 -0.9523 -0.3937 -2.0651
 2355SOL    HW218528   1.190   0.125   0.817  0.5261  1.3335  0.1267
 2356SOL     OW18529   3.343   1.253  13.355  0.2772  0.1481  0.2682
 2356SOL    HW118530   3.330   1.198  13.278  0.7174  0.8225 -0.2961
 2356SOL    HW218531   3.422   1.214  13.392  0.2598  0.0650  0.2164
 2357SOL     OW18532   1.725   4.511   9.988  0.2564 -0.5201  0.0116
 2357SOL    HW118533   1.634   4.539   9.996  0.8934  1.5043  0.1805
 2357SOL    HW218534   1.737   4.453  10.063  0.5341 -0.9781 -0.3913
 2358SOL     OW18535   3.891   1.407   4.636  0.4256  0.5943 -0.5462
 2358SOL    HW118536   3.824   1.388   4.571 -0.0169 -0.9764  0.3492
 2358SOL    HW218537   3.842   1.439   4.712 -0.1509 -1.9297  0.1533
 2359SOL     OW18538   3.597   0.982  13.849 -0.1427 -0.7789  0.1635
 2359SOL    HW118539   3.536   1.043  13.808  0.9386  2.3064  3.1423
 2359SOL    HW218540   3.622   0.919  13.782  1.9472  2.5813 -2.1751
 2360SOL     OW18541   0.228   3.883   2.199 -0.1128 -0.3410  0.2482
 2360SOL    HW118542   0.227   3.900   2.105 -0.1825 -1.2220  0.0822
 2360SOL    HW218543   0.165   3.811   2.206  0.5913 -1.1543 -1.8172
 2361SOL     OW18544   2.779   2.650   8.674  0.2684  0.6958 -0.0460
 2361SOL    HW118545   2.717   2.587   8.713 -0.6632  2.0032  0.5724
 2361SOL    HW218546   2.820   2.604   8.601  0.6136  0.3706  0.3514
 2362SOL     OW18547   2.344   1.006   4.818 -0.2900 -0.1774  0.1611
 2362SOL    HW118548   2.286   0.946   4.865 -0.5722  0.0678  0.1221
 2362SOL    HW218549   2.379   1.062   4.887 -1.7465  1.0458 -0.0831
 2363SOL     OW18550   4.021   3.208   3.408  0.3737  0.2316  0.3504
 2363SOL    HW118551   4.097   3.226   3.463 -0.1170  1.6555  0.5556
 2363SOL    HW218552   4.048   3.250   3.326  1.0673  1.0722  1.0042
 2364SOL     OW18553   2.042   1.999   4.169  0.4653  0.1929 -0.0430
 2364SOL    HW118554   2.047   1.938   4.243 -0.3352 -0.7572 -0.7587
 2364SOL    HW218555   2.134   2.014   4.149  1.0806 -0.3793  2.2712
 2365SOL     OW18556   2.788   0.164  11.914 -0.1584  0.3105  0.1332
 2365SOL    HW118557   2.874   0.137  11.881  0.6055  1.2790  1.3775
 2365SOL    HW218558   2.807   0.237  11.972 -0.5932  0.2729  0.3214
 2366SOL     OW18559   0.691   2.560   4.703  0.4852 -0.2810 -0.4294
 2366SOL    HW118560   0.669   2.515   4.622  1.3251  0.7719 -1.2388
 2366SOL    HW218561   0.671   2.497   4.772 -0.3710  1.0420  0.5311
 2367SOL     OW18562   4.511   3.867   3.483 -0.6518  0.2129 -0.3491
 2367SOL    HW118563   4.439   3.868   3.547 -0.6800  1.2231 -0.4087
 2367SOL    HW218564   4.462   3.896   3.406 -1.2845 -0.2972 -0.1489
 2368SOL     OW18565   1.475   4.579   3.965  0.3845 -0.2700  0.0863
 2368SOL    HW118566   1.459   4.613   4.053  0.2154 -0.3190  0.0746
 2368SOL    HW218567   1.561   4.618   3.952 -0.2117  0.4147 -1.6886
 2369SOL     OW18568   0.323   0.688   9.821  0.2511 -0.1428 -0.1985
 2369SOL    HW118569   0.372   0.736   9.754  0.5352 -1.2801 -0.7988
 2369SOL    HW218570   0.389   0.698   9.890  1.2600  3.6955 -1.7265
 2370SOL     OW18571   0.056   1.878   9.709 -0.0076 -0.2322  0.3615
 2370SOL    HW118572   0.087   1.933   9.782 -1.8436  1.4698 -0.1371
 2370SOL    HW218573   0.062   1.790   9.747 -1.4528  0.3697  1.9983
 2371SOL     OW18574   3.588   0.458   1.669 -0.1645 -0.2340  0.6777
 2371SOL    HW118575   3.554   0.420   1.750  0.0673 -0.4781  0.6603
 2371SOL    HW218576   3.678   0.426   1.676 -0.0769  0.0158  0.6892
 2372SOL     OW18577   2.213   0.484   0.544  0.4193 -0.0180 -0.4155
 2372SOL    HW118578   2.126   0.491   0.507  1.7602  2.2581 -3.0724
 2372SOL    HW218579   2.180   0.463   0.632 -2.3316 -4.7779 -2.5689
 2373SOL     OW18580   0.209   1.124   4.449 -0.3556  0.1090  0.3949
 2373SOL    HW118581   0.272   1.187   4.482  1.4695 -0.6406 -1.6211
 2373SOL    HW218582   0.270   1.078   4.391  1.6565  0.6022  2.1542
 2374SOL     OW18583   0.744   1.057   8.387  0.0736  0.5578  0.2125
 2374SOL    HW118584   0.728   0.975   8.339  1.5138 -0.2118  1.0174
 2374SOL    HW218585   0.695   1.044   8.468  0.4077  0.5117  0.4092
 2375SOL     OW18586   3.674   3.651   7.555 -0.3768 -0.1707  0.0546
 2375SOL    HW118587   3.726   3.727   7.578 -1.6510  0.2919  1.4196
 2375SOL    HW218588   3.621   3.692   7.486 -0.0928 -0.5447 -0.3910
 2376SOL     OW18589   2.198   0.218  12.120  0.3548  0.3073 -0.6878
 2376SOL    HW118590   2.119   0.167  12.137  1.1968 -0.2446  1.6652
 2376SOL    HW218591   2.161   0.298  12.082  0.5361  0.7590  0.0669
 2377SOL     OW18592   4.316   0.140   4.941 -0.4391  0.3242  0.3763
 2377SOL    HW118593   4.323   0.123   5.035 -1.7606 -1.1830  0.2013
 2377SOL    HW218594   4.391   0.086   4.917  0.9830  1.3388  2.5210
 2378SOL     OW18595   0.982   2.146   7.106  0.0229 -0.1395 -0.3476
 2378SOL    HW118596   1.009   2.111   7.191  1.9883 -4.0381 -2.5840
 2378SOL    HW218597   0.888   2.168   7.106 -0.2088 -1.1210  0.6682
 2379SOL     OW18598   2.642   3.927   7.482  0.1829  0.1058 -1.0565
 2379SOL    HW118599   2.657   3.863   7.413  0.2846 -0.3864 -0.5840
 2379SOL    HW218600   2.609   4.001   7.433 -0.6243  1.5908  1.7113
 2380SOL     OW18601   2.705   1.737   5.967 -0.1867  0.0264  0.0089
 2380SOL    HW118602   2.689   1.656   6.014  0.4636 -0.3248 -0.3789
 2380SOL    HW218603   2.708   1.707   5.876  0.2556 -2.6178  0.9126
 2381SOL     OW18604   2.106   3.928  16.028 -0.1179  0.0761 -0.1883
 2381SOL    HW118605   2.132   3.888  16.110  0.2820 -4.0532 -2.3006
 2381SOL    HW218606   2.113   3.867  15.954 -0.2638 -2.2135  1.7097
 2382SOL     OW18607   1.310   3.135   5.128  0.1937 -0.6568 -0.5722
 2382SOL    HW118608   1.241   3.176   5.076 -1.5498  0.3559  2.5755
 2382SOL    HW218609   1.391   3.149   5.077  1.2993  3.3497  2.2135
 2383SOL     OW18610   4.670   2.573   9.193 -0.1593  0.6676  0.5789
 2383SOL    HW118611   4.629   2.611   9.271 -0.2840 -0.4725  1.0712
 2383SOL    HW218612   4.604   2.509   9.168  1.3287 -1.2726  1.5800
 2384SOL     OW18613   2.948   3.512   2.152  0.1770  0.3423 -0.2393
 2384SOL    HW118614   2.871   3.493   2.205  0.6733  0.2009  0.4408
 2384SOL    HW218615   2.999   3.524   2.233 -0.8987  1.6087  0.2565
 2385SOL     OW18616   1.819   1.219   7.136  0.2824  0.8544  0.2819
 2385SOL    HW118617   1.902   1.220   7.087 -0.5959 -0.0734 -1.2173
 2385SOL    HW218618   1.827   1.142   7.191  0.4124  0.1555 -0.7185
 2386SOL     OW18619   2.301   4.348  16.618 -0.4094  0.4811 -0.3783
 2386SOL    HW118620   2.235   4.416  16.604 -2.9496 -1.2858  3.0430
 2386SOL    HW218621   2.376   4.389  16.660 -0.2574  0.2342 -0.4112
 2387SOL     OW18622   3.258   1.322   4.473 -0.2187 -0.1689  0.4498
 2387SOL    HW118623   3.280   1.414   4.487 -0.2254 -0.4985  2.5736
 2387SOL    HW218624   3.307   1.308   4.392 -1.0129 -0.5218  0.0247
 2388SOL     OW18625   3.863   1.832   2.403 -0.3345  0.3037 -0.2651
 2388SOL    HW118626   3.937   1.879   2.365  0.0290 -0.5878 -0.6638
 2388SOL    HW218627   3.894   1.813   2.491 -1.9903 -3.9027 -0.5885
 2389SOL     OW18628   2.119   3.753  12.392  0.5052  0.4736 -0.0263
 2389SOL    HW118629   2.150   3.663  12.382 -0.6778  0.1937 -1.1893
 2389SOL    HW218630   2.192   3.782  12.447  0.6968 -0.9265  0.4721
 2390SOL     OW18631   1.712   3.585   6.220  0.3528  0.3529  0.1384
 2390SOL    HW118632   1.628   3.616   6.254 -0.1134 -0.2064 -0.5158
 2390SOL    HW218633   1.737   3.651   6.156  2.6862 -1.0667 -0.3987
 2391SOL     OW18634   4.438   2.461   0.316 -0.3272 -0.1750  0.1778
 2391SOL    HW118635   4.356   2.419   0.290  0.2046 -0.0247 -1.7510
 2391SOL    HW218636   4.408   2.492   0.402 -1.3394 -1.6881  0.3740
 2392SOL     OW18637   0.589   1.702   2.785  0.0546  0.0358 -0.4000
 2392SOL    HW118638   0.544   1.740   2.861 -0.4132  2.2535 -1.7822
 2392SOL    HW218639   0.571   1.610   2.805  1.0958  0.2761  1.6893
 2393SOL     OW18640   4.167   0.511   3.571  0.3704  0.2089 -0.1327
 2393SOL    HW118641   4.208   0.458   3.502 -0.1216 -1.4373  0.8258
 2393SOL    HW218642   4.240   0.501   3.633  1.1393 -1.0459 -1.2495
 2394SOL     OW18643   3.153   4.330   1.282  0.2802 -0.3368 -0.2928
 2394SOL    HW118644   3.201   4.371   1.210  3.0429  0.0069  1.7748
 2394SOL    HW218645   3.220   4.337   1.350 -0.3136  1.4185  0.1227
 2395SOL     OW18646   0.002   2.895   2.550  0.4702 -0.3258 -0.5010
 2395SOL    HW118647   4.676   2.848   2.481 -0.4781 -0.7869  0.4710
 2395SOL    HW218648   4.660   2.883   2.620  1.9022 -2.6731  0.4044
 2396SOL     OW18649   4.198   4.217   1.866 -0.1703  0.2230  0.4402
 2396SOL    HW118650   4.231   4.276   1.798 -2.0283  0.7699  0.0004
 2396SOL    HW218651   4.247   4.244   1.943  0.4825  0.1739  0.0391
 2397SOL     OW18652   2.057   0.939   8.470 -0.0782 -0.4853  0.1742
 2397SOL    HW118653   2.111   1.006   8.512 -0.0456 -1.5257  1.8237
 2397SOL    HW218654   2.095   0.856   8.500  0.0253 -1.6392 -3.1975
 2398SOL     OW18655   2.665   3.009  12.056  0.4203  0.2161  0.1632
 2398SOL    HW118656   2.721   3.085  12.037 -0.7479  0.7176 -1.2707
 2398SOL    HW218657   2.658   3.005  12.152  0.7392  0.2587  0.1891
 2399SOL     OW18658   3.863   0.185   6.720 -0.1814 -0.1997 -0.2390
 2399SOL    HW118659   3.850   0.139   6.637  0.7761  0.3265 -0.6758
 2399SOL    HW218660   3.775   0.181   6.759 -0.5236 -0.1025 -1.0001
 2400SOL     OW18661   3.280   2.152  14.390  0.2100  0.5800  0.8309
 2400SOL    HW118662   3.239   2.072  14.423 -0.6041 -0.6383 -3.1626
 2400SOL    HW218663   3.321   2.127  14.308  1.0074 -1.9528  1.9863
 2401SOL     OW18664   2.788   1.711  11.744  0.2041 -0.1714 -0.0047
 2401SOL    HW118665   2.724   1.694  11.813 -0.4929 -0.0320 -0.6165
 2401SOL    HW218666   2.758   1.639  11.688 -0.5065 -0.3798  0.6281
 2402SOL     OW18667   4.368   3.931   3.244  0.3133 -0.2745  0.1931
 2402SOL    HW118668   4.277   3.952   3.265 -0.1434 -1.0286 -0.9931
 2402SOL    HW218669   4.371   3.899   3.154  1.4126  0.1587  0.0812
 2403SOL     OW18670   0.830   1.523   0.998 -0.5257  0.4756 -0.2173
 2403SOL    HW118671   0.830   1.430   1.019 -1.2200  0.8689  1.5089
 2403SOL    HW218672   0.809   1.555   1.086 -3.0095 -3.4969  0.6551
 2404SOL     OW18673   3.161   0.370   7.327 -0.3795 -0.0989  0.4435
 2404SOL    HW118674   3.205   0.326   7.401 -0.6207 -1.8933 -0.4703
 2404SOL    HW218675   3.164   0.307   7.255  1.2300  0.4876  0.0074
 2405SOL     OW18676   2.012   2.565  13.594 -0.3182 -0.2461  0.1106
 2405SOL    HW118677   2.051   2.547  13.680  0.1018 -0.0210 -0.0326
 2405SOL    HW218678   2.036   2.492  13.538 -0.9369  1.2108 -2.0704
 2406SOL     OW18679   2.708   0.225   4.373  0.4664  0.4218  0.4762
 2406SOL    HW118680   2.637   0.258   4.429 -0.6324  1.5412 -1.5527
 2406SOL    HW218681   2.661   0.222   4.289 -0.6405 -0.7498  1.1504
 2407SOL     OW18682   3.063   4.291   6.326 -0.6290  0.2514 -0.5616
 2407SOL    HW118683   2.992   4.231   6.348 -0.2113  0.6313  1.7502
 2407SOL    HW218684   3.116   4.296   6.405 -0.1885  0.5473 -0.8750
 2408SOL     OW18685   4.143   1.524   7.021  0.5264 -0.0194 -0.0597
 2408SOL    HW118686   4.075   1.468   7.059  1.1951 -1.4387 -0.9644
 2408SOL    HW218687   4.084   1.569   6.961 -0.9201  0.7197  1.9067
 2409SOL     OW18688   2.089   1.666  15.457 -0.4706  0.2943 -0.5487
 2409SOL    HW118689   2.151   1.701  15.393 -0.3981 -0.4212 -0.8645
 2409SOL    HW218690   2.147   1.603  15.501  1.0725  0.9046 -1.7202
 2410SOL     OW18691   2.298   3.134  16.549  0.3758  0.2768 -0.3392
 2410SOL    HW118692   2.268   3.185  16.474 -2.9655 -0.3438  0.5850
 2410SOL    HW218693   2.311   3.198  16.618 -0.2373  0.5111 -0.4428
 2411SOL     OW18694   0.414   3.475  17.215 -0.2182  0.1898  0.2012
 2411SOL    HW118695   0.461   3.481  17.299 -3.3811  0.0663  1.9768
 2411SOL    HW218696   0.329   3.441  17.242 -1.4805  0.8732 -2.9706
 2412SOL     OW18697   3.909   2.255  13.059  0.0281 -0.1011 -0.2275
 2412SOL    HW118698   3.848   2.181  13.054 -1.1459  0.9025 -0.9746
 2412SOL    HW218699   3.994   2.213  13.059  0.7343  1.3203 -0.1002
 2413SOL     OW18700   4.200   0.139   5.832 -0.7633 -0.1084 -0.4462
 2413SOL    HW118701   4.154   0.122   5.914  2.3146 -2.2227  0.8652
 2413SOL    HW218702   4.145   0.205   5.790  0.3677  0.3059 -1.2742
 2414SOL     OW18703   0.385   4.197   7.513 -1.0531  0.2624 -0.1627
 2414SOL    HW118704   0.290   4.210   7.510 -1.0909  0.3126  1.2378
 2414SOL    HW218705   0.417   4.246   7.589  0.7341 -0.1944 -0.6253
 2415SOL     OW18706   2.211   1.075   2.071  0.4116 -0.3039  0.6906
 2415SOL    HW118707   2.266   1.045   2.143 -1.3781 -1.7078  1.4885
 2415SOL    HW218708   2.250   1.033   1.995 -0.0172 -0.0394  0.3247
 2416SOL     OW18709   3.199   1.956   2.528 -0.2105  0.0851 -0.6571
 2416SOL    HW118710   3.139   1.936   2.457  1.2942 -0.8979 -1.6383
 2416SOL    HW218711   3.264   2.008   2.481 -1.1020  1.0112 -0.8707
 2417SOL     OW18712   3.414   3.181   6.910 -0.2681  0.1867  0.3793
 2417SOL    HW118713   3.452   3.093   6.913 -0.5250  0.0503 -0.2646
 2417SOL    HW218714   3.330   3.173   6.955 -0.4034 -3.4497 -0.5053
 2418SOL     OW18715   4.408   0.460   4.652  0.4622 -0.3844  0.2425
 2418SOL    HW118716   4.451   0.545   4.648 -0.4420 -0.0220 -1.4024
 2418SOL    HW218717   4.487   0.407   4.668  0.2976 -1.5766 -3.0226
 2419SOL     OW18718   4.712   4.240   0.812 -0.1259  0.0845  0.2581
 2419SOL    HW118719   4.700   4.146   0.824  0.6147 -0.5279 -3.7361
 2419SOL    HW218720   4.718   4.274   0.901 -1.7318 -1.3365  0.8945
 2420SOL     OW18721   1.218   3.238   9.065  0.1706  0.1112 -0.1027
 2420SOL    HW118722   1.254   3.156   9.033 -0.3614  1.1945 -3.4868
 2420SOL    HW218723   1.157   3.204   9.130  1.4826 -1.0215  0.5206
 2421SOL     OW18724   0.278   2.534  17.246 -0.8841 -0.6077  0.0633
 2421SOL    HW118725   0.339   2.565  17.313 -0.2299 -1.2666 -0.2328
 2421SOL    HW218726   0.221   2.471  17.290 -1.4121  0.7070  1.2829
 2422SOL     OW18727   0.212   3.652   8.617  0.3192 -0.3959 -0.0332
 2422SOL    HW118728   0.199   3.558   8.629 -3.2330  0.4955  3.1792
 2422SOL    HW218729   0.283   3.658   8.554  0.5406 -2.3297  0.0242
 2423SOL     OW18730   4.544   3.096  15.607 -0.6664 -0.8352 -0.1229
 2423SOL    HW118731   4.637   3.076  15.596 -0.1596  0.4539  1.8271
 2423SOL    HW218732   4.519   3.005  15.624 -3.3237 -0.5401 -2.5990
 2424SOL     OW18733   3.926   0.005   5.569  0.1126  0.3302 -0.0335
 2424SOL    HW118734   3.873   0.083   5.552 -0.8547 -0.2517  0.3150
 2424SOL    HW218735   3.878   4.689   5.643 -1.5227  2.0663 -0.1942
 2425SOL     OW18736   1.071   2.838   7.315  0.3238  0.0557 -0.1901
 2425SOL    HW118737   1.123   2.788   7.253 -0.1531 -0.5251 -0.1246
 2425SOL    HW218738   0.981   2.824   7.283  0.1116 -0.4158  0.6074
 2426SOL     OW18739   4.439   0.966   6.777  0.0480  0.3939 -0.0106
 2426SOL    HW118740   4.476   0.897   6.720  1.8855  0.6782  0.8388
 2426SOL    HW218741   4.466   0.937   6.864 -0.2081  2.0614  0.6096
 2427SOL     OW18742   4.497   3.445  16.609  0.6453  0.3590  0.0801
 2427SOL    HW118743   4.572   3.457  16.550  0.8754  1.6671  0.6234
 2427SOL    HW218744   4.525   3.395  16.686  0.9022  1.4219  0.6876
 2428SOL     OW18745   1.143   1.683   4.968 -0.2925  0.1747  0.2316
 2428SOL    HW118746   1.180   1.669   5.055  0.5192 -0.0074 -0.1374
 2428SOL    HW218747   1.170   1.601   4.926  0.5532  0.2968  0.5241
 2429SOL     OW18748   4.220   4.683   4.344  0.2083 -0.0939 -0.1850
 2429SOL    HW118749   4.199   4.711   4.255  1.2316  1.0396 -0.0702
 2429SOL    HW218750   4.278   0.029   4.379 -0.0165 -0.6007  1.1583
 2430SOL     OW18751   4.582   1.607   6.821  0.0549 -0.4840  0.2817
 2430SOL    HW118752   4.637   1.662   6.765 -0.3404  0.5238  0.8729
 2430SOL    HW218753   4.579   1.652   6.906 -0.7931  0.5006 -0.2681
 2431SOL     OW18754   4.611   3.248   7.177  0.0709  0.8563  0.7919
 2431SOL    HW118755   4.678   3.235   7.110 -1.1522 -0.3223 -0.2067
 2431SOL    HW218756   4.668   3.240   7.253 -1.9488 -1.8000  2.0129
 2432SOL     OW18757   3.931   2.915   4.086  0.2015  0.0605 -0.0136
 2432SOL    HW118758   3.955   2.972   4.159  0.2329 -1.2790  1.0157
 2432SOL    HW218759   3.844   2.903   4.123 -0.9691 -0.3062 -2.8818
 2433SOL     OW18760   4.341   4.659  11.415  0.8097  0.0481  0.2609
 2433SOL    HW118761   4.286   4.609  11.475 -2.0621 -0.4005 -2.7418
 2433SOL    HW218762   4.319   0.027  11.441  0.7746 -0.7885  3.1518
 2434SOL     OW18763   4.565   2.042   7.387 -0.2278  0.2958  0.3108
 2434SOL    HW118764   4.615   1.997   7.455  0.7558  0.2553 -0.4281
 2434SOL    HW218765   4.485   1.999   7.415  0.5773 -0.7429  1.0271
 2435SOL     OW18766   1.409   3.921   8.693  0.3702 -0.1006  0.0473
 2435SOL    HW118767   1.315   3.907   8.688 -0.1284  2.7200  1.0463
 2435SOL    HW218768   1.396   4.011   8.725 -0.9216 -0.2951  0.0638
 2436SOL     OW18769   2.428   1.867   8.324 -0.1764 -0.3914 -0.0703
 2436SOL    HW118770   2.485   1.896   8.254  0.1686 -0.7884  0.0456
 2436SOL    HW218771   2.342   1.874   8.283 -0.4259 -0.5604  0.4085
 2437SOL     OW18772   3.309   2.604  14.167 -0.4577  0.5324 -0.0235
 2437SOL    HW118773   3.319   2.652  14.084 -0.9708 -0.7538 -0.8327
 2437SOL    HW218774   3.268   2.669  14.224 -1.2097 -0.8180  0.9617
 2438SOL     OW18775   4.434   0.195  11.035  0.0676  0.1182 -0.3571
 2438SOL    HW118776   4.340   0.183  11.021 -0.0526  1.8330 -1.0653
 2438SOL    HW218777   4.454   0.118  11.088 -0.4932  1.6264  2.0510
 2439SOL     OW18778   1.453   3.068   4.465 -0.0412 -0.3943 -0.2723
 2439SOL    HW118779   1.382   3.103   4.518 -0.2454  1.2680 -1.6132
 2439SOL    HW218780   1.423   3.104   4.381  0.3128 -3.4392 -1.7174
 2440SOL     OW18781   2.694   0.701   5.946  0.3338 -0.7099 -0.2701
 2440SOL    HW118782   2.614   0.669   5.903 -0.0673 -1.4649  1.0432
 2440SOL    HW218783   2.666   0.785   5.983 -1.9053 -1.1737 -0.9119
 2441SOL     OW18784   1.078   2.412   5.294  0.1210 -0.0314  0.0095
 2441SOL    HW118785   1.101   2.450   5.209 -0.5489 -2.1008 -1.0965
 2441SOL    HW218786   0.989   2.391   5.266 -0.3102  2.4673 -0.4746
 2442SOL     OW18787   1.598   0.845  11.907 -0.5709  0.1562 -0.6633
 2442SOL    HW118788   1.585   0.759  11.866  2.3136  0.4159 -2.1387
 2442SOL    HW218789   1.648   0.883  11.834  0.0502  0.4396 -0.0892
 2443SOL     OW18790   4.174   3.123   2.517  0.2127 -0.5550  0.4198
 2443SOL    HW118791   4.172   3.203   2.466 -2.8597 -0.4382  0.7306
 2443SOL    HW218792   4.269   3.112   2.521  0.2663 -0.2753 -0.1363
 2444SOL     OW18793   4.104   4.210   7.281  0.0896 -0.3015 -0.5087
 2444SOL    HW118794   4.066   4.278   7.337 -1.4132 -1.2585 -0.3521
 2444SOL    HW218795   4.177   4.180   7.334  0.8142  0.3374 -1.1513
 2445SOL     OW18796   3.305   3.609   2.846  0.1558 -0.5585  0.1595
 2445SOL    HW118797   3.300   3.651   2.761 -1.4530  0.4197  0.7465
 2445SOL    HW218798   3.389   3.642   2.878  0.0732  0.2324 -0.4459
 2446SOL     OW18799   3.482   3.971  17.632  0.0584  0.5366 -0.2528
 2446SOL    HW118800   3.398   3.948  17.671 -0.3761  0.0497 -1.4648
 2446SOL    HW218801   3.454   3.975  17.541  2.8303 -0.6217 -1.1485
 2447SOL     OW18802   1.391   1.211   8.503  0.4078 -0.3335  0.5174
 2447SOL    HW118803   1.371   1.136   8.447 -0.7108 -0.9405  1.7083
 2447SOL    HW218804   1.414   1.168   8.586  1.5577 -0.8281 -0.0641
 2448SOL     OW18805   3.200   4.133   3.563 -0.7960 -0.1948  0.1955
 2448SOL    HW118806   3.158   4.146   3.478 -0.3171  3.3858  0.5036
 2448SOL    HW218807   3.244   4.049   3.549  0.5741  0.9582 -2.4212
 2449SOL     OW18808   3.152   4.580  13.747 -0.7955 -0.1024 -0.4024
 2449SOL    HW118809   3.102   4.504  13.717  0.2060 -1.3757  1.1982
 2449SOL    HW218810   3.083   4.642  13.773 -0.7709 -0.5251  0.6631
 2450SOL     OW18811   2.814   0.495   5.311 -0.1645 -0.0373 -0.2503
 2450SOL    HW118812   2.778   0.583   5.300 -0.7135 -0.1020  1.0680
 2450SOL    HW218813   2.879   0.493   5.240 -0.0422 -0.9242 -0.1099
 2451SOL     OW18814   1.175   3.781   6.635 -0.4561 -0.2811 -0.1276
 2451SOL    HW118815   1.256   3.745   6.671 -0.1288 -0.6862 -1.2675
 2451SOL    HW218816   1.181   3.874   6.657  3.2529 -0.8828  1.3495
 2452SOL     OW18817   2.156   4.112   8.720  0.0393  0.4468 -0.4473
 2452SOL    HW118818   2.072   4.094   8.763 -0.5894  1.4346 -1.2750
 2452SOL    HW218819   2.137   4.199   8.685  2.3015 -0.1982 -3.2841
 2453SOL     OW18820   3.989   4.572  10.107 -0.1925  0.1525 -0.7240
 2453SOL    HW118821   4.056   4.505  10.096  2.4669  2.2051  2.8660
 2453SOL    HW218822   3.914   4.515  10.125  1.4211 -2.2493 -1.6641
 2454SOL     OW18823   3.318   2.233   8.345 -0.3645 -0.2882  0.3557
 2454SOL    HW118824   3.375   2.172   8.393  1.2712  0.5072 -0.5705
 2454SOL    HW218825   3.372   2.311   8.329  0.5592 -1.5789 -2.6613
 2455SOL     OW18826   2.418   0.841   8.015  0.2569 -0.3902  0.0028
 2455SOL    HW118827   2.337   0.839   8.065  1.1387  0.5976  1.4681
 2455SOL    HW218828   2.473   0.788   8.074 -0.2994 -1.4376 -0.4176
 2456SOL     OW18829   0.730   2.008   0.901  0.7260 -0.1632 -0.5082
 2456SOL    HW118830   0.799   2.072   0.922 -0.9705  1.3950  0.3787
 2456SOL    HW218831   0.788   1.933   0.911 -1.0311 -1.8983 -3.2528
 2457SOL     OW18832   0.941   3.839   2.014  0.2711 -0.5255 -0.0854
 2457SOL    HW118833   0.916   3.923   1.976 -0.2002  0.8454  3.2244
 2457SOL    HW218834   0.944   3.851   2.109 -0.1370 -0.8877 -0.0250
 2458SOL     OW18835   2.670   3.665   5.923 -0.1668 -0.0220  0.4155
 2458SOL    HW118836   2.606   3.707   5.866  0.1978 -0.9078 -0.6325
 2458SOL    HW218837   2.617   3.596   5.964 -1.9694  2.2123  1.8487
 2459SOL     OW18838   2.908   4.153  15.161  0.1326  0.1820  0.6645
 2459SOL    HW118839   2.834   4.185  15.110 -1.2810 -0.8002  2.1068
 2459SOL    HW218840   2.887   4.059  15.163  0.9068 -0.0013  0.3420
 2460SOL     OW18841   1.513   0.422   8.034 -0.3853 -0.9636  0.2624
 2460SOL    HW118842   1.539   0.512   8.015 -1.2115 -0.7744  0.0130
 2460SOL    HW218843   1.480   0.401   7.946 -0.7671 -1.2895  0.4827
 2461SOL     OW18844   0.009   1.754   7.150 -0.3644  0.2581  0.2250
 2461SOL    HW118845   0.032   1.670   7.109  0.4742  1.3245 -1.5245
 2461SOL    HW218846   0.069   1.748   7.224 -0.1380 -1.5024 -0.0962
 2462SOL     OW18847   1.361   3.954  10.710 -0.1619  0.0790 -0.2984
 2462SOL    HW118848   1.283   3.916  10.669  0.2816 -0.2515 -0.8278
 2462SOL    HW218849   1.331   3.974  10.799  0.0549  2.3115 -0.7077
 2463SOL     OW18850   3.098   3.650   4.604  0.3378  0.1809  0.0425
 2463SOL    HW118851   3.062   3.624   4.519 -0.6021  2.3091 -0.1969
 2463SOL    HW218852   3.102   3.565   4.649  0.5230 -0.4812 -1.2307
 2464SOL     OW18853   1.614   4.262  15.177 -0.4910 -0.0228 -0.2474
 2464SOL    HW118854   1.594   4.169  15.163 -1.3627  0.3692 -1.6233
 2464SOL    HW218855   1.636   4.257  15.270 -0.7617 -0.2282 -0.1919
 2465SOL     OW18856   3.103   1.770   6.931  0.2982  0.0605 -0.3281
 2465SOL    HW118857   3.030   1.832   6.931  1.6157  1.6376 -1.7598
 2465SOL    HW218858   3.121   1.756   6.838 -0.8117 -2.1150 -0.2103
 2466SOL     OW18859   4.006   0.663  16.731 -0.0839 -0.0008 -0.1617
 2466SOL    HW118860   3.917   0.664  16.764  0.1532  3.1733  0.3323
 2466SOL    HW218861   4.009   0.757  16.714  1.9937  0.4353  2.5779
 2467SOL     OW18862   4.583   1.103   7.901  0.0042  0.0263 -0.6731
 2467SOL    HW118863   4.661   1.061   7.936  1.1491  2.0070 -0.8661
 2467SOL    HW218864   4.517   1.055   7.952  0.9448 -1.6259 -1.0004
 2468SOL     OW18865   4.669   1.938   5.648 -0.1682  0.9952 -0.2259
 2468SOL    HW118866   4.703   1.963   5.562  2.0227  1.0143  0.6571
 2468SOL    HW218867   4.678   1.845   5.627 -2.6292  0.2945  1.7402
 2469SOL     OW18868   4.526   1.017   3.808  0.1172 -0.0122  0.3604
 2469SOL    HW118869   4.610   1.032   3.764  0.5996 -2.5545  0.4395
 2469SOL    HW218870   4.506   1.109   3.823 -1.3130 -0.1441 -0.7273
 2470SOL     OW18871   2.335   0.594   8.762  0.6578 -0.5659 -0.4970
 2470SOL    HW118872   2.407   0.644   8.801 -0.3817  0.1575  0.5068
 2470SOL    HW218873   2.364   0.503   8.754 -1.3255 -1.2605  0.3885
 2471SOL     OW18874   3.471   0.557  16.003 -0.6728 -0.5129  0.3672
 2471SOL    HW118875   3.538   0.547  15.935 -0.1864  2.3840  0.4477
 2471SOL    HW218876   3.513   0.605  16.074 -0.2085 -0.5857  0.1439
 2472SOL     OW18877   3.035   0.182  11.825 -0.9542  0.3487 -0.2001
 2472SOL    HW118878   3.070   0.117  11.886 -1.3554  0.8332  0.5578
 2472SOL    HW218879   3.110   0.207  11.770 -0.5442 -0.7154 -0.1230
 2473SOL     OW18880   4.586   4.040   5.965  0.2353 -0.1285 -0.3375
 2473SOL    HW118881   4.609   4.109   6.027  1.5014 -1.4224  0.6114
 2473SOL    HW218882   4.531   4.095   5.908  0.8911  0.4279 -0.4385
 2474SOL     OW18883   4.242   3.680   8.262 -0.0139 -0.1503 -0.0713
 2474SOL    HW118884   4.321   3.720   8.297  1.9053 -2.1225 -2.1187
 2474SOL    HW218885   4.184   3.717   8.328 -0.7494 -1.1440 -0.1624
 2475SOL     OW18886   3.088   0.231   1.568  0.8209  0.6285 -0.0533
 2475SOL    HW118887   3.138   0.174   1.510 -0.3603  1.5615 -1.9971
 2475SOL    HW218888   2.996   0.206   1.559  0.1236  2.9387  0.7174
 2476SOL     OW18889   4.367   2.111  10.213  0.4646  0.4121 -0.2616
 2476SOL    HW118890   4.300   2.057  10.170 -1.4125  2.6285 -0.1025
 2476SOL    HW218891   4.430   2.044  10.240 -1.1385 -1.4125 -0.9882
 2477SOL     OW18892   2.550   3.534   1.355 -0.1321 -0.7147  0.0560
 2477SOL    HW118893   2.493   3.465   1.321  1.9674 -2.4389  0.1033
 2477SOL    HW218894   2.532   3.525   1.449 -0.7727  0.3788  0.0435
 2478SOL     OW18895   4.288   4.271   8.696 -0.6146 -0.2047 -0.4320
 2478SOL    HW118896   4.220   4.243   8.634 -2.1800 -2.2112  2.2422
 2478SOL    HW218897   4.344   4.194   8.706 -1.3299 -0.7116 -0.3890
 2479SOL     OW18898   3.175   3.097   6.627 -0.3481  0.0724  0.3393
 2479SOL    HW118899   3.220   3.063   6.550 -0.1244  1.1946 -0.0172
 2479SOL    HW218900   3.211   3.047   6.700  0.8380 -0.4322 -0.5954
 2480SOL     OW18901   2.757   3.342   7.629  0.0181 -0.1691  0.2143
 2480SOL    HW118902   2.769   3.392   7.710  1.2233  0.0156 -0.0873
 2480SOL    HW218903   2.757   3.253   7.664 -0.6958 -0.2428  0.0210
 2481SOL     OW18904   3.985   3.101   0.331 -0.0139 -0.4183 -0.4782
 2481SOL    HW118905   4.007   3.087   0.239  2.2694 -1.2684  0.1917
 2481SOL    HW218906   4.067   3.066   0.368 -1.3365 -2.6403  0.3577
 2482SOL     OW18907   0.779   2.208  13.010 -0.3958  0.2611 -0.0309
 2482SOL    HW118908   0.727   2.146  12.959  0.0205 -0.6175  0.6093
 2482SOL    HW218909   0.747   2.290  12.973  2.2647  0.4102 -2.0655
 2483SOL     OW18910   2.411   2.698  14.716 -0.2130 -0.7613  0.2409
 2483SOL    HW118911   2.369   2.784  14.721 -0.0026 -0.6528  0.1488
 2483SOL    HW218912   2.427   2.676  14.807 -1.0598 -1.6266  0.1781
 2484SOL     OW18913   1.677   4.049   6.820  0.1237  0.3398  0.1656
 2484SOL    HW118914   1.685   4.127   6.875 -0.1895 -0.2815  1.0903
 2484SOL    HW218915   1.583   4.045   6.807  0.3109 -0.0439 -1.1133
 2485SOL     OW18916   0.939   2.207   2.468 -0.1874 -0.3109 -0.2529
 2485SOL    HW118917   1.011   2.227   2.408  0.6561  0.4737  0.9919
 2485SOL    HW218918   0.926   2.115   2.444  1.8189 -0.9173  0.8805
 2486SOL     OW18919   0.861   0.807   5.720  0.7427  0.2155 -0.2739
 2486SOL    HW118920   0.842   0.842   5.634 -0.0503 -1.2882 -0.7181
 2486SOL    HW218921   0.798   0.735   5.726  3.7115 -2.4997 -1.2314
 2487SOL     OW18922   2.071   3.639   5.073  0.0136  0.4877 -0.1355
 2487SOL    HW118923   2.050   3.621   5.165 -0.7102 -0.8137 -0.5518
 2487SOL    HW218924   2.119   3.721   5.081 -0.9293  1.1748 -1.4453
 2488SOL     OW18925   2.991   3.003  10.987 -0.0155  0.1655  0.4456
 2488SOL    HW118926   3.086   3.014  10.986 -0.0577  0.2907 -1.0965
 2488SOL    HW218927   2.967   3.085  10.944 -0.2523  0.2018  0.6495
 2489SOL     OW18928   1.171   4.139   6.965  0.0023 -0.1299  0.2292
 2489SOL    HW118929   1.246   4.165   6.911  0.3829 -0.5509  0.5586
 2489SOL    HW218930   1.142   4.228   6.986  0.7327  0.0792  0.3442
 2490SOL     OW18931   0.971   2.087   0.737 -0.2662 -0.2487  0.0571
 2490SOL    HW118932   0.934   2.162   0.690 -1.2975 -1.4239 -1.0043
 2490SOL    HW218933   1.016   2.033   0.672 -1.3143  1.2140 -1.9095
 2491SOL     OW18934   1.010   3.666   4.529  0.3260  0.0242 -0.4921
 2491SOL    HW118935   1.072   3.693   4.462  1.3729  0.8127  0.8089
 2491SOL    HW218936   1.023   3.572   4.537 -4.5634 -0.3923  2.3048
 2492SOL     OW18937   3.891   4.236   7.107  0.4778 -0.6527  0.3033
 2492SOL    HW118938   3.889   4.151   7.063 -0.0582 -0.9619  0.9210
 2492SOL    HW218939   3.969   4.235   7.163 -1.3973 -1.1530  2.8926
 2493SOL     OW18940   3.431   2.780  12.365  0.7716 -1.0083  0.2301
 2493SOL    HW118941   3.400   2.744  12.282  0.5362  1.3474 -0.6911
 2493SOL    HW218942   3.479   2.709  12.407 -1.2682 -2.9745 -0.7648
 2494SOL     OW18943   2.906   2.299   3.096  0.3369  0.3497 -0.0667
 2494SOL    HW118944   2.814   2.286   3.117  0.8651 -0.2087  1.9376
 2494SOL    HW218945   2.895   2.284   3.002  1.1460  1.5465 -0.3579
 2495SOL     OW18946   2.415   0.809   4.620 -1.0245 -0.0595  0.3631
 2495SOL    HW118947   2.504   0.837   4.641 -0.1899 -2.4607 -0.0598
 2495SOL    HW218948   2.371   0.852   4.693 -0.3008  1.5098 -0.1077
 2496SOL     OW18949   1.957   1.407   8.383  0.2562 -0.1228 -0.7470
 2496SOL    HW118950   1.929   1.323   8.419  0.4810  1.0809  2.2727
 2496SOL    HW218951   2.050   1.396   8.362  0.1181 -0.9433 -0.9252
 2497SOL     OW18952   0.291   4.436  10.441  0.1220  0.0772 -0.1502
 2497SOL    HW118953   0.240   4.398  10.513  0.3299  0.3341  0.1387
 2497SOL    HW218954   0.219   4.475  10.392  0.8002  1.2819 -0.1932
 2498SOL     OW18955   2.271   2.346   5.280  0.3519  0.0739  0.1916
 2498SOL    HW118956   2.317   2.377   5.358 -0.3682  1.8716 -0.1183
 2498SOL    HW218957   2.261   2.425   5.228  0.2135 -1.2310 -1.7943
 2499SOL     OW18958   4.711   0.010   6.306  0.4534  0.1055  0.6819
 2499SOL    HW118959   4.709   0.089   6.252  0.9623 -0.1161  0.3346
 2499SOL    HW218960   0.009   4.659   6.247 -0.3302 -0.5983  1.2911
 2500SOL     OW18961   2.726   0.213   2.719  0.7535 -0.3967 -0.7609
 2500SOL    HW118962   2.804   0.216   2.775 -0.1083  3.8648  0.2118
 2500SOL    HW218963   2.689   0.127   2.738  0.5676 -0.3497 -0.9084
 2501SOL     OW18964   1.478   0.436   8.980 -0.4864  0.0407  0.6632
 2501SOL    HW118965   1.574   0.437   8.987 -0.5285  0.5988  1.1277
 2501SOL    HW218966   1.455   0.480   8.899 -1.3774 -2.9154 -0.6726
 2502SOL     OW18967   2.792   2.707   7.490 -0.5796  0.0532  0.1604
 2502SOL    HW118968   2.859   2.714   7.423 -1.6317  0.3093 -0.8732
 2502SOL    HW218969   2.793   2.612   7.501  1.3433 -0.0560 -1.0553
 2503SOL     OW18970   3.851   2.455   3.089 -0.5898 -0.0338  0.3895
 2503SOL    HW118971   3.909   2.383   3.064  0.0435 -0.2367  2.4702
 2503SOL    HW218972   3.817   2.481   3.003 -0.0169 -0.7836 -0.0628
 2504SOL     OW18973   1.389   2.914   8.557  1.3089  0.0772  0.0450
 2504SOL    HW118974   1.466   2.960   8.590  0.4164  1.0671  0.7247
 2504SOL    HW218975   1.320   2.972   8.589 -0.6533 -2.3320  0.1979
 2505SOL     OW18976   2.733   1.047   6.506 -0.1610  0.3597  0.1581
 2505SOL    HW118977   2.687   1.020   6.586 -0.6960  0.0302 -0.2585
 2505SOL    HW218978   2.819   1.067   6.543 -0.5179 -0.1188  1.2487
 2506SOL     OW18979   4.659   3.607   4.231  0.4894  0.1968 -0.1239
 2506SOL    HW118980   4.697   3.583   4.147 -0.4047 -2.9155  0.3456
 2506SOL    HW218981   4.628   3.518   4.251  0.3588  0.4028  0.6186
 2507SOL     OW18982   0.717   1.522   7.623  0.1665 -0.5917  0.3471
 2507SOL    HW118983   0.625   1.543   7.606 -0.2284 -3.3766 -1.0519
 2507SOL    HW218984   0.710   1.428   7.605  1.7585 -0.8409  1.0867
 2508SOL     OW18985   0.809   2.541   0.337 -0.2227  0.4229 -0.1247
 2508SOL    HW118986   0.855   2.617   0.374  0.7541 -0.1110 -0.2667
 2508SOL    HW218987   0.863   2.526   0.260  0.3559 -1.2330  0.6088
 2509SOL     OW18988   4.128   2.008   6.285  0.4133 -0.0882 -0.3020
 2509SOL    HW118989   4.108   2.038   6.374 -1.3128 -0.7746 -0.4425
 2509SOL    HW218990   4.172   2.089   6.260 -0.3232  1.3601  3.1340
 2510SOL     OW18991   3.743   0.693  16.829  0.5388 -0.1738  0.1242
 2510SOL    HW118992   3.710   0.757  16.892  1.2199 -0.3832  0.6980
 2510SOL    HW218993   3.667   0.668  16.777  0.1394 -0.9333  1.0786
 2511SOL     OW18994   4.511   3.494  11.177 -0.1348  0.4681 -0.0466
 2511SOL    HW118995   4.518   3.588  11.161 -1.4622  0.8119  1.3726
 2511SOL    HW218996   4.478   3.465  11.092  0.4107 -0.5799  0.1104
 2512SOL     OW18997   0.752   2.957   6.091 -0.2835 -0.2810  0.0577
 2512SOL    HW118998   0.763   2.954   5.996  2.7145  0.8485  0.3607
 2512SOL    HW218999   0.837   2.931   6.128  0.5309 -0.5454 -1.9999
 2513SOL     OW19000   3.217   0.378   7.846  0.2590  0.2421  0.2767
 2513SOL    HW119001   3.257   0.324   7.915 -0.4569 -1.9026 -0.9682
 2513SOL    HW219002   3.217   0.463   7.889  2.0689  0.0387  0.6682
 2514SOL     OW19003   2.054   2.321   4.037 -0.6557  0.4963  0.1061
 2514SOL    HW119004   2.112   2.247   4.057 -2.1653 -0.8653 -0.6126
 2514SOL    HW219005   2.079   2.369   4.116  1.9829  0.8447 -0.9343
 2515SOL     OW19006   2.852   2.254   8.179 -0.1299 -0.6062  0.5017
 2515SOL    HW119007   2.926   2.285   8.232 -1.5349  0.4002  1.8613
 2515SOL    HW219008   2.850   2.316   8.106  1.0747  0.1616  1.1232
 2516SOL     OW19009   2.345   1.061   6.182 -0.3190 -0.2045 -0.1877
 2516SOL    HW119010   2.394   0.979   6.188 -1.6995 -1.2281 -2.4502
 2516SOL    HW219011   2.423   1.107   6.151  0.9983 -1.3334  1.4498
 2517SOL     OW19012   0.932   0.401   8.206  0.1601 -0.1687  0.2356
 2517SOL    HW119013   1.002   0.411   8.142 -0.4043  1.7022 -0.0878
 2517SOL    HW219014   0.950   0.308   8.217  0.5977 -0.2968 -1.6551
 2518SOL     OW19015   3.575   2.110   8.433  0.4028 -0.7559  0.0252
 2518SOL    HW119016   3.643   2.167   8.469  0.5204 -0.9590  0.1239
 2518SOL    HW219017   3.616   2.026   8.455 -0.2297 -0.8585  0.8105
 2519SOL     OW19018   3.765   0.579   9.833 -0.7198  0.3397  0.7239
 2519SOL    HW119019   3.684   0.605   9.789 -0.1871 -1.1847 -1.1939
 2519SOL    HW219020   3.806   0.664   9.849 -0.6139  0.7459 -1.6909
 2520SOL     OW19021   1.580   3.991   8.958  0.7056  0.5411  0.0868
 2520SOL    HW119022   1.495   3.996   8.914  0.6068  1.1592  0.3584
 2520SOL    HW219023   1.548   3.974   9.046  3.0943 -0.8217  0.6774
 2521SOL     OW19024   0.732   3.038   9.831  0.1465 -0.1767  0.7289
 2521SOL    HW119025   0.664   3.057   9.896 -0.8641 -1.1228 -0.0625
 2521SOL    HW219026   0.795   3.103   9.862 -0.5035  0.0169  1.6744
 2522SOL     OW19027   3.054   4.479   2.666  0.0971 -0.2402 -0.1613
 2522SOL    HW119028   3.095   4.555   2.707 -0.1065 -0.7026  0.8888
 2522SOL    HW219029   2.974   4.479   2.719  0.1744  1.5244 -0.0593
 2523SOL     OW19030   3.391   1.190  10.962 -0.2149  0.2080  0.3367
 2523SOL    HW119031   3.431   1.140  11.034  1.0112  0.7448  0.0395
 2523SOL    HW219032   3.465   1.181  10.902 -0.4033 -1.1279  0.3105
 2524SOL     OW19033   3.777   1.678   6.504 -0.3608 -0.2903 -0.2956
 2524SOL    HW119034   3.871   1.656   6.500 -0.4217 -0.5594 -0.2819
 2524SOL    HW219035   3.752   1.653   6.593  1.2722  0.2937  0.3358
 2525SOL     OW19036   0.083   1.410  10.961  0.0888 -0.3467 -0.2523
 2525SOL    HW119037   0.067   1.343  10.894  0.2836  0.5697 -1.2174
 2525SOL    HW219038   0.116   1.353  11.030  0.2037 -1.0709 -0.9066
 2526SOL     OW19039   1.701   3.291   3.344  0.4552  0.6966  0.4315
 2526SOL    HW119040   1.782   3.240   3.348  0.4735  0.8013  1.3468
 2526SOL    HW219041   1.696   3.310   3.438 -2.1942 -1.1574  0.6455
 2527SOL     OW19042   2.831   4.485   3.080  0.2917 -0.0886  0.3075
 2527SOL    HW119043   2.740   4.457   3.085 -1.0758  3.9544 -1.7223
 2527SOL    HW219044   2.884   4.406   3.088  1.6751  0.7355 -0.6257
 2528SOL     OW19045   0.101   0.276  10.499 -0.3695  0.0511 -0.6945
 2528SOL    HW119046   0.172   0.218  10.527 -0.2533  0.4366 -0.1839
 2528SOL    HW219047   0.133   0.328  10.424  0.8178 -2.3696 -1.8545
 2529SOL     OW19048   1.748   1.940  10.548  0.1550 -0.0109 -0.3225
 2529SOL    HW119049   1.805   2.012  10.575 -0.7184  1.4745 -2.3987
 2529SOL    HW219050   1.809   1.869  10.527  0.9179  0.1187  1.5076
 2530SOL     OW19051   2.905   2.005   3.323  0.1146  0.0111  0.2552
 2530SOL    HW119052   2.915   2.100   3.327 -0.3920  0.0716  0.0323
 2530SOL    HW219053   2.896   1.991   3.229  0.8160 -0.7510  0.2978
 2531SOL     OW19054   2.628   1.537  15.909 -0.2234  0.0193 -0.0188
 2531SOL    HW119055   2.692   1.483  15.863 -0.1067 -0.3580  0.5884
 2531SOL    HW219056   2.675   1.568  15.986  1.0187 -1.0717 -0.3412
 2532SOL     OW19057   4.347   0.546   5.947  0.3837 -0.0726 -0.5278
 2532SOL    HW119058   4.383   0.618   5.997  0.1721  0.1902 -0.7562
 2532SOL    HW219059   4.265   0.528   5.993  0.1426  2.0700 -0.1169
 2533SOL     OW19060   0.514   4.159   2.978 -0.4041  0.4115 -0.2174
 2533SOL    HW119061   0.583   4.126   2.921 -0.7647 -2.4965  1.0704
 2533SOL    HW219062   0.575   4.172   3.051  0.1695  0.4684 -0.7118
 2534SOL     OW19063   3.953   1.458   0.375 -0.2824 -0.0797  0.1417
 2534SOL    HW119064   3.949   1.552   0.395 -1.2937 -0.5664  2.2673
 2534SOL    HW219065   3.892   1.427   0.442 -2.0399 -1.3782 -2.0627
 2535SOL     OW19066   2.336   2.528   2.215 -0.8642 -0.1623  0.3239
 2535SOL    HW119067   2.303   2.574   2.138 -1.6572  0.6852  1.1617
 2535SOL    HW219068   2.374   2.447   2.181  3.3117  2.5554 -1.4921
 2536SOL     OW19069   2.546   3.312   4.283 -0.1678  0.6813  0.6584
 2536SOL    HW119070   2.478   3.258   4.325  1.4804 -0.1618  2.2737
 2536SOL    HW219071   2.519   3.402   4.302 -0.9132  0.9743 -1.7950
 2537SOL     OW19072   4.369   3.248   8.711  0.5669  0.1362 -0.0206
 2537SOL    HW119073   4.377   3.294   8.627 -0.2236 -1.3217 -0.9001
 2537SOL    HW219074   4.283   3.208   8.696  1.0233  0.0030 -2.2974
 2538SOL     OW19075   2.618   4.185   8.997 -0.3567 -0.5396 -0.2822
 2538SOL    HW119076   2.593   4.239   8.921 -1.4210 -0.5093  0.0799
 2538SOL    HW219077   2.649   4.248   9.062  1.3821 -0.9888 -0.6851
 2539SOL     OW19078   0.423   2.607   0.468  0.1595  0.0534  0.4277
 2539SOL    HW119079   0.375   2.566   0.540  0.8194  0.3133  1.0163
 2539SOL    HW219080   0.488   2.546   0.434 -1.1711  0.1107 -2.2900
 2540SOL     OW19081   0.092   0.609   4.457 -0.0814  0.7727  0.0513
 2540SOL    HW119082   0.120   0.520   4.435  1.5381  1.9254 -2.5810
 2540SOL    HW219083   4.718   0.614   4.452  0.0277  2.0189 -0.9916
 2541SOL     OW19084   2.386   0.623  16.411  0.5560 -1.0661 -0.2330
 2541SOL    HW119085   2.332   0.619  16.332  1.5784 -0.8522 -0.9515
 2541SOL    HW219086   2.371   0.713  16.440 -0.2261 -1.4533  0.5503
 2542SOL     OW19087   3.939   2.662   6.113 -0.3161 -0.3692  0.1290
 2542SOL    HW119088   3.847   2.678   6.095 -0.3334 -0.2082  0.3525
 2542SOL    HW219089   3.973   2.752   6.108  1.2646 -0.9571  0.3563
 2543SOL     OW19090   4.635   3.056  15.913 -0.2896 -0.1107  0.0418
 2543SOL    HW119091   4.697   2.993  15.876 -1.4753 -2.2109  1.6179
 2543SOL    HW219092   4.673   3.139  15.884  2.1197 -1.6262 -1.1716
 2544SOL     OW19093   2.077   2.168  10.922 -0.1801  0.1169 -0.1536
 2544SOL    HW119094   2.032   2.247  10.892  0.8006  1.7078  2.5380
 2544SOL    HW219095   2.127   2.199  10.997  1.1158 -2.5339  0.0838
 2545SOL     OW19096   2.463   0.719   6.951  0.2130  0.2289  0.1439
 2545SOL    HW119097   2.409   0.786   6.995  0.7359  1.6018 -1.3062
 2545SOL    HW219098   2.428   0.637   6.985  1.3887  0.1016  1.0434
 2546SOL     OW19099   1.674   0.590   4.127  0.6075  0.0027 -0.2160
 2546SOL    HW119100   1.698   0.681   4.148 -2.0801  0.8934 -1.0025
 2546SOL    HW219101   1.753   0.547   4.158 -1.9402 -3.5920  1.2082
 2547SOL     OW19102   4.576   1.234   9.973  0.2164 -0.1422 -0.2591
 2547SOL    HW119103   4.609   1.316  10.010 -1.2217 -0.0021  0.7334
 2547SOL    HW219104   4.488   1.267   9.954  0.2749  0.0905 -0.1192
 2548SOL     OW19105   0.324   3.203   3.567 -0.3022 -0.4539  0.2410
 2548SOL    HW119106   0.418   3.187   3.566 -0.0379  1.3737 -3.6733
 2548SOL    HW219107   0.307   3.238   3.480  1.2979 -1.2484 -0.3908
 2549SOL     OW19108   3.613   0.366   5.319  0.0245  0.7726 -0.0534
 2549SOL    HW119109   3.652   0.308   5.253  0.8504  0.0638  1.0703
 2549SOL    HW219110   3.523   0.376   5.287  0.0226  0.8674 -0.0188
 2550SOL     OW19111   1.647   3.280   4.105  0.8107  0.0105 -0.0693
 2550SOL    HW119112   1.663   3.374   4.095 -0.0488  0.0441 -1.2517
 2550SOL    HW219113   1.552   3.292   4.114  0.4892 -0.4214 -2.7176
 2551SOL     OW19114   4.502   2.507   7.803  0.1303 -0.3616 -0.0905
 2551SOL    HW119115   4.493   2.473   7.892  0.3628 -1.5848 -0.5406
 2551SOL    HW219116   4.596   2.505   7.785  0.1811 -0.4181  0.1844
 2552SOL     OW19117   1.326   1.390   5.685  0.0511  0.4972 -0.4825
 2552SOL    HW119118   1.386   1.367   5.755 -0.5678  1.2474  0.2891
 2552SOL    HW219119   1.323   1.308   5.635  2.7963  0.5439 -0.6998
 2553SOL     OW19120   2.157   3.701   3.464  0.1570  0.0416  0.5197
 2553SOL    HW119121   2.234   3.664   3.507 -0.0333 -0.7202  0.2005
 2553SOL    HW219122   2.085   3.691   3.527 -2.6394  1.9147 -2.3837
 2554SOL     OW19123   4.471   2.697  11.682 -0.1869 -0.3433  0.1033
 2554SOL    HW119124   4.426   2.700  11.766  0.2257 -0.8467  0.3419
 2554SOL    HW219125   4.482   2.791  11.665 -1.4693  0.0436  1.4733
 2555SOL     OW19126   3.835   4.035   5.804  0.1280 -0.3926 -0.0249
 2555SOL    HW119127   3.809   4.123   5.777 -0.4155 -0.1568  1.2850
 2555SOL    HW219128   3.904   4.018   5.739  3.8599  3.2439  2.9233
 2556SOL     OW19129   2.733   1.735   7.695 -0.1584 -0.3607 -0.3023
 2556SOL    HW119130   2.734   1.639   7.696 -1.6504 -0.3960 -2.2028
 2556SOL    HW219131   2.654   1.749   7.643 -0.4526 -0.0235  0.2478
 2557SOL     OW19132   1.882   1.126   4.838 -0.1727 -0.0371  0.4997
 2557SOL    HW119133   1.797   1.147   4.798 -1.1935 -0.9993  2.1583
 2557SOL    HW219134   1.856   1.128   4.930  2.3457 -0.6460  1.2224
 2558SOL     OW19135   3.880   1.019   7.813 -0.1137  0.2766  0.1218
 2558SOL    HW119136   3.931   1.047   7.890  1.3889 -2.1777  0.0259
 2558SOL    HW219137   3.871   0.924   7.823  2.2227  0.2195  1.9432
 2559SOL     OW19138   3.584   1.486   3.284 -0.6758  0.4255 -0.4134
 2559SOL    HW119139   3.516   1.494   3.351 -0.1741  1.5460 -0.0379
 2559SOL    HW219140   3.594   1.575   3.250 -1.9221 -0.7786 -3.8785
 2560SOL     OW19141   3.020   0.158   2.475 -0.4966 -0.3335  0.1821
 2560SOL    HW119142   3.055   0.103   2.546  0.4429  1.4530  1.0847
 2560SOL    HW219143   2.932   0.179   2.506 -0.2594  0.2406  0.4688
 2561SOL     OW19144   2.808   1.213   6.841  0.7775 -0.1017 -0.5210
 2561SOL    HW119145   2.903   1.219   6.844  0.9044 -2.3709 -0.1376
 2561SOL    HW219146   2.805   1.118   6.851  0.7314 -0.2509 -1.8901
 2562SOL     OW19147   4.491   0.796   8.186 -0.1767 -0.0190  0.1487
 2562SOL    HW119148   4.527   0.723   8.136 -0.9135 -0.2304 -0.0813
 2562SOL    HW219149   4.572   0.847   8.193  1.1745 -2.0467 -0.8938
 2563SOL     OW19150   0.820   1.769   1.914 -0.7080  0.5879  0.2411
 2563SOL    HW119151   0.816   1.764   1.818  1.2023  1.0660  0.1334
 2563SOL    HW219152   0.893   1.710   1.935 -0.1814  1.8858  2.0340
 2564SOL     OW19153   1.615   2.203  15.801 -0.2224  0.0201  0.8155
 2564SOL    HW119154   1.658   2.276  15.756 -1.5489  1.1670  1.3948
 2564SOL    HW219155   1.691   2.150  15.823  0.5833  0.6505 -0.4419
 2565SOL     OW19156   1.419   0.069  12.248 -0.2461  0.0375 -0.2645
 2565SOL    HW119157   1.430   0.091  12.341 -0.1519  0.6816 -0.4310
 2565SOL    HW219158   1.460   4.704  12.241 -0.1858  0.0325  0.1347
 2566SOL     OW19159   1.293   0.427  11.360  0.3677 -0.3973  0.4587
 2566SOL    HW119160   1.259   0.374  11.433 -2.7932  1.5662  0.4264
 2566SOL    HW219161   1.220   0.487  11.349 -0.1595 -0.5701  2.8571
 2567SOL     OW19162   1.166   0.353  13.048 -0.4187  0.0580  0.4480
 2567SOL    HW119163   1.214   0.299  12.986  1.7122  1.5343  0.8004
 2567SOL    HW219164   1.146   0.289  13.116  1.5809 -1.3580 -0.2748
 2568SOL     OW19165   1.650   3.376  12.074  0.0353 -0.7166  0.1811
 2568SOL    HW119166   1.576   3.437  12.069  1.5088  0.9999 -0.5581
 2568SOL    HW219167   1.619   3.307  12.015 -0.6452 -1.5654  1.5373
 2569SOL     OW19168   0.589   2.705  12.098  0.1752  0.1754  0.3713
 2569SOL    HW119169   0.672   2.745  12.076  0.4121 -1.4517 -1.6639
 2569SOL    HW219170   0.541   2.775  12.144 -1.9100  0.0720 -1.6517
 2570SOL     OW19171   4.019   3.891   0.897 -0.5799  0.3194  0.9640
 2570SOL    HW119172   4.076   3.946   0.843  0.7561 -1.8097  0.2301
 2570SOL    HW219173   3.942   3.948   0.903  0.2366  1.5472 -0.2875
 2571SOL     OW19174   4.279   1.138  12.446 -0.7849 -0.1264  0.1966
 2571SOL    HW119175   4.219   1.212  12.444 -1.6117 -0.7931  0.0231
 2571SOL    HW219176   4.231   1.088  12.512 -0.1920 -1.1779 -0.1584
 2572SOL     OW19177   1.359   0.877   8.100 -0.0512  0.3962  0.1099
 2572SOL    HW119178   1.301   0.911   8.168  0.3401  1.4873 -0.0931
 2572SOL    HW219179   1.293   0.840   8.042 -0.3648 -2.7181  2.4800
 2573SOL     OW19180   1.995   1.359   3.865 -0.0537  0.2410 -0.2988
 2573SOL    HW119181   2.048   1.280   3.870  0.2952  0.5484  0.8535
 2573SOL    HW219182   1.975   1.369   3.772  1.3064 -0.6797 -0.6969
 2574SOL     OW19183   1.439   2.054   3.827  0.1572 -0.0156 -0.4569
 2574SOL    HW119184   1.377   2.030   3.758 -0.5290 -1.1149  0.5380
 2574SOL    HW219185   1.507   1.996   3.791  0.6387 -0.7150  1.5199
 2575SOL     OW19186   2.079   1.542  16.519 -0.4163 -0.2590  0.0065
 2575SOL    HW119187   2.060   1.548  16.425  0.6162  0.1035 -0.1738
 2575SOL    HW219188   1.991   1.563  16.552 -1.9896 -2.0579 -2.9971
 2576SOL     OW19189   0.324   4.137   4.992 -0.0953 -0.1823  0.1293
 2576SOL    HW119190   0.312   4.182   5.076  1.3681 -1.3866  0.9778
 2576SOL    HW219191   0.332   4.042   5.004 -1.3376 -0.3234 -0.1180
 2577SOL     OW19192   1.841   0.116   8.169 -0.3699  0.1835  0.2696
 2577SOL    HW119193   1.825   0.123   8.075 -1.0422  0.4389  0.4033
 2577SOL    HW219194   1.876   0.204   8.183 -2.6020  0.8578  1.7572
 2578SOL     OW19195   2.814   2.634   2.992 -0.1794 -0.4185  0.0863
 2578SOL    HW119196   2.898   2.612   2.953  1.1368 -0.3004  2.8300
 2578SOL    HW219197   2.758   2.662   2.920  1.5351  1.3774 -0.5450
 2579SOL     OW19198   1.548   0.541   7.023  0.3322 -0.8891  0.1495
 2579SOL    HW119199   1.583   0.554   6.935 -0.6831 -1.1932 -0.3049
 2579SOL    HW219200   1.465   0.501   6.996 -2.1470  4.0288  0.3802
 2580SOL     OW19201   4.180   3.741  10.763  0.0559  0.2686  0.3903
 2580SOL    HW119202   4.253   3.791  10.726  0.1658 -2.1127 -2.5418
 2580SOL    HW219203   4.197   3.739  10.857 -2.2833  1.6615  0.8462
 2581SOL     OW19204   0.070   3.140   6.974 -0.7170 -0.1227 -0.1902
 2581SOL    HW119205   0.096   3.156   6.883 -2.2777 -1.2953 -0.8410
 2581SOL    HW219206   0.138   3.192   7.018 -0.9772 -0.0606  0.1385
 2582SOL     OW19207   0.688   2.236   2.605 -0.6232  0.2830  0.2276
 2582SOL    HW119208   0.775   2.231   2.566 -0.9669 -1.1279 -0.3891
 2582SOL    HW219209   0.630   2.223   2.530 -1.7822  0.7078  1.0549
 2583SOL     OW19210   3.482   2.518   7.610  0.2107  0.0372 -0.1314
 2583SOL    HW119211   3.452   2.428   7.627 -1.3177  0.4159 -0.7977
 2583SOL    HW219212   3.539   2.529   7.685  0.8665 -3.4447 -0.1383
 2584SOL     OW19213   0.874   2.818  12.273 -0.0426  0.3238 -0.0095
 2584SOL    HW119214   0.879   2.727  12.300 -0.6135  0.3487  0.1797
 2584SOL    HW219215   0.796   2.853  12.317  1.7371 -0.8433  4.0885
 2585SOL     OW19216   2.741   0.967   5.161  0.8701  0.0719 -0.0796
 2585SOL    HW119217   2.796   1.035   5.200  0.7093  0.7866 -1.1203
 2585SOL    HW219218   2.736   0.895   5.224  0.6546  1.1338  1.1357
 2586SOL     OW19219   0.496   1.668  17.642  0.1818  0.4226 -0.4833
 2586SOL    HW119220   0.546   1.735  17.594 -0.4752 -0.6915 -2.7224
 2586SOL    HW219221   0.553   1.644   0.027  0.4476  2.9241  0.1370
 2587SOL     OW19222   4.430   1.470   2.227 -0.3437  0.0388  0.7383
 2587SOL    HW119223   4.505   1.417   2.199  0.5583  1.2391  0.8431
 2587SOL    HW219224   4.354   1.414   2.213 -0.9689  0.8363  0.9554
 2588SOL     OW19225   3.498   3.700  13.917  0.7929  0.2785  0.2253
 2588SOL    HW119226   3.453   3.771  13.962 -0.4689  0.2175 -0.9413
 2588SOL    HW219227   3.492   3.737  13.829 -0.0642  5.2710  2.3965
 2589SOL     OW19228   2.505   0.509  13.660  0.3093 -0.1098  1.1729
 2589SOL    HW119229   2.558   0.490  13.582 -0.9845 -1.1829  0.5431
 2589SOL    HW219230   2.491   0.603  13.649  0.9856 -0.2331 -0.7422
 2590SOL     OW19231   3.893   4.281  15.428  0.2100  0.3468 -0.2718
 2590SOL    HW119232   3.847   4.342  15.485 -1.2554  1.1608 -2.2916
 2590SOL    HW219233   3.903   4.209  15.490  0.1939 -1.4827 -2.3531
 2591SOL     OW19234   1.387   4.476   5.380  0.4425  0.2680  0.3278
 2591SOL    HW119235   1.325   4.546   5.402 -1.1256 -0.9387 -0.2425
 2591SOL    HW219236   1.397   4.416   5.453 -2.7836  0.4012  0.8665
 2592SOL     OW19237   0.480   1.568   7.483 -0.0860 -0.1114 -0.0454
 2592SOL    HW119238   0.526   1.563   7.399 -1.3612  0.5978 -0.7880
 2592SOL    HW219239   0.448   1.478   7.487  0.1427 -0.1711  0.5161
 2593SOL     OW19240   2.621   4.543   1.656  0.1001  0.1954 -0.3784
 2593SOL    HW119241   2.693   4.584   1.609 -0.7779  2.3642  0.1270
 2593SOL    HW219242   2.650   4.550   1.747 -2.1167  1.4485  0.2566
 2594SOL     OW19243   0.004   1.710   5.490  0.2068 -0.2887  0.3759
 2594SOL    HW119244   0.093   1.681   5.469 -0.1155 -1.6585  0.8683
 2594SOL    HW219245   4.683   1.646   5.432 -0.4107 -0.7571  1.3366
 2595SOL     OW19246   3.400   1.203   6.388  0.0796  0.6351 -0.1548
 2595SOL    HW119247   3.420   1.163   6.303  0.1302 -0.6495  0.4547
 2595SOL    HW219248   3.314   1.243   6.374 -0.2876 -0.4777 -1.1492
 2596SOL     OW19249   0.035   2.100   7.858  0.4835 -0.4132  0.0736
 2596SOL    HW119250   4.664   2.080   7.842 -0.2276  2.4682  0.5839
 2596SOL    HW219251   0.054   2.065   7.945 -0.9526 -0.5000  0.3467
 2597SOL     OW19252   0.536   4.352   6.361 -0.0149 -0.2899 -0.5809
 2597SOL    HW119253   0.531   4.428   6.419  2.8180 -1.1758  0.8420
 2597SOL    HW219254   0.615   4.313   6.399  0.3456  0.3452 -0.6795
 2598SOL     OW19255   0.600   0.891  10.259 -0.1333 -0.4658 -0.0459
 2598SOL    HW119256   0.589   0.863  10.350 -0.4997 -0.2958 -0.0405
 2598SOL    HW219257   0.605   0.986  10.265 -0.9673 -0.5662  2.2553
 2599SOL     OW19258   2.573   0.254   2.495 -0.3800 -0.0011  0.1425
 2599SOL    HW119259   2.636   0.268   2.425 -0.2898  0.0382  0.2322
 2599SOL    HW219260   2.638   0.252   2.565  1.3680  0.8771 -1.4578
 2600SOL     OW19261   2.810   1.682  14.898  0.5433  0.8390  0.3100
 2600SOL    HW119262   2.889   1.736  14.901  0.3394  1.2661 -2.0320
 2600SOL    HW219263   2.838   1.636  14.819 -2.3430  0.2292 -0.3807
 2601SOL     OW19264   3.474   3.370   5.861  0.1910 -0.3076 -0.3203
 2601SOL    HW119265   3.411   3.304   5.833  0.9574 -0.6824 -1.1928
 2601SOL    HW219266   3.472   3.369   5.956  1.6253  0.2205 -0.2744
 2602SOL     OW19267   3.727   2.120  10.904 -0.1788  0.3172  0.1917
 2602SOL    HW119268   3.640   2.107  10.866 -0.2336  1.0112  0.0646
 2602SOL    HW219269   3.777   2.116  10.822 -1.1730 -1.6277 -0.3063
 2603SOL     OW19270   3.871   0.444  14.566  0.0435  0.6988 -0.5773
 2603SOL    HW119271   3.776   0.438  14.572  0.2615  0.7753  2.7218
 2603SOL    HW219272   3.899   0.354  14.547 -0.0511 -0.2224  3.5323
 2604SOL     OW19273   3.914   3.835   8.223  0.0484  0.0053 -0.1410
 2604SOL    HW119274   3.959   3.779   8.286  0.7415  0.2254 -0.4481
 2604SOL    HW219275   3.967   3.914   8.233 -1.5908  1.1640 -0.4464
 2605SOL     OW19276   2.866   4.498   0.046  0.4742 -0.1615 -0.3811
 2605SOL    HW119277   2.873   4.494  17.639  0.2278  1.2572 -0.4525
 2605SOL    HW219278   2.936   4.437   0.071 -2.8066 -3.0251  1.7750
 2606SOL     OW19279   0.897   2.284   6.355 -0.0319 -0.3414 -0.3955
 2606SOL    HW119280   0.855   2.320   6.432  1.7001 -1.1027  0.8984
 2606SOL    HW219281   0.817   2.255   6.310 -0.5700  1.2226 -0.4414
 2607SOL     OW19282   0.950   2.114   6.658 -0.1294 -0.3458 -0.4899
 2607SOL    HW119283   0.965   2.203   6.627  0.2726  0.1749  1.1639
 2607SOL    HW219284   0.968   2.063   6.579  1.7762 -1.0630  0.4120
 2608SOL     OW19285   3.367   2.454   3.758 -0.3859 -0.5823  0.2996
 2608SOL    HW119286   3.424   2.471   3.682 -1.0521  0.4304  0.0339
 2608SOL    HW219287   3.368   2.542   3.795  0.1960  0.0577 -1.2248
 2609SOL     OW19288   2.373   4.100   5.643  0.3864  0.1101  0.2572
 2609SOL    HW119289   2.438   4.154   5.597  0.6562 -0.9863 -0.6449
 2609SOL    HW219290   2.422   4.102   5.725 -0.0809  0.3371  0.5315
 2610SOL     OW19291   2.306   0.418   6.765 -0.0343 -0.0441  0.0640
 2610SOL    HW119292   2.340   0.380   6.846 -1.4804  1.5919  1.4370
 2610SOL    HW219293   2.220   0.452   6.791  0.6794  1.4518  0.4264
 2611SOL     OW19294   2.327   1.595   3.925  0.1387 -0.3695 -0.1669
 2611SOL    HW119295   2.347   1.502   3.934  0.7775 -0.3106 -0.9154
 2611SOL    HW219296   2.283   1.594   3.839  0.4534 -1.5126 -0.3035
 2612SOL     OW19297   4.279   2.108  10.532 -0.1029 -0.1066  0.6812
 2612SOL    HW119298   4.253   2.027  10.490 -0.1725  0.6865 -0.8134
 2612SOL    HW219299   4.266   2.170  10.460  3.2931 -2.0328 -1.5965
 2613SOL     OW19300   4.366   3.488  15.675  0.5175  0.0277 -0.1008
 2613SOL    HW119301   4.317   3.518  15.752 -0.0137  0.0547 -0.4466
 2613SOL    HW219302   4.348   3.551  15.605 -1.0184  0.0605  0.3282
 2614SOL     OW19303   2.919   3.775   6.075  0.3429 -0.3103  0.5855
 2614SOL    HW119304   2.933   3.744   5.986 -1.1240 -0.2226  0.3288
 2614SOL    HW219305   2.996   3.827   6.097 -0.4271  0.3406  1.7439
 2615SOL     OW19306   4.228   1.529   0.823 -0.3701 -0.2312 -0.2591
 2615SOL    HW119307   4.204   1.487   0.906 -1.8801  0.7476 -0.1986
 2615SOL    HW219308   4.323   1.535   0.819 -0.6377  2.4953 -1.8080
 2616SOL     OW19309   3.581   4.398   4.273  0.0896 -0.2514  0.3554
 2616SOL    HW119310   3.540   4.311   4.272 -2.6848  1.0259  0.8764
 2616SOL    HW219311   3.611   4.389   4.363  1.1641  1.5240  0.1634
 2617SOL     OW19312   2.882   2.622   5.760 -0.7681  0.1818 -0.1849
 2617SOL    HW119313   2.868   2.545   5.814  0.0849 -0.7411 -1.2927
 2617SOL    HW219314   2.840   2.681   5.823  0.6381  1.7337 -0.7007
 2618SOL     OW19315   4.485   3.392   5.296  0.6040  0.2774  0.0811
 2618SOL    HW119316   4.424   3.371   5.225 -1.3147 -0.7985  2.0230
 2618SOL    HW219317   4.569   3.357   5.267  0.3115 -0.5035  0.1512
 2619SOL     OW19318   1.010   2.484   1.568 -0.2545 -0.3143 -0.0028
 2619SOL    HW119319   0.917   2.499   1.587  0.5474  1.3242  2.6573
 2619SOL    HW219320   1.005   2.420   1.497 -0.7577 -0.8352  0.4988
 2620SOL     OW19321   0.138   4.318  10.654 -0.0520  0.5071  0.4712
 2620SOL    HW119322   0.186   4.237  10.673  3.0566  1.5059 -3.1853
 2620SOL    HW219323   0.053   4.281  10.632 -0.2144  0.3294  1.3763
 2621SOL     OW19324   2.186   1.214   0.145 -0.0116  0.6797  0.0201
 2621SOL    HW119325   2.236   1.239   0.067 -0.6148  0.7545 -0.3417
 2621SOL    HW219326   2.163   1.126   0.114 -0.3418  1.5540 -2.2159
 2622SOL     OW19327   0.655   2.942   3.771  0.3679 -0.8961 -0.0273
 2622SOL    HW119328   0.605   3.020   3.795 -1.2176 -2.0967  0.5546
 2622SOL    HW219329   0.602   2.903   3.701 -0.9492  0.5663  0.1763
 2623SOL     OW19330   2.695   0.149   5.940 -0.4300 -0.2933 -0.5904
 2623SOL    HW119331   2.697   0.238   5.905 -1.7959 -0.2320 -0.4978
 2623SOL    HW219332   2.788   0.126   5.935 -0.5568 -0.9314  0.1179
 2624SOL     OW19333   0.500   1.259  12.648 -0.1672  0.4454  0.5535
 2624SOL    HW119334   0.535   1.338  12.606  3.4079 -0.9057  0.9581
 2624SOL    HW219335   0.408   1.274  12.625 -0.2169 -0.0294  0.4354
 2625SOL     OW19336   2.020   3.254   9.828  0.2683  0.2592  0.5525
 2625SOL    HW119337   1.927   3.235   9.843 -0.0486  0.4633 -1.0704
 2625SOL    HW219338   2.062   3.171   9.808 -0.1307  0.5875 -1.7374
 2626SOL     OW19339   4.533   2.377   4.829 -0.2931 -0.6177 -0.2774
 2626SOL    HW119340   4.542   2.306   4.765 -0.9597 -3.3230  2.6723
 2626SOL    HW219341   4.442   2.376   4.858  0.5271  0.0877  2.3517
 2627SOL     OW19342   0.517   4.642   1.927 -0.3242  0.3108 -0.0641
 2627SOL    HW119343   0.601   4.687   1.923  0.4293 -0.8461  3.2330
 2627SOL    HW219344   0.458   4.704   1.884  2.4783  2.1200 -1.3107
 2628SOL     OW19345   3.050   4.171   8.391  0.4875  0.4292  0.2543
 2628SOL    HW119346   3.129   4.126   8.420 -0.6938 -1.0335  1.2453
 2628SOL    HW219347   3.018   4.119   8.317  0.4444 -0.0555  0.6106
 2629SOL     OW19348   2.880   2.226  15.026 -0.1241  0.2232 -0.6341
 2629SOL    HW119349   2.881   2.321  15.009  0.1568  0.2939 -0.2081
 2629SOL    HW219350   2.805   2.205  14.970  1.7600 -1.2130 -2.6278
 2630SOL     OW19351   3.305   3.899   3.952  0.5496 -0.5679  0.1900
 2630SOL    HW119352   3.293   3.985   3.912  2.4139  0.4493  1.8514
 2630SOL    HW219353   3.235   3.901   4.018 -0.8947 -0.9546 -1.3110
 2631SOL     OW19354   2.150   0.994   5.362  0.0435  0.0665 -0.3007
 2631SOL    HW119355   2.133   0.901   5.378  2.6771 -0.2494  0.5872
 2631SOL    HW219356   2.136   1.010   5.269  2.0435  0.3214 -0.5652
 2632SOL     OW19357   1.114   2.998  16.811  0.5861  0.1869  0.3477
 2632SOL    HW119358   1.107   3.058  16.884  0.7574  1.0867 -0.3721
 2632SOL    HW219359   1.143   3.058  16.742 -2.8969  1.4909  0.0137
 2633SOL     OW19360   2.476   1.946   1.641  0.2158  0.1571  0.2001
 2633SOL    HW119361   2.483   2.012   1.572  1.9509  1.9452  2.0646
 2633SOL    HW219362   2.520   1.882   1.586 -0.3350 -2.6269  2.9956
 2634SOL     OW19363   1.576   1.442   6.728 -0.1188 -0.1496  0.1990
 2634SOL    HW119364   1.557   1.385   6.803  2.3742 -0.7476  0.4092
 2634SOL    HW219365   1.668   1.421   6.710  0.3222  2.0642 -0.1144
 2635SOL     OW19366   2.546   4.407  16.009  0.3119 -0.1998  0.4097
 2635SOL    HW119367   2.501   4.422  15.926 -1.2901 -0.8645  1.1687
 2635SOL    HW219368   2.595   4.489  16.012  0.7901 -0.3806 -2.4110
 2636SOL     OW19369   0.617   1.788  10.281  0.5836 -0.1379  0.4305
 2636SOL    HW119370   0.672   1.797  10.358  2.5278 -0.4843 -0.9278
 2636SOL    HW219371   0.531   1.798  10.322 -0.0355 -1.0065 -0.6297
 2637SOL     OW19372   1.254   1.114   3.349  0.2716 -0.0879 -0.0086
 2637SOL    HW119373   1.202   1.159   3.283 -0.5568 -1.2292 -0.1307
 2637SOL    HW219374   1.216   1.026   3.347  1.3045 -0.4731 -1.9741
 2638SOL     OW19375   0.295   3.992   8.451  0.1800 -0.0369  0.6983
 2638SOL    HW119376   0.203   4.016   8.439  0.3581 -0.2100 -1.0460
 2638SOL    HW219377   0.334   4.056   8.391  1.3506 -0.7590  0.6967
 2639SOL     OW19378   4.322   2.922   9.920  0.3275 -0.3259  0.0006
 2639SOL    HW119379   4.323   3.017   9.930  1.3889 -0.2174 -1.2285
 2639SOL    HW219380   4.235   2.907   9.957  0.0491  1.3789  0.0624
 2640SOL     OW19381   4.474   1.422   0.265 -0.4713 -0.0454 -0.4983
 2640SOL    HW119382   4.522   1.502   0.287 -0.7386 -0.0506  0.1278
 2640SOL    HW219383   4.543   1.364   0.234  0.0551  0.3465 -0.0719
 2641SOL     OW19384   0.015   4.628   6.761  0.1695 -0.3739 -0.1203
 2641SOL    HW119385   4.704   4.696   6.702  0.2001  2.2887  2.9695
 2641SOL    HW219386   4.691   4.552   6.724 -1.4622  1.0167 -0.9791
 2642SOL     OW19387   3.127   3.747  13.883 -0.5566 -0.3489 -0.3094
 2642SOL    HW119388   3.081   3.801  13.818  2.6695 -0.1966 -2.5095
 2642SOL    HW219389   3.128   3.664  13.834  0.0435  0.9824 -2.5872
 2643SOL     OW19390   2.732   2.343   4.001  0.1762 -0.1654 -0.1503
 2643SOL    HW119391   2.637   2.342   3.999  0.1894  1.2322 -1.4952
 2643SOL    HW219392   2.748   2.353   4.095 -0.8686 -0.0745  0.0156
 2644SOL     OW19393   0.176   3.681  11.819  0.1171  0.0124 -0.4612
 2644SOL    HW119394   0.135   3.669  11.733 -1.3901 -0.9383  0.3757
 2644SOL    HW219395   0.138   3.767  11.837  0.6270  0.0819  0.2527
 2645SOL     OW19396   1.965   1.580   4.046  0.4720  0.3082  0.3257
 2645SOL    HW119397   1.983   1.505   3.989 -0.9845 -0.1200  0.4320
 2645SOL    HW219398   1.881   1.596   4.003  0.3411  2.8443  1.5438
 2646SOL     OW19399   3.531   0.536   7.536 -0.0169 -0.4843  0.6889
 2646SOL    HW119400   3.484   0.453   7.548  1.3166 -1.3358  0.0320
 2646SOL    HW219401   3.486   0.589   7.602 -1.1049  1.0465 -1.2849
 2647SOL     OW19402   3.234   2.061   4.210  0.3224  0.1108  0.3214
 2647SOL    HW119403   3.148   2.083   4.244 -0.7884 -0.2377 -2.2676
 2647SOL    HW219404   3.235   2.110   4.128 -1.0837 -0.4874 -0.0557
 2648SOL     OW19405   1.926   0.416  12.243 -0.4040 -0.6020  0.2649
 2648SOL    HW119406   1.846   0.461  12.219  0.0862  0.9537  1.5306
 2648SOL    HW219407   1.901   0.326  12.221 -1.0149 -0.5113  0.6133
 2649SOL     OW19408   1.777   0.011   6.017  0.5007  0.0213 -0.0667
 2649SOL    HW119409   1.684   4.716   5.999  0.1885  0.7027  0.8726
 2649SOL    HW219410   1.803   0.016   5.925  0.9957 -2.6661 -0.0471
 2650SOL     OW19411   0.415   2.203   0.785  0.2139 -0.1729  0.8731
 2650SOL    HW119412   0.506   2.175   0.771 -0.4400 -2.4594  1.1486
 2650SOL    HW219413   0.397   2.195   0.878  0.0827 -1.3369  0.7552
 2651SOL     OW19414   2.194   1.453   5.925  0.0224  0.1898 -0.3316
 2651SOL    HW119415   2.222   1.472   5.836 -2.0140  0.7186 -0.8572
 2651SOL    HW219416   2.143   1.533   5.940 -0.0585  0.2058 -0.6912
 2652SOL     OW19417   4.550   4.536  13.810  0.1888 -0.2152  0.5482
 2652SOL    HW119418   4.631   4.580  13.782  0.8521 -2.3399 -0.8707
 2652SOL    HW219419   4.493   4.579  13.746  1.2423 -0.3328 -0.4827
 2653SOL     OW19420   1.764   2.549   2.213  0.1925  0.0443  0.1635
 2653SOL    HW119421   1.717   2.477   2.171  2.1477 -0.2195 -1.6107
 2653SOL    HW219422   1.698   2.618   2.208 -1.2014 -1.2913  0.2816
 2654SOL     OW19423   4.058   4.518   7.647 -0.0621 -0.0837  0.1834
 2654SOL    HW119424   3.982   4.482   7.601  0.2649  1.0415 -1.2335
 2654SOL    HW219425   4.101   4.437   7.675 -3.2392 -2.3841 -1.6570
 2655SOL     OW19426   3.896   4.012   2.135  0.0577  0.0865 -0.0171
 2655SOL    HW119427   3.843   4.086   2.164 -0.4473 -1.0311  1.8530
 2655SOL    HW219428   3.980   4.047   2.164  0.5445 -0.1710 -1.0912
 2656SOL     OW19429   2.206   1.088   3.093 -0.1881  0.0715 -0.5202
 2656SOL    HW119430   2.203   1.173   3.138  0.5892 -0.8318  1.2426
 2656SOL    HW219431   2.177   1.110   3.004  1.6144  2.0079 -0.6077
 2657SOL     OW19432   3.848   2.877  11.174  0.1546 -0.5820 -0.1751
 2657SOL    HW119433   3.782   2.888  11.243 -0.1937  0.5522 -0.6915
 2657SOL    HW219434   3.907   2.814  11.214 -0.8164 -2.1458 -1.2190
 2658SOL     OW19435   1.161   1.696   4.591  0.6717 -0.3203  0.4934
 2658SOL    HW119436   1.103   1.620   4.599 -1.9493  1.6267 -0.2110
 2658SOL    HW219437   1.124   1.750   4.661 -0.8974  1.2155 -1.5354
 2659SOL     OW19438   3.058   0.432   5.669  0.1456 -0.2751 -0.7209
 2659SOL    HW119439   3.067   0.500   5.602  2.0863 -2.2325 -2.4326
 2659SOL    HW219440   2.977   0.397   5.632 -1.1453  1.2174  0.6705
 2660SOL     OW19441   1.736   1.386   2.396  0.0982 -0.7102  0.0672
 2660SOL    HW119442   1.647   1.380   2.360 -0.0668  0.1967  0.3111
 2660SOL    HW219443   1.785   1.327   2.339  0.6924 -3.2975  3.2647
 2661SOL     OW19444   3.352   0.187  14.244  0.3445  0.3503 -0.1179
 2661SOL    HW119445   3.374   0.101  14.281 -1.0204  0.5789  1.2590
 2661SOL    HW219446   3.434   0.231  14.266  1.1862 -2.0688  1.6570
 2662SOL     OW19447   3.626   0.756  10.457  0.2660  0.4447  0.0617
 2662SOL    HW119448   3.661   0.775  10.370  0.3475 -0.9269 -0.2082
 2662SOL    HW219449   3.545   0.805  10.462 -1.6310 -2.9182  2.9907
 2663SOL     OW19450   0.812   2.213   4.589  0.0439 -0.7564 -0.3438
 2663SOL    HW119451   0.786   2.142   4.648  2.7016 -1.5887 -0.1798
 2663SOL    HW219452   0.906   2.200   4.578  0.7435  1.7658  2.6951
 2664SOL     OW19453   1.867   0.982   7.297  0.3982  0.0661  0.0021
 2664SOL    HW119454   1.939   1.020   7.347 -0.3931  0.0675  1.1413
 2664SOL    HW219455   1.899   0.895   7.276 -2.4889 -0.5964 -1.7045
 2665SOL     OW19456   2.345   1.636   9.303  0.0575  0.0881  0.6410
 2665SOL    HW119457   2.257   1.669   9.287  0.0174  0.2875  1.2807
 2665SOL    HW219458   2.384   1.623   9.216  1.3448 -0.5359  1.3177
 2666SOL     OW19459   4.203   0.450   9.835  0.4336  0.1152  0.5065
 2666SOL    HW119460   4.157   0.483   9.758  0.7695  0.3050  0.3831
 2666SOL    HW219461   4.262   0.385   9.795 -0.7614  1.1363 -2.9612
 2667SOL     OW19462   2.931   0.252   2.913  0.2931 -0.3542  0.5312
 2667SOL    HW119463   2.849   0.241   2.961  0.5603  0.5905  1.2011
 2667SOL    HW219464   2.998   0.233   2.978  0.0648 -0.8604  0.6217
 2668SOL     OW19465   0.483   1.912   3.657 -0.1750  0.0691 -0.3745
 2668SOL    HW119466   0.471   1.866   3.740 -0.6739  2.0467  0.6606
 2668SOL    HW219467   0.529   1.836   3.621 -0.7292 -1.1073  1.4062
 2669SOL     OW19468   1.302   3.138   3.187 -0.6510  0.2623 -0.2220
 2669SOL    HW119469   1.388   3.161   3.153  0.1766 -1.6489  0.5834
 2669SOL    HW219470   1.288   3.199   3.259 -3.1382 -2.3624  1.5384
 2670SOL     OW19471   0.236   1.684  10.050  0.0107  0.7751 -0.2971
 2670SOL    HW119472   0.272   1.740   9.981 -1.7432  2.0591 -0.1477
 2670SOL    HW219473   0.193   1.613  10.003  2.1115 -3.2876  3.9460
 2671SOL     OW19474   1.284   3.872  16.678 -0.0682 -0.0931 -0.6722
 2671SOL    HW119475   1.214   3.887  16.615  0.0212 -1.1451 -1.0361
 2671SOL    HW219476   1.311   3.963  16.670 -0.3863  0.0497 -0.0714
 2672SOL     OW19477   4.164   1.468  13.987 -0.0928  0.0157 -0.5105
 2672SOL    HW119478   4.157   1.400  14.054  1.8489  1.3710  1.0792
 2672SOL    HW219479   4.240   1.434  13.939  0.5879  1.8048 -0.7263
 2673SOL     OW19480   0.373   0.563   0.453 -0.4279 -0.3951  0.2607
 2673SOL    HW119481   0.321   0.635   0.489 -1.0684 -0.1110 -1.1933
 2673SOL    HW219482   0.299   0.516   0.414 -0.7548  0.6315 -0.3607
 2674SOL     OW19483   3.317   2.913   5.268 -0.8619  0.8477  0.3794
 2674SOL    HW119484   3.237   2.869   5.296 -0.0097 -0.1636  1.2085
 2674SOL    HW219485   3.368   2.906   5.349  0.4404 -1.0875 -0.5902
 2675SOL     OW19486   0.074   3.171  15.378  0.3913  0.1967 -0.4228
 2675SOL    HW119487   0.049   3.085  15.410  0.7994  0.0930 -0.3911
 2675SOL    HW219488   4.710   3.210  15.357 -0.0804 -0.8758 -0.4935
 2676SOL     OW19489   3.489   2.033   2.918  0.7185 -0.0092 -0.0910
 2676SOL    HW119490   3.468   2.072   2.833 -0.2746 -1.7244 -0.6250
 2676SOL    HW219491   3.512   1.943   2.895 -1.2036 -0.6078  0.3408
 2677SOL     OW19492   4.145   3.132   8.317  0.2482  0.4892  0.3848
 2677SOL    HW119493   4.108   3.141   8.229  0.9679  0.1362  0.0472
 2677SOL    HW219494   4.205   3.058   8.306  0.8589  0.9441  0.7069
 2678SOL     OW19495   4.114   3.441   7.095  0.0832  0.4100  0.0949
 2678SOL    HW119496   4.179   3.405   7.155 -1.5556 -0.6871  1.2201
 2678SOL    HW219497   4.046   3.463   7.159  0.5133  0.3398  0.5773
 2679SOL     OW19498   4.381   3.802   3.010 -0.1108  0.2279  0.2815
 2679SOL    HW119499   4.460   3.840   2.972  0.1732  0.9525  1.6092
 2679SOL    HW219500   4.329   3.832   2.935 -1.6197 -0.5754  0.9879
 2680SOL     OW19501   2.296   0.776  13.930 -0.3608 -0.3435 -0.0640
 2680SOL    HW119502   2.278   0.824  13.849  1.8295  0.6219  0.0128
 2680SOL    HW219503   2.271   0.849  13.986 -0.4073 -0.0355 -0.4878
 2681SOL     OW19504   1.324   0.557  12.402 -0.0108 -0.6583  0.1234
 2681SOL    HW119505   1.369   0.622  12.456 -0.3212  0.5465 -1.0632
 2681SOL    HW219506   1.238   0.598  12.392  0.6305  0.4017 -1.0693
 2682SOL     OW19507   1.536   0.637   3.414 -0.3588  0.8448  0.0705
 2682SOL    HW119508   1.630   0.623   3.408 -0.6220 -1.1737  0.5809
 2682SOL    HW219509   1.511   0.570   3.478 -0.0603 -1.3118 -2.0963
 2683SOL     OW19510   1.980   4.169  11.525 -0.0101 -0.0468  0.0113
 2683SOL    HW119511   2.065   4.139  11.558 -0.1158  0.3625  0.6466
 2683SOL    HW219512   1.928   4.141  11.600 -0.8516  0.4594 -0.3878
 2684SOL     OW19513   1.009   1.561   1.407 -0.2056  0.1398  0.2601
 2684SOL    HW119514   1.032   1.653   1.423 -2.0421  0.7707 -0.7096
 2684SOL    HW219515   1.087   1.518   1.442 -1.3724 -0.3198  2.2975
 2685SOL     OW19516   3.274   3.202   3.469  0.1151  0.0603 -0.2878
 2685SOL    HW119517   3.266   3.117   3.426  1.9939 -0.2257 -0.0598
 2685SOL    HW219518   3.367   3.211   3.489  0.3075 -0.1238 -1.1034
 2686SOL     OW19519   0.554   0.935   7.180 -0.4934  0.4293 -0.6099
 2686SOL    HW119520   0.460   0.951   7.170 -0.3842  1.7809  0.4782
 2686SOL    HW219521   0.592   0.998   7.119  1.9242 -0.7186 -0.2751
 2687SOL     OW19522   0.475   1.991   9.376  0.0466  0.6514  0.8561
 2687SOL    HW119523   0.466   2.085   9.390 -3.1750  0.5715 -0.6726
 2687SOL    HW219524   0.418   1.983   9.299 -0.0420  0.6973  0.9176
 2688SOL     OW19525   1.776   0.687  13.465  0.2884  0.2496 -0.1242
 2688SOL    HW119526   1.856   0.660  13.420 -0.6162 -2.1029 -0.2890
 2688SOL    HW219527   1.708   0.664  13.401  0.6114 -1.7944  0.2982
 2689SOL     OW19528   3.701   3.647   5.990  0.1423  0.3670  0.1737
 2689SOL    HW119529   3.616   3.604   5.999  0.3772  0.1162  1.1341
 2689SOL    HW219530   3.739   3.629   6.076 -0.9512 -2.0282  0.1670
 2690SOL     OW19531   4.331   4.238  15.209  0.4364 -0.4396  0.1167
 2690SOL    HW119532   4.235   4.237  15.204  0.4704 -0.1140 -0.6149
 2690SOL    HW219533   4.336   4.295  15.286  0.6273  0.4464 -0.5551
 2691SOL     OW19534   3.963   3.876   2.942  0.1038  0.1983 -0.1920
 2691SOL    HW119535   4.042   3.861   2.889 -0.1459 -0.4936 -0.3612
 2691SOL    HW219536   3.952   3.784   2.967  2.2461  0.3579  1.3895
 2692SOL     OW19537   4.650   0.252   1.708 -0.5493  0.0034  0.2593
 2692SOL    HW119538   0.004   0.310   1.704  0.3747 -1.2034  0.2882
 2692SOL    HW219539   4.689   0.165   1.697  2.0140  1.4135 -1.7291
 2693SOL     OW19540   3.791   4.635   1.516 -0.7245 -0.6898 -0.7847
 2693SOL    HW119541   3.704   4.661   1.547  0.2136 -0.2657  1.4785
 2693SOL    HW219542   3.780   4.541   1.502 -0.7454 -0.8060  0.0044
 2694SOL     OW19543   3.988   0.403   4.099 -0.3071 -0.1540 -0.5691
 2694SOL    HW119544   3.969   0.431   4.009 -1.1774  1.3672  0.0828
 2694SOL    HW219545   4.082   0.421   4.109 -0.8532  2.7044 -0.5273
 2695SOL     OW19546   0.105   4.130   9.884  0.3271  0.5187 -0.5795
 2695SOL    HW119547   0.088   4.181   9.964  3.2400  0.6014 -0.0283
 2695SOL    HW219548   0.199   4.135   9.870  0.8062  2.1076  3.1251
 2696SOL     OW19549   2.442   4.270   5.294 -0.5144  0.1001 -0.2236
 2696SOL    HW119550   2.404   4.347   5.252 -0.5904  1.2514  1.9718
 2696SOL    HW219551   2.517   4.313   5.334 -0.1365 -0.7831  0.0282
 2697SOL     OW19552   2.424   3.007   0.170  0.2737  0.2148  0.2985
 2697SOL    HW119553   2.457   2.925   0.134  0.7126  0.5953 -0.1581
 2697SOL    HW219554   2.388   2.965   0.249 -0.7116  1.9161  0.7689
 2698SOL     OW19555   4.399   0.254   6.575 -0.2196 -0.4842  0.0571
 2698SOL    HW119556   4.440   0.216   6.653 -0.7831 -0.0196  0.5752
 2698SOL    HW219557   4.312   0.282   6.603  0.0156 -0.9065  1.2041
 2699SOL     OW19558   4.208   0.236  15.514 -0.3275 -0.2463  0.3832
 2699SOL    HW119559   4.213   0.145  15.486  0.9887 -0.1343  0.2633
 2699SOL    HW219560   4.229   0.280  15.431 -1.3379  0.0410  0.2776
 2700SOL     OW19561   2.318   2.677   1.994  0.7112 -0.2793 -0.6662
 2700SOL    HW119562   2.355   2.606   1.941 -1.5542 -0.1136 -2.5004
 2700SOL    HW219563   2.229   2.686   1.959  0.5369  2.7052  0.5661
 2701SOL     OW19564   0.123   3.814  12.637 -0.4504  0.2147 -0.1544
 2701SOL    HW119565   0.096   3.903  12.617 -2.3081 -0.5583 -1.0904
 2701SOL    HW219566   0.217   3.829  12.651 -0.0343 -0.4147 -2.2331
 2702SOL     OW19567   4.476   1.607   8.883 -0.1205 -0.3108 -0.0751
 2702SOL    HW119568   4.419   1.683   8.872  0.7961  0.6774  1.8167
 2702SOL    HW219569   4.481   1.604   8.979  0.4769 -0.1149 -0.1002
 2703SOL     OW19570   2.604   0.006  17.106  0.1488  0.1131 -0.3494
 2703SOL    HW119571   2.634   0.065  17.036  0.4680  0.1590 -0.1706
 2703SOL    HW219572   2.647   0.038  17.185 -1.0612 -0.3681  0.4913
 2704SOL     OW19573   1.470   0.631  17.580  0.4305  0.1402 -0.3385
 2704SOL    HW119574   1.547   0.627  17.636  2.5995  1.0958 -3.2698
 2704SOL    HW219575   1.508   0.581  17.507  0.6944  0.9414 -0.7488
 2705SOL     OW19576   3.894   3.928   6.584 -0.5933  0.3848 -0.3866
 2705SOL    HW119577   3.978   3.900   6.619  0.2897  2.4644 -0.8027
 2705SOL    HW219578   3.907   4.021   6.601  0.5283  0.5422 -2.0682
 2706SOL     OW19579   4.480   4.620  16.841 -0.3585  0.1342 -0.3616
 2706SOL    HW119580   4.475   4.700  16.895 -1.5545  0.5615 -1.1016
 2706SOL    HW219581   4.391   4.589  16.849  1.1215 -3.2526  2.9577
 2707SOL     OW19582   3.931   2.329   6.572  0.0334 -0.2258  0.3216
 2707SOL    HW119583   3.904   2.375   6.493 -2.5559 -3.4745 -0.6846
 2707SOL    HW219584   3.897   2.378   6.647  1.3136  0.0742  0.6999
 2708SOL     OW19585   1.434   0.386  13.229 -0.1400  0.3084  0.1888
 2708SOL    HW119586   1.469   0.301  13.203 -0.2742 -0.4171  2.4322
 2708SOL    HW219587   1.363   0.382  13.165  0.6008 -0.2155 -0.5936
 2709SOL     OW19588   0.288   2.353   3.070  0.4244  0.2184  0.3375
 2709SOL    HW119589   0.370   2.305   3.081  0.1578 -0.5516 -0.9720
 2709SOL    HW219590   0.254   2.367   3.158 -1.1180 -1.4638  0.0128
 2710SOL     OW19591   4.211   3.947   1.456 -0.4558 -0.0336  0.1803
 2710SOL    HW119592   4.162   4.017   1.413  0.0258 -1.1166 -2.1486
 2710SOL    HW219593   4.293   3.995   1.472 -1.3817  0.5169  3.2437
 2711SOL     OW19594   0.159   3.979  16.151 -0.3299 -0.1769 -0.4702
 2711SOL    HW119595   0.080   3.987  16.204 -0.9190 -1.4055 -1.1771
 2711SOL    HW219596   0.137   4.036  16.077 -1.3562 -2.3745 -1.8577
 2712SOL     OW19597   0.969   4.081   8.257 -0.6174 -0.3449 -0.2816
 2712SOL    HW119598   0.927   4.028   8.189 -3.3528 -0.1681  1.2828
 2712SOL    HW219599   0.898   4.106   8.316 -1.7311 -2.6374 -0.6399
 2713SOL     OW19600   2.110   0.167   2.618 -0.3035 -0.0723  0.0880
 2713SOL    HW119601   2.075   0.247   2.578  2.5787 -0.2146 -2.7288
 2713SOL    HW219602   2.199   0.167   2.583 -0.5199  0.7287 -0.4627
 2714SOL     OW19603   2.559   4.554   3.160  0.1283  0.0018 -0.0867
 2714SOL    HW119604   2.509   4.552   3.078  1.4615  0.0220 -0.8917
 2714SOL    HW219605   2.530   4.638   3.196 -2.6842 -0.9679 -0.0502
 2715SOL     OW19606   0.307   2.520   1.547  0.1906 -0.1737  0.6344
 2715SOL    HW119607   0.293   2.612   1.570 -2.2874 -0.0536 -1.3864
 2715SOL    HW219608   0.261   2.523   1.463  0.6025  0.4344  0.4309
 2716SOL     OW19609   0.785   4.455   5.126 -0.3580 -0.0859  0.2473
 2716SOL    HW119610   0.743   4.541   5.120  1.1464  0.5725 -0.8338
 2716SOL    HW219611   0.865   4.472   5.175 -0.4185 -0.0567  0.3352
 2717SOL     OW19612   2.020   1.175   8.110  0.2490  0.3524  0.0689
 2717SOL    HW119613   2.073   1.176   8.030  0.9580  0.9407  0.5412
 2717SOL    HW219614   1.974   1.091   8.110  0.5444  0.1881 -0.8398
 2718SOL     OW19615   3.377   3.369   3.733 -0.4772  0.3004 -0.2987
 2718SOL    HW119616   3.439   3.317   3.682 -0.9178 -0.5138 -0.0026
 2718SOL    HW219617   3.328   3.298   3.774 -0.9108  1.0576  0.4779
 2719SOL     OW19618   3.270   0.242   5.735  0.2962  0.3877 -0.5623
 2719SOL    HW119619   3.354   0.283   5.716  0.9844 -1.4764 -1.5117
 2719SOL    HW219620   3.207   0.314   5.735 -0.6467 -0.4496 -4.0500
 2720SOL     OW19621   1.912   0.423   6.633 -0.4389  0.3455 -0.4754
 2720SOL    HW119622   1.939   0.366   6.706  2.6057  0.5979 -1.3878
 2720SOL    HW219623   1.863   0.354   6.589 -1.1453 -1.0574  2.4844
 2721SOL     OW19624   0.505   0.054  16.492 -0.2062 -0.7547  0.1915
 2721SOL    HW119625   0.545   0.102  16.420 -0.1310  0.6741  1.1982
 2721SOL    HW219626   0.559   0.091  16.561  0.2771  1.3346 -1.3199
 2722SOL     OW19627   1.896   1.111  14.453  0.1657  0.1146  0.0249
 2722SOL    HW119628   1.957   1.095  14.525 -0.2816  0.2861  0.4417
 2722SOL    HW219629   1.937   1.191  14.420 -0.1725  0.1211 -0.3755
 2723SOL     OW19630   1.745   4.299   3.574  0.5687 -0.0145 -0.4995
 2723SOL    HW119631   1.676   4.353   3.535  0.4853  0.1289 -0.1541
 2723SOL    HW219632   1.699   4.223   3.610  0.4678 -0.2765 -1.1810
 2724SOL     OW19633   1.556   0.061   7.823  0.1714  0.0837 -0.0090
 2724SOL    HW119634   1.558   0.021   7.910  1.7220 -0.5845 -0.3569
 2724SOL    HW219635   1.586   4.709   7.770 -0.3757  0.1887 -0.4570
 2725SOL     OW19636   0.263   4.591   7.511 -0.0971  0.4342 -0.5521
 2725SOL    HW119637   0.319   4.621   7.439  0.8746  1.3730  0.6027
 2725SOL    HW219638   0.191   4.653   7.502 -1.5536 -1.2183 -0.4178
 2726SOL     OW19639   4.133   3.788   7.156 -0.5533 -0.3093 -0.6215
 2726SOL    HW119640   4.167   3.784   7.246 -3.0410 -0.1820  0.3072
 2726SOL    HW219641   4.209   3.767   7.102  0.4228  1.3491  0.1080
 2727SOL     OW19642   3.623   2.808   6.697 -0.2490 -0.1597 -0.5248
 2727SOL    HW119643   3.554   2.750   6.732 -0.2755 -0.5176 -1.1828
 2727SOL    HW219644   3.645   2.765   6.615 -1.9261  2.2995 -2.2640
 2728SOL     OW19645   3.607   2.465   4.149  0.1306 -0.1131  0.2897
 2728SOL    HW119646   3.638   2.396   4.207  1.1669  1.0244  1.0976
 2728SOL    HW219647   3.652   2.543   4.183 -0.5646  0.1094  0.6972
 2729SOL     OW19648   2.386   0.071   2.941 -0.2884 -0.4884  0.6480
 2729SOL    HW119649   2.387   0.074   3.036  0.5494  0.2448  0.6157
 2729SOL    HW219650   2.298   0.093   2.911 -0.9375 -1.5028  1.8194
 2730SOL     OW19651   0.044   0.496   3.402  0.1728 -0.4028 -0.2814
 2730SOL    HW119652   0.017   0.449   3.323  0.3011 -1.8952  0.5593
 2730SOL    HW219653   0.138   0.488   3.415  0.2466  0.2318 -0.4035
 2731SOL     OW19654   3.984   4.326   6.234  0.0904  0.1355 -0.0606
 2731SOL    HW119655   3.947   4.350   6.149  1.4351 -0.0778 -0.7037
 2731SOL    HW219656   3.918   4.274   6.280  0.1326  0.6066  0.5386
 2732SOL     OW19657   3.900   3.015   5.609  0.2849  0.2873 -0.0292
 2732SOL    HW119658   3.878   3.034   5.518 -1.6547 -0.2102  0.3457
 2732SOL    HW219659   3.849   2.935   5.620 -0.8402  1.1387  0.8784
 2733SOL     OW19660   0.263   1.242   7.093 -0.3807 -0.2639  0.7438
 2733SOL    HW119661   0.295   1.159   7.128  2.0650  0.8651  1.1671
 2733SOL    HW219662   0.195   1.241   7.161 -1.5438  2.1832 -0.3786
 2734SOL     OW19663   4.307   4.661   5.561  0.3538  0.1756 -0.2092
 2734SOL    HW119664   4.365   4.706   5.623  0.9725 -2.0442  0.8255
 2734SOL    HW219665   4.364   4.617   5.498  1.3988  0.4740  0.5238
 2735SOL     OW19666   2.835   3.242  11.957  0.6128 -0.1280 -0.6743
 2735SOL    HW119667   2.864   3.219  11.868  0.3175  2.0979 -1.3479
 2735SOL    HW219668   2.911   3.223  12.012 -0.4945  0.0186  0.9103
 2736SOL     OW19669   3.811   3.591   1.519  0.2723 -0.4677  0.2137
 2736SOL    HW119670   3.817   3.497   1.538 -2.3361 -0.8937 -1.0793
 2736SOL    HW219671   3.846   3.614   1.605 -0.0094  2.2182 -0.4049
 2737SOL     OW19672   2.281   0.303  14.713  0.4341 -0.4342 -0.2575
 2737SOL    HW119673   2.274   0.212  14.684 -0.0476 -0.7680  0.9190
 2737SOL    HW219674   2.304   0.342  14.629  0.4008  1.2431  0.5066
 2738SOL     OW19675   3.699   0.072   8.030  0.9458  0.4489 -0.1038
 2738SOL    HW119676   3.690   0.139   8.098 -1.0738 -0.0494  0.1000
 2738SOL    HW219677   3.639   0.007   8.067  1.2525 -0.0087 -0.4088
 2739SOL     OW19678   3.751   1.328   9.083  0.1169 -0.2815  0.0587
 2739SOL    HW119679   3.772   1.389   9.153  0.9331 -1.1701  0.5830
 2739SOL    HW219680   3.744   1.390   9.010 -1.3453  1.3147  1.5382
 2740SOL     OW19681   0.835   1.333   5.536 -0.3341  0.2202  0.0431
 2740SOL    HW119682   0.760   1.299   5.583  1.1101 -0.4265  1.8712
 2740SOL    HW219683   0.897   1.353   5.606  0.5388  1.8926 -1.1935
 2741SOL     OW19684   4.689   2.896   4.733 -0.3158 -0.2536  0.3390
 2741SOL    HW119685   4.622   2.829   4.717 -0.6821  0.4571 -1.1283
 2741SOL    HW219686   4.659   2.952   4.805  1.5917  1.3683 -0.1493
 2742SOL     OW19687   3.101   2.401   8.329  0.5521  0.3630  0.1178
 2742SOL    HW119688   3.158   2.478   8.340  0.0955  0.7156 -0.0066
 2742SOL    HW219689   3.176   2.342   8.320  0.1222  0.0229 -1.1911
 2743SOL     OW19690   0.865   0.471   3.697 -0.0760 -0.3432 -0.1155
 2743SOL    HW119691   0.924   0.396   3.693  0.4497  0.0381  0.6383
 2743SOL    HW219692   0.845   0.476   3.790 -0.3553 -0.5615 -0.1654
 2744SOL     OW19693   1.135   0.923   4.619 -1.1700  0.4600  0.6858
 2744SOL    HW119694   1.118   0.840   4.663  0.1210  0.0176  0.3206
 2744SOL    HW219695   1.186   0.893   4.544 -1.2170  1.2773  0.3261
 2745SOL     OW19696   3.479   1.725   5.935 -0.7046 -0.2204  0.1565
 2745SOL    HW119697   3.440   1.663   5.874 -0.6385 -1.2457  1.1604
 2745SOL    HW219698   3.566   1.730   5.897 -0.7068 -0.2057  0.1533
 2746SOL     OW19699   2.508   1.698   7.549 -0.1803 -0.6319 -0.0791
 2746SOL    HW119700   2.557   1.628   7.507  0.7845 -0.5163  0.8811
 2746SOL    HW219701   2.419   1.663   7.554 -1.1018  1.7189  0.0481
 2747SOL     OW19702   3.164   4.411   9.174  0.7132 -0.0283 -0.1145
 2747SOL    HW119703   3.080   4.397   9.131  0.0140  0.7934  0.9805
 2747SOL    HW219704   3.155   4.400   9.268  0.5656  0.8660 -0.0221
 2748SOL     OW19705   2.471   4.271   8.361  0.1488  0.7306 -0.2724
 2748SOL    HW119706   2.526   4.348   8.344  1.2142 -0.0673 -0.4992
 2748SOL    HW219707   2.531   4.221   8.417 -3.0885 -2.7330  0.0644
 2749SOL     OW19708   4.297   4.467   8.854 -0.3923  0.0795 -0.1978
 2749SOL    HW119709   4.302   4.390   8.797  1.6611 -1.9005  2.6782
 2749SOL    HW219710   4.235   4.521   8.806  0.9690  1.0696 -0.8454
 2750SOL     OW19711   2.682   3.144   2.101 -0.3149  0.0838  0.4271
 2750SOL    HW119712   2.708   3.157   2.010 -0.8304  3.4279  0.7551
 2750SOL    HW219713   2.656   3.052   2.094 -0.8986  0.3396 -0.7298
 2751SOL     OW19714   0.448   2.479  13.492  0.1527  0.7432 -0.4773
 2751SOL    HW119715   0.423   2.437  13.574  2.9428  0.4373  0.2113
 2751SOL    HW219716   0.519   2.424  13.459 -1.0392 -0.4081 -1.1261
 2752SOL     OW19717   4.501   2.355   8.772  0.2874  0.0878 -0.0529
 2752SOL    HW119718   4.476   2.263   8.775  0.5037  0.0678  1.3627
 2752SOL    HW219719   4.592   2.331   8.789  0.7950  1.4474 -0.8861
 2753SOL     OW19720   2.318   1.677   7.789 -0.2117  0.0142 -0.1075
 2753SOL    HW119721   2.293   1.592   7.755 -1.3958  0.9632 -1.6045
 2753SOL    HW219722   2.412   1.670   7.808 -0.2170 -0.2048 -0.1691
 2754SOL     OW19723   2.201   3.086   5.532 -0.3425 -0.4259 -0.7691
 2754SOL    HW119724   2.226   3.156   5.471 -0.5987 -0.9504 -1.4776
 2754SOL    HW219725   2.230   3.018   5.471  2.2821  0.3988 -0.4412
 2755SOL     OW19726   0.422   0.465   5.131 -0.4546  0.5613 -0.5635
 2755SOL    HW119727   0.512   0.490   5.108 -0.7727  0.7871 -1.5872
 2755SOL    HW219728   0.398   0.545   5.177  1.8550 -0.9249  3.2333
 2756SOL     OW19729   0.736   3.267   5.514  0.0950 -0.4208  0.0427
 2756SOL    HW119730   0.793   3.314   5.575 -0.1824  0.6267 -0.5050
 2756SOL    HW219731   0.705   3.327   5.446  0.5845 -3.0429 -2.4751
 2757SOL     OW19732   0.790   3.402   2.940  0.3007  0.3031  0.2808
 2757SOL    HW119733   0.781   3.332   3.005 -0.4708  1.0136  0.9350
 2757SOL    HW219734   0.817   3.475   2.995  0.3263 -0.0885  0.7891
 2758SOL     OW19735   0.656   0.373   8.141  0.3093  0.1714 -0.2585
 2758SOL    HW119736   0.672   0.423   8.061  0.4054  0.9727  0.2595
 2758SOL    HW219737   0.737   0.385   8.191 -1.5399  2.7828  2.0752
 2759SOL     OW19738   4.189   0.770   0.623 -0.4449 -0.3577  0.1230
 2759SOL    HW119739   4.205   0.678   0.639 -0.2149 -0.7266 -2.1536
 2759SOL    HW219740   4.114   0.781   0.681  0.2281  2.8746  0.4282
 2760SOL     OW19741   1.233   0.621   3.525 -0.2227  0.5283  0.3036
 2760SOL    HW119742   1.270   0.536   3.547 -2.6531 -0.7544 -0.4907
 2760SOL    HW219743   1.141   0.601   3.543  0.2382 -0.6600  1.3270
 2761SOL     OW19744   2.565   1.476   9.183 -0.7061 -0.1956 -0.3229
 2761SOL    HW119745   2.595   1.560   9.149  2.4198 -1.2659 -0.2170
 2761SOL    HW219746   2.534   1.419   9.114  1.5190 -0.9776 -0.6842
 2762SOL     OW19747   0.699   0.618   4.957  0.0095 -0.6174  0.2485
 2762SOL    HW119748   0.721   0.535   4.998  1.5943 -1.4723 -2.3977
 2762SOL    HW219749   0.630   0.595   4.895  0.5829  2.0002 -1.3678
 2763SOL     OW19750   1.431   1.321   3.778  1.2080  0.8528  0.0249
 2763SOL    HW119751   1.368   1.297   3.847 -1.5470  3.0100 -1.7600
 2763SOL    HW219752   1.406   1.251   3.718  0.0781  0.3011  1.1223
 2764SOL     OW19753   4.209   2.048  10.781  0.1616 -0.8029 -0.4778
 2764SOL    HW119754   4.256   2.091  10.853  0.2568 -0.4605 -0.7421
 2764SOL    HW219755   4.254   2.077  10.701 -0.2355  0.3634 -0.2695
 2765SOL     OW19756   0.780   3.094  11.934 -0.0628 -0.3298  0.7339
 2765SOL    HW119757   0.786   3.002  11.959  0.2461 -0.4737  0.1507
 2765SOL    HW219758   0.755   3.137  12.015 -2.7913 -0.4811 -0.0237
 2766SOL     OW19759   0.829   3.374   2.693  0.2133  0.1499  0.2628
 2766SOL    HW119760   0.749   3.417   2.662  0.0257  0.5858  1.3645
 2766SOL    HW219761   0.818   3.407   2.782  0.5200  1.2380 -0.1019
 2767SOL     OW19762   3.314   0.840  13.357  0.3734 -0.1084 -0.0306
 2767SOL    HW119763   3.287   0.859  13.447 -0.7999 -1.8197 -0.0267
 2767SOL    HW219764   3.407   0.863  13.359  0.1983  0.5578  0.7889
 2768SOL     OW19765   0.839   0.735   5.138  0.1569  0.5075 -0.2579
 2768SOL    HW119766   0.767   0.768   5.192 -0.6008 -2.3300  0.4472
 2768SOL    HW219767   0.795   0.692   5.064  0.5394  0.9966 -0.7744
 2769SOL     OW19768   1.007   3.382   1.361 -0.2738 -0.8113  0.1153
 2769SOL    HW119769   1.021   3.389   1.455 -0.2568  2.5934 -0.1680
 2769SOL    HW219770   0.988   3.288   1.349 -0.7316 -0.5916 -0.9114
 2770SOL     OW19771   1.562   4.193  10.127  0.1671  0.2495 -0.0912
 2770SOL    HW119772   1.524   4.109  10.153  0.1736  0.3574  0.2629
 2770SOL    HW219773   1.515   4.244  10.192 -2.0169 -1.6339 -0.2080
 2771SOL     OW19774   3.624   0.268   1.072  0.2943 -1.0432 -0.4999
 2771SOL    HW119775   3.539   0.229   1.052  0.5625 -1.8705 -0.0303
 2771SOL    HW219776   3.596   0.356   1.099  1.9567 -1.4156  2.4121
 2772SOL     OW19777   4.362   3.652   8.017 -0.2306 -0.1655 -0.2961
 2772SOL    HW119778   4.320   3.636   8.102  0.8177 -1.0094  0.0590
 2772SOL    HW219779   4.378   3.746   8.025  1.9847 -0.5685 -0.0430
 2773SOL     OW19780   3.883   2.623   5.765  0.2109  0.0291 -0.0713
 2773SOL    HW119781   3.852   2.692   5.706 -0.7082  0.3575  0.7963
 2773SOL    HW219782   3.799   2.588   5.795  0.1426  1.6043  1.5997
 2774SOL     OW19783   0.484   3.197  12.675  0.4155 -0.5764 -0.3209
 2774SOL    HW119784   0.486   3.260  12.748 -0.7161 -0.0927 -0.7173
 2774SOL    HW219785   0.571   3.161  12.691  0.3706 -0.6993 -0.3560
 2775SOL     OW19786   1.184   2.280   7.615 -0.3260 -0.3301  0.2025
 2775SOL    HW119787   1.252   2.230   7.661 -0.6353  0.4688  1.5240
 2775SOL    HW219788   1.113   2.266   7.677  0.2309  0.1760  0.9620
 2776SOL     OW19789   4.337   4.456   4.031  0.0369 -0.3871  0.1569
 2776SOL    HW119790   4.314   4.433   3.941 -0.5526 -0.6600  0.3803
 2776SOL    HW219791   4.252   4.486   4.062  0.8149  1.4401  0.5533
 2777SOL     OW19792   3.578   2.264   6.427  0.2238  0.2999 -0.0802
 2777SOL    HW119793   3.518   2.192   6.442 -0.1223  0.4868 -0.5604
 2777SOL    HW219794   3.658   2.215   6.407 -0.9857 -1.4476 -0.6156
 2778SOL     OW19795   4.648   1.361   2.103  0.3463  0.2416 -0.4879
 2778SOL    HW119796   0.013   1.390   2.074  0.4511  0.6227  0.1896
 2778SOL    HW219797   4.634   1.308   2.025 -2.9315 -0.2248  0.4385
 2779SOL     OW19798   0.302   3.730   8.373 -0.5159 -0.1276  0.6322
 2779SOL    HW119799   0.316   3.811   8.423  1.1146 -0.3512  0.5348
 2779SOL    HW219800   0.219   3.746   8.329 -0.5934 -0.1637  0.7664
 2780SOL     OW19801   1.598   0.329   4.097  0.0251 -0.2612 -0.4965
 2780SOL    HW119802   1.618   0.417   4.067 -0.1624  0.1013  0.4264
 2780SOL    HW219803   1.643   0.277   4.031 -0.8755 -2.3864  0.5758
 2781SOL     OW19804   1.426   1.159  12.362 -0.0245  0.5242  0.7962
 2781SOL    HW119805   1.436   1.190  12.271 -0.2880 -0.4678  0.4270
 2781SOL    HW219806   1.344   1.201  12.388 -0.3119  0.9808 -0.8211
 2782SOL     OW19807   1.150   4.084   1.905  0.5338 -1.3752  0.0735
 2782SOL    HW119808   1.137   4.175   1.931  1.7938 -1.0677 -0.3949
 2782SOL    HW219809   1.137   4.089   1.810 -0.8050 -2.7379  0.1879
 2783SOL     OW19810   4.013   4.124  16.861 -0.1305 -0.3581  0.4945
 2783SOL    HW119811   3.998   4.044  16.810  0.9788  0.0431 -0.4668
 2783SOL    HW219812   3.960   4.108  16.939 -2.6453  1.1330 -0.9318
 2784SOL     OW19813   2.774   4.228  16.970 -0.4913 -0.0042  0.1049
 2784SOL    HW119814   2.869   4.221  16.956 -0.3786 -1.7023  1.7718
 2784SOL    HW219815   2.772   4.295  17.037 -2.0915  2.0026 -1.9583
 2785SOL     OW19816   3.453   3.365   1.392 -0.1733 -0.4579  0.1787
 2785SOL    HW119817   3.512   3.317   1.335 -1.2746 -1.0520 -0.4458
 2785SOL    HW219818   3.461   3.455   1.359 -0.1300  0.1326  1.7725
 2786SOL     OW19819   3.357   0.400   5.281 -0.3568 -0.1448 -0.3566
 2786SOL    HW119820   3.269   0.381   5.315 -1.2690  2.5268 -1.1785
 2786SOL    HW219821   3.329   0.450   5.204 -0.0993  2.5681  1.3244
 2787SOL     OW19822   2.409   4.047   3.756 -0.5136  0.5192 -0.5675
 2787SOL    HW119823   2.422   4.128   3.706 -2.6147  0.9567 -0.4406
 2787SOL    HW219824   2.470   3.980   3.728 -0.3461  1.0342 -1.4371
 2788SOL     OW19825   1.849   0.178  16.502  0.2989  0.8763 -0.3294
 2788SOL    HW119826   1.863   0.270  16.526  0.3670  0.6053  0.6659
 2788SOL    HW219827   1.757   0.168  16.529  0.2532  4.3173  0.7975
 2789SOL     OW19828   1.080   3.118   0.109  0.0682  0.2303 -0.1395
 2789SOL    HW119829   0.988   3.128   0.085  0.0645  1.4096  0.4066
 2789SOL    HW219830   1.070   3.163   0.193  0.1765  2.0735 -1.1200
 2790SOL     OW19831   2.883   0.175   4.020 -0.5199  0.0228  0.6257
 2790SOL    HW119832   2.808   0.119   3.999 -1.4537  1.1549  0.9169
 2790SOL    HW219833   2.839   0.239   4.076 -1.9181  0.4326 -0.9256
 2791SOL     OW19834   0.501   1.141   9.988 -0.4047  0.2531 -0.5378
 2791SOL    HW119835   0.545   1.188  10.059  0.9001  0.7260 -1.6691
 2791SOL    HW219836   0.414   1.135  10.026  0.4223  0.2037  1.3727
 2792SOL     OW19837   1.832   3.002   8.988 -0.1132 -0.0035 -0.4067
 2792SOL    HW119838   1.779   3.080   9.006  2.8067  2.7730 -3.6929
 2792SOL    HW219839   1.837   2.999   8.892  1.7475  1.8881 -0.3711
 2793SOL     OW19840   2.157   0.542  17.309  0.7804 -0.0366 -0.2621
 2793SOL    HW119841   2.181   0.634  17.325 -1.1869  0.0696  2.1693
 2793SOL    HW219842   2.220   0.513  17.244  0.5536  1.3837 -1.1248
 2794SOL     OW19843   3.482   1.006  10.605 -0.2891 -0.4079  0.5478
 2794SOL    HW119844   3.535   1.014  10.684 -1.6871 -1.0334  1.5505
 2794SOL    HW219845   3.546   1.016  10.534  0.3479 -2.6233  0.8433
 2795SOL     OW19846   1.910   3.950   1.425  0.1099  0.0222 -0.0773
 2795SOL    HW119847   1.968   4.022   1.405 -0.4544 -0.0290 -1.8436
 2795SOL    HW219848   1.900   3.955   1.521 -0.8302  1.6692 -0.2596
 2796SOL     OW19849   4.065   3.516   5.323  0.1881  0.2220 -0.0471
 2796SOL    HW119850   4.125   3.471   5.382 -1.0632  0.0189  1.0621
 2796SOL    HW219851   4.021   3.581   5.378 -0.2442 -0.9156  0.9492
 2797SOL     OW19852   4.260   3.061   3.911  0.6553 -0.3815 -0.0224
 2797SOL    HW119853   4.294   3.002   3.978 -0.6992 -3.9358 -2.4388
 2797SOL    HW219854   4.336   3.098   3.865 -0.7287  0.9894 -1.1922
 2798SOL     OW19855   0.733   0.452  13.352  0.0571  0.0388  0.0785
 2798SOL    HW119856   0.739   0.374  13.408  1.2193  0.4945  0.5746
 2798SOL    HW219857   0.786   0.411  13.283  1.8693  3.5163 -0.5538
 2799SOL     OW19858   2.781   3.157   3.454 -0.1922 -0.3342  0.0365
 2799SOL    HW119859   2.710   3.133   3.395  1.8383  0.8243 -2.8872
 2799SOL    HW219860   2.832   3.078   3.439  2.1870  0.5466  3.6371
 2800SOL     OW19861   3.264   4.222  12.764 -0.0767 -0.0775  0.7389
 2800SOL    HW119862   3.217   4.146  12.730 -1.1952 -0.1072  2.3593
 2800SOL    HW219863   3.350   4.183  12.782 -0.5434 -0.5770  1.9001
 2801SOL     OW19864   1.756   3.337   2.707  0.5692  0.3756  0.0011
 2801SOL    HW119865   1.824   3.395   2.740 -0.3505  1.3633  0.1641
 2801SOL    HW219866   1.802   3.253   2.697 -0.6258 -0.3270  0.2853
 2802SOL     OW19867   3.361   3.596   0.803 -0.2714 -0.1851  0.1007
 2802SOL    HW119868   3.381   3.668   0.863 -2.2555  0.3940  0.0694
 2802SOL    HW219869   3.450   3.562   0.791 -0.4694 -0.2122 -1.3258
 2803SOL     OW19870   1.981   1.587   9.245 -0.3152  0.1633 -0.1568
 2803SOL    HW119871   1.897   1.543   9.233 -0.3810  1.0024 -2.8411
 2803SOL    HW219872   1.974   1.646   9.320  0.1778  1.7284 -1.3588
 2804SOL     OW19873   3.359   1.795   5.392 -0.2952  0.5263  0.9482
 2804SOL    HW119874   3.323   1.850   5.461 -1.5825  2.1049 -0.9643
 2804SOL    HW219875   3.328   1.849   5.319  0.5237  1.4627  1.3055
 2805SOL     OW19876   2.609   4.592   0.279  0.1419 -0.6884  0.1570
 2805SOL    HW119877   2.542   4.617   0.343  1.0068 -0.5771  1.0278
 2805SOL    HW219878   2.677   4.550   0.332 -1.2033 -0.9970  1.6398
 2806SOL     OW19879   2.950   4.516   8.197 -0.7294  0.1393 -0.1810
 2806SOL    HW119880   3.035   4.472   8.195 -2.5483 -3.3924 -0.4835
 2806SOL    HW219881   2.901   4.465   8.132  0.3599 -0.7920 -0.2849
 2807SOL     OW19882   3.716   3.787   5.082 -0.1610  0.2074  0.3018
 2807SOL    HW119883   3.760   3.815   5.163  1.5957  1.5122 -1.1188
 2807SOL    HW219884   3.649   3.854   5.073  0.8540  1.3014  0.8670
 2808SOL     OW19885   4.145   0.560   6.876  0.0099 -0.4474  0.5098
 2808SOL    HW119886   4.170   0.489   6.817  0.3244  0.3073 -0.2716
 2808SOL    HW219887   4.226   0.569   6.926  1.0653 -0.4525 -1.2103
 2809SOL     OW19888   3.058   2.046   8.335  0.1094  0.3034 -0.0800
 2809SOL    HW119889   3.020   2.007   8.257 -1.0216  0.8612  0.1913
 2809SOL    HW219890   3.151   2.047   8.312  0.0947 -0.4372 -0.1686
 2810SOL     OW19891   1.150   3.169  17.026  0.2586  0.5079  0.3527
 2810SOL    HW119892   1.065   3.146  17.064  0.4109  0.8636  0.8962
 2810SOL    HW219893   1.180   3.236  17.087  0.3263 -0.3309  1.2548
 2811SOL     OW19894   1.160   3.231   7.695  0.4074  0.0379 -0.1697
 2811SOL    HW119895   1.134   3.275   7.614  0.2011  2.1463  1.0217
 2811SOL    HW219896   1.118   3.283   7.764  0.7373  0.5930 -0.3876
 2812SOL     OW19897   2.712   2.300   4.650 -0.1714  0.1848  0.4951
 2812SOL    HW119898   2.751   2.385   4.671 -0.4578  1.2055 -3.1506
 2812SOL    HW219899   2.727   2.264   4.737 -1.3598 -0.3528  0.4716
 2813SOL     OW19900   1.465   0.116   3.095 -0.2769 -0.5546  0.1840
 2813SOL    HW119901   1.378   0.079   3.079  0.2290 -1.6156 -0.0839
 2813SOL    HW219902   1.446   0.145   3.184 -2.3574  0.6778 -0.6472
 2814SOL     OW19903   2.580   3.415   5.168 -0.4056 -0.3688 -0.3114
 2814SOL    HW119904   2.632   3.336   5.163  1.4822  0.8763 -0.2897
 2814SOL    HW219905   2.636   3.477   5.214  0.1615 -1.1320  0.0122
 2815SOL     OW19906   3.988   0.184   3.010  0.1175  0.1576  0.0850
 2815SOL    HW119907   3.969   0.099   3.050  1.2770 -0.4268 -0.6105
 2815SOL    HW219908   3.896   0.207   3.001  0.7672  1.3746 -3.3209
 2816SOL     OW19909   1.415   2.897  14.710 -0.0214 -0.1981  0.0992
 2816SOL    HW119910   1.452   2.971  14.759  0.0965  0.3098 -0.7686
 2816SOL    HW219911   1.478   2.889  14.639 -0.9943  1.9133 -0.9875
 2817SOL     OW19912   3.615   3.029   5.837 -0.0608  0.0959  0.0150
 2817SOL    HW119913   3.538   3.031   5.894 -0.8917  0.8352 -1.1334
 2817SOL    HW219914   3.585   3.079   5.762 -1.5699 -0.1898  0.4174
 2818SOL     OW19915   2.690   1.123  11.933 -0.1826  0.2416  0.2035
 2818SOL    HW119916   2.665   1.153  11.846 -1.7853  0.0373  0.6057
 2818SOL    HW219917   2.607   1.136  11.977 -1.3895  1.5075 -2.4558
 2819SOL     OW19918   3.519   0.002  11.753 -0.2489 -0.4575 -0.2195
 2819SOL    HW119919   3.613   0.004  11.769 -0.3747  1.6455  0.1981
 2819SOL    HW219920   3.522   0.022  11.660  1.7851  1.4500  0.2645
 2820SOL     OW19921   0.950   3.287   8.367  0.2337 -0.1621  0.2490
 2820SOL    HW119922   0.899   3.344   8.309 -0.1960 -0.9162 -0.1317
 2820SOL    HW219923   0.924   3.323   8.452 -0.8141  0.1296 -0.1835
 2821SOL     OW19924   4.624   0.327  12.113  0.4235  0.3597 -0.4914
 2821SOL    HW119925   4.645   0.397  12.052 -0.4413  0.8997 -0.1746
 2821SOL    HW219926   4.631   0.365  12.200 -3.3789  1.0618 -0.4950
 2822SOL     OW19927   1.049   2.282   1.341 -0.0256 -0.4180 -0.2120
 2822SOL    HW119928   1.017   2.197   1.311  0.7168  0.0136 -2.1606
 2822SOL    HW219929   1.140   2.263   1.360 -0.0099 -0.1594 -0.0134
 2823SOL     OW19930   4.406   3.495   4.452 -0.3926 -0.0130 -0.1522
 2823SOL    HW119931   4.455   3.435   4.396 -0.8261 -0.4557 -0.0557
 2823SOL    HW219932   4.454   3.487   4.535 -0.4999 -0.2109 -0.1102
 2824SOL     OW19933   1.968   4.527  13.619 -0.2497 -0.5486 -0.2780
 2824SOL    HW119934   2.058   4.495  13.624  0.3003  0.9244 -0.5745
 2824SOL    HW219935   1.976   4.565  13.532  0.7167  0.2138  0.1420
 2825SOL     OW19936   2.931   4.651   4.359  0.4121 -0.1919  0.6823
 2825SOL    HW119937   2.960   4.704   4.285 -0.7216 -1.1281 -0.4169
 2825SOL    HW219938   2.916   4.567   4.315 -1.1751 -0.5987  2.0228
 2826SOL     OW19939   3.310   3.080   2.554 -0.1489 -0.5073  0.3432
 2826SOL    HW119940   3.306   3.167   2.514  1.0011 -0.9670 -0.7972
 2826SOL    HW219941   3.283   3.029   2.478 -2.5140 -0.8206  1.4124
 2827SOL     OW19942   4.693   3.468   6.167  0.0390  0.2100  0.0278
 2827SOL    HW119943   0.008   3.390   6.208 -0.2262 -1.2727 -2.5154
 2827SOL    HW219944   4.646   3.505   6.241 -0.6587  0.6661 -0.6410
 2828SOL     OW19945   3.738   1.566   8.377 -0.1115 -0.3323  0.1930
 2828SOL    HW119946   3.803   1.505   8.412  2.3208  1.1488 -1.7525
 2828SOL    HW219947   3.784   1.606   8.303  0.5638 -0.6591  0.4382
 2829SOL     OW19948   2.689   0.242   5.279 -0.2916  0.0204  0.5773
 2829SOL    HW119949   2.717   0.334   5.278 -3.1612  0.8816 -0.6300
 2829SOL    HW219950   2.595   0.253   5.288 -0.4134 -0.9734  0.4864
 2830SOL     OW19951   4.697   3.996   7.178 -0.0046 -0.3158 -0.8903
 2830SOL    HW119952   0.046   4.048   7.140 -1.2221  1.2943 -0.9913
 2830SOL    HW219953   4.671   4.051   7.252  0.6432 -0.7636 -0.3288
 2831SOL     OW19954   4.605   2.925  16.694  0.2064  0.1939  0.0275
 2831SOL    HW119955   4.551   2.971  16.757  2.6382 -0.3744  2.5252
 2831SOL    HW219956   4.618   2.835  16.723 -4.5536 -0.4847  0.0315
 2832SOL     OW19957   2.512   3.483   8.143 -0.9442 -0.3412 -0.3065
 2832SOL    HW119958   2.465   3.460   8.063 -1.1202  0.5887 -0.4743
 2832SOL    HW219959   2.602   3.453   8.135 -0.5913  0.0960  1.8174
 2833SOL     OW19960   4.450   2.341   2.942  0.3754 -0.1290  0.2589
 2833SOL    HW119961   4.513   2.393   2.893 -0.0746 -0.1028 -0.2912
 2833SOL    HW219962   4.376   2.402   2.933  1.4402  0.9453 -1.0901
 2834SOL     OW19963   2.879   4.481   6.697  0.2538 -0.2771 -0.0590
 2834SOL    HW119964   2.895   4.573   6.714  0.4678 -0.2713 -0.2904
 2834SOL    HW219965   2.801   4.483   6.641 -1.4156 -1.4451  2.2231
 2835SOL     OW19966   2.112   0.180   7.270 -0.2330 -0.0650  0.4026
 2835SOL    HW119967   2.195   0.191   7.317 -0.0757  1.9895 -0.3349
 2835SOL    HW219968   2.043   0.188   7.335 -1.6775 -0.5620 -1.0638
 2836SOL     OW19969   0.593   1.067  13.312  0.1949 -0.2807 -0.0767
 2836SOL    HW119970   0.631   0.989  13.352  4.4313  2.4801  1.2415
 2836SOL    HW219971   0.576   1.038  13.222 -0.1541  0.1271 -0.1457
 2837SOL     OW19972   2.716   1.887   6.214  0.2496 -1.0618  0.1412
 2837SOL    HW119973   2.636   1.924   6.177  1.1273  1.0785  0.3464
 2837SOL    HW219974   2.746   1.826   6.146  0.4755  1.1580 -1.7602
 2838SOL     OW19975   1.004   2.517   0.155  0.0003  0.1849  0.4408
 2838SOL    HW119976   0.973   2.557   0.074 -1.4320 -0.0572  0.8800
 2838SOL    HW219977   1.092   2.489   0.130  0.4194  3.4890 -1.8041
 2839SOL     OW19978   1.897   2.501   5.744 -0.1440  0.0393 -0.1796
 2839SOL    HW119979   1.807   2.528   5.726 -0.4068 -1.2519 -0.7969
 2839SOL    HW219980   1.902   2.449   5.664 -0.3778 -0.2984  0.0271
 2840SOL     OW19981   3.484   0.857  14.556  0.3152 -0.6435 -0.2903
 2840SOL    HW119982   3.511   0.942  14.521  1.8777 -1.6923 -1.5911
 2840SOL    HW219983   3.396   0.859  14.516  0.4597 -1.1761 -0.6320
 2841SOL     OW19984   2.953   1.397   4.779 -0.1608 -0.3944 -0.5126
 2841SOL    HW119985   2.946   1.339   4.703  2.1580 -0.9092 -0.3425
 2841SOL    HW219986   2.967   1.478   4.729  3.6781  0.0714  1.2845
 2842SOL     OW19987   4.331   2.206   7.204 -0.0176  0.2863 -0.3188
 2842SOL    HW119988   4.372   2.156   7.274  1.0511  1.5617 -0.0451
 2842SOL    HW219989   4.284   2.146   7.146 -0.0777 -0.4763  0.5261
 2843SOL     OW19990   1.870   2.566   4.040 -0.5540 -0.5139 -0.5072
 2843SOL    HW119991   1.924   2.487   4.040  0.3624  0.1148  1.5999
 2843SOL    HW219992   1.783   2.527   4.041 -1.3247  1.2235  0.1622
 2844SOL     OW19993   3.927   4.387   1.949  0.2913 -0.0516  0.5236
 2844SOL    HW119994   4.017   4.406   1.975  0.1322  1.8745 -0.3351
 2844SOL    HW219995   3.881   4.456   1.997 -1.0058  0.7326 -1.8559
 2845SOL     OW19996   0.221   0.975   5.187 -0.0283  0.0313  0.8399
 2845SOL    HW119997   0.147   0.919   5.207 -0.3271  0.0467 -0.1985
 2845SOL    HW219998   0.231   1.020   5.271 -1.2625 -1.8773  1.9985
 2846SOL     OW19999   2.356   2.513   9.641  0.1399  0.1125 -0.1699
 2846SOL    HW120000   2.441   2.556   9.647 -0.1674  0.7710 -0.5344
 2846SOL    HW220001   2.374   2.424   9.668 -1.4962  0.7885  3.1928
 2847SOL     OW20002   0.926   1.495   3.609  0.3616 -0.1330  0.0629
 2847SOL    HW120003   0.973   1.561   3.557 -0.9924 -0.0079 -1.0016
 2847SOL    HW220004   0.991   1.426   3.621 -0.5715 -0.8131  1.1941
 2848SOL     OW20005   0.677   2.990   1.484  0.1242 -0.4679  0.4580
 2848SOL    HW120006   0.709   2.927   1.419  3.3731  0.3767  1.1956
 2848SOL    HW220007   0.632   3.057   1.433 -1.2413 -1.1556  0.7668
 2849SOL     OW20008   0.300   3.762  11.522 -0.3737  0.1113  0.1420
 2849SOL    HW120009   0.226   3.705  11.545 -1.8622  1.6756 -0.7950
 2849SOL    HW220010   0.251   3.844  11.520 -2.0901 -0.9251 -0.1720
 2850SOL     OW20011   3.772   1.874   3.948  0.3893 -0.2489  0.0448
 2850SOL    HW120012   3.824   1.797   3.928  1.0922  0.4111 -0.7077
 2850SOL    HW220013   3.788   1.926   3.869 -0.8689  2.1960  1.3730
 2851SOL     OW20014   2.715   3.688   7.808  0.1132 -0.3596  0.2671
 2851SOL    HW120015   2.733   3.600   7.841  0.7507 -1.3129 -2.6343
 2851SOL    HW220016   2.802   3.707   7.773  0.1664  1.3683  1.3319
 2852SOL     OW20017   0.071   3.709   0.726 -0.4609  0.0756 -0.1604
 2852SOL    HW120018   0.164   3.708   0.705 -0.4391  2.0613 -0.1305
 2852SOL    HW220019   0.063   3.794   0.771  0.4695  0.7079 -1.2033
 2853SOL     OW20020   3.039   2.849   3.065 -0.1958  0.3010  0.5212
 2853SOL    HW120021   2.951   2.821   3.042 -0.4586  0.1473  1.7052
 2853SOL    HW220022   3.090   2.785   3.016 -0.4700 -0.2311  0.9315
 2854SOL     OW20023   2.699   3.906  15.835 -0.4395 -0.4333 -0.3845
 2854SOL    HW120024   2.624   3.935  15.784 -0.3919  1.3484  0.5501
 2854SOL    HW220025   2.693   3.959  15.915 -0.3621  1.9445 -1.9592
 2855SOL     OW20026   1.683   1.166   3.352 -0.5099 -0.0394  0.2977
 2855SOL    HW120027   1.638   1.226   3.293 -1.1826 -1.2394 -0.4147
 2855SOL    HW220028   1.637   1.082   3.348  1.5740 -1.1387 -1.0280
 2856SOL     OW20029   4.047   2.923   6.117  0.2177 -0.8207 -0.3288
 2856SOL    HW120030   4.122   2.968   6.157  0.2542  0.7329 -2.1784
 2856SOL    HW220031   4.023   2.986   6.050 -0.8036 -0.9735 -0.0946
 2857SOL     OW20032   3.237   4.287   2.210  0.1957  0.2907 -0.4518
 2857SOL    HW120033   3.193   4.202   2.205  1.4111 -0.2896 -1.0637
 2857SOL    HW220034   3.211   4.318   2.297 -1.2775 -1.2165 -0.3588
 2858SOL     OW20035   4.125   1.315   7.745  0.0962  0.1365  0.3323
 2858SOL    HW120036   4.215   1.345   7.760 -0.5578  2.5393 -0.4496
 2858SOL    HW220037   4.084   1.372   7.680  0.9069  1.5219  1.0368
 2859SOL     OW20038   2.026   2.899  17.046  0.0382 -0.1093  0.6321
 2859SOL    HW120039   1.983   2.922  17.128 -0.5566 -0.9318  0.5450
 2859SOL    HW220040   2.116   2.911  17.076  0.2879 -0.4005 -0.0079
 2860SOL     OW20041   0.231   2.352   7.679  0.4417 -0.3741 -0.6151
 2860SOL    HW120042   0.251   2.285   7.613  0.5571 -1.2662  0.3367
 2860SOL    HW220043   0.308   2.351   7.736 -0.3857  1.5967  0.5185
 2861SOL     OW20044   2.253   1.207   3.646 -0.3431 -0.0390 -0.7874
 2861SOL    HW120045   2.199   1.153   3.704 -1.2628  0.5066 -1.1293
 2861SOL    HW220046   2.267   1.135   3.584  1.1189  0.6094 -1.2091
 2862SOL     OW20047   2.809   4.595   3.453 -0.1286 -0.0954  0.3922
 2862SOL    HW120048   2.844   4.506   3.462  0.1178 -0.0606 -0.2563
 2862SOL    HW220049   2.717   4.568   3.454  0.2243 -1.2656  0.9906
 2863SOL     OW20050   4.486   0.036  15.113 -0.3902  0.4281 -0.0967
 2863SOL    HW120051   4.536   4.679  15.137 -2.2217 -0.4878  0.7332
 2863SOL    HW220052   4.540   0.095  15.166 -0.2231  0.8882 -0.7809
 2864SOL     OW20053   4.001   0.396   8.988  0.0762  0.1841 -0.4304
 2864SOL    HW120054   4.062   0.433   8.924  0.6754  0.1222  0.1085
 2864SOL    HW220055   3.933   0.462   8.995  0.5573  0.7147 -0.7383
 2865SOL     OW20056   0.238   1.812  17.601 -0.1997 -0.1192  0.1131
 2865SOL    HW120057   0.261   1.857  17.682  1.4760 -0.3296 -0.2614
 2865SOL    HW220058   0.315   1.755  17.601  1.7169  2.4791 -2.4914
 2866SOL     OW20059   3.521   2.915   8.963 -0.0457  0.1219 -0.4030
 2866SOL    HW120060   3.558   2.875   9.042 -0.7708 -0.5279 -0.3901
 2866SOL    HW220061   3.437   2.943   9.000 -0.5422  0.0587 -1.4946
 2867SOL     OW20062   4.702   2.118   8.491 -0.5599 -0.3978  0.2476
 2867SOL    HW120063   0.018   2.055   8.553  0.8795  2.2035  1.9685
 2867SOL    HW220064   0.031   2.196   8.513 -0.8330  0.4474 -2.0792
 2868SOL     OW20065   0.864   3.947   4.014 -0.0424 -0.2240  0.6641
 2868SOL    HW120066   0.912   3.911   3.939 -0.3686  0.0232  0.3359
 2868SOL    HW220067   0.798   3.880   3.997  2.3470 -2.8306  1.5717
 2869SOL     OW20068   4.432   0.085   5.742 -0.2877 -0.0631 -0.0379
 2869SOL    HW120069   4.345   0.113   5.768  1.0110  3.1557  0.8403
 2869SOL    HW220070   4.467   0.056   5.827 -1.7653  1.3295  1.0407
 2870SOL     OW20071   0.687   3.313  15.441  0.0660  0.5414  0.2640
 2870SOL    HW120072   0.652   3.396  15.473 -0.1507  1.0254 -1.1921
 2870SOL    HW220073   0.778   3.314  15.469 -0.0172  2.3321  0.4681
 2871SOL     OW20074   3.954   0.543  12.823  0.2774 -0.4843  0.2599
 2871SOL    HW120075   3.892   0.495  12.877 -1.2038  0.5134 -0.5416
 2871SOL    HW220076   3.916   0.542  12.735 -0.3562 -2.3860  0.5580
 2872SOL     OW20077   3.971   4.638   8.254 -0.0571  0.1892  0.0236
 2872SOL    HW120078   4.021   4.715   8.279 -0.2581  0.5095 -0.5631
 2872SOL    HW220079   3.935   4.616   8.340 -0.8725 -0.6050 -0.5100
 2873SOL     OW20080   0.861   1.061   4.653 -0.1287 -0.1203 -0.6851
 2873SOL    HW120081   0.821   1.094   4.572  0.2264  0.0793 -0.7816
 2873SOL    HW220082   0.948   1.044   4.617  1.3679  1.2668  2.3378
 2874SOL     OW20083   1.336   2.235   7.274 -0.4178 -0.2750 -0.2000
 2874SOL    HW120084   1.323   2.155   7.325  0.8561 -0.3914 -0.0570
 2874SOL    HW220085   1.372   2.293   7.341 -0.4540 -0.2319 -0.2182
 2875SOL     OW20086   2.417   2.582  14.061  0.0296 -0.5696  0.6147
 2875SOL    HW120087   2.458   2.572  14.147 -1.3942 -1.0857  1.2382
 2875SOL    HW220088   2.460   2.512  14.012 -0.3559 -0.0045 -0.5298
 2876SOL     OW20089   0.480   3.293  12.334 -0.1814  0.1211 -0.0339
 2876SOL    HW120090   0.516   3.381  12.333  0.3469 -0.1065 -0.7688
 2876SOL    HW220091   0.562   3.255  12.365 -1.2921 -0.4063  2.2730
 2877SOL     OW20092   4.073   2.986   3.719 -0.4210  0.3528 -0.5796
 2877SOL    HW120093   4.108   2.992   3.630 -1.3944 -2.0169 -1.1135
 2877SOL    HW220094   4.150   2.985   3.777 -0.7631 -0.2302 -0.1382
 2878SOL     OW20095   3.256   4.069   6.491  0.4385 -0.1405 -0.5213
 2878SOL    HW120096   3.237   4.053   6.583  1.0104  0.9646 -0.2168
 2878SOL    HW220097   3.324   4.137   6.493  1.3231 -0.9923 -1.7212
 2879SOL     OW20098   1.692   0.435   4.730 -0.4329  0.3806 -0.1429
 2879SOL    HW120099   1.780   0.472   4.723 -0.9553  2.2486  3.0079
 2879SOL    HW220100   1.652   0.517   4.758  0.9422 -0.3573  4.1074
 2880SOL     OW20101   1.426   2.744   2.496  0.7222 -0.1186 -0.5236
 2880SOL    HW120102   1.390   2.797   2.425 -1.6669 -1.5347 -0.3675
 2880SOL    HW220103   1.492   2.802   2.534  1.3174 -1.5379  0.5671
 2881SOL     OW20104   3.157   2.295  15.206  0.5781 -0.1124 -0.4866
 2881SOL    HW120105   3.136   2.302  15.299 -0.4369  0.5047 -0.7568
 2881SOL    HW220106   3.248   2.265  15.204 -0.5287 -3.3236 -3.7860
 2882SOL     OW20107   2.368   1.750   2.734  0.5036  0.4424  0.0692
 2882SOL    HW120108   2.311   1.719   2.664  1.1457  0.2034 -0.3543
 2882SOL    HW220109   2.316   1.738   2.814 -0.3550 -3.2604 -1.0486
 2883SOL     OW20110   2.330   3.361  13.320  0.2322 -0.3461  0.5552
 2883SOL    HW120111   2.292   3.359  13.408 -0.8639  0.4626  0.1032
 2883SOL    HW220112   2.386   3.284  13.325  2.3738  1.1459 -0.4483
 2884SOL     OW20113   3.332   2.399   5.374 -0.3744  0.2429  0.5339
 2884SOL    HW120114   3.347   2.306   5.387 -0.8082 -0.2831 -2.7220
 2884SOL    HW220115   3.409   2.437   5.333  0.7204 -1.2471  1.2344
 2885SOL     OW20116   4.500   1.333   3.005 -0.4763  0.3656 -0.1300
 2885SOL    HW120117   4.410   1.365   3.013 -0.2236  0.2637  2.9022
 2885SOL    HW220118   4.546   1.417   2.997 -0.0748  0.0028 -1.7399
 2886SOL     OW20119   3.966   4.523   6.437 -0.1644  0.2556  0.1301
 2886SOL    HW120120   3.904   4.589   6.468  1.6508  2.0478 -0.0675
 2886SOL    HW220121   3.907   4.469   6.385 -0.4223  1.6570 -1.0180
 2887SOL     OW20122   0.133   0.491  15.462  0.0756 -0.6942 -0.1945
 2887SOL    HW120123   0.181   0.421  15.418  1.7737  0.4771 -0.2212
 2887SOL    HW220124   0.183   0.502  15.543 -0.6890 -0.2519  0.2223
 2888SOL     OW20125   1.865   1.615   2.994 -0.5942  0.6361 -0.3023
 2888SOL    HW120126   1.858   1.704   3.026 -1.2257 -0.0901  1.5964
 2888SOL    HW220127   1.863   1.618   2.898 -1.7355 -0.4048 -0.3142
 2889SOL     OW20128   1.090   1.604   7.961 -0.8171 -0.0120  0.4855
 2889SOL    HW120129   1.184   1.607   7.979 -0.6173  0.0446 -0.6004
 2889SOL    HW220130   1.081   1.681   7.905 -0.7380  0.5161  1.1855
 2890SOL     OW20131   3.636   3.757  11.753  0.0239 -0.6373 -0.1582
 2890SOL    HW120132   3.558   3.811  11.753  0.0170 -0.6584  2.4234
 2890SOL    HW220133   3.696   3.805  11.810 -1.6624 -1.2814  2.1474
 2891SOL     OW20134   0.870   0.311   7.521  0.1287  0.8090 -0.2637
 2891SOL    HW120135   0.907   0.333   7.607 -0.9416  1.5973  0.0000
 2891SOL    HW220136   0.779   0.310   7.552 -0.9356 -2.2755 -3.5605
 2892SOL     OW20137   3.673   2.377   0.912 -0.1816 -0.4788  0.2490
 2892SOL    HW120138   3.585   2.414   0.915  0.7931  1.7633  1.3783
 2892SOL    HW220139   3.667   2.287   0.946  0.9759 -0.5498  0.2837
 2893SOL     OW20140   1.954   0.441   3.577 -0.4263  0.0733  0.0090
 2893SOL    HW120141   1.980   0.356   3.543  1.4528  0.7936 -0.3364
 2893SOL    HW220142   1.889   0.476   3.515  1.7124  2.0984 -1.0933
 2894SOL     OW20143   3.467   0.127   7.142 -0.3679  0.1799 -0.5782
 2894SOL    HW120144   3.507   0.042   7.121 -1.9137 -0.7420  0.2073
 2894SOL    HW220145   3.543   0.181   7.166 -0.0091 -0.6791  0.2059
 2895SOL     OW20146   1.806   1.945   7.237  0.6315 -0.1204 -0.0160
 2895SOL    HW120147   1.759   2.007   7.181 -0.7260 -2.6552 -1.6898
 2895SOL    HW220148   1.742   1.944   7.308 -1.1069  3.3426 -1.5573
 2896SOL     OW20149   4.507   2.223  13.941 -0.8309  0.3584  0.2359
 2896SOL    HW120150   4.433   2.257  13.991 -1.0607 -1.0159  0.8140
 2896SOL    HW220151   4.579   2.233  14.003 -1.0620  4.1148 -0.1263
 2897SOL     OW20152   1.877   1.051   1.199 -0.3002  0.0759 -0.1767
 2897SOL    HW120153   1.887   0.991   1.273  0.2704  1.4274  0.8250
 2897SOL    HW220154   1.812   1.117   1.223  0.8746  1.1146  0.1130
 2898SOL     OW20155   1.421   4.116  11.099 -0.4287  0.0605  0.1549
 2898SOL    HW120156   1.439   4.142  11.189  1.4176 -0.1847 -0.1487
 2898SOL    HW220157   1.503   4.077  11.067 -0.2246  1.2977 -0.8064
 2899SOL     OW20158   4.206   2.917   0.322 -0.3080  0.4058 -0.0025
 2899SOL    HW120159   4.262   2.971   0.377 -0.3232  0.8706 -0.4476
 2899SOL    HW220160   4.270   2.865   0.274 -0.4254  0.0685  0.2061
 2900SOL     OW20161   3.996   3.387   0.188 -0.0290 -0.3184  0.1087
 2900SOL    HW120162   3.980   3.476   0.156 -3.2076 -1.4261 -1.3701
 2900SOL    HW220163   4.020   3.341   0.108  0.7164  0.0718  0.1048
 2901SOL     OW20164   1.039   3.817   3.829  0.5354 -0.3517  0.1649
 2901SOL    HW120165   1.039   3.908   3.798 -2.7243  0.0658  1.4390
 2901SOL    HW220166   1.112   3.778   3.782 -0.3561 -1.6601 -0.1475
 2902SOL     OW20167   4.112   0.021  16.767  0.1776 -0.0029 -0.1625
 2902SOL    HW120168   4.042   4.701  16.716  1.0177 -1.2174 -0.3277
 2902SOL    HW220169   4.164   4.668  16.796 -1.3055 -1.5094 -1.3528
 2903SOL     OW20170   4.023   2.358   7.727 -0.2401 -0.8559  0.3413
 2903SOL    HW120171   4.094   2.394   7.780 -1.0829 -0.4216  1.1636
 2903SOL    HW220172   3.956   2.336   7.792  0.0684 -2.5466  0.0858
 2904SOL     OW20173   3.212   3.678   7.878  0.0741  0.5598 -0.1556
 2904SOL    HW120174   3.130   3.704   7.836  1.2429  2.0527 -1.5410
 2904SOL    HW220175   3.177   3.606   7.930  1.4140 -1.0622 -1.4900
 2905SOL     OW20176   1.280   1.015   2.116  0.3101  0.6948  0.3311
 2905SOL    HW120177   1.214   0.969   2.064  0.6995 -0.5795  0.9745
 2905SOL    HW220178   1.269   1.098   2.071 -0.1480 -0.8459 -2.3730
 2906SOL     OW20179   4.657   3.982   5.410 -0.5099 -0.1672 -0.1201
 2906SOL    HW120180   4.636   3.899   5.452 -0.5583 -1.0520 -1.9035
 2906SOL    HW220181   4.690   3.947   5.327 -1.2621 -0.7724 -0.1620
 2907SOL     OW20182   4.211   4.460   8.346 -0.3423  0.2835  0.6923
 2907SOL    HW120183   4.144   4.521   8.313 -0.4998  0.2535  0.9553
 2907SOL    HW220184   4.247   4.436   8.261 -0.9998  0.6494  0.3007
 2908SOL     OW20185   2.164   4.528  16.386 -0.2285  0.4388 -0.0350
 2908SOL    HW120186   2.139   4.560  16.473  1.9485  0.9026  0.4147
 2908SOL    HW220187   2.254   4.557  16.375  0.8544 -2.3820  1.4942
 2909SOL     OW20188   4.392   3.847   8.452 -0.1462 -0.5247 -0.9159
 2909SOL    HW120189   4.402   3.836   8.546 -1.0996 -0.5987 -0.8263
 2909SOL    HW220190   4.481   3.862   8.422 -0.3708  0.6901 -0.9685
 2910SOL     OW20191   1.828   0.045   2.513 -0.4035  0.1298 -0.0167
 2910SOL    HW120192   1.845   0.012   2.425  0.6060  0.3772  0.0968
 2910SOL    HW220193   1.916   0.059   2.547  0.1725 -0.0431 -1.4684
 2911SOL     OW20194   3.886   1.019  15.962 -0.5077  0.1305  0.0382
 2911SOL    HW120195   3.901   1.112  15.943 -1.2593  0.0176 -1.1201
 2911SOL    HW220196   3.920   0.977  15.882  0.9450 -1.1005  1.2822
 2912SOL     OW20197   2.132   3.534   6.211 -0.6348 -0.8879  0.0081
 2912SOL    HW120198   2.204   3.477   6.237  0.8134  1.1167  0.4031
 2912SOL    HW220199   2.063   3.468   6.223 -2.0032  0.9587  2.2278
 2913SOL     OW20200   0.691   4.419   3.376 -0.7160  0.6968  0.1445
 2913SOL    HW120201   0.729   4.432   3.463  0.0260 -0.7682  0.0358
 2913SOL    HW220202   0.710   4.507   3.342 -2.7346  0.7642 -0.8328
 2914SOL     OW20203   3.986   2.752   3.402  0.3241 -0.1646 -0.0853
 2914SOL    HW120204   3.929   2.720   3.472  0.1857  2.6897  1.1225
 2914SOL    HW220205   4.065   2.697   3.400  0.9847  0.7421  0.9048
 2915SOL     OW20206   2.140   3.761  13.282 -0.0331 -0.2866 -0.6915
 2915SOL    HW120207   2.073   3.735  13.219 -1.2178  2.4384 -0.5854
 2915SOL    HW220208   2.193   3.682  13.275 -1.6205 -1.3525 -0.6590
 2916SOL     OW20209   4.459   1.677  11.468  0.5415  0.6027 -0.5460
 2916SOL    HW120210   4.413   1.593  11.469  2.1799 -0.2621  1.7876
 2916SOL    HW220211   4.543   1.643  11.499  0.0306 -0.6622 -0.5480
 2917SOL     OW20212   4.537   2.855   1.967  0.4601 -0.1486 -0.5530
 2917SOL    HW120213   4.520   2.887   1.879  1.0556  0.4424 -0.4527
 2917SOL    HW220214   4.606   2.915   1.996  1.8692 -1.4913 -1.1256
 2918SOL     OW20215   2.951   0.708   3.908  0.1234  0.1625 -0.3274
 2918SOL    HW120216   3.039   0.690   3.942  0.2893 -0.2580 -0.9780
 2918SOL    HW220217   2.905   0.737   3.987  0.2782 -1.9080  0.5372
 2919SOL     OW20218   2.157   4.328   4.709 -0.0089  0.1453  0.3076
 2919SOL    HW120219   2.179   4.336   4.801 -1.0072 -0.4946  0.6015
 2919SOL    HW220220   2.244   4.309   4.673  0.2389 -1.4513  1.7497
 2920SOL     OW20221   4.000   4.157   2.974  0.3302  0.6768  0.5765
 2920SOL    HW120222   3.996   4.065   2.949 -0.6165  0.7305  0.5102
 2920SOL    HW220223   4.072   4.182   2.916  0.9957 -0.1134  1.0641
 2921SOL     OW20224   0.486   1.913   5.992  0.2017  0.0432  0.1472
 2921SOL    HW120225   0.484   1.899   6.086  1.7589  1.1377  0.3334
 2921SOL    HW220226   0.394   1.939   5.985 -0.0243 -0.3562  1.6344
 2922SOL     OW20227   0.003   0.970   8.137 -0.0312 -0.2281 -0.5193
 2922SOL    HW120228   0.048   1.054   8.150  0.7952 -0.6940 -0.4266
 2922SOL    HW220229   0.071   0.913   8.102 -0.7083 -1.3919  0.0702
 2923SOL     OW20230   3.191   0.894  15.227 -0.3486  0.3710  0.3168
 2923SOL    HW120231   3.236   0.811  15.209 -0.4848  0.2180  0.6903
 2923SOL    HW220232   3.216   0.945  15.149 -2.2220  0.3134 -0.3072
 2924SOL     OW20233   2.100   1.352  16.992 -0.1176 -0.1833 -0.3845
 2924SOL    HW120234   2.066   1.292  17.058  1.0699 -0.8794 -0.3988
 2924SOL    HW220235   2.069   1.321  16.907  1.2378  0.7945 -1.2318
 2925SOL     OW20236   4.427   2.249   6.548  0.1047 -0.3907  0.4009
 2925SOL    HW120237   4.432   2.262   6.643  3.3800  1.1938 -0.0202
 2925SOL    HW220238   4.468   2.330   6.518 -4.0685  1.0351 -1.5575
 2926SOL     OW20239   0.059   2.271   5.614 -0.3362 -0.1225  0.2397
 2926SOL    HW120240   4.720   2.206   5.649 -2.0090  2.8136  2.7625
 2926SOL    HW220241   0.025   2.297   5.528  3.2493 -1.2211 -1.4915
 2927SOL     OW20242   3.118   2.955   6.870  0.3211  0.1621  0.2095
 2927SOL    HW120243   3.064   2.879   6.894  2.1658 -0.9635  0.7827
 2927SOL    HW220244   3.196   2.950   6.926 -1.1607 -0.4657  2.2090
 2928SOL     OW20245   1.892   1.768   1.823 -0.3773 -0.1328 -0.1813
 2928SOL    HW120246   1.899   1.851   1.776 -0.7975 -0.0663 -0.1261
 2928SOL    HW220247   1.912   1.792   1.913  1.7392 -0.1258 -0.6448
 2929SOL     OW20248   1.208   2.117   3.447 -0.4457 -0.4489  0.0378
 2929SOL    HW120249   1.254   2.063   3.383 -0.1032  0.2706 -0.3297
 2929SOL    HW220250   1.226   2.067   3.527  2.3223 -2.2132 -1.6958
 2930SOL     OW20251   1.979   4.130  15.513 -0.5088  0.2139  0.0669
 2930SOL    HW120252   1.999   4.223  15.503 -2.5277  0.8420  1.8694
 2930SOL    HW220253   1.884   4.126  15.498 -0.2003  0.2824 -1.8459
 2931SOL     OW20254   4.459   4.294  17.512  0.3577  0.1408 -0.0649
 2931SOL    HW120255   4.395   4.269  17.579  0.8403 -1.9928 -0.4008
 2931SOL    HW220256   4.507   4.364  17.557  2.3921 -0.9877 -0.5018
 2932SOL     OW20257   2.492   3.806   7.710  0.6241  0.0217  0.2278
 2932SOL    HW120258   2.539   3.823   7.628 -1.7455 -1.0069 -1.3162
 2932SOL    HW220259   2.555   3.747   7.752 -0.1140  0.3542  1.7947
 2933SOL     OW20260   0.372   2.023   2.721  0.3757 -0.1054 -0.4947
 2933SOL    HW120261   0.298   1.963   2.724 -0.0032  0.4269  1.0747
 2933SOL    HW220262   0.398   2.021   2.629 -0.0261 -0.1651 -0.6038
 2934SOL     OW20263   2.852   4.175  13.692  0.6614  0.1315  0.1838
 2934SOL    HW120264   2.896   4.108  13.639  0.8991  0.2201  0.2716
 2934SOL    HW220265   2.858   4.137  13.780 -0.6051  1.8510  1.0050
 2935SOL     OW20266   3.058   1.498   5.866 -0.6921 -0.2667 -0.3994
 2935SOL    HW120267   3.041   1.547   5.947  0.3492  1.9506 -1.5086
 2935SOL    HW220268   3.140   1.452   5.883 -0.0823  1.0779  0.2692
 2936SOL     OW20269   2.450   2.708   2.369 -0.0515 -0.2049  0.3054
 2936SOL    HW120270   2.415   2.657   2.442 -2.8340 -1.5466 -2.0002
 2936SOL    HW220271   2.434   2.645   2.298  1.9554 -0.8165  0.3870
 2937SOL     OW20272   1.002   1.651   5.381 -0.2662 -0.4664  0.2262
 2937SOL    HW120273   1.038   1.573   5.424  2.8537  0.7896 -0.0605
 2937SOL    HW220274   0.921   1.626   5.337  0.7057 -0.5183 -1.5186
 2938SOL     OW20275   3.406   4.000   2.128 -0.5955  0.1758  0.2247
 2938SOL    HW120276   3.427   4.093   2.117 -3.0091  0.5157 -1.6578
 2938SOL    HW220277   3.367   3.976   2.044  0.8684 -1.2584 -0.0286
 2939SOL     OW20278   3.445   0.041   1.927  0.2798 -0.2848 -0.6550
 2939SOL    HW120279   3.413   0.078   1.845 -2.7742  1.1323  1.1857
 2939SOL    HW220280   3.482   0.120   1.966  0.4758 -0.3023 -0.8029
 2940SOL     OW20281   0.313   3.420   4.016  0.1911 -0.0016  0.0387
 2940SOL    HW120282   0.382   3.430   3.950 -0.2938 -1.4371 -0.6754
 2940SOL    HW220283   0.257   3.495   3.996 -2.5043 -1.3451  2.6642
 2941SOL     OW20284   2.870   2.033   2.553  0.4017  0.4132  0.6274
 2941SOL    HW120285   2.868   2.062   2.462  2.0769  1.7014  0.9999
 2941SOL    HW220286   2.817   1.954   2.544  0.9252 -0.0762  1.7720
 2942SOL     OW20287   1.860   0.069   4.197  0.4671 -0.0320  0.0517
 2942SOL    HW120288   1.954   0.053   4.205  0.4059 -0.0554  0.7520
 2942SOL    HW220289   1.825   0.008   4.261 -2.2905  0.0034 -1.4212
 2943SOL     OW20290   3.882   3.200  16.433 -0.4099 -0.1500  0.0426
 2943SOL    HW120291   3.902   3.114  16.396  0.9005 -0.8603  2.4557
 2943SOL    HW220292   3.789   3.193  16.454 -0.1493 -0.1770  1.1690
 2944SOL     OW20293   3.133   3.857   0.985  0.0631 -0.4065 -0.4510
 2944SOL    HW120294   3.171   3.935   1.025 -1.1228 -0.3864  0.6024
 2944SOL    HW220295   3.046   3.859   1.024  0.0808  0.4927 -0.4650
 2945SOL     OW20296   0.872   3.673   9.520  0.2828  0.6799  0.2868
 2945SOL    HW120297   0.920   3.748   9.486  0.3277  0.1834 -0.7773
 2945SOL    HW220298   0.913   3.662   9.605 -1.2485  1.9753  1.1925
 2946SOL     OW20299   3.433   2.270   7.709  0.3379  0.0281  0.1553
 2946SOL    HW120300   3.439   2.280   7.804 -1.4093 -1.5443  0.4366
 2946SOL    HW220301   3.518   2.236   7.684 -0.5570 -0.9452 -1.5874
 2947SOL     OW20302   3.808   1.940  16.179 -0.0948 -0.1926 -0.7792
 2947SOL    HW120303   3.882   1.998  16.162  0.1890 -0.2331  0.2867
 2947SOL    HW220304   3.858   1.862  16.199 -1.7730 -1.2560 -0.7352
 2948SOL     OW20305   3.983   0.496   1.068 -0.3052 -0.3655  0.6871
 2948SOL    HW120306   3.994   0.568   1.130  2.0571  0.7530 -1.0658
 2948SOL    HW220307   3.934   0.541   0.998  2.4163  0.0106 -0.9561
 2949SOL     OW20308   2.231   1.185   0.428  0.6089 -0.0560  0.2204
 2949SOL    HW120309   2.277   1.261   0.464  0.2890 -0.6349  1.8888
 2949SOL    HW220310   2.246   1.195   0.334  0.2544  1.9271  0.3683
 2950SOL     OW20311   0.772   2.048   3.823 -0.1809 -0.1112 -0.2222
 2950SOL    HW120312   0.832   1.981   3.857  1.0679  1.7406  1.2026
 2950SOL    HW220313   0.697   2.023   3.878  0.1036 -1.3323 -0.3930
 2951SOL     OW20314   2.280   4.329   4.964  0.6948 -0.3639 -0.4177
 2951SOL    HW120315   2.346   4.327   4.895 -0.0762  1.6238 -1.2374
 2951SOL    HW220316   2.325   4.389   5.024 -1.3200  1.2270 -0.4938
 2952SOL     OW20317   4.039   3.664   8.458  0.0117  0.8670  0.3160
 2952SOL    HW120318   3.982   3.587   8.470  1.8971 -0.7112 -0.8670
 2952SOL    HW220319   4.000   3.723   8.522 -0.5736  1.9237 -1.0046
 2953SOL     OW20320   0.705   3.491   4.974 -0.4079  0.3320  0.4075
 2953SOL    HW120321   0.611   3.482   4.990 -0.8259  0.6235 -2.0250
 2953SOL    HW220322   0.698   3.500   4.879 -0.1627 -3.3172  0.0580
 2954SOL     OW20323   0.945   3.296   6.045  0.3598  0.2929  0.3612
 2954SOL    HW120324   0.996   3.277   5.966 -0.7891 -0.7974 -0.1144
 2954SOL    HW220325   1.006   3.332   6.109 -0.0009  2.1729 -0.3472
 2955SOL     OW20326   1.283   3.393   1.237 -0.3898  0.2152 -0.0930
 2955SOL    HW120327   1.255   3.451   1.308 -0.4140  0.8722 -0.6435
 2955SOL    HW220328   1.227   3.316   1.252  0.7301 -0.4358  0.7218
 2956SOL     OW20329   0.135   2.507   8.963  0.4741 -0.8594  0.0849
 2956SOL    HW120330   0.061   2.452   8.989  0.0116 -0.6270 -0.7295
 2956SOL    HW220331   0.197   2.435   8.950  0.4551  0.0552 -5.0805
 2957SOL     OW20332   4.304   1.974   7.550  0.2203 -0.2523 -0.1389
 2957SOL    HW120333   4.267   1.896   7.510 -2.4207  2.6684 -3.3459
 2957SOL    HW220334   4.223   2.022   7.567 -1.1057 -1.6418 -2.7180
 2958SOL     OW20335   2.150   2.801   7.005  0.1287 -0.5245  0.4957
 2958SOL    HW120336   2.242   2.794   7.030 -0.1943 -2.7925  1.0775
 2958SOL    HW220337   2.105   2.772   7.084  0.9256  0.5387  1.3379
 2959SOL     OW20338   2.467   4.364   7.549  0.0345 -0.3830  0.1993
 2959SOL    HW120339   2.492   4.309   7.623  0.2185 -2.6932 -1.5632
 2959SOL    HW220340   2.373   4.372   7.559  0.0077  1.2024 -1.2313
 2960SOL     OW20341   1.921   3.888   6.362 -0.4530  0.2841  0.3787
 2960SOL    HW120342   1.881   3.830   6.427  2.6110 -1.4863  0.7016
 2960SOL    HW220343   1.840   3.924   6.327 -0.9788 -2.3592 -1.1185
 2961SOL     OW20344   2.929   1.265   1.884  0.1401 -0.1157  0.3954
 2961SOL    HW120345   2.879   1.345   1.869  0.4109 -0.1167 -0.4997
 2961SOL    HW220346   3.006   1.281   1.831 -0.0798  1.4461  0.5452
 2962SOL     OW20347   0.193   3.568   6.566  0.0402  0.3547  0.2483
 2962SOL    HW120348   0.249   3.638   6.599  0.6164  0.6283 -1.3375
 2962SOL    HW220349   0.116   3.608   6.605 -0.1602  1.8115 -1.6467
 2963SOL     OW20350   2.808   2.645  11.816  0.0666  0.4250  0.0144
 2963SOL    HW120351   2.739   2.709  11.828 -0.2548  0.5207 -2.2855
 2963SOL    HW220352   2.767   2.564  11.785  1.5126 -0.9582  1.6557
 2964SOL     OW20353   1.239   4.149  16.942  0.1021 -0.2822 -0.3295
 2964SOL    HW120354   1.227   4.162  16.848 -1.7029  1.7305  0.1629
 2964SOL    HW220355   1.150   4.173  16.969 -0.4497 -1.6041 -1.0082
 2965SOL     OW20356   0.732   1.897  12.359 -0.2454 -0.4656  0.2164
 2965SOL    HW120357   0.785   1.959  12.308 -1.0533  2.1846  2.5729
 2965SOL    HW220358   0.786   1.889  12.438  1.6592 -0.5355 -1.1077
 2966SOL     OW20359   3.461   3.704  15.281  0.2536  0.6766  0.2001
 2966SOL    HW120360   3.409   3.641  15.332  2.0043 -0.9574 -0.0093
 2966SOL    HW220361   3.387   3.759  15.256 -1.2277 -1.1323  0.6330
 2967SOL     OW20362   1.394   3.857   0.225  0.0687  0.2097  0.4621
 2967SOL    HW120363   1.433   3.941   0.246  2.5645 -0.6840 -0.5696
 2967SOL    HW220364   1.442   3.841   0.143 -0.5856 -3.4694  0.7875
 2968SOL     OW20365   4.372   1.384   4.736  0.8750  0.0740 -0.3794
 2968SOL    HW120366   4.412   1.372   4.822  1.5937 -0.4296 -0.7855
 2968SOL    HW220367   4.281   1.355   4.744  0.5583  1.1615 -0.0388
 2969SOL     OW20368   2.500   1.309   7.280 -0.2693 -0.1717 -0.2195
 2969SOL    HW120369   2.498   1.353   7.195 -1.8465  1.1300  0.4877
 2969SOL    HW220370   2.507   1.215   7.269 -0.9940 -0.0341 -1.8347
 2970SOL     OW20371   3.401   4.419   7.344  0.6349 -0.2577  0.0896
 2970SOL    HW120372   3.373   4.368   7.268 -0.8910  0.2357  0.3219
 2970SOL    HW220373   3.451   4.487   7.297  1.2027  1.3502  3.0247
 2971SOL     OW20374   3.650   1.110   2.358  0.8696 -0.0743  0.2470
 2971SOL    HW120375   3.645   1.037   2.419 -0.0083 -0.6592 -0.5119
 2971SOL    HW220376   3.556   1.130   2.351  0.9384  0.1060 -0.1560
 2972SOL     OW20377   3.829   0.898  10.568  0.3950 -0.4975 -0.0419
 2972SOL    HW120378   3.761   0.840  10.537  0.1190  0.1182 -0.5764
 2972SOL    HW220379   3.912   0.852  10.583  0.1148 -0.5238  1.4744
 2973SOL     OW20380   4.265   2.227   7.760 -0.1317  0.5175 -0.3049
 2973SOL    HW120381   4.204   2.212   7.688 -1.1723 -1.9444  1.1219
 2973SOL    HW220382   4.217   2.181   7.828 -0.8684 -0.8491 -1.7403
 2974SOL     OW20383   4.034   0.949  16.795  0.0506 -0.5915 -0.5560
 2974SOL    HW120384   3.972   1.011  16.756  0.2359  0.2610  0.5270
 2974SOL    HW220385   4.066   0.982  16.878  1.1851 -2.6413 -0.1710
 2975SOL     OW20386   4.284   4.590   7.159  0.0279  0.2202  0.4022
 2975SOL    HW120387   4.196   4.616   7.185 -0.1401 -0.3450  0.3940
 2975SOL    HW220388   4.325   4.669   7.196  1.4346 -0.5027  0.3584
 2976SOL     OW20389   0.699   0.301   6.458  0.2918  0.3315 -0.4189
 2976SOL    HW120390   0.782   0.254   6.455  0.7885  1.1213  0.9761
 2976SOL    HW220391   0.646   0.224   6.436 -2.0884  1.6682  0.6791
 2977SOL     OW20392   3.381   2.091   5.325  0.0288  0.1611  0.0488
 2977SOL    HW120393   3.418   2.073   5.238 -1.8223 -1.2513 -0.4518
 2977SOL    HW220394   3.459   2.129   5.366 -1.2755  2.4839  0.4024
 2978SOL     OW20395   3.588   0.534   8.710  0.0108 -0.2288 -0.1058
 2978SOL    HW120396   3.496   0.525   8.735  0.1572 -0.1455  0.4625
 2978SOL    HW220397   3.607   0.627   8.704 -0.5865  0.0316  2.1416
 2979SOL     OW20398   1.927   1.428   7.359 -0.4363  0.0556 -0.1607
 2979SOL    HW120399   1.964   1.364   7.298 -1.3896  0.3163 -1.0226
 2979SOL    HW220400   2.004   1.478   7.384 -1.2293  1.5128 -0.6309
 2980SOL     OW20401   1.428   1.851   6.950  0.0937 -0.0027 -0.5104
 2980SOL    HW120402   1.481   1.890   6.881  0.8610  1.9136  1.1848
 2980SOL    HW220403   1.394   1.926   6.998 -1.8954 -1.0989 -0.2299
 2981SOL     OW20404   1.854   4.223   8.121  0.3456  0.1769 -0.3180
 2981SOL    HW120405   1.912   4.161   8.078 -0.9890 -2.4771  1.7152
 2981SOL    HW220406   1.829   4.169   8.196 -0.1918  1.2459  0.2683
 2982SOL     OW20407   2.819   1.912  15.877 -0.2311 -0.0881  0.0534
 2982SOL    HW120408   2.864   1.899  15.960  1.2054 -1.8232 -1.0213
 2982SOL    HW220409   2.881   1.970  15.834 -0.3314  0.2491  0.3569
 2983SOL     OW20410   1.150   1.716  10.884 -0.4450 -0.0393  0.1309
 2983SOL    HW120411   1.137   1.712  10.978  2.9126 -1.7210  0.5233
 2983SOL    HW220412   1.244   1.696  10.879 -1.1939 -4.3671  3.8845
 2984SOL     OW20413   3.506   2.919   7.342  0.2309  0.5112 -0.0331
 2984SOL    HW120414   3.583   2.926   7.397  1.3629 -2.4623 -1.2423
 2984SOL    HW220415   3.480   2.827   7.355 -1.9163  1.2837  1.0819
 2985SOL     OW20416   2.021   1.924   7.618  0.0287  0.8990  0.1784
 2985SOL    HW120417   2.003   1.984   7.546  2.2118  1.8397  0.4191
 2985SOL    HW220418   2.112   1.955   7.625  0.1467  0.4572  0.6080
 2986SOL     OW20419   2.077   3.490   4.527  0.5122 -0.2240 -0.3486
 2986SOL    HW120420   2.030   3.547   4.589  0.3296  0.8336 -1.4734
 2986SOL    HW220421   2.142   3.444   4.579 -0.2781  0.9735  1.7274
 2987SOL     OW20422   2.956   4.431   7.815 -0.4639 -0.2189  0.5391
 2987SOL    HW120423   3.046   4.407   7.837 -0.6534 -0.7390  0.7417
 2987SOL    HW220424   2.937   4.515   7.857  2.4257  0.9605 -0.5178
 2988SOL     OW20425   4.257   0.534   7.546  0.1439 -0.0939  0.0283
 2988SOL    HW120426   4.344   0.557   7.515 -0.2058  2.6779  0.9940
 2988SOL    HW220427   4.273   0.442   7.566  1.1473  0.1312  0.2610
 2989SOL     OW20428   1.160   0.726   2.648 -0.2990  0.2853  0.9206
 2989SOL    HW120429   1.089   0.711   2.586 -0.0068  1.5020  0.2921
 2989SOL    HW220430   1.179   0.819   2.635  0.6417  0.0352  0.5254
 2990SOL     OW20431   0.188   1.320  16.784  0.4679  0.2719 -0.2534
 2990SOL    HW120432   0.151   1.250  16.839  0.2010  1.0768  0.6053
 2990SOL    HW220433   0.162   1.396  16.836  0.1262 -0.8436  1.2357
 2991SOL     OW20434   1.431   2.770   4.670  0.0228 -0.1764  0.0780
 2991SOL    HW120435   1.490   2.806   4.604  1.6573  0.2108  1.7407
 2991SOL    HW220436   1.373   2.724   4.609  1.6082 -1.9461 -0.1012
 2992SOL     OW20437   2.908   4.717   5.648 -0.0746 -0.2453  0.3867
 2992SOL    HW120438   2.881   4.646   5.589 -0.7475 -1.3455  2.0173
 2992SOL    HW220439   2.911   0.067   5.585  0.0282 -0.0395  0.6284
 2993SOL     OW20440   1.651   4.177   6.062 -0.4904 -0.1066  0.4236
 2993SOL    HW120441   1.647   4.148   5.971  1.0775 -1.1863  0.7110
 2993SOL    HW220442   1.615   4.266   6.057  0.0109  0.0337 -0.7959
 2994SOL     OW20443   4.703   0.765   7.627  0.1526 -0.2040 -0.3885
 2994SOL    HW120444   4.631   0.728   7.678  1.6982 -0.9587  1.2465
 2994SOL    HW220445   4.672   0.852   7.601  0.0669  0.1209  0.7750
 2995SOL     OW20446   2.561   0.585  10.701 -0.1421  0.2312 -0.2841
 2995SOL    HW120447   2.643   0.560  10.661 -0.8883 -0.1787 -1.5482
 2995SOL    HW220448   2.562   0.549  10.790 -1.8564  0.8694  0.0152
 2996SOL     OW20449   2.647   4.590  13.937  0.1625 -0.4489 -0.1794
 2996SOL    HW120450   2.692   4.515  13.976 -0.6412 -1.8178 -1.8567
 2996SOL    HW220451   2.639   4.650  14.011  1.2099  0.3833 -0.7475
 2997SOL     OW20452   0.932   3.188  17.182  0.4531  0.4011 -0.2838
 2997SOL    HW120453   0.851   3.229  17.152 -0.9672 -0.3326  2.6154
 2997SOL    HW220454   0.955   3.248  17.252  0.7154 -1.5989  1.3509
 2998SOL     OW20455   4.056   2.670   8.636  0.3460 -0.1472  0.2374
 2998SOL    HW120456   4.102   2.745   8.674 -0.8845  0.6502  0.1489
 2998SOL    HW220457   4.077   2.670   8.543 -0.3039 -0.5003  0.0852
 2999SOL     OW20458   0.711   3.198   4.732 -0.0385  0.1411  0.0367
 2999SOL    HW120459   0.740   3.107   4.725 -0.6517 -0.3184  3.4308
 2999SOL    HW220460   0.637   3.200   4.793 -0.6574 -0.4438 -0.7113
 3000SOL     OW20461   1.147   3.704  10.841 -0.2102  0.4253  1.1161
 3000SOL    HW120462   1.236   3.670  10.846  0.1318  1.0027 -0.8820
 3000SOL    HW220463   1.142   3.767  10.913 -0.4865  1.3869  0.2626
 3001SOL     OW20464   3.012   2.751   2.166 -0.2530 -0.0338  0.4499
 3001SOL    HW120465   3.076   2.781   2.102  0.4416 -0.7204  0.8136
 3001SOL    HW220466   3.079   2.729   2.232 -0.8470 -0.7673  0.8168
 3002SOL     OW20467   4.493   3.554  12.609 -0.5374 -0.0311 -0.3726
 3002SOL    HW120468   4.427   3.623  12.609  1.4072  1.8559  0.4479
 3002SOL    HW220469   4.449   3.496  12.671  1.4181  1.4398  2.4162
 3003SOL     OW20470   3.859   2.102   4.140  0.6315 -0.5522  0.4158
 3003SOL    HW120471   3.953   2.114   4.133  0.7189 -1.2279  0.4359
 3003SOL    HW220472   3.837   2.025   4.086 -0.6500 -0.0997  0.2783
 3004SOL     OW20473   1.166   4.392   1.547 -0.4982 -0.0253 -0.1528
 3004SOL    HW120474   1.127   4.461   1.601  0.0487 -1.6418  2.3163
 3004SOL    HW220475   1.250   4.435   1.531 -0.4739  0.4147  1.1529
 3005SOL     OW20476   0.456   2.496   5.913  0.7492  0.2640 -0.2402
 3005SOL    HW120477   0.366   2.474   5.940  0.2452  0.0910 -2.0403
 3005SOL    HW220478   0.507   2.465   5.988  2.7263 -0.9585 -2.1072
 3006SOL     OW20479   4.588   3.313   2.593  0.7934  0.0372  0.7027
 3006SOL    HW120480   4.518   3.250   2.609  1.7134 -0.9395  0.8685
 3006SOL    HW220481   4.656   3.248   2.575  0.7436 -0.3464  1.9029
 3007SOL     OW20482   2.497   4.475   4.366  0.5279  0.4735  0.3044
 3007SOL    HW120483   2.487   4.498   4.274 -1.8616 -0.1526  0.3988
 3007SOL    HW220484   2.571   4.535   4.376  0.7319  0.1411  0.8062
 3008SOL     OW20485   2.907   0.443   7.811 -0.1599 -0.3898 -0.2137
 3008SOL    HW120486   2.864   0.368   7.853 -0.1840 -0.7010 -0.7972
 3008SOL    HW220487   2.992   0.404   7.793  1.3004  3.1538 -1.0713
 3009SOL     OW20488   2.941   0.361   6.963  0.0078  0.8477  0.2336
 3009SOL    HW120489   2.911   0.405   6.884 -0.3149 -0.5672 -0.4371
 3009SOL    HW220490   2.971   0.439   7.010  1.7262  0.3495 -0.0083
 3010SOL     OW20491   2.401   0.075   3.220 -0.2130 -0.6678 -0.3327
 3010SOL    HW120492   2.321   0.033   3.251 -0.4616 -0.8821 -1.2700
 3010SOL    HW220493   2.411   0.126   3.301 -2.7411  2.3754 -1.9227
 3011SOL     OW20494   0.393   2.135  14.267  0.2969  0.2614 -1.2039
 3011SOL    HW120495   0.416   2.046  14.241 -1.6554 -0.6494  0.1790
 3011SOL    HW220496   0.298   2.134  14.279  0.7992 -1.0824  2.7263
 3012SOL     OW20497   2.116   1.742   6.991 -0.4293  0.1795  0.0629
 3012SOL    HW120498   2.030   1.734   7.033  0.6056  0.4637  2.2580
 3012SOL    HW220499   2.153   1.798   7.060 -0.6989 -0.2358  0.5482
 3013SOL     OW20500   3.245   2.953   2.782 -0.5217 -0.7184 -0.3032
 3013SOL    HW120501   3.167   3.004   2.760 -1.3736 -1.1384  1.7747
 3013SOL    HW220502   3.289   2.991   2.706  1.8718 -0.1908  1.3464
 3014SOL     OW20503   0.601   2.329  13.308  0.0771  0.1580 -0.0142
 3014SOL    HW120504   0.640   2.398  13.254 -1.6455  1.6824  0.6941
 3014SOL    HW220505   0.514   2.319  13.270  1.3222 -0.3503 -2.7327
 3015SOL     OW20506   3.192   1.262   1.791  0.0276 -0.3940 -0.1346
 3015SOL    HW120507   3.193   1.241   1.698  2.2142  2.7229 -0.8390
 3015SOL    HW220508   3.271   1.231   1.834  0.7995 -0.2549 -1.4503
 3016SOL     OW20509   1.084   3.818  11.097  0.3379  0.7927  0.6404
 3016SOL    HW120510   1.115   3.777  11.178  0.3284 -0.2843  0.1066
 3016SOL    HW220511   0.991   3.802  11.114  0.3001  1.8328  1.3370
 3017SOL     OW20512   3.978   1.417   0.716 -0.2619  0.3304  0.2357
 3017SOL    HW120513   3.913   1.486   0.730 -2.4085 -1.3099 -1.6420
 3017SOL    HW220514   4.064   1.457   0.723 -0.3361  0.5412 -0.0763
 3018SOL     OW20515   4.018   1.393   3.320 -0.0398  0.3461 -0.2284
 3018SOL    HW120516   3.972   1.414   3.401  1.9688  1.9739  0.4885
 3018SOL    HW220517   3.952   1.362   3.257 -1.7471  2.2037  0.6474
 3019SOL     OW20518   3.345   1.313  16.037 -0.1446  0.7180 -0.3477
 3019SOL    HW120519   3.308   1.332  15.951 -1.9449 -0.3788  0.1622
 3019SOL    HW220520   3.429   1.271  16.017 -1.2264 -1.1251 -1.0425
 3020SOL     OW20521   1.558   3.056   8.697 -0.2810 -0.4544  0.2598
 3020SOL    HW120522   1.570   3.150   8.708 -0.6672 -0.3026 -0.6392
 3020SOL    HW220523   1.633   3.017   8.742  0.0209  0.1425  0.2642
 3021SOL     OW20524   3.979   1.659   6.848  0.2788  0.1542  0.4134
 3021SOL    HW120525   3.917   1.628   6.782 -0.8059  1.4916  0.7944
 3021SOL    HW220526   4.018   1.737   6.807  0.0821  0.0012 -0.0661
 3022SOL     OW20527   3.028   4.133   5.508 -0.0951 -0.3827  0.0747
 3022SOL    HW120528   3.085   4.104   5.579  0.8821  0.1448 -0.4906
 3022SOL    HW220529   2.962   4.191   5.546  0.1424 -0.3224  0.3936
 3023SOL     OW20530   2.090   2.381  12.381  0.2369  0.2091 -0.0080
 3023SOL    HW120531   2.145   2.417  12.312  1.0640 -2.9209 -0.9966
 3023SOL    HW220532   2.047   2.328  12.313 -1.5016 -0.9747  2.0037
 3024SOL     OW20533   4.305   2.408  17.347  0.1462  0.3504  0.9334
 3024SOL    HW120534   4.246   2.336  17.369 -0.6384  0.4322 -0.8375
 3024SOL    HW220535   4.252   2.484  17.370 -0.0468  0.8270 -1.0123
 3025SOL     OW20536   4.196   1.313  16.062 -0.2586 -0.0152  0.2660
 3025SOL    HW120537   4.286   1.306  16.096  0.0967 -0.0188 -0.6672
 3025SOL    HW220538   4.159   1.248  16.121  1.8157 -1.2413  0.2335
 3026SOL     OW20539   0.611   2.972  12.223 -0.4007 -0.1098  0.3141
 3026SOL    HW120540   0.557   3.000  12.149 -0.3213 -1.3654 -0.2234
 3026SOL    HW220541   0.679   3.039  12.227 -1.3666  0.8025  1.3251
 3027SOL     OW20542   1.183   4.166   4.463  0.3355  0.0994  0.2549
 3027SOL    HW120543   1.193   4.168   4.558 -0.6298  0.1037  0.3492
 3027SOL    HW220544   1.098   4.128   4.443  0.8053 -1.6202  1.5191
 3028SOL     OW20545   2.120   3.278   0.377 -0.3086 -0.1943  0.0440
 3028SOL    HW120546   2.031   3.289   0.412 -1.1117 -1.5001 -1.5886
 3028SOL    HW220547   2.110   3.196   0.328 -1.8094 -0.1581  0.2990
 3029SOL     OW20548   1.315   4.302  15.964 -0.7612 -0.3562 -1.0617
 3029SOL    HW120549   1.384   4.347  15.916 -0.4020  2.5219  2.2079
 3029SOL    HW220550   1.354   4.247  16.032  1.2457  0.6445 -1.4129
 3030SOL     OW20551   3.332   2.143   3.790 -0.4966  0.0395  0.5276
 3030SOL    HW120552   3.414   2.175   3.829 -1.3943  2.8593  0.0585
 3030SOL    HW220553   3.274   2.190   3.850 -0.9278 -0.5577  0.5847
 3031SOL     OW20554   4.627   3.304  14.660 -0.1730 -0.2147 -0.0458
 3031SOL    HW120555   4.605   3.385  14.613 -0.4565 -0.0277  0.4097
 3031SOL    HW220556   4.696   3.333  14.719  0.0507  0.4208 -0.6085
 3032SOL     OW20557   0.644   3.066   8.337  0.0991 -0.2229 -0.2698
 3032SOL    HW120558   0.740   3.061   8.336  0.2128  1.5036  0.9397
 3032SOL    HW220559   0.630   3.110   8.253 -0.4270 -2.1926 -1.2038
 3033SOL     OW20560   2.768   3.935   4.297  0.1041  0.1546 -0.0103
 3033SOL    HW120561   2.685   3.977   4.320  0.8750  2.1012 -0.8270
 3033SOL    HW220562   2.758   3.849   4.337 -0.8285 -0.0978 -0.7797
 3034SOL     OW20563   2.980   2.959   6.042  0.0922 -0.1287 -0.0057
 3034SOL    HW120564   3.011   3.032   5.988  2.0327  0.5298  2.0112
 3034SOL    HW220565   2.898   2.941   5.996 -0.3850  0.1121  0.7477
 3035SOL     OW20566   4.149   2.491  15.076 -0.4748 -0.3067 -0.1309
 3035SOL    HW120567   4.142   2.403  15.038  1.9999 -0.9466  0.8611
 3035SOL    HW220568   4.244   2.495  15.088 -0.2846 -0.2356 -1.6180
 3036SOL     OW20569   1.268   0.242   5.333  0.0077 -0.4330  0.3771
 3036SOL    HW120570   1.321   0.239   5.254 -1.1412 -0.4712 -0.3963
 3036SOL    HW220571   1.193   0.298   5.311  0.7947 -0.5397 -2.5429
 3037SOL     OW20572   4.365   0.124   6.146  0.0376  0.2708  0.0668
 3037SOL    HW120573   4.404   0.049   6.099 -1.5680 -0.0235 -0.8108
 3037SOL    HW220574   4.312   0.161   6.076  0.4952  0.5195 -0.1520
 3038SOL     OW20575   4.026   1.323   3.982  0.3632  0.0686 -0.3218
 3038SOL    HW120576   4.111   1.279   3.974  0.3015 -0.1220  0.0633
 3038SOL    HW220577   3.989   1.308   3.895  1.3635  1.3093 -0.9672
 3039SOL     OW20578   2.405   3.568  13.580  0.0576  0.0550  0.2147
 3039SOL    HW120579   2.484   3.516  13.597 -0.9547 -2.2069 -1.9856
 3039SOL    HW220580   2.344   3.496  13.565 -0.2304  0.7258 -1.8387
 3040SOL     OW20581   3.083   4.368  14.988  0.1829 -0.3424  1.0544
 3040SOL    HW120582   3.000   4.414  14.981  0.3578 -0.0299  1.0508
 3040SOL    HW220583   3.138   4.433  14.945  1.0249 -1.6502  0.1170
 3041SOL     OW20584   3.739   2.104   9.195 -0.4308 -0.3815 -0.0255
 3041SOL    HW120585   3.833   2.091   9.207 -0.1000  1.7609 -0.3114
 3041SOL    HW220586   3.720   2.155   9.274 -1.8211  1.0172 -1.2654
 3042SOL     OW20587   0.055   3.669  10.626  0.2077  0.4944 -0.3356
 3042SOL    HW120588   0.109   3.630  10.558  1.1355  0.6436  0.3152
 3042SOL    HW220589   4.691   3.627  10.618  0.4817 -0.2347  0.5075
 3043SOL     OW20590   2.982   0.528  13.262  0.3579 -0.1008  0.4758
 3043SOL    HW120591   3.055   0.490  13.311 -0.1894  0.6074  1.8401
 3043SOL    HW220592   2.920   0.456  13.251 -0.4772  0.6728  0.1733
 3044SOL     OW20593   3.565   0.086   7.483  0.4362  0.3792  0.1016
 3044SOL    HW120594   3.634   0.099   7.418  0.6967  1.0572  0.5111
 3044SOL    HW220595   3.589   0.143   7.556 -0.4599  1.1059 -0.1646
 3045SOL     OW20596   2.126   3.385   9.487 -0.1312 -0.0725  0.2968
 3045SOL    HW120597   2.175   3.321   9.538 -0.3213  0.5227  1.2500
 3045SOL    HW220598   2.128   3.354   9.397 -1.4969  1.6422 -0.3277
 3046SOL     OW20599   2.046   1.817   7.285 -0.0503  0.6926  0.4906
 3046SOL    HW120600   1.961   1.819   7.240  0.9672 -1.9466 -1.5485
 3046SOL    HW220601   2.052   1.891   7.345 -2.0845  2.0135 -0.9230
 3047SOL     OW20602   4.647   1.810   8.182  0.0479 -0.5848  0.8147
 3047SOL    HW120603   4.698   1.807   8.101 -0.7967  0.5864  0.2489
 3047SOL    HW220604   4.684   1.883   8.232 -0.7924 -0.4247  1.2136
 3048SOL     OW20605   0.820   2.676   2.990 -0.1341 -0.5772 -0.9573
 3048SOL    HW120606   0.822   2.769   2.966 -0.4492 -0.4126 -0.3408
 3048SOL    HW220607   0.730   2.649   2.972 -0.3692 -0.2018 -0.3814
 3049SOL     OW20608   1.954   0.914  16.546 -0.0986  0.3894  0.1930
 3049SOL    HW120609   1.964   0.918  16.451 -0.7628 -2.3621 -0.0051
 3049SOL    HW220610   1.935   1.003  16.575 -0.6088  0.4787 -0.4282
 3050SOL     OW20611   0.320   1.000   2.423  0.0485 -0.0878  0.1766
 3050SOL    HW120612   0.344   1.089   2.397 -1.9817  1.0245  2.1334
 3050SOL    HW220613   0.225   1.008   2.432  0.0442  0.7408 -0.6132
 3051SOL     OW20614   2.773   4.390  14.060 -0.4862 -0.0191 -0.7193
 3051SOL    HW120615   2.857   4.378  14.103  0.1878 -0.7598 -2.2483
 3051SOL    HW220616   2.719   4.326  14.107 -1.3906  1.1964 -0.1000
 3052SOL     OW20617   1.519   0.338   1.296 -0.1655  0.3743  0.2153
 3052SOL    HW120618   1.554   0.266   1.348  0.4437  0.0975 -0.5711
 3052SOL    HW220619   1.462   0.390   1.353 -1.9523 -1.3373 -0.0237
 3053SOL     OW20620   1.817   2.213  10.637  0.7712 -0.2103 -0.1057
 3053SOL    HW120621   1.853   2.272  10.571  2.9212  0.9133  2.0888
 3053SOL    HW220622   1.854   2.258  10.713 -1.1569  0.0989  0.6529
 3054SOL     OW20623   0.523   3.327   8.926 -0.2089  0.0373  0.4691
 3054SOL    HW120624   0.429   3.325   8.945 -0.7338 -0.1512 -2.1052
 3054SOL    HW220625   0.542   3.234   8.927 -1.8801 -0.2827  3.0352
 3055SOL     OW20626   3.282   0.270  11.430  0.3004 -0.2092  0.7501
 3055SOL    HW120627   3.222   0.340  11.404  2.4700  2.1400  2.0590
 3055SOL    HW220628   3.363   0.315  11.409 -1.6313  2.9707  0.0694
 3056SOL     OW20629   1.747   3.923  11.537  0.5901  0.1164 -0.1962
 3056SOL    HW120630   1.669   3.894  11.585 -0.3795  1.2155 -1.0977
 3056SOL    HW220631   1.709   3.939  11.451  0.1781  1.8282  0.3025
 3057SOL     OW20632   2.106   1.465   2.679 -0.0217 -0.1662 -0.1150
 3057SOL    HW120633   2.131   1.377   2.654 -0.7894  0.3510 -2.7072
 3057SOL    HW220634   2.101   1.505   2.592 -1.5976  1.5179  0.7492
 3058SOL     OW20635   1.933   4.034  15.803 -0.1450  0.3304 -0.2138
 3058SOL    HW120636   1.919   4.058  15.895  0.8059 -2.0228  0.5356
 3058SOL    HW220637   1.867   3.966  15.791 -0.3464  0.2343  1.4341
 3059SOL     OW20638   2.269   0.550   5.335 -0.0730  0.6485  0.7259
 3059SOL    HW120639   2.299   0.639   5.316 -2.5416  1.9939  3.0103
 3059SOL    HW220640   2.237   0.562   5.425 -1.5261  1.4783  0.1087
 3060SOL     OW20641   2.800   4.391   7.560  0.2504 -0.1901  0.7784
 3060SOL    HW120642   2.726   4.336   7.586  0.6977 -1.1082  0.1048
 3060SOL    HW220643   2.840   4.416   7.643  2.3393  1.4493 -0.7333
 3061SOL     OW20644   4.617   4.005   8.263  0.3777 -0.4258 -0.1460
 3061SOL    HW120645   4.641   4.098   8.256  1.4375 -0.8061 -1.6901
 3061SOL    HW220646   4.594   3.992   8.171  0.8284 -2.5040  0.0368
 3062SOL     OW20647   3.923   1.891   6.033 -1.0606  0.6340  0.4055
 3062SOL    HW120648   3.828   1.894   6.021 -0.5622  0.0201 -3.5197
 3062SOL    HW220649   3.931   1.848   6.119  0.4096 -0.9484 -0.5127
 3063SOL     OW20650   2.685   3.595   3.017  0.6505 -0.1571  0.3377
 3063SOL    HW120651   2.641   3.674   2.986  1.5655 -0.2695 -1.2513
 3063SOL    HW220652   2.608   3.539   3.014 -0.1693  1.0009 -0.0340
 3064SOL     OW20653   3.179   0.956   2.351  0.5696 -0.5308 -0.6837
 3064SOL    HW120654   3.120   0.976   2.424  0.4882  2.2376 -1.5115
 3064SOL    HW220655   3.185   1.043   2.311  1.1133 -0.6823 -0.9209
 3065SOL     OW20656   0.300   2.049   0.548  0.2764  0.2361 -0.3167
 3065SOL    HW120657   0.321   2.062   0.640  3.0740  1.8636 -1.1783
 3065SOL    HW220658   0.383   2.041   0.501 -1.0879 -0.7037 -2.5903
 3066SOL     OW20659   2.309   3.599  16.712  0.4348  0.1381  0.0671
 3066SOL    HW120660   2.266   3.684  16.723 -0.4869 -0.5637  1.8237
 3066SOL    HW220661   2.387   3.612  16.765  0.2282 -0.6067  0.5477
 3067SOL     OW20662   3.338   3.339   8.454  0.2969  0.0689 -0.2737
 3067SOL    HW120663   3.263   3.307   8.404 -0.8329 -0.8382  1.9942
 3067SOL    HW220664   3.305   3.423   8.483 -0.7499 -0.1257 -0.9069
 3068SOL     OW20665   1.051   4.134   4.980  0.0279  0.8413 -0.5946
 3068SOL    HW120666   1.095   4.162   4.900 -0.6404  1.1173 -0.8725
 3068SOL    HW220667   1.122   4.107   5.037  2.9246  3.0524 -3.1235
 3069SOL     OW20668   4.329   1.835   7.873  0.2259  0.4325 -0.4452
 3069SOL    HW120669   4.420   1.866   7.872  0.6714 -0.9081 -0.9803
 3069SOL    HW220670   4.290   1.920   7.894  0.9352  0.6992 -0.1947
 3070SOL     OW20671   0.965   0.756   3.796  0.2742 -0.2918 -0.6212
 3070SOL    HW120672   0.885   0.808   3.796  0.8841  0.6415  0.1462
 3070SOL    HW220673   0.947   0.699   3.721  0.9292 -1.2620 -0.0392
 3071SOL     OW20674   2.820   4.069   7.635  0.6930  0.0487  0.4823
 3071SOL    HW120675   2.896   4.026   7.596 -0.7884 -1.6411 -0.5794
 3071SOL    HW220676   2.748   4.014   7.604  0.2886 -0.0432  1.5863
 3072SOL     OW20677   4.697   1.025   9.371  0.0781 -0.0806 -0.5140
 3072SOL    HW120678   4.678   1.081   9.447 -0.0485 -1.7734  0.6908
 3072SOL    HW220679   0.038   0.960   9.402 -0.8671 -0.5625  0.3971
 3073SOL     OW20680   3.102   0.403   8.601  0.1872  0.5427 -0.5519
 3073SOL    HW120681   3.041   0.476   8.611  0.2302  0.4857  0.1451
 3073SOL    HW220682   3.049   0.333   8.641  1.2868  0.7941  1.3664
 3074SOL     OW20683   3.217   3.431   0.521 -0.0272 -0.2279  0.3772
 3074SOL    HW120684   3.228   3.517   0.480 -0.2396 -0.7519 -0.7802
 3074SOL    HW220685   3.194   3.453   0.612 -2.0226  0.2102 -0.2366
 3075SOL     OW20686   2.549   3.905   2.617  0.0136 -0.4142  0.3601
 3075SOL    HW120687   2.484   3.869   2.557  0.3237 -0.2870 -0.0527
 3075SOL    HW220688   2.626   3.896   2.562 -0.4842  2.1717 -0.7816
 3076SOL     OW20689   0.966   0.056   4.723 -0.2431 -0.0750  0.2985
 3076SOL    HW120690   1.029   4.710   4.747 -0.2045 -0.4399 -0.8689
 3076SOL    HW220691   1.028   0.129   4.723 -0.8892  0.4676 -2.8872
 3077SOL     OW20692   3.434   0.821   2.393  0.2554  0.4831  0.4754
 3077SOL    HW120693   3.390   0.846   2.475  1.8048  1.9649  0.8603
 3077SOL    HW220694   3.363   0.839   2.332 -0.7454 -1.4364  1.0630
 3078SOL     OW20695   2.688   1.515   6.130  0.7835 -0.1455 -0.1132
 3078SOL    HW120696   2.756   1.449   6.145 -0.9120 -1.8475  0.0427
 3078SOL    HW220697   2.601   1.487   6.157  0.8455 -0.2371 -0.0095
 3079SOL     OW20698   0.757   3.213   7.606 -0.2662 -0.8010  0.9277
 3079SOL    HW120699   0.691   3.279   7.626  3.2022  2.2116  2.4482
 3079SOL    HW220700   0.820   3.241   7.672  1.2939 -0.8214 -0.5288
 3080SOL     OW20701   3.790   3.036   2.194 -0.2511  0.2902  0.4251
 3080SOL    HW120702   3.838   3.080   2.264 -1.3400 -0.6664  1.7570
 3080SOL    HW220703   3.809   3.082   2.112  1.3440  1.5531  1.4965
 3081SOL     OW20704   4.122   1.323   4.317  0.4167  0.1629  0.0632
 3081SOL    HW120705   4.113   1.246   4.373 -1.0096  0.2919  0.0027
 3081SOL    HW220706   4.213   1.312   4.290  0.2793 -0.5940 -0.0879
 3082SOL     OW20707   2.244   3.543  15.328  0.3509  0.1645 -0.0155
 3082SOL    HW120708   2.280   3.580  15.247  0.0763  0.8544  0.1763
 3082SOL    HW220709   2.158   3.586  15.323  0.1341 -0.3289 -0.5240
 3083SOL     OW20710   3.580   1.760   4.373  0.3627 -0.1987  0.0552
 3083SOL    HW120711   3.544   1.814   4.303 -0.2186 -0.2336  0.3227
 3083SOL    HW220712   3.647   1.716   4.321  1.2417  2.0218 -0.7146
 3084SOL     OW20713   0.138   0.883  15.997  0.1088  0.0614  1.0047
 3084SOL    HW120714   0.146   0.801  15.949  0.0111 -0.7441  2.3738
 3084SOL    HW220715   0.217   0.936  15.983  0.1300 -0.4419 -0.7251
 3085SOL     OW20716   4.095   1.525   4.988 -0.3058 -0.1401 -0.2825
 3085SOL    HW120717   4.114   1.431   4.980 -0.8545 -0.0545 -2.3870
 3085SOL    HW220718   4.162   1.566   4.934  0.0644 -1.7555 -1.0626
 3086SOL     OW20719   2.591   0.684   8.149 -0.8641 -0.0670  0.1992
 3086SOL    HW120720   2.650   0.662   8.077 -1.6860 -3.3529  0.5528
 3086SOL    HW220721   2.537   0.607   8.167 -1.2120 -0.0910 -0.9231
 3087SOL     OW20722   3.700   4.344   5.471  0.4560 -0.5397 -0.3274
 3087SOL    HW120723   3.616   4.319   5.431 -0.6099 -0.5525  1.9107
 3087SOL    HW220724   3.691   4.435   5.498  1.2384 -0.4901 -0.2467
 3088SOL     OW20725   3.247   0.825   1.273  0.1728 -0.1510  0.2379
 3088SOL    HW120726   3.321   0.860   1.322  1.1495 -1.6291 -0.1850
 3088SOL    HW220727   3.199   0.906   1.255 -1.4854 -1.0311  0.6818
 3089SOL     OW20728   3.219   3.230   2.195 -0.3703  0.4676 -0.0002
 3089SOL    HW120729   3.214   3.303   2.133  0.1341 -1.2235 -2.0513
 3089SOL    HW220730   3.129   3.203   2.179 -0.6900  2.1070 -1.0396
 3090SOL     OW20731   0.322   2.549   5.575  0.1012 -0.4418 -0.9242
 3090SOL    HW120732   0.228   2.562   5.588  0.0839 -1.4269 -0.1140
 3090SOL    HW220733   0.319   2.480   5.508 -0.8006 -1.1014 -0.2129
 3091SOL     OW20734   1.282   0.004   4.781  0.1576 -0.3587 -0.2840
 3091SOL    HW120735   1.232   0.014   4.862 -1.1588 -1.1923 -0.9903
 3091SOL    HW220736   1.336   4.653   4.812  2.5507  1.6088  0.1120
 3092SOL     OW20737   0.208   0.756   7.415 -0.5221  0.0842  0.1037
 3092SOL    HW120738   0.266   0.832   7.420  0.3951 -0.6977  1.3550
 3092SOL    HW220739   0.122   0.797   7.401 -1.0840 -1.1422 -0.1233
 3093SOL     OW20740   3.316   1.131   2.913 -0.0587 -0.2317 -0.0632
 3093SOL    HW120741   3.299   1.047   2.954  1.6898 -0.3759  0.3472
 3093SOL    HW220742   3.336   1.181   2.993 -1.0822  0.2704 -0.1198
 3094SOL     OW20743   1.789   4.286  10.254 -0.3427 -0.6612 -0.2020
 3094SOL    HW120744   1.723   4.226  10.219 -1.3424  0.9708 -1.0864
 3094SOL    HW220745   1.847   4.230  10.305  1.0038 -0.8951 -1.9965
 3095SOL     OW20746   1.759   1.272   0.060  0.3222  0.2563  0.1257
 3095SOL    HW120747   1.699   1.225   0.118  0.0073  1.0934  0.4768
 3095SOL    HW220748   1.809   1.321   0.125 -0.9378 -0.6422  1.7660
 3096SOL     OW20749   0.084   4.523   6.165  0.3626  0.0903  0.1737
 3096SOL    HW120750   0.030   4.494   6.091  1.0563  0.0315 -0.3003
 3096SOL    HW220751   0.173   4.500   6.139  0.2760 -0.7201  0.5942
 3097SOL     OW20752   4.050   4.367   3.546 -0.4146  0.1140  0.3380
 3097SOL    HW120753   3.987   4.364   3.473  1.7174  0.9295 -1.5556
 3097SOL    HW220754   4.030   4.281   3.583 -0.8896  0.4345  0.8199
 3098SOL     OW20755   2.059   0.472   1.083  0.0188 -0.3688 -0.4465
 3098SOL    HW120756   2.086   0.476   1.174 -1.5110  1.0677 -0.0606
 3098SOL    HW220757   2.061   0.563   1.054  0.2454 -0.4850 -0.7987
 3099SOL     OW20758   1.346   3.251   4.772 -0.3876  0.0285 -0.1615
 3099SOL    HW120759   1.271   3.265   4.829  0.7354  1.9926  0.8760
 3099SOL    HW220760   1.336   3.159   4.747 -1.5932  0.2667 -0.5625
 3100SOL     OW20761   3.408   0.106  10.425 -0.2276  0.3628 -0.2277
 3100SOL    HW120762   3.473   0.090  10.356  0.6762  1.2403  0.4113
 3100SOL    HW220763   3.340   0.051  10.387 -0.3048  0.1605  0.2117
 3101SOL     OW20764   1.017   1.450   2.959 -0.0205 -0.2587 -0.8695
 3101SOL    HW120765   1.000   1.520   3.022  0.3894  0.0380 -1.0823
 3101SOL    HW220766   0.933   1.409   2.942 -0.2888  0.3281 -0.9706
 3102SOL     OW20767   2.444   3.409   7.206 -0.4270 -0.2781 -0.3402
 3102SOL    HW120768   2.492   3.432   7.286  0.7020 -0.0966 -1.0577
 3102SOL    HW220769   2.456   3.317   7.182  1.2770 -0.5151  1.4001
 3103SOL     OW20770   1.325   2.771  15.707 -0.6269 -0.5288  0.2823
 3103SOL    HW120771   1.333   2.861  15.674  0.6838 -1.1085 -1.0012
 3103SOL    HW220772   1.398   2.766  15.768 -1.9421  0.9815  2.0039
 3104SOL     OW20773   4.401   1.595   2.493  0.2169  0.2901 -0.3683
 3104SOL    HW120774   4.349   1.520   2.522  0.0538  0.1232 -1.0957
 3104SOL    HW220775   4.400   1.579   2.399  1.0342  0.6107 -0.4304
 3105SOL     OW20776   4.419   0.117   6.820  0.2604  0.7451 -0.0651
 3105SOL    HW120777   4.478   0.096   6.893 -0.8976  1.5597  1.1122
 3105SOL    HW220778   4.340   0.065   6.837  1.6794 -1.5442 -0.5199
 3106SOL     OW20779   3.088   1.397   8.669 -0.1071 -0.4484  0.0828
 3106SOL    HW120780   3.183   1.386   8.665 -0.0653 -0.3826  0.9416
 3106SOL    HW220781   3.055   1.369   8.584  0.8142 -0.7691 -0.1640
 3107SOL     OW20782   0.693   3.777   6.146 -0.0552 -0.3861 -0.5106
 3107SOL    HW120783   0.743   3.701   6.175  0.3348  0.4480  1.0034
 3107SOL    HW220784   0.759   3.844   6.130  0.1174 -0.5765 -0.5896
 3108SOL     OW20785   3.155   2.677   2.910 -0.1720  0.0539 -0.6091
 3108SOL    HW120786   3.133   2.609   2.846 -0.8759  0.7834 -1.1277
 3108SOL    HW220787   3.174   2.747   2.847  1.7830  0.2718  0.2206
 3109SOL     OW20788   2.492   0.859   1.338  0.3717 -0.2223  0.1874
 3109SOL    HW120789   2.536   0.855   1.424  0.8537  1.7780  0.0251
 3109SOL    HW220790   2.414   0.912   1.356 -0.1381 -1.5614  2.0270
 3110SOL     OW20791   2.515   2.912   5.945 -0.0077  0.1901  0.3329
 3110SOL    HW120792   2.502   2.994   5.898 -0.6682 -0.4133 -0.5246
 3110SOL    HW220793   2.447   2.853   5.913 -0.9247  0.6438  1.4707
 3111SOL     OW20794   4.032   0.099   6.046 -0.2341 -0.0658  0.1250
 3111SOL    HW120795   4.030   0.031   6.113  0.4303 -0.1010  0.1063
 3111SOL    HW220796   3.988   0.172   6.090 -1.3354  0.4284 -1.7668
 3112SOL     OW20797   1.086   0.856   2.004  0.1030  0.1389  0.2648
 3112SOL    HW120798   1.014   0.892   2.056  1.0874  1.9464  0.3837
 3112SOL    HW220799   1.024   0.798   1.960  2.0914 -1.0691 -0.9477
 3113SOL     OW20800   3.647   4.630  16.083  0.2093 -0.0955 -0.1408
 3113SOL    HW120801   3.706   4.610  16.010 -1.0351  0.5272 -1.3219
 3113SOL    HW220802   3.650   0.004  16.076 -0.7094  0.0408  1.3495
 3114SOL     OW20803   4.166   1.086   8.969  0.6200 -0.0573  0.2347
 3114SOL    HW120804   4.124   1.171   8.956 -0.9889 -1.1157 -1.5492
 3114SOL    HW220805   4.248   1.103   8.923  0.1929 -0.4432 -0.6840
 3115SOL     OW20806   1.885   0.025   8.774 -0.5510  0.0544  0.0553
 3115SOL    HW120807   1.927   0.040   8.689 -1.6318  0.2567 -0.4456
 3115SOL    HW220808   1.898   0.108   8.818  1.6082 -0.6582  0.7114
 3116SOL     OW20809   2.131   1.649   1.971  0.1452 -0.2095 -0.7881
 3116SOL    HW120810   2.086   1.620   2.050  1.6747  0.3624  0.2939
 3116SOL    HW220811   2.056   1.663   1.913  0.0191  1.5363 -0.1920
 3117SOL     OW20812   1.139   4.384  14.731  0.5182  0.0793  0.3245
 3117SOL    HW120813   1.184   4.386  14.647 -0.2639  1.4137 -0.0535
 3117SOL    HW220814   1.201   4.409  14.800 -0.1370  2.2685  0.1074
 3118SOL     OW20815   2.509   2.063   6.135  0.2432  0.3567  0.1537
 3118SOL    HW120816   2.537   2.152   6.111  1.2208  0.7349  2.6936
 3118SOL    HW220817   2.471   2.027   6.055 -0.4347  0.8628  0.2500
 3119SOL     OW20818   0.089   1.985   8.293  0.4313  0.0469 -0.1057
 3119SOL    HW120819   0.044   2.031   8.364 -2.2901  0.0372 -1.8433
 3119SOL    HW220820   0.181   1.993   8.321  0.4289  1.4593 -0.5168
 3120SOL     OW20821   2.076   1.103   3.826  0.0190  0.0274 -0.1287
 3120SOL    HW120822   1.987   1.123   3.799 -0.1593 -1.5645 -0.7188
 3120SOL    HW220823   2.058   1.051   3.904 -0.0115 -2.8070 -2.0363
 3121SOL     OW20824   0.876   2.049   1.464  0.6393  0.4282 -0.0209
 3121SOL    HW120825   0.825   2.108   1.520 -1.2595 -0.4041 -0.8411
 3121SOL    HW220826   0.816   2.040   1.389 -0.3866  2.4778  0.5612
 3122SOL     OW20827   0.927   0.415  13.152 -0.1352 -0.7896 -0.2986
 3122SOL    HW120828   0.867   0.380  13.087 -0.2599  1.1262 -1.2253
 3122SOL    HW220829   1.007   0.426  13.100  0.7033 -0.0985  1.1228
 3123SOL     OW20830   1.683   3.808   2.785 -0.1623 -0.2212 -0.2586
 3123SOL    HW120831   1.777   3.806   2.803  0.1505  3.7522 -1.5320
 3123SOL    HW220832   1.654   3.739   2.846  2.0580 -2.0804 -1.2987
 3124SOL     OW20833   4.156   2.096   6.540 -0.1126 -0.4461 -0.1925
 3124SOL    HW120834   4.248   2.122   6.546 -0.4224  0.2904  1.3997
 3124SOL    HW220835   4.111   2.153   6.603 -0.0483 -2.0700  1.3300
 3125SOL     OW20836   2.503   1.117   5.023 -0.2184  0.2059 -0.2697
 3125SOL    HW120837   2.525   1.202   4.987 -0.3180  0.6514  0.7347
 3125SOL    HW220838   2.587   1.072   5.035 -1.4159 -2.2212 -0.8591
 3126SOL     OW20839   3.422   3.565  14.982  0.1887  0.4083 -0.1546
 3126SOL    HW120840   3.497   3.613  15.018  0.9772 -0.4362 -0.6943
 3126SOL    HW220841   3.463   3.479  14.972  1.1948  0.8463  0.1898
 3127SOL     OW20842   0.065   1.824   6.041  0.1424  0.2541  0.1784
 3127SOL    HW120843   0.098   1.783   5.961 -0.1769 -0.3021  0.3318
 3127SOL    HW220844   0.123   1.899   6.052  0.1894  0.2400  0.0244
 3128SOL     OW20845   2.261   4.164  13.693  0.3899 -0.1064  0.5765
 3128SOL    HW120846   2.244   4.123  13.609 -1.0256 -0.7411  1.1732
 3128SOL    HW220847   2.347   4.137  13.727  0.0198 -0.0140  1.5870
 3129SOL     OW20848   3.357   3.591   8.192  0.1602 -0.1121 -0.6389
 3129SOL    HW120849   3.429   3.543   8.152  1.4799  1.4168 -0.1285
 3129SOL    HW220850   3.289   3.573   8.127  0.7165  1.7315 -1.7387
 3130SOL     OW20851   3.044   4.124  12.500  0.4441  0.5211 -0.0409
 3130SOL    HW120852   2.954   4.127  12.531  0.1288 -0.2378 -0.8765
 3130SOL    HW220853   3.090   4.090  12.577  0.9999 -2.7378 -1.7780
 3131SOL     OW20854   1.379   4.437   4.546 -0.2143  0.4356  0.1584
 3131SOL    HW120855   1.288   4.439   4.576 -0.7983 -0.6800 -1.5680
 3131SOL    HW220856   1.389   4.529   4.526  0.9467  0.0463 -1.0326
 3132SOL     OW20857   3.190   1.722  14.036  0.1262 -0.7017 -0.1125
 3132SOL    HW120858   3.274   1.712  13.992  1.0655 -2.6777  2.1891
 3132SOL    HW220859   3.148   1.639  14.013  0.0706 -0.1720 -1.9277
 3133SOL     OW20860   3.887   2.663  12.831 -0.4580 -0.0462 -0.0532
 3133SOL    HW120861   3.821   2.680  12.764  0.7994  1.1027 -1.0023
 3133SOL    HW220862   3.926   2.750  12.830 -0.1319 -0.1741  2.5804
 3134SOL     OW20863   3.083   3.348   3.194 -0.6517 -0.0342  0.4497
 3134SOL    HW120864   3.148   3.279   3.207  0.6808  0.6346 -2.5854
 3134SOL    HW220865   3.034   3.315   3.119 -2.0872 -0.9964  1.8306
 3135SOL     OW20866   2.787   2.600   6.221  0.8507  0.4468  0.3379
 3135SOL    HW120867   2.881   2.612   6.209  1.6616 -2.4306  3.6724
 3135SOL    HW220868   2.778   2.529   6.286 -0.7936 -0.8166 -1.2611
 3136SOL     OW20869   3.228   3.104   8.054 -0.2573 -0.1673  0.0862
 3136SOL    HW120870   3.313   3.147   8.057  1.1245 -2.8734  0.1699
 3136SOL    HW220871   3.250   3.011   8.041  1.8091  0.4173 -0.6325
 3137SOL     OW20872   3.386   4.410   3.663  0.3917 -0.5354 -0.3094
 3137SOL    HW120873   3.405   4.357   3.586 -0.9591 -0.1298 -0.9308
 3137SOL    HW220874   3.297   4.378   3.680  0.1620  0.9738  1.3458
 3138SOL     OW20875   2.444   1.614   5.096  0.0809  0.1717 -0.6375
 3138SOL    HW120876   2.457   1.662   5.178  0.6130  1.5626 -1.5338
 3138SOL    HW220877   2.500   1.666   5.039  2.1508 -0.9561  0.3585
 3139SOL     OW20878   1.825   0.856  13.145 -0.1772  0.1201  0.3667
 3139SOL    HW120879   1.834   0.819  13.057 -1.6590  2.9138 -0.9490
 3139SOL    HW220880   1.919   0.869  13.158 -0.6148  0.7379  2.9325
 3140SOL     OW20881   0.702   0.790   8.244 -0.2970 -0.0969  0.0036
 3140SOL    HW120882   0.691   0.780   8.150  0.5991 -2.3204  0.1134
 3140SOL    HW220883   0.638   0.733   8.287 -1.6122  0.7802 -0.8201
 3141SOL     OW20884   0.586   2.152   9.664 -0.0387 -0.5106  0.4813
 3141SOL    HW120885   0.611   2.235   9.623 -0.9309  0.7111  2.4079
 3141SOL    HW220886   0.672   2.131   9.701  1.1219 -0.3710 -2.1290
 3142SOL     OW20887   1.960   0.771   1.918  0.6011 -0.1817 -0.1246
 3142SOL    HW120888   1.951   0.815   2.003  1.9598  0.2227 -0.2033
 3142SOL    HW220889   1.898   0.699   1.929  1.7719 -0.8704  2.0913
 3143SOL     OW20890   0.430   2.241   6.230 -0.2725 -0.0281 -0.0754
 3143SOL    HW120891   0.335   2.253   6.221 -0.6739 -2.2894  1.0572
 3143SOL    HW220892   0.457   2.332   6.239 -1.7395  0.1592  2.4628
 3144SOL     OW20893   3.665   1.938   5.565  0.6880 -0.0768 -0.0882
 3144SOL    HW120894   3.757   1.965   5.566  1.0622 -1.2511 -2.4322
 3144SOL    HW220895   3.622   2.006   5.514  1.2002 -0.3898 -0.9509
 3145SOL     OW20896   1.393   3.253  11.230 -0.3570 -0.1314 -0.5604
 3145SOL    HW120897   1.324   3.319  11.234 -0.1671  0.1145 -1.3012
 3145SOL    HW220898   1.368   3.179  11.174 -2.2546 -0.9686  1.4027
 3146SOL     OW20899   0.625   3.331   9.461 -0.0542 -0.2276  0.1831
 3146SOL    HW120900   0.588   3.398   9.404  0.3107 -1.2960 -1.3282
 3146SOL    HW220901   0.547   3.300   9.507 -0.9484  3.5494  1.1486
 3147SOL     OW20902   3.776   3.265   0.604 -0.0756  0.2573 -0.6372
 3147SOL    HW120903   3.780   3.251   0.698 -2.3093  1.1905 -0.4091
 3147SOL    HW220904   3.719   3.193   0.575 -1.8716  0.9574  1.1446
 3148SOL     OW20905   2.643   2.324   7.952  0.8214  0.0450 -0.0559
 3148SOL    HW120906   2.586   2.272   8.008  1.9971  0.1933  1.2940
 3148SOL    HW220907   2.601   2.409   7.940 -2.3495 -1.3775  0.9923
 3149SOL     OW20908   3.452   4.096   5.986 -0.7673 -0.2649  0.3382
 3149SOL    HW120909   3.420   4.036   5.919  0.2877  3.4935 -3.4772
 3149SOL    HW220910   3.475   4.039   6.060 -1.1228  1.6993  1.9581
 3150SOL     OW20911   4.171   3.048   0.944 -0.4764  0.5383  0.1904
 3150SOL    HW120912   4.156   3.063   0.850  1.6847  0.4169 -0.1601
 3150SOL    HW220913   4.089   3.042   0.994 -0.9872  0.8860 -0.5990
 3151SOL     OW20914   4.561   3.943   2.869 -0.4045  0.0339 -0.4578
 3151SOL    HW120915   4.553   3.882   2.795 -1.5455 -1.2140  0.7124
 3151SOL    HW220916   4.652   3.929   2.896  0.2544  0.9774 -2.1893
 3152SOL     OW20917   0.322   2.000   8.413  0.1336  0.4797 -0.2375
 3152SOL    HW120918   0.361   2.007   8.500 -0.6665 -0.7616  0.2188
 3152SOL    HW220919   0.397   2.025   8.360 -0.6721  0.1795 -1.5187
 3153SOL     OW20920   0.387   2.383   8.253  0.1516  0.4020  0.9167
 3153SOL    HW120921   0.423   2.468   8.231  1.3955  0.3498  2.8110
 3153SOL    HW220922   0.315   2.403   8.312  1.3735  0.4938  2.3663
 3154SOL     OW20923   0.053   4.343  10.971  0.0106  0.2020 -0.0552
 3154SOL    HW120924   0.041   4.249  10.984 -0.4634  0.4349  1.2483
 3154SOL    HW220925   0.042   4.355  10.877  1.0171  1.4011 -0.0231
 3155SOL     OW20926   4.220   2.334   8.103  0.6234 -0.8455 -0.5536
 3155SOL    HW120927   4.188   2.288   8.181  0.6582  0.2691  0.1086
 3155SOL    HW220928   4.149   2.394   8.083  1.7400  0.3766 -0.8672
 3156SOL     OW20929   3.939   3.995   6.955  0.0366 -0.2997 -0.0426
 3156SOL    HW120930   4.004   3.961   7.016  0.0636  1.4385  0.8986
 3156SOL    HW220931   3.863   3.941   6.973  0.7447 -1.0721  0.6381
 3157SOL     OW20932   1.366   4.080   2.962 -0.3814  0.3435 -0.4097
 3157SOL    HW120933   1.327   3.998   2.930 -0.0919  0.0395  0.0065
 3157SOL    HW220934   1.416   4.043   3.036 -2.0575  0.0229  0.5617
 3158SOL     OW20935   2.857   1.217  14.652 -0.3666 -0.1908 -0.5759
 3158SOL    HW120936   2.774   1.208  14.605 -0.0291 -0.6660 -1.0836
 3158SOL    HW220937   2.908   1.253  14.579 -0.1420 -0.3076 -0.4745
 3159SOL     OW20938   0.585   3.014   6.678 -0.3472  0.8300 -0.0042
 3159SOL    HW120939   0.555   3.082   6.617 -0.6284  0.2294 -0.5441
 3159SOL    HW220940   0.590   2.940   6.617 -1.9121  1.9907 -1.5291
 3160SOL     OW20941   1.963   0.399   5.061 -0.0936 -0.3258 -0.0097
 3160SOL    HW120942   1.913   0.318   5.051 -0.2600 -0.2489  0.2002
 3160SOL    HW220943   1.888   0.457   5.078  0.7699  1.1930 -1.4414
 3161SOL     OW20944   0.292   2.297   1.282 -0.1779 -0.4277 -0.0447
 3161SOL    HW120945   0.248   2.381   1.295 -1.6336 -2.1736  6.2920
 3161SOL    HW220946   0.264   2.255   1.364 -0.9137  1.1312  0.5182
 3162SOL     OW20947   1.304   4.120   3.758  0.2244 -0.0468 -0.0531
 3162SOL    HW120948   1.209   4.131   3.757 -0.0787 -2.7226 -1.4190
 3162SOL    HW220949   1.331   4.126   3.850  1.3497 -1.8298 -0.2546
 3163SOL     OW20950   1.832   1.528  10.261 -0.0694  0.1633  0.2598
 3163SOL    HW120951   1.834   1.472  10.183  0.8173  2.1493 -1.1407
 3163SOL    HW220952   1.780   1.597  10.221  0.3087  1.0047  1.2358
 3164SOL     OW20953   3.647   1.235   4.250  0.1187  0.1106  0.1394
 3164SOL    HW120954   3.723   1.177   4.261  0.6994  0.7156 -0.7120
 3164SOL    HW220955   3.654   1.286   4.330  3.5951 -2.1865  1.3063
 3165SOL     OW20956   3.083   1.069  11.003 -0.2655  0.2893 -0.1677
 3165SOL    HW120957   3.140   1.035  10.934 -2.4146  1.1316 -2.3869
 3165SOL    HW220958   3.046   1.145  10.958  1.9118  1.3897 -0.0848
 3166SOL     OW20959   2.794   2.162  15.277 -0.0108  0.4361  0.8945
 3166SOL    HW120960   2.852   2.166  15.201 -1.1869 -1.6949 -0.1031
 3166SOL    HW220961   2.787   2.255  15.301  1.6958  0.9709 -0.6458
 3167SOL     OW20962   1.294   0.127   8.057 -0.3349 -0.0728  0.5064
 3167SOL    HW120963   1.323   0.081   8.136 -0.3987 -1.1897 -0.1188
 3167SOL    HW220964   1.327   0.080   7.980 -2.1914 -1.2697  0.4380
 3168SOL     OW20965   3.879   2.601   7.292 -0.1153  0.1559  0.4676
 3168SOL    HW120966   3.927   2.553   7.360  1.5482 -2.8320 -2.8300
 3168SOL    HW220967   3.950   2.644   7.246  0.7481 -1.0008  0.7155
 3169SOL     OW20968   2.596   0.424   6.867 -0.0032  1.3304 -0.1107
 3169SOL    HW120969   2.526   0.421   6.803 -2.4165 -1.1404  2.6277
 3169SOL    HW220970   2.629   0.514   6.868  0.0687  1.2743  2.0035
 3170SOL     OW20971   0.548   1.887  12.562 -0.1698  0.8458 -0.0625
 3170SOL    HW120972   0.488   1.838  12.506 -0.2287  1.5063 -0.5804
 3170SOL    HW220973   0.601   1.924  12.491  0.1067 -2.7939 -1.7478
 3171SOL     OW20974   3.507   2.140   8.140 -0.3425  0.0807 -0.6881
 3171SOL    HW120975   3.430   2.110   8.188  0.7350  0.5404  1.3641
 3171SOL    HW220976   3.579   2.132   8.203  0.4977  0.4101 -1.5980
 3172SOL     OW20977   4.461   0.600   5.707  0.1772  0.3842  0.4779
 3172SOL    HW120978   4.433   0.593   5.798 -1.3807  0.1394 -0.0302
 3172SOL    HW220979   4.384   0.571   5.659  0.2552  2.0032 -0.6393
 3173SOL     OW20980   1.214   1.664  13.212  0.1007 -0.0184  0.1328
 3173SOL    HW120981   1.259   1.728  13.268 -0.3901  0.5224 -0.0896
 3173SOL    HW220982   1.267   1.587  13.232 -0.2562 -0.0703  0.9049
 3174SOL     OW20983   1.862   4.121   8.387 -0.4146  0.1722  0.2961
 3174SOL    HW120984   1.873   4.136   8.481  2.2631 -2.5137  0.4489
 3174SOL    HW220985   1.926   4.051   8.372 -1.2081 -0.4368 -0.2323
 3175SOL     OW20986   4.716   3.936   6.176 -0.0368  0.2182  0.1646
 3175SOL    HW120987   4.700   3.931   6.082  0.3618 -2.8148  0.2737
 3175SOL    HW220988   4.699   4.028   6.197 -0.8311  0.5780 -2.0923
 3176SOL     OW20989   2.517   4.101  13.791 -0.0739 -0.3977 -0.4805
 3176SOL    HW120990   2.499   4.155  13.868 -2.3778 -1.3981 -0.3256
 3176SOL    HW220991   2.559   4.020  13.820  1.2369  0.4437  0.0107
 3177SOL     OW20992   2.028   1.543   2.208 -0.0529 -0.3387 -0.3135
 3177SOL    HW120993   2.045   1.458   2.166  0.3576  0.3998 -1.6445
 3177SOL    HW220994   2.080   1.550   2.287 -1.2172  0.7044  0.3608
 3178SOL     OW20995   4.319   1.470  11.476  0.0883  0.3902  0.1026
 3178SOL    HW120996   4.342   1.391  11.427  3.3067  1.2201  0.3138
 3178SOL    HW220997   4.259   1.426  11.537  0.5987 -0.7274 -0.1894
 3179SOL     OW20998   1.016   3.771   5.179 -0.2276  0.2602 -0.1578
 3179SOL    HW120999   0.969   3.854   5.188  0.2947  0.4445  0.8527
 3179SOL    HW221000   1.107   3.797   5.166  0.2478 -1.3821 -0.0400
 3180SOL     OW21001   3.819   4.608   4.837 -0.2262 -0.0038  0.5364
 3180SOL    HW121002   3.848   4.615   4.746 -0.2341  1.5266  0.6471
 3180SOL    HW221003   3.738   4.556   4.834  0.3631 -0.8970  0.1411
 3181SOL     OW21004   0.316   2.573  16.981  0.6902  0.3599  0.3196
 3181SOL    HW121005   0.275   2.508  16.923  1.3883  0.4613 -0.2759
 3181SOL    HW221006   0.275   2.552  17.065 -0.0382 -0.0418 -0.1309
 3182SOL     OW21007   3.246   2.692   7.675  0.4532 -0.0795 -0.2387
 3182SOL    HW121008   3.227   2.721   7.586 -2.2415 -0.9404  0.0564
 3182SOL    HW221009   3.331   2.649   7.667  1.1330  1.6032 -2.1268
 3183SOL     OW21010   3.233   4.042   9.765  0.1198 -0.4673 -0.1787
 3183SOL    HW121011   3.193   3.984   9.830  0.9459 -2.8684 -1.8275
 3183SOL    HW221012   3.160   4.094   9.732  0.6554 -0.1762 -0.9014
 3184SOL     OW21013   0.976   4.515  11.050  0.2697 -0.2036  0.0611
 3184SOL    HW121014   0.958   4.604  11.021  1.8448  0.2788  0.5890
 3184SOL    HW221015   1.048   4.525  11.112 -1.1429 -1.6743  1.9679
 3185SOL     OW21016   3.978   0.532   8.636 -0.2707 -0.0794 -0.7528
 3185SOL    HW121017   4.014   0.594   8.572 -1.9549  1.7226  0.0315
 3185SOL    HW221018   4.033   0.559   8.709 -1.2358  1.7801 -0.7131
 3186SOL     OW21019   4.620   2.210   4.305 -0.3510  0.2598 -0.1670
 3186SOL    HW121020   4.622   2.219   4.400 -1.3737  2.0268 -0.3218
 3186SOL    HW221021   4.591   2.119   4.292 -1.2557  0.4097  0.8169
 3187SOL     OW21022   3.144   0.132   3.157 -0.2874 -0.5673 -0.4278
 3187SOL    HW121023   3.214   0.094   3.210 -0.5701 -0.1423  0.2490
 3187SOL    HW221024   3.119   0.208   3.210  1.3740 -0.0752 -0.3560
 3188SOL     OW21025   0.808   2.270  10.002  0.0775 -0.6972 -0.7938
 3188SOL    HW121026   0.718   2.240  10.011  0.3085 -0.4461  2.3964
 3188SOL    HW221027   0.848   2.183  10.007 -1.2866 -1.1746  1.5265
 3189SOL     OW21028   1.406   1.561   7.944 -0.3890 -1.0493  0.4659
 3189SOL    HW121029   1.426   1.555   8.037 -1.8267  0.2058  0.8509
 3189SOL    HW221030   1.490   1.585   7.904 -1.1514 -0.9180 -1.0748
 3190SOL     OW21031   2.624   0.407  11.857  0.0614  0.8806 -0.6010
 3190SOL    HW121032   2.590   0.495  11.840  0.3434  0.4752 -3.2320
 3190SOL    HW221033   2.665   0.414  11.943  0.4741 -1.2972 -0.6280
 3191SOL     OW21034   1.148   2.067   4.229 -0.3882 -0.1632  0.3685
 3191SOL    HW121035   1.174   2.055   4.138 -1.3963  3.0915 -0.3571
 3191SOL    HW221036   1.185   1.992   4.276  0.5861  0.0655 -0.0237
 3192SOL     OW21037   1.498   0.738   2.632 -0.1016 -0.3247 -0.6378
 3192SOL    HW121038   1.418   0.688   2.645 -0.8118  1.2805  1.2688
 3192SOL    HW221039   1.471   0.797   2.562 -2.5489 -0.2833  0.3158
 3193SOL     OW21040   1.987   0.405  10.475 -0.6374 -0.0834  0.3317
 3193SOL    HW121041   1.929   0.391  10.399 -1.6902 -1.6966  1.4336
 3193SOL    HW221042   2.040   0.326  10.480 -0.9797 -0.5004 -2.1370
 3194SOL     OW21043   2.073   3.394   4.117 -0.6185  0.1165 -1.1903
 3194SOL    HW121044   2.131   3.358   4.184  0.3448  2.1483 -0.9082
 3194SOL    HW221045   1.996   3.404   4.173  0.7533 -1.5649  0.9591
 3195SOL     OW21046   2.226   1.107   8.575 -0.0494 -0.7038  0.2318
 3195SOL    HW121047   2.245   1.196   8.544  0.3886 -0.5032  1.0826
 3195SOL    HW221048   2.249   1.116   8.667  1.2016 -1.3643 -0.0051
 3196SOL     OW21049   3.307   1.328   5.851  0.1201  0.5346 -0.4995
 3196SOL    HW121050   3.228   1.274   5.851 -1.5470  2.9945 -2.5960
 3196SOL    HW221051   3.344   1.309   5.765 -0.1932 -0.3559 -0.4459
 3197SOL     OW21052   0.258   2.310  12.705  0.6634  0.0657 -0.7192
 3197SOL    HW121053   0.344   2.331  12.742 -1.1105  0.1235  3.3592
 3197SOL    HW221054   0.203   2.305  12.783  0.0263  2.1592 -1.0467
 3198SOL     OW21055   4.254   2.732   0.680  0.3588  0.2585 -0.2328
 3198SOL    HW121056   4.236   2.809   0.626 -1.0779 -1.3938 -2.1246
 3198SOL    HW221057   4.168   2.736   0.722  0.8763  2.1439  0.6927
 3199SOL     OW21058   2.861   1.912   1.815  0.0670 -0.2974  0.1217
 3199SOL    HW121059   2.854   1.832   1.762 -0.2336  2.2242 -3.5629
 3199SOL    HW221060   2.873   1.979   1.749 -1.3391 -0.3257 -0.1771
 3200SOL     OW21061   1.589   4.128   0.873 -0.3164  1.1708  0.0612
 3200SOL    HW121062   1.626   4.112   0.960 -1.8836  1.4422  0.7826
 3200SOL    HW221063   1.501   4.092   0.881  0.7847 -1.4454  0.3533
 3201SOL     OW21064   2.301   0.724  11.208  0.2164 -0.3453  0.2972
 3201SOL    HW121065   2.234   0.738  11.141  0.0868 -0.4511  0.4058
 3201SOL    HW221066   2.284   0.632  11.230 -3.1580  0.4493  0.9871
 3202SOL     OW21067   1.372   0.763  13.886  0.4519 -0.5100 -0.0747
 3202SOL    HW121068   1.413   0.772  13.800 -0.0931 -1.4881 -0.4436
 3202SOL    HW221069   1.293   0.722  13.850 -0.6676  1.5429  0.0145
 3203SOL     OW21070   4.419   0.025   7.865  0.0290  0.8546  0.8169
 3203SOL    HW121071   4.380   4.683   7.806  1.6709  0.8857 -0.3044
 3203SOL    HW221072   4.345   0.084   7.860 -0.4683 -0.0168 -1.8775
 3204SOL     OW21073   2.474   4.658   2.265  0.2579  0.1718  0.0463
 3204SOL    HW121074   2.517   4.632   2.346 -1.9565 -0.4914  1.0279
 3204SOL    HW221075   2.463   4.576   2.215 -1.8338 -1.0501  2.5345
 3205SOL     OW21076   0.282   1.735   6.873 -0.2456 -0.1564  0.2660
 3205SOL    HW121077   0.215   1.757   6.807  2.3731 -0.7252 -2.5698
 3205SOL    HW221078   0.235   1.670   6.924  1.2949 -0.6056  1.0936
 3206SOL     OW21079   4.264   1.762   2.704 -0.1880 -0.0630  0.1327
 3206SOL    HW121080   4.301   1.846   2.675 -0.8423 -0.0864 -0.7667
 3206SOL    HW221081   4.304   1.696   2.648  0.1876 -0.1101  0.4568
 3207SOL     OW21082   0.516   3.853   3.432 -0.3449 -0.0567 -0.0381
 3207SOL    HW121083   0.536   3.809   3.515  0.7988 -0.7976 -0.7014
 3207SOL    HW221084   0.425   3.826   3.423 -0.7992  1.9177 -1.2416
 3208SOL     OW21085   3.872   4.112   1.463  0.1064 -0.7075  0.1011
 3208SOL    HW121086   3.866   4.035   1.520  3.3845 -0.5558  0.6340
 3208SOL    HW221087   3.929   4.181   1.496 -2.3128  1.1384  0.4924
 3209SOL     OW21088   0.034   2.408   7.844 -0.2571  0.0160 -0.4999
 3209SOL    HW121089   0.116   2.389   7.798  0.6565  1.0014  0.7296
 3209SOL    HW221090   4.720   2.319   7.836 -2.5348  0.7112  1.7024
 3210SOL     OW21091   0.766   4.399   8.204  0.3856  0.1502  0.0433
 3210SOL    HW121092   0.703   4.344   8.251  1.0291  1.6265  2.6376
 3210SOL    HW221093   0.773   4.364   8.115  0.6925 -0.4374  0.2985
 3211SOL     OW21094   0.897   0.661   9.005  0.5432  0.0282  0.0020
 3211SOL    HW121095   0.868   0.583   8.957 -2.0173  0.9988 -0.0296
 3211SOL    HW221096   0.869   0.722   8.937  0.6586 -1.8049 -1.7079
 3212SOL     OW21097   2.550   1.754  14.849  0.3497 -0.1376 -0.0278
 3212SOL    HW121098   2.518   1.687  14.909  0.3164  0.0789  0.1980
 3212SOL    HW221099   2.644   1.736  14.850  1.2632  4.6049 -2.0291
 3213SOL     OW21100   1.419   1.929  16.421  0.0722  0.1357  0.1389
 3213SOL    HW121101   1.391   1.968  16.338  1.9624 -0.1148 -0.6247
 3213SOL    HW221102   1.416   2.008  16.474 -0.4146 -0.7666  1.4652
 3214SOL     OW21103   1.933   0.207   3.426 -0.2397  0.1519  0.2743
 3214SOL    HW121104   1.874   0.156   3.371  0.9902 -2.6207  1.5110
 3214SOL    HW221105   1.981   0.251   3.356  0.3007  1.1595  1.2767
 3215SOL     OW21106   2.109   4.326   8.174  0.4277  0.1979  0.4398
 3215SOL    HW121107   2.156   4.278   8.243 -0.4717 -0.5466  0.5439
 3215SOL    HW221108   2.044   4.262   8.145  0.1578  0.2700  0.8815
 3216SOL     OW21109   4.265   2.493  16.543  0.4180 -0.8637  0.4992
 3216SOL    HW121110   4.295   2.451  16.462 -0.7059 -0.1955 -0.2624
 3216SOL    HW221111   4.196   2.438  16.581 -1.7388  1.1183 -0.5118
 3217SOL     OW21112   3.877   0.395   6.040 -0.0965  0.1532 -0.6405
 3217SOL    HW121113   3.867   0.416   5.947  0.0522 -0.1924 -0.7338
 3217SOL    HW221114   3.785   0.401   6.065  0.3227  1.3476  0.5987
 3218SOL     OW21115   3.046   2.528   7.184  0.2434  0.1271  0.7454
 3218SOL    HW121116   3.012   2.515   7.095 -0.4353  2.2553  0.7100
 3218SOL    HW221117   3.031   2.434   7.198 -0.4581 -0.0492 -1.1179
 3219SOL     OW21118   4.464   0.315   7.108 -0.2999 -0.3234  0.2888
 3219SOL    HW121119   4.449   0.384   7.043  2.0266 -2.3559 -2.4224
 3219SOL    HW221120   4.501   0.362   7.183 -0.6659 -0.6895  0.7030
 3220SOL     OW21121   2.991   2.505  11.596 -0.1359  0.0761  0.6491
 3220SOL    HW121122   2.913   2.465  11.560  0.7713 -1.2095  0.1066
 3220SOL    HW221123   2.950   2.533  11.678 -1.0277  0.9063 -0.0918
 3221SOL     OW21124   1.440   2.376  10.453  0.6959  0.6054 -0.5811
 3221SOL    HW121125   1.483   2.462  10.448  1.1800  0.4304  0.6508
 3221SOL    HW221126   1.501   2.323  10.505  2.1194  1.1015 -1.7205
 3222SOL     OW21127   3.388   1.383   6.921  0.5453 -0.2571  0.6349
 3222SOL    HW121128   3.297   1.411   6.929  0.0183 -1.5681 -0.7212
 3222SOL    HW221129   3.410   1.401   6.830  0.6350  0.2669  0.7585
 3223SOL     OW21130   3.033   3.628   7.364  0.3838 -0.6614  0.1869
 3223SOL    HW121131   2.944   3.593   7.355 -0.0811  0.7118 -0.4669
 3223SOL    HW221132   3.004   3.708   7.407 -0.4456 -0.5796 -0.5212
 3224SOL     OW21133   0.828   2.490   7.755  0.1387  0.0961 -0.1139
 3224SOL    HW121134   0.757   2.473   7.694  0.5204 -0.3054 -0.4488
 3224SOL    HW221135   0.794   2.535   7.832 -0.6950 -1.5970  0.4850
 3225SOL     OW21136   1.697   3.834   5.510 -0.0686  0.0183  0.0660
 3225SOL    HW121137   1.636   3.783   5.457 -1.0717  1.5512 -0.2631
 3225SOL    HW221138   1.731   3.770   5.572  1.7550  1.9191  1.0324
 3226SOL     OW21139   2.196   3.569   7.273 -0.1241  0.2994  0.6216
 3226SOL    HW121140   2.238   3.502   7.219 -0.7984  2.1065 -2.1294
 3226SOL    HW221141   2.199   3.529   7.360 -0.3326 -0.8201  0.1173
 3227SOL     OW21142   3.157   0.575   7.021 -0.2888 -0.3405 -0.6902
 3227SOL    HW121143   3.238   0.599   6.977 -0.3756 -2.5374 -2.0614
 3227SOL    HW221144   3.185   0.589   7.111 -1.0019  2.0352 -0.8417
 3228SOL     OW21145   3.512   4.089  10.870 -0.4777  0.6004 -0.0257
 3228SOL    HW121146   3.527   3.995  10.860 -0.8963  0.7278 -1.7384
 3228SOL    HW221147   3.426   4.104  10.830 -1.5585 -0.7063  1.8117
 3229SOL     OW21148   3.738   1.024   9.065 -0.0676 -0.2282 -0.8371
 3229SOL    HW121149   3.804   0.997   9.129  2.3776  0.9675 -2.8473
 3229SOL    HW221150   3.766   1.116   9.059 -2.3280  0.3567 -2.2620
 3230SOL     OW21151   3.376   3.016  17.500  0.4365  0.4077  0.3828
 3230SOL    HW121152   3.335   3.004  17.585  2.7131  0.7333  1.5291
 3230SOL    HW221153   3.341   3.101  17.470 -0.5943 -1.1040 -2.7323
 3231SOL     OW21154   2.656   0.440   8.790 -0.4946  0.1026  0.0080
 3231SOL    HW121155   2.641   0.437   8.696  0.4109  0.3010 -0.1416
 3231SOL    HW221156   2.638   0.347   8.806  0.9634 -0.2588 -0.4134
 3232SOL     OW21157   2.514   3.531   5.703 -0.3882 -0.0239 -0.0699
 3232SOL    HW121158   2.494   3.623   5.687  2.1738 -0.1303 -3.9771
 3232SOL    HW221159   2.443   3.517   5.765  1.0137 -2.7467  0.9075
 3233SOL     OW21160   0.765   4.023   1.122  0.1224  0.1047 -0.1336
 3233SOL    HW121161   0.789   3.931   1.138  1.4644  0.4425 -0.2172
 3233SOL    HW221162   0.670   4.019   1.138  0.0761  0.2173 -0.3777
 3234SOL     OW21163   2.018   2.988   1.638 -0.3991  0.3779  0.6138
 3234SOL    HW121164   2.111   2.968   1.647 -0.4971 -0.1535  0.4580
 3234SOL    HW221165   1.982   2.900   1.629 -1.7774  1.2081 -1.9189
 3235SOL     OW21166   3.452   4.052  12.334 -0.9311 -0.3421  0.4223
 3235SOL    HW121167   3.448   4.126  12.395 -0.9864 -0.0438  0.0574
 3235SOL    HW221168   3.540   4.016  12.332 -1.2504 -1.2075  1.8611
 3236SOL     OW21169   2.482   3.362   5.458 -0.2771  0.3367  0.0947
 3236SOL    HW121170   2.467   3.436   5.517 -0.0350  1.8299 -1.6790
 3236SOL    HW221171   2.424   3.370   5.382  0.0177  3.4172  0.1717
 3237SOL     OW21172   0.713   0.870   1.053  0.1595 -0.7030 -0.3771
 3237SOL    HW121173   0.691   0.916   0.973  0.8307 -2.3884 -1.5259
 3237SOL    HW221174   0.708   0.777   1.031 -0.2266 -0.5563 -0.8932
 3238SOL     OW21175   0.007   0.084   5.691  0.2603  0.1408  0.6886
 3238SOL    HW121176   0.089   0.132   5.701 -0.7781  1.5187  2.6214
 3238SOL    HW221177   4.663   0.148   5.721 -2.3700 -0.1453 -4.4893
 3239SOL     OW21178   4.698   1.508   7.592 -0.5255  0.4329 -0.0932
 3239SOL    HW121179   4.663   1.577   7.648 -0.5051  0.4853 -0.1443
 3239SOL    HW221180   0.026   1.473   7.666 -0.9364 -0.2241 -0.1324
 3240SOL     OW21181   3.833   2.075   9.594 -0.8523 -0.1228  0.0255
 3240SOL    HW121182   3.781   2.112   9.523 -0.3340 -2.0856 -1.3761
 3240SOL    HW221183   3.921   2.094   9.562 -1.4578  0.2875 -1.3965
 3241SOL     OW21184   3.125   4.251   2.534 -0.1374 -0.3216  0.2977
 3241SOL    HW121185   3.057   4.241   2.468  2.4347 -0.7732 -2.2974
 3241SOL    HW221186   3.094   4.327   2.584  0.8184 -0.6301  1.3810
 3242SOL     OW21187   2.413   1.225  13.434  0.6128  0.3583 -0.0381
 3242SOL    HW121188   2.448   1.148  13.390  1.0064 -0.8178  2.3053
 3242SOL    HW221189   2.471   1.298  13.413  1.1420  0.5372  2.0148
 3243SOL     OW21190   2.155   3.700   8.117 -0.2329 -0.0156 -0.2300
 3243SOL    HW121191   2.216   3.765   8.082 -2.2921  1.1624 -1.6069
 3243SOL    HW221192   2.187   3.679   8.205 -0.6343 -0.6720 -0.2392
 3244SOL     OW21193   2.010   3.667  14.369 -0.7899  0.5990 -0.0217
 3244SOL    HW121194   1.968   3.681  14.284  1.6683 -0.2354 -1.3654
 3244SOL    HW221195   2.015   3.754  14.408 -0.2091 -0.0944  1.4516
 3245SOL     OW21196   3.355   0.289   2.051  0.1781 -0.2237  0.6214
 3245SOL    HW121197   3.306   0.371   2.042 -0.3819 -0.7627 -1.2172
 3245SOL    HW221198   3.304   0.233   2.110 -0.6666 -1.1893 -1.0384
 3246SOL     OW21199   3.608   3.025   3.265  0.2689 -0.4021  0.4334
 3246SOL    HW121200   3.616   3.120   3.260 -1.0717 -0.4390 -2.4416
 3246SOL    HW221201   3.615   3.006   3.172 -0.1436  0.2687  0.2646
 3247SOL     OW21202   2.987   3.086   8.553  0.2724  0.2317  0.1400
 3247SOL    HW121203   3.080   3.092   8.573  0.5205  0.4600 -1.1248
 3247SOL    HW221204   2.966   3.015   8.614 -1.1441  1.6734  1.3275
 3248SOL     OW21205   3.287   2.705  16.173 -0.3019  0.2160 -0.3756
 3248SOL    HW121206   3.332   2.774  16.125 -0.3657  1.4453  1.3174
 3248SOL    HW221207   3.353   2.636  16.172  1.0221  1.5228 -3.5770
 3249SOL     OW21208   0.809   3.226   3.164 -0.2786  0.0145  0.2375
 3249SOL    HW121209   0.873   3.289   3.194 -0.9817  1.3999 -1.1710
 3249SOL    HW221210   0.825   3.150   3.220 -0.3020 -0.0231  0.1936
 3250SOL     OW21211   1.319   0.740   6.664 -0.0789  0.2987  0.4625
 3250SOL    HW121212   1.361   0.741   6.578  1.7951  0.7294  1.3853
 3250SOL    HW221213   1.390   0.747   6.727 -0.8825  1.6721  1.2160
 3251SOL     OW21214   1.091   2.786   1.069  0.1035 -0.3569 -0.3150
 3251SOL    HW121215   1.150   2.750   1.003 -2.2712 -2.2417 -1.4213
 3251SOL    HW221216   1.065   2.706   1.114  0.6504  0.7166  1.8860
 3252SOL     OW21217   1.631   4.439   4.690  0.1630 -0.3063  0.2255
 3252SOL    HW121218   1.642   4.532   4.672 -2.2765  0.4707  2.6631
 3252SOL    HW221219   1.543   4.415   4.660  0.5849  0.0492 -1.3132
 3253SOL     OW21220   3.394   2.004  14.159 -0.6836  0.3609 -0.3856
 3253SOL    HW121221   3.486   1.997  14.133  0.3383  3.3554  2.4972
 3253SOL    HW221222   3.369   2.072  14.096  0.4407 -0.2610 -1.4978
 3254SOL     OW21223   3.468   2.425  14.293  0.6460 -0.2113 -0.5633
 3254SOL    HW121224   3.549   2.475  14.293  0.5453 -0.0480 -0.1219
 3254SOL    HW221225   3.427   2.484  14.230  1.1714  1.4650  0.6706
 3255SOL     OW21226   4.341   2.908   4.103  0.3126 -0.2381  0.2669
 3255SOL    HW121227   4.316   2.825   4.062  2.0096 -0.6074 -0.0377
 3255SOL    HW221228   4.277   2.924   4.172  0.4097 -3.1396  1.0389
 3256SOL     OW21229   1.449   3.104   1.484  0.0471  0.1744 -0.2459
 3256SOL    HW121230   1.435   3.158   1.561  1.3168  0.0424  0.0877
 3256SOL    HW221231   1.532   3.061   1.504  0.0225 -0.7995 -2.2281
 3257SOL     OW21232   3.251   3.763  14.950  0.1573 -0.1786  0.3466
 3257SOL    HW121233   3.292   3.678  14.969 -0.6236 -0.6209  0.0767
 3257SOL    HW221234   3.323   3.811  14.911  1.1107 -1.3017  0.7293
 3258SOL     OW21235   2.781   3.423   4.892 -0.7223  0.4549 -0.4040
 3258SOL    HW121236   2.803   3.376   4.972  0.0375 -0.6008 -1.2219
 3258SOL    HW221237   2.730   3.493   4.932  0.6874  0.4697  1.3521
 3259SOL     OW21238   4.474   4.366  15.405  0.0575  0.5808  0.4707
 3259SOL    HW121239   4.518   4.396  15.484  1.1138  2.7575 -0.9233
 3259SOL    HW221240   4.497   4.437  15.344 -0.6130  0.8068  0.4800
 3260SOL     OW21241   0.492   2.353   1.678 -0.0902 -0.0143 -0.0129
 3260SOL    HW121242   0.412   2.315   1.713 -0.5180  2.5365  1.7523
 3260SOL    HW221243   0.450   2.418   1.621 -0.6598  0.4015  0.8906
 3261SOL     OW21244   2.854   1.619   3.309 -0.0531  0.0774 -0.1690
 3261SOL    HW121245   2.823   1.561   3.239 -1.0356  1.6481 -1.0129
 3261SOL    HW221246   2.827   1.565   3.383  3.0835 -0.6984  0.4258
 3262SOL     OW21247   2.179   0.908   6.547  0.3997  0.0274 -0.0044
 3262SOL    HW121248   2.258   0.856   6.565  1.1665  0.2292 -2.6937
 3262SOL    HW221249   2.217   0.995   6.538 -0.3236  0.0660 -2.8052
 3263SOL     OW21250   2.322   3.722   0.240  0.4831  0.0693 -0.0071
 3263SOL    HW121251   2.263   3.711   0.166 -1.6156  2.5093  1.2927
 3263SOL    HW221252   2.306   3.640   0.287 -0.0578  0.6237  0.7856
 3264SOL     OW21253   3.952   0.135  14.808  0.0645 -0.1170 -0.1262
 3264SOL    HW121254   3.945   0.134  14.713 -2.0038 -1.7904  0.0423
 3264SOL    HW221255   4.031   0.185  14.826 -0.9195  0.7709  1.7789
 3265SOL     OW21256   0.584   3.664   2.412 -0.0206  0.0709  0.3620
 3265SOL    HW121257   0.560   3.753   2.386  0.8291  0.4803  0.9853
 3265SOL    HW221258   0.537   3.617   2.343 -3.3786  4.1742 -0.1048
 3266SOL     OW21259   0.420   0.561   4.010 -0.1726 -0.6275 -0.2590
 3266SOL    HW121260   0.399   0.522   3.926  1.4615 -2.0020 -0.0239
 3266SOL    HW221261   0.342   0.605   4.045  0.6361 -1.1149  2.1474
 3267SOL     OW21262   2.791   0.789   5.355  0.2852  0.5969  0.5721
 3267SOL    HW121263   2.730   0.832   5.414 -1.2079  0.9563 -1.2613
 3267SOL    HW221264   2.857   0.757   5.417  0.3345 -0.0984  0.1620
 3268SOL     OW21265   4.434   2.076  13.391 -0.3732  0.7254  0.2712
 3268SOL    HW121266   4.481   1.995  13.415  1.2933  1.1599 -1.4380
 3268SOL    HW221267   4.356   2.063  13.443 -1.6127 -0.1943 -1.8017
 3269SOL     OW21268   4.643   4.490   4.393 -0.0109  0.0810  0.4328
 3269SOL    HW121269   4.634   4.584   4.378 -1.9278 -0.1640  0.0176
 3269SOL    HW221270   4.554   4.458   4.380  1.0840 -1.9422 -1.9800
 3270SOL     OW21271   1.160   2.892  12.241  0.0318  0.8799  0.0263
 3270SOL    HW121272   1.075   2.876  12.281  0.9160 -1.1063  1.0875
 3270SOL    HW221273   1.217   2.846  12.303 -0.5366 -1.7250 -1.3689
 3271SOL     OW21274   2.890   1.459  13.665  0.2809  0.7010  0.4491
 3271SOL    HW121275   2.902   1.548  13.698 -3.2840  2.0390 -1.8662
 3271SOL    HW221276   2.795   1.452  13.663  0.3609  0.8839 -2.6255
 3272SOL     OW21277   4.585   0.966   6.416 -0.5548  0.3349  0.6545
 3272SOL    HW121278   4.539   1.049   6.406  2.5186  1.9879  0.2895
 3272SOL    HW221279   4.655   0.985   6.478  2.6453 -0.4003 -2.7287
 3273SOL     OW21280   0.289   2.237   9.638  0.3898  0.0221 -0.9810
 3273SOL    HW121281   0.342   2.171   9.683  0.1248  0.6978  0.3110
 3273SOL    HW221282   0.304   2.311   9.697 -1.2166  0.5440 -1.2265
 3274SOL     OW21283   3.074   4.696   4.563 -0.5329  0.1920  0.4965
 3274SOL    HW121284   3.007   4.670   4.499  0.9348 -1.4774 -0.3560
 3274SOL    HW221285   3.076   4.621   4.623 -2.1776 -0.7347 -0.5906
 3275SOL     OW21286   4.645   2.744  12.598  0.0170 -0.2560 -0.4948
 3275SOL    HW121287   4.629   2.778  12.510 -2.2538  2.3326  0.9541
 3275SOL    HW221288   4.586   2.802  12.644  0.0110 -1.6240  1.2334
 3276SOL     OW21289   3.852   0.486   3.322  0.3373 -0.4848  0.2304
 3276SOL    HW121290   3.875   0.544   3.396  0.8483  0.6898 -0.8482
 3276SOL    HW221291   3.776   0.532   3.286 -1.4087 -4.1902 -0.7668
 3277SOL     OW21292   2.733   4.417   6.959 -0.0280 -0.7857 -0.0093
 3277SOL    HW121293   2.660   4.392   6.903 -1.6252  0.0389  1.7279
 3277SOL    HW221294   2.694   4.491   7.005 -0.7273 -1.7128  0.9063
 3278SOL     OW21295   1.283   3.100  17.405 -0.0871 -0.2429  0.5856
 3278SOL    HW121296   1.254   3.052  17.483  0.1349  1.1277  1.5073
 3278SOL    HW221297   1.214   3.166  17.408 -0.6102 -0.7008 -1.5842
 3279SOL     OW21298   3.119   4.443   6.581 -0.0059 -0.0204 -0.0373
 3279SOL    HW121299   3.175   4.426   6.657 -1.4166 -3.0271  0.3177
 3279SOL    HW221300   3.033   4.453   6.621 -0.4267 -3.2152 -0.1634
 3280SOL     OW21301   0.259   0.535  17.220  0.0957  0.1280 -0.0663
 3280SOL    HW121302   0.184   0.556  17.164 -2.2444 -4.6336  1.2243
 3280SOL    HW221303   0.239   0.582  17.301  1.4864 -1.7656  1.3817
 3281SOL     OW21304   3.108   0.185  15.900  0.1787  0.3221  0.1546
 3281SOL    HW121305   3.179   0.144  15.849 -2.0183 -2.0759 -0.9903
 3281SOL    HW221306   3.147   0.271  15.912 -0.0645  0.5686 -0.7961
 3282SOL     OW21307   4.203   1.793  11.397  0.2559 -0.3050  0.5031
 3282SOL    HW121308   4.285   1.748  11.417  0.5136  1.3363  3.1884
 3282SOL    HW221309   4.221   1.886  11.411 -0.1348 -0.2241  0.4678
 3283SOL     OW21310   3.721   2.498   8.471  0.4458  0.0233 -0.1237
 3283SOL    HW121311   3.748   2.495   8.563  2.8583  0.9030 -0.8007
 3283SOL    HW221312   3.747   2.587   8.446  0.3994 -0.2796 -1.2292
 3284SOL     OW21313   4.621   2.153   9.741  0.0752  0.1617 -0.2705
 3284SOL    HW121314   4.613   2.223   9.806 -0.0103  0.4225 -0.5633
 3284SOL    HW221315   4.690   2.101   9.783 -0.8642 -1.3143 -0.5832
 3285SOL     OW21316   0.131   2.953   3.626 -0.0798 -0.4384  0.4837
 3285SOL    HW121317   0.174   2.868   3.640 -1.3851 -0.8699  2.0580
 3285SOL    HW221318   0.167   2.974   3.541  1.7962  0.0543  1.4138
 3286SOL     OW21319   0.730   1.098   9.004  0.3607  0.1361  0.2640
 3286SOL    HW121320   0.816   1.114   9.043  1.2500 -0.7871 -1.3026
 3286SOL    HW221321   0.672   1.157   9.051 -1.1673 -0.1468 -1.2518
 3287SOL     OW21322   1.936   3.631   4.032  0.5095  0.3159  0.5388
 3287SOL    HW121323   1.995   3.556   4.040  0.5805  0.4294  1.0682
 3287SOL    HW221324   1.983   3.700   4.079  3.2124  0.8245 -2.8394
 3288SOL     OW21325   3.873   0.155   8.460 -0.0480 -0.1785 -0.3227
 3288SOL    HW121326   3.845   0.194   8.377  1.5080 -0.7178 -1.1017
 3288SOL    HW221327   3.820   0.203   8.523 -1.2308 -1.1681 -0.5797
 3289SOL     OW21328   1.739   3.150  11.732 -0.5751  0.3406  0.3514
 3289SOL    HW121329   1.664   3.188  11.685 -3.2877 -0.8272  3.7558
 3289SOL    HW221330   1.728   3.182  11.822 -1.9033 -1.5086  0.8505
 3290SOL     OW21331   1.214   2.198   0.307  0.5152  0.0072 -0.1544
 3290SOL    HW121332   1.202   2.268   0.242  1.1909 -0.9532 -1.2986
 3290SOL    HW221333   1.256   2.125   0.262  2.4006  0.6503  0.5556
 3291SOL     OW21334   4.110   2.164   5.204 -0.2242 -0.6349 -0.7236
 3291SOL    HW121335   4.058   2.088   5.229 -1.9307  1.0116  0.7880
 3291SOL    HW221336   4.199   2.128   5.204  0.6712  1.5664 -2.1020
 3292SOL     OW21337   2.238   0.560   7.379 -0.3530  1.2169  0.1243
 3292SOL    HW121338   2.319   0.528   7.420 -0.8525  0.6346  0.6621
 3292SOL    HW221339   2.255   0.552   7.285  0.1098 -0.7205  0.3696
 3293SOL     OW21340   4.655   2.121  13.020 -0.3808  0.3387  0.5343
 3293SOL    HW121341   4.638   2.176  13.096 -0.0668 -0.4005  1.1341
 3293SOL    HW221342   4.620   2.179  12.952  0.0892 -0.4641 -0.3960
 3294SOL     OW21343   2.974   4.153   7.869  0.2539  0.1947 -0.4580
 3294SOL    HW121344   2.963   4.222   7.803  2.6471  1.3093  0.3196
 3294SOL    HW221345   2.937   4.086   7.812  0.1153 -1.6637  1.8587
 3295SOL     OW21346   1.638   2.177   4.656  0.2036  0.7957 -0.4917
 3295SOL    HW121347   1.576   2.114   4.619 -0.6961  2.3649 -1.6471
 3295SOL    HW221348   1.609   2.190   4.746 -1.2125  2.2621 -1.1649
 3296SOL     OW21349   4.293   1.565  15.011 -0.8615 -0.7337  0.1480
 3296SOL    HW121350   4.379   1.568  15.053 -0.2268  0.0513 -1.2170
 3296SOL    HW221351   4.241   1.530  15.084 -0.6411 -0.3591  0.4850
 3297SOL     OW21352   0.506   3.594   5.223 -0.5503  0.3110  0.0011
 3297SOL    HW121353   0.471   3.566   5.138 -0.9849 -0.6905  0.5131
 3297SOL    HW221354   0.434   3.568   5.280 -0.6921  1.9878  0.5882
 3298SOL     OW21355   0.597   2.729   1.572  0.4826  0.5356 -0.1926
 3298SOL    HW121356   0.618   2.821   1.555  1.2345  0.1438 -1.4003
 3298SOL    HW221357   0.502   2.733   1.570  0.3944 -1.8027 -0.5836
 3299SOL     OW21358   2.539   4.569   7.365 -0.6173  0.1918 -0.3171
 3299SOL    HW121359   2.536   4.501   7.432  1.3377  1.9723  1.6068
 3299SOL    HW221360   2.536   4.644   7.424 -0.2103  1.0933 -1.4450
 3300SOL     OW21361   1.249   2.699   8.537  0.4764  0.4416 -0.4407
 3300SOL    HW121362   1.281   2.645   8.609  0.4123 -0.1085 -0.8221
 3300SOL    HW221363   1.286   2.786   8.551 -0.2815  1.0828 -2.3394
 3301SOL     OW21364   4.303   2.760   7.335  0.0649 -0.1204 -0.3578
 3301SOL    HW121365   4.217   2.758   7.377  0.1918  0.7618 -0.0616
 3301SOL    HW221366   4.357   2.724   7.406  0.1156  0.3857 -0.1370
 3302SOL     OW21367   1.936   3.150   1.892  0.0624  0.1310 -0.3866
 3302SOL    HW121368   1.910   3.063   1.922  1.1810 -0.1139 -0.1343
 3302SOL    HW221369   2.008   3.136   1.830 -0.1549 -0.3627 -0.5297
 3303SOL     OW21370   0.247   2.290   7.299 -0.0512  0.6826 -0.0834
 3303SOL    HW121371   0.253   2.379   7.334 -0.0395  0.2884  0.9268
 3303SOL    HW221372   0.239   2.234   7.377  2.1272 -0.7788 -0.8941
 3304SOL     OW21373   0.323   2.537   6.884 -0.1059 -0.3873  0.6548
 3304SOL    HW121374   0.347   2.506   6.797 -1.9778  0.4229 -0.1367
 3304SOL    HW221375   0.342   2.457   6.932  0.7529 -0.1882  0.6482
 3305SOL     OW21376   2.022   3.648   7.883  0.2010 -0.3552 -0.1011
 3305SOL    HW121377   1.991   3.709   7.815 -2.0150  0.5531  1.7184
 3305SOL    HW221378   2.069   3.692   7.953 -0.4127  1.4349 -0.7960
 3306SOL     OW21379   4.053   3.059   0.074  0.0240  0.5414 -0.0739
 3306SOL    HW121380   4.083   2.969   0.065 -0.9543  0.2181 -0.1734
 3306SOL    HW221381   4.095   3.096  17.685 -0.1208 -0.5447 -0.6658
 3307SOL     OW21382   3.436   3.283   8.912  0.3358 -0.3868  0.1241
 3307SOL    HW121383   3.366   3.348   8.909  2.1308  1.4720 -0.7331
 3307SOL    HW221384   3.512   3.336   8.935  0.1829 -0.2780  0.3732
 3308SOL     OW21385   4.033   0.981   6.648  0.2908 -0.5480  0.1194
 3308SOL    HW121386   4.075   1.067   6.658 -1.1600  0.1750 -0.0074
 3308SOL    HW221387   3.943   1.011   6.636 -0.2488 -1.6488  1.4455
 3309SOL     OW21388   4.301   2.397   6.036 -0.4476 -0.0192  0.0840
 3309SOL    HW121389   4.361   2.332   6.075  0.9381  0.8720 -0.5704
 3309SOL    HW221390   4.358   2.443   5.975 -0.4542  0.5321  0.5002
 3310SOL     OW21391   2.908   1.957   8.126  0.2790  0.3809 -0.5005
 3310SOL    HW121392   2.865   2.036   8.096  0.6395  1.3401  1.5147
 3310SOL    HW221393   2.927   1.914   8.043 -1.6283  1.1957 -1.3460
 3311SOL     OW21394   1.186   1.481   2.428 -0.2680  0.0875  0.5738
 3311SOL    HW121395   1.094   1.496   2.451 -0.4325  0.9370 -0.6184
 3311SOL    HW221396   1.221   1.561   2.466 -1.2457  0.7048  0.1648
 3312SOL     OW21397   1.834   4.122   8.674  0.1530 -0.4085 -0.6211
 3312SOL    HW121398   1.843   4.148   8.766 -1.4809 -2.5048  0.1396
 3312SOL    HW221399   1.791   4.036   8.674 -0.4274 -0.1266  2.2545
 3313SOL     OW21400   4.428   1.052   8.816  0.3532  0.1962 -0.1557
 3313SOL    HW121401   4.463   1.061   8.727  0.2101  0.1677 -0.2149
 3313SOL    HW221402   4.441   0.958   8.829 -2.1397 -0.0579  0.4985
 3314SOL     OW21403   2.322   4.045   1.937  0.2747  0.4996  0.0345
 3314SOL    HW121404   2.350   3.957   1.914  1.5313  0.3503  2.1843
 3314SOL    HW221405   2.239   4.023   1.980  0.6434  0.0035  0.4936
 3315SOL     OW21406   2.137   1.535   0.922 -0.1475  0.2188 -0.0140
 3315SOL    HW121407   2.211   1.573   0.968 -1.9477  1.8081  1.5665
 3315SOL    HW221408   2.139   1.447   0.960  1.7890  0.1374 -0.2986
 3316SOL     OW21409   3.666   1.894   7.608 -0.1248 -0.3535  0.6847
 3316SOL    HW121410   3.682   1.892   7.702 -2.9809 -0.8815  1.1594
 3316SOL    HW221411   3.575   1.864   7.601  0.1460 -0.7556 -1.1670
 3317SOL     OW21412   4.183   2.784  11.117  0.0190 -0.1198 -0.1628
 3317SOL    HW121413   4.256   2.789  11.179 -0.6257  0.8729  0.5053
 3317SOL    HW221414   4.119   2.735  11.168  0.5323 -0.1057  0.4929
 3318SOL     OW21415   2.986   2.639   8.253  0.1062  0.1759 -0.2398
 3318SOL    HW121416   3.067   2.643   8.303  0.3879  1.4898 -0.8223
 3318SOL    HW221417   2.999   2.560   8.199 -1.9695  0.0218 -0.5237
 3319SOL     OW21418   3.552   1.294   9.836  0.2791 -0.8758  0.1187
 3319SOL    HW121419   3.603   1.374   9.848  0.4877 -1.0901  0.6766
 3319SOL    HW221420   3.464   1.322   9.859  0.9809  0.7097  0.8699
 3320SOL     OW21421   1.177   2.109   3.947  0.4853  0.0605 -0.0221
 3320SOL    HW121422   1.269   2.096   3.924  0.9321  1.6314  0.8529
 3320SOL    HW221423   1.169   2.191   3.897 -1.0804  0.6509  1.1991
 3321SOL     OW21424   0.324   0.251   4.263  0.3370 -0.2729 -0.3504
 3321SOL    HW121425   0.333   0.238   4.169  1.9013 -0.5045 -0.1698
 3321SOL    HW221426   0.409   0.219   4.293 -0.1117 -2.8920 -1.8707
 3322SOL     OW21427   3.376   1.246  15.513  0.3519 -0.1770  0.4671
 3322SOL    HW121428   3.452   1.298  15.539  1.3344 -0.5800 -1.6967
 3322SOL    HW221429   3.348   1.266  15.424 -2.1852  1.5196  1.6390
 3323SOL     OW21430   4.488   2.027  13.764 -0.3505  0.2453 -0.3624
 3323SOL    HW121431   4.405   1.981  13.774 -0.7550  0.8784 -0.8228
 3323SOL    HW221432   4.493   2.086  13.839  0.6301 -0.1881 -0.0849
 3324SOL     OW21433   1.892   3.889   8.214  0.0054 -0.5535 -0.0101
 3324SOL    HW121434   1.952   3.920   8.146  0.4703 -0.7425  0.3112
 3324SOL    HW221435   1.924   3.798   8.217 -0.4663 -0.7014  0.5212
 3325SOL     OW21436   4.445   3.857  16.992 -0.5141 -0.1710  0.3165
 3325SOL    HW121437   4.475   3.863  16.902 -2.1870 -1.2837 -0.3125
 3325SOL    HW221438   4.403   3.772  16.980 -0.6713 -0.5648  3.4817
 3326SOL     OW21439   3.241   1.824   4.348 -0.6772  0.4027 -0.2764
 3326SOL    HW121440   3.326   1.801   4.386 -0.9520  1.1742  0.8143
 3326SOL    HW221441   3.272   1.903   4.303  0.4430 -0.0691 -0.3181
 3327SOL     OW21442   0.140   2.168   2.894  0.0565 -0.2105 -0.4075
 3327SOL    HW121443   0.200   2.152   2.820  0.9885  0.8552  0.1228
 3327SOL    HW221444   0.115   2.258   2.873  0.1506  0.2899  1.6281
 3328SOL     OW21445   2.170   2.288   3.661 -0.2263  1.1714 -0.4422
 3328SOL    HW121446   2.087   2.270   3.706  0.5707 -1.3364  0.0280
 3328SOL    HW221447   2.168   2.380   3.636 -1.0577  1.0799 -0.7361
 3329SOL     OW21448   4.177   0.075   4.105  0.0499  0.1792 -0.0964
 3329SOL    HW121449   4.270   0.093   4.118  0.4353 -1.4020 -0.6823
 3329SOL    HW221450   4.178   0.065   4.010 -1.2600  0.5043 -0.1508
 3330SOL     OW21451   1.771   0.673   3.728  0.2007  0.2518  0.1822
 3330SOL    HW121452   1.775   0.769   3.723 -3.0311  0.2894 -2.0719
 3330SOL    HW221453   1.862   0.652   3.711 -0.1375 -2.1000  1.1958
 3331SOL     OW21454   4.399   3.845  10.073  0.0464 -0.0570  0.4746
 3331SOL    HW121455   4.463   3.829  10.003  2.1441  1.9358  1.9012
 3331SOL    HW221456   4.338   3.894  10.018 -0.0597  0.3190  0.9267
 3332SOL     OW21457   2.774   1.774   6.873 -0.1312  0.0922 -0.3435
 3332SOL    HW121458   2.701   1.773   6.934 -0.2421  1.4013 -0.4440
 3332SOL    HW221459   2.769   1.863   6.836 -1.8460 -0.0473 -0.4424
 3333SOL     OW21460   0.145   3.451   8.033  0.0938 -0.6631  0.4023
 3333SOL    HW121461   0.092   3.525   8.005 -1.9144 -1.9026  0.9630
 3333SOL    HW221462   0.082   3.379   8.038  1.9134 -2.2936 -0.1862
 3334SOL     OW21463   3.543   4.288   5.799 -0.0968 -0.3935  0.4180
 3334SOL    HW121464   3.459   4.316   5.762  0.7288 -0.4302 -1.5058
 3334SOL    HW221465   3.527   4.223   5.867 -0.1482 -1.2839 -0.4448
 3335SOL     OW21466   3.182   2.559   3.345 -0.2397  0.2377  0.5990
 3335SOL    HW121467   3.177   2.614   3.423 -1.6444  0.1869  0.5469
 3335SOL    HW221468   3.260   2.584   3.295 -0.9546 -1.0960 -1.2045
 3336SOL     OW21469   0.999   0.508   2.458  0.1305 -0.4253  0.4344
 3336SOL    HW121470   0.938   0.489   2.530  0.0927  0.1384  0.5468
 3336SOL    HW221471   0.966   0.593   2.429 -1.8969 -1.4077 -0.1537
 3337SOL     OW21472   4.554   3.186   3.521  0.6014  0.0453  0.5079
 3337SOL    HW121473   4.549   3.235   3.439  0.5016 -0.5677  0.1517
 3337SOL    HW221474   4.615   3.248   3.561  2.1635  0.3800 -2.3935
 3338SOL     OW21475   0.485   2.697   4.207 -0.4107  0.2964  0.2904
 3338SOL    HW121476   0.546   2.695   4.132  0.4883 -0.2866  1.0374
 3338SOL    HW221477   0.491   2.609   4.244 -0.7685 -0.6338 -1.8163
 3339SOL     OW21478   1.223   4.218  16.672 -0.1594  0.2557 -0.0482
 3339SOL    HW121479   1.194   4.304  16.640 -0.1815  0.0143 -0.6864
 3339SOL    HW221480   1.308   4.217  16.629 -0.7883 -2.6702 -1.2224
 3340SOL     OW21481   2.875   1.580   5.287  0.0185 -0.6677  0.1115
 3340SOL    HW121482   2.854   1.664   5.245 -1.1817 -0.1600  1.7508
 3340SOL    HW221483   2.845   1.527   5.214  1.0956  2.2977 -2.5023
 3341SOL     OW21484   0.054   2.225  10.703 -0.3581 -0.3367  0.5748
 3341SOL    HW121485   4.696   2.180  10.674  0.8157 -1.0759 -1.4675
 3341SOL    HW221486   0.069   2.272  10.621 -0.0707  0.5314  1.1176
 3342SOL     OW21487   2.347   3.710   4.086 -0.5034  0.3687  0.1655
 3342SOL    HW121488   2.261   3.747   4.103 -1.2175 -0.5552 -1.4870
 3342SOL    HW221489   2.394   3.784   4.047 -2.2295 -0.0247 -2.6358
 3343SOL     OW21490   0.992   4.083   3.768  0.3878  0.1916  0.0085
 3343SOL    HW121491   0.933   4.113   3.699 -0.5419 -1.8897 -0.1149
 3343SOL    HW221492   1.005   4.156   3.829 -0.7581  0.7047 -0.3770
 3344SOL     OW21493   3.784   3.405   4.024 -0.0330 -0.1856 -0.0482
 3344SOL    HW121494   3.734   3.481   3.993  0.3315  0.8745  1.9761
 3344SOL    HW221495   3.791   3.420   4.118  1.1939  3.3187 -0.6856
 3345SOL     OW21496   1.460   3.146  13.703 -0.4760 -0.3679 -0.2019
 3345SOL    HW121497   1.446   3.105  13.618  1.3808 -1.7526  0.1687
 3345SOL    HW221498   1.386   3.206  13.697 -0.4023 -0.1563  0.9570
 3346SOL     OW21499   0.130   4.651   8.022  0.3351  0.1303 -0.1176
 3346SOL    HW121500   0.188   4.695   7.960  0.3729 -0.5834 -0.5912
 3346SOL    HW221501   0.059   4.628   7.961  1.0091  3.1031 -2.0290
 3347SOL     OW21502   0.622   1.769   1.363  0.2469 -0.0924  0.0367
 3347SOL    HW121503   0.579   1.784   1.278 -1.3378  0.4176  0.9214
 3347SOL    HW221504   0.671   1.690   1.344 -1.9875 -1.4156 -0.2633
 3348SOL     OW21505   4.660   0.317   1.401  0.2216  0.7510  0.4277
 3348SOL    HW121506   4.652   0.223   1.389 -1.1682  0.6519  2.1443
 3348SOL    HW221507   4.721   0.330   1.474  1.4898  1.5383 -0.7676
 3349SOL     OW21508   0.283   3.335   0.829 -0.2418 -0.3425 -0.4295
 3349SOL    HW121509   0.244   3.285   0.757 -0.6399 -1.5922  0.6532
 3349SOL    HW221510   0.270   3.270   0.898 -0.0811  0.8100  0.6815
 3350SOL     OW21511   1.801   4.343  15.890 -0.0052  0.0391 -0.0692
 3350SOL    HW121512   1.859   4.273  15.920  0.5863 -0.4638 -2.4450
 3350SOL    HW221513   1.859   4.369  15.819 -0.2684 -1.0481 -0.6908
 3351SOL     OW21514   2.487   4.480   2.631  0.2198  0.5234  0.1171
 3351SOL    HW121515   2.472   4.408   2.570 -1.8885  0.6700  0.4803
 3351SOL    HW221516   2.394   4.489   2.653  0.4300 -1.6652  1.8672
 3352SOL     OW21517   1.705   3.098   1.693  0.3340 -0.2140  0.3260
 3352SOL    HW121518   1.798   3.076   1.686  0.8843  1.7508  1.3752
 3352SOL    HW221519   1.718   3.188   1.725  1.9926 -0.5254  0.5352
 3353SOL     OW21520   2.763   0.157   2.099  0.0039  0.1676  0.1727
 3353SOL    HW121521   2.766   0.071   2.140 -0.3545 -0.1984 -0.5698
 3353SOL    HW221522   2.695   0.151   2.032 -1.4917 -0.2194  1.7309
 3354SOL     OW21523   0.692   1.040   6.705 -0.2561 -0.0252  0.2366
 3354SOL    HW121524   0.648   0.965   6.744  2.2559 -2.0417 -0.7654
 3354SOL    HW221525   0.777   1.002   6.683 -0.2310 -0.0599  0.3885
 3355SOL     OW21526   0.570   2.770  13.020 -0.3764 -0.3600  0.4517
 3355SOL    HW121527   0.532   2.822  12.950  0.1702 -1.1693 -0.4430
 3355SOL    HW221528   0.641   2.831  13.040 -1.1370  0.7903 -0.3949
 3356SOL     OW21529   3.975   3.717  16.693  0.0009 -0.4568 -0.6791
 3356SOL    HW121530   3.904   3.743  16.753  2.7091  0.7878  1.9671
 3356SOL    HW221531   3.939   3.629  16.685  0.7937 -0.8418  0.0089
 3357SOL     OW21532   0.902   1.012   7.214 -0.3444  0.2757  0.1478
 3357SOL    HW121533   0.824   0.996   7.161 -3.0396  0.2446  4.1519
 3357SOL    HW221534   0.918   0.931   7.261 -3.5438 -0.5438 -0.2102
 3358SOL     OW21535   2.702   1.188   5.434 -0.4447  0.2526 -0.0820
 3358SOL    HW121536   2.753   1.220   5.359 -0.6323 -1.1597 -0.8253
 3358SOL    HW221537   2.614   1.204   5.399 -1.6766 -2.0432  1.9777
 3359SOL     OW21538   4.355   4.268  14.923  0.7808 -0.0130  0.2721
 3359SOL    HW121539   4.280   4.208  14.916 -0.2813  1.4656 -1.1458
 3359SOL    HW221540   4.373   4.267  15.017  2.5960  0.9512 -0.0618
 3360SOL     OW21541   4.449   4.091   8.775 -0.1796 -0.1800  0.4899
 3360SOL    HW121542   4.533   4.105   8.731  0.4059 -1.2619  1.2513
 3360SOL    HW221543   4.474   4.079   8.867  1.1509 -1.5146 -0.0442
 3361SOL     OW21544   2.773   0.513   3.884  0.2836 -0.2438  0.5018
 3361SOL    HW121545   2.682   0.541   3.883 -0.0001 -1.1066  2.3535
 3361SOL    HW221546   2.820   0.594   3.866  0.1095  0.2863  2.4600
 3362SOL     OW21547   4.086   4.153   5.171  0.1115 -0.3090  0.1383
 3362SOL    HW121548   3.994   4.172   5.187 -0.5008 -2.2089 -1.1331
 3362SOL    HW221549   4.117   4.238   5.200 -1.0229 -0.1238  0.8047
 3363SOL     OW21550   1.700   0.859   4.080  0.3667  0.2262  0.0939
 3363SOL    HW121551   1.707   0.871   3.985 -1.2856 -0.7802 -0.1454
 3363SOL    HW221552   1.610   0.885   4.100 -0.3809 -2.4314  0.0936
 3364SOL     OW21553   0.629   1.024  17.254 -0.1414 -0.3541  0.3597
 3364SOL    HW121554   0.630   1.082  17.178  2.0249  0.2235  0.8191
 3364SOL    HW221555   0.716   1.037  17.292 -1.0007  0.2289  2.1674
 3365SOL     OW21556   2.055   0.627  14.153  0.0005  0.0510  0.1323
 3365SOL    HW121557   2.081   0.668  14.071 -1.5336 -0.2464 -0.4983
 3365SOL    HW221558   1.978   0.578  14.126  1.3841 -1.4607 -1.1035
 3366SOL     OW21559   2.299   3.975  10.685 -0.8099 -0.2937  0.1321
 3366SOL    HW121560   2.326   3.888  10.715  2.8604  1.0277  0.7186
 3366SOL    HW221561   2.365   4.024  10.734 -0.0093  0.3230 -1.5658
 3367SOL     OW21562   1.832   4.545   8.527  0.2630 -0.1125 -0.5464
 3367SOL    HW121563   1.762   4.611   8.518  0.5350  0.1967 -0.4049
 3367SOL    HW221564   1.897   4.595   8.477  0.5761  0.7321  0.7096
 3368SOL     OW21565   2.857   3.426   1.858  0.3846 -0.0789  0.5125
 3368SOL    HW121566   2.937   3.432   1.910  1.7252 -2.3217 -1.2945
 3368SOL    HW221567   2.852   3.332   1.843  1.6868 -0.0103 -0.3811
 3369SOL     OW21568   0.137   1.019   4.079 -0.3363  0.2930 -0.7571
 3369SOL    HW121569   0.047   1.042   4.102 -0.4187  0.8243 -1.6147
 3369SOL    HW221570   0.161   1.104   4.040 -0.2547  0.2452 -0.8103
 3370SOL     OW21571   2.014   3.086  11.883  1.1459  0.0198 -0.3692
 3370SOL    HW121572   1.998   3.099  11.977  1.6034 -0.1281 -0.2684
 3370SOL    HW221573   2.104   3.117  11.873 -0.0896  3.2409 -1.3416
 3371SOL     OW21574   3.400   4.036  14.218  0.2914  0.1345  0.7177
 3371SOL    HW121575   3.405   4.124  14.181  0.6597 -0.7879 -1.4270
 3371SOL    HW221576   3.386   3.976  14.145  0.8914  1.0027 -0.1055
 3372SOL     OW21577   4.257   2.051  11.416  0.4763  0.0020 -0.4500
 3372SOL    HW121578   4.171   2.063  11.374 -0.1117 -0.3653  0.6640
 3372SOL    HW221579   4.316   2.090  11.352  0.2276  1.9756  0.5243
 3373SOL     OW21580   1.429   1.209   5.906 -0.0555  0.1141  0.1150
 3373SOL    HW121581   1.379   1.164   5.974 -0.9316  1.8751  0.6503
 3373SOL    HW221582   1.520   1.190   5.929 -0.4002 -0.3000  1.1408
 3374SOL     OW21583   2.723   1.146   3.739 -0.0746 -0.1652 -0.2288
 3374SOL    HW121584   2.753   1.120   3.826  3.4736  0.4634 -1.2702
 3374SOL    HW221585   2.697   1.061   3.704  0.9231 -1.0219  1.1116
 3375SOL     OW21586   1.653   1.395   7.418 -0.2276 -0.1358 -0.9908
 3375SOL    HW121587   1.748   1.402   7.410 -0.1233  0.0193  0.3569
 3375SOL    HW221588   1.638   1.408   7.324  1.3308 -0.8897 -1.3432
 3376SOL     OW21589   0.578   1.175   4.352  0.4311  0.2212 -0.4785
 3376SOL    HW121590   0.532   1.092   4.337 -1.7835  1.5793 -1.2538
 3376SOL    HW221591   0.666   1.139   4.341  1.1337  1.4148  1.0770
 3377SOL     OW21592   3.901   0.520  11.921  0.1616  0.1181  0.1895
 3377SOL    HW121593   3.834   0.457  11.945 -0.6602  0.0111 -2.3893
 3377SOL    HW221594   3.903   0.506  11.826 -2.4614  2.8787 -0.2759
 3378SOL     OW21595   2.578   2.490  13.403  0.2582  0.3844  0.0974
 3378SOL    HW121596   2.557   2.397  13.399  3.1335 -0.2837  0.3139
 3378SOL    HW221597   2.673   2.493  13.418  0.5396  0.7010 -1.7974
 3379SOL     OW21598   3.595   0.273   2.601 -0.0369 -0.6468 -0.0847
 3379SOL    HW121599   3.619   0.189   2.639  1.5755  1.1882  2.9391
 3379SOL    HW221600   3.587   0.255   2.507 -1.8758  2.9310 -0.6144
 3380SOL     OW21601   3.066   3.807   2.081  0.3332  0.5753 -0.5385
 3380SOL    HW121602   3.028   3.770   2.001  0.2679 -0.6053  0.0497
 3380SOL    HW221603   3.007   3.775   2.148  2.5248 -0.7689  0.7177
 3381SOL     OW21604   1.951   0.693  10.510 -0.2308  0.1585  0.2899
 3381SOL    HW121605   1.952   0.598  10.495  0.0883 -0.1356  2.1188
 3381SOL    HW221606   1.863   0.722  10.490  0.5716  0.4818 -2.7574
 3382SOL     OW21607   1.557   3.671   4.907 -0.0301 -0.6103 -0.2617
 3382SOL    HW121608   1.492   3.699   4.843 -0.6888 -0.6590  0.3899
 3382SOL    HW221609   1.528   3.586   4.939  0.1670 -0.1928  1.0394
 3383SOL     OW21610   4.291   1.643   4.811  0.0210 -0.4074 -0.1039
 3383SOL    HW121611   4.359   1.576   4.813 -0.3415 -0.8718 -2.6782
 3383SOL    HW221612   4.251   1.638   4.724 -1.3042 -2.0855  0.6116
 3384SOL     OW21613   1.946   3.030   5.621  0.0125  0.3002 -0.0240
 3384SOL    HW121614   1.971   2.990   5.704  0.1211 -0.3423 -0.3725
 3384SOL    HW221615   2.030   3.063   5.590 -0.8901  2.4577 -0.2116
 3385SOL     OW21616   0.387   0.827   3.697  0.0594  0.0232 -0.2958
 3385SOL    HW121617   0.357   0.743   3.662  0.9833 -0.8625  1.0482
 3385SOL    HW221618   0.373   0.817   3.791  1.2947 -1.7752 -0.3022
 3386SOL     OW21619   0.501   3.126   9.978  0.1330  0.4611 -0.3532
 3386SOL    HW121620   0.521   3.214   9.948  3.0385 -0.1626 -0.3122
 3386SOL    HW221621   0.415   3.130   9.936  0.4550 -0.4256 -1.0994
 3387SOL     OW21622   4.415   0.933   5.166  0.4615  0.6017 -0.1339
 3387SOL    HW121623   4.344   0.915   5.105  0.0033 -1.7015  1.1032
 3387SOL    HW221624   4.376   1.004   5.217  1.4825  0.1699  1.2353
 3388SOL     OW21625   0.886   3.468   1.115  0.2820 -0.3158  0.2191
 3388SOL    HW121626   0.851   3.382   1.092  0.8465 -0.0864 -1.4345
 3388SOL    HW221627   0.929   3.452   1.199 -2.0906  0.4912  1.6124
 3389SOL     OW21628   4.407   2.177   1.681  0.7146  0.0666  0.4524
 3389SOL    HW121629   4.371   2.122   1.750 -0.0694  0.2700  0.1967
 3389SOL    HW221630   4.348   2.253   1.682 -0.3835 -0.8201  2.2109
 3390SOL     OW21631   2.482   2.533   6.834 -0.4502 -0.3309  0.6413
 3390SOL    HW121632   2.459   2.584   6.756  0.8156  1.5713  1.5167
 3390SOL    HW221633   2.396   2.507   6.868 -1.2260  0.2284 -0.8800
 3391SOL     OW21634   0.365   1.749   7.892 -0.1823 -0.3237 -0.0073
 3391SOL    HW121635   0.317   1.683   7.943 -1.4664  2.0025  1.7946
 3391SOL    HW221636   0.454   1.719   7.911  0.8722  1.1950 -2.5656
 3392SOL     OW21637   1.805   2.352  12.308  0.9884 -0.1768  0.1759
 3392SOL    HW121638   1.750   2.350  12.386 -0.5234  2.0643 -0.8682
 3392SOL    HW221639   1.786   2.434  12.263 -1.3167  0.6059  2.5463
 3393SOL     OW21640   2.330   2.461   5.577  0.0645  0.4652  0.2987
 3393SOL    HW121641   2.267   2.453   5.649 -0.7962  1.0931 -0.3716
 3393SOL    HW221642   2.401   2.417   5.623  0.2259 -0.5714 -0.9504
 3394SOL     OW21643   0.326   3.155   2.563  0.2867  0.4068 -0.0245
 3394SOL    HW121644   0.407   3.151   2.614  0.3031 -0.2079 -0.1030
 3394SOL    HW221645   0.362   3.208   2.492  0.7808 -1.7743 -1.3993
 3395SOL     OW21646   3.609   2.415   2.689  0.2170 -0.0043  0.7694
 3395SOL    HW121647   3.671   2.363   2.741  0.9312 -0.4423 -0.5150
 3395SOL    HW221648   3.597   2.494   2.742 -1.0178 -2.4661  4.1532
 3396SOL     OW21649   2.909   2.133  12.174  0.3870 -0.0191  0.2185
 3396SOL    HW121650   2.993   2.090  12.158  0.4601  0.0539  0.4104
 3396SOL    HW221651   2.939   2.224  12.172  1.3619 -0.3539 -0.2726
 3397SOL     OW21652   0.949   3.234   4.020  0.1190  0.2038  0.6932
 3397SOL    HW121653   0.946   3.213   4.114  1.1486  2.3286  1.1916
 3397SOL    HW221654   0.869   3.280   3.997  0.6036  1.2882  1.1990
 3398SOL     OW21655   1.329   2.859   3.247  0.1891 -0.6480 -0.0293
 3398SOL    HW121656   1.281   2.941   3.237  3.6901  1.3870 -0.3039
 3398SOL    HW221657   1.361   2.866   3.337  0.9468 -0.9225 -0.2716
 3399SOL     OW21658   4.617   1.621   5.739 -0.2368  0.4741  0.3951
 3399SOL    HW121659   4.620   1.531   5.706  0.0026 -0.1874  2.2037
 3399SOL    HW221660   4.696   1.656   5.698 -0.0323  0.4270  0.7515
 3400SOL     OW21661   1.693   4.340   6.699  0.0846  0.2522  0.3623
 3400SOL    HW121662   1.655   4.422   6.669  0.6679 -0.1259 -1.4177
 3400SOL    HW221663   1.783   4.355   6.668 -0.5683  1.2123 -1.0316
 3401SOL     OW21664   2.637   2.743   3.193  0.1502 -0.0590 -0.1926
 3401SOL    HW121665   2.641   2.815   3.130  0.2281  0.1913  0.1023
 3401SOL    HW221666   2.722   2.706   3.170 -0.4220 -0.8337 -1.0702
 3402SOL     OW21667   3.655   2.941   2.878 -0.4013 -0.1327  0.2168
 3402SOL    HW121668   3.605   2.927   2.798  0.4973 -3.3144  0.1943
 3402SOL    HW221669   3.637   3.032   2.901 -0.4315 -0.7028  2.4285
 3403SOL     OW21670   0.315   3.015   8.552  0.0409  0.6579 -0.1377
 3403SOL    HW121671   0.284   2.924   8.552  1.0849  0.3111  0.5816
 3403SOL    HW221672   0.275   3.038   8.635  1.6171  0.4237  0.6779
 3404SOL     OW21673   2.169   1.167   5.992  0.7544 -0.5216 -0.4642
 3404SOL    HW121674   2.226   1.138   6.063 -0.4311 -3.3151 -0.6770
 3404SOL    HW221675   2.217   1.245   5.962 -0.0362  0.3124  0.4257
 3405SOL     OW21676   3.537   1.461  14.942 -0.0288 -0.8678 -0.5905
 3405SOL    HW121677   3.502   1.373  14.931 -0.8069 -0.4554 -1.4831
 3405SOL    HW221678   3.459   1.512  14.965  0.8295 -0.0182  0.4283
 3406SOL     OW21679   3.582   1.373   2.542 -0.3382 -0.0355 -0.1860
 3406SOL    HW121680   3.536   1.361   2.625  0.8057  0.2640  0.5012
 3406SOL    HW221681   3.538   1.306   2.491  1.3525  0.0472 -1.7487
 3407SOL     OW21682   0.496   0.197  16.020 -0.2652 -0.1651  0.0332
 3407SOL    HW121683   0.493   0.112  15.976  1.5798  1.0529 -2.3997
 3407SOL    HW221684   0.510   0.247  15.940 -1.7336  2.5292  1.4456
 3408SOL     OW21685   1.593   4.540  12.325 -0.4497 -0.0637  0.1356
 3408SOL    HW121686   1.684   4.546  12.354 -0.9549  1.9063  1.2914
 3408SOL    HW221687   1.545   4.522  12.406 -0.6695 -2.0291 -0.4234
 3409SOL     OW21688   2.289   0.509   3.974  0.6937 -0.3771 -0.0819
 3409SOL    HW121689   2.354   0.507   4.045  0.2513  0.9093  0.3543
 3409SOL    HW221690   2.257   0.419   3.968 -0.6034 -0.0955  2.7715
 3410SOL     OW21691   1.976   3.682   8.429 -0.1942  0.1602  0.2773
 3410SOL    HW121692   2.063   3.664   8.392 -0.8138 -0.4514 -0.8935
 3410SOL    HW221693   1.994   3.764   8.474 -1.8572 -0.5458  2.2016
 3411SOL     OW21694   2.784   3.441  17.313 -0.2442  0.6181 -0.0950
 3411SOL    HW121695   2.801   3.510  17.249 -0.4477  1.2029  0.4832
 3411SOL    HW221696   2.836   3.462  17.390  0.7792 -1.3893 -0.2299
 3412SOL     OW21697   0.807   3.030   0.121 -0.1408  0.1168  0.8928
 3412SOL    HW121698   0.800   2.942   0.082  1.2176  0.3231  0.2015
 3412SOL    HW221699   0.721   3.072   0.128  0.2321  0.8369  1.0504
 3413SOL     OW21700   3.048   0.430  11.435  0.2206 -0.3701 -0.0780
 3413SOL    HW121701   3.002   0.389  11.509 -2.9474  0.7804 -1.4201
 3413SOL    HW221702   3.060   0.514  11.480 -1.8022 -0.1167  0.0057
 3414SOL     OW21703   3.274   3.546  15.393 -0.4378  0.0453 -0.6621
 3414SOL    HW121704   3.206   3.595  15.439 -1.0253 -0.5733 -0.8692
 3414SOL    HW221705   3.219   3.501  15.329 -1.0929 -2.0665  1.3668
 3415SOL     OW21706   2.755   4.110  12.514 -0.0793 -0.4412 -0.6068
 3415SOL    HW121707   2.681   4.151  12.558 -0.9759 -4.7127  1.8994
 3415SOL    HW221708   2.714   4.060  12.443  1.3134  0.8105 -2.2929
 3416SOL     OW21709   0.263   4.661   7.233  0.3534 -0.1838 -0.4403
 3416SOL    HW121710   0.340   4.696   7.188  1.5704 -0.3799  1.4751
 3416SOL    HW221711   0.199   4.669   7.162 -0.4484 -1.4532  0.1579
 3417SOL     OW21712   0.373   3.174   6.161 -0.0295 -0.2954 -0.1819
 3417SOL    HW121713   0.335   3.258   6.187 -2.4059 -1.3073 -0.4480
 3417SOL    HW221714   0.296   3.118   6.170 -1.4651  1.4688 -1.5788
 3418SOL     OW21715   4.030   0.537   3.118 -0.0529 -0.3388  0.4978
 3418SOL    HW121716   4.092   0.469   3.093  0.0064  0.8149 -2.5316
 3418SOL    HW221717   3.990   0.499   3.196 -1.0344  2.0959  1.1899
 3419SOL     OW21718   4.034   1.915   2.620 -0.6208 -0.2106 -0.2285
 3419SOL    HW121719   4.090   1.989   2.641 -0.4805 -0.2176 -0.5687
 3419SOL    HW221720   4.104   1.850   2.611 -0.7010 -0.0789 -1.7833
 3420SOL     OW21721   2.405   2.989   0.579 -0.2057 -0.4436  0.1767
 3420SOL    HW121722   2.491   2.992   0.621  0.9451  3.2236 -2.4308
 3420SOL    HW221723   2.358   3.068   0.606 -2.2275 -2.0051  1.2884
 3421SOL     OW21724   1.980   0.512   8.540 -0.4596  0.6629 -0.3341
 3421SOL    HW121725   1.976   0.505   8.635  0.8246 -1.7429 -0.4582
 3421SOL    HW221726   2.027   0.436   8.505 -1.5349 -0.5599  0.8628
 3422SOL     OW21727   0.928   3.124  14.483  0.1109 -0.2720  0.0087
 3422SOL    HW121728   0.934   3.039  14.439 -0.5246 -0.6158  0.5930
 3422SOL    HW221729   0.892   3.181  14.414 -2.4110 -2.7559 -0.7310
 3423SOL     OW21730   1.548   0.535  11.290  0.5533  0.3283  0.0270
 3423SOL    HW121731   1.516   0.625  11.292 -3.3214 -1.0478 -0.5109
 3423SOL    HW221732   1.458   0.502  11.294  1.3544 -2.0315 -1.3333
 3424SOL     OW21733   2.245   2.667  13.431 -0.0940 -0.2935  0.0874
 3424SOL    HW121734   2.155   2.691  13.454  0.0669  0.7573 -0.3814
 3424SOL    HW221735   2.253   2.584  13.478  1.0792 -0.9429 -1.2738
 3425SOL     OW21736   2.483   4.080   4.207  1.0731  0.4751 -0.2086
 3425SOL    HW121737   2.475   4.160   4.260 -1.8083  0.8425 -1.2043
 3425SOL    HW221738   2.397   4.079   4.165  0.8826  1.0177  0.1599
 3426SOL     OW21739   0.293   3.652   9.090  0.1263 -0.4370 -0.3280
 3426SOL    HW121740   0.354   3.704   9.038  2.2866 -1.1060  1.5307
 3426SOL    HW221741   0.217   3.709   9.099  0.9500  0.7674 -1.0164
 3427SOL     OW21742   2.264   4.628  12.475  0.2382  0.0568  0.1051
 3427SOL    HW121743   2.235   4.623  12.566 -0.5763  1.7411 -0.0548
 3427SOL    HW221744   2.199   4.573  12.430  1.9097 -1.7302 -0.1120
 3428SOL     OW21745   2.658   0.800   7.187 -0.3387 -0.3706  0.1384
 3428SOL    HW121746   2.649   0.717   7.140  0.5921  0.0211 -0.7462
 3428SOL    HW221747   2.746   0.798   7.225 -0.0261  0.7252 -0.5234
 3429SOL     OW21748   3.715   2.822   5.673  0.1321 -0.0322  0.9083
 3429SOL    HW121749   3.635   2.772   5.689 -0.8136  1.1782  0.0565
 3429SOL    HW221750   3.688   2.905   5.712  0.6666  1.6063 -2.1997
 3430SOL     OW21751   0.685   2.285   3.706  0.2275  0.3312 -0.3761
 3430SOL    HW121752   0.715   2.197   3.729 -2.0622 -0.6881 -1.3597
 3430SOL    HW221753   0.590   2.275   3.705  0.2088  0.3578  1.1953
 3431SOL     OW21754   2.197   2.684   3.856  0.4581 -0.1266  0.1722
 3431SOL    HW121755   2.208   2.719   3.945 -2.3828 -0.2686  0.5665
 3431SOL    HW221756   2.155   2.765   3.826  1.2361  0.3171  0.2599
 3432SOL     OW21757   2.946   2.291   5.778 -0.7277  1.0539  0.1119
 3432SOL    HW121758   2.982   2.294   5.690  0.6719  3.1228  0.7775
 3432SOL    HW221759   2.913   2.201   5.777 -1.1887  1.2587 -1.9653
 3433SOL     OW21760   0.985   3.909   4.646  0.0469 -0.1969  0.2498
 3433SOL    HW121761   1.056   3.926   4.708 -2.0021 -0.0299  2.5864
 3433SOL    HW221762   1.009   3.824   4.608 -1.3742 -0.6364  0.3397
 3434SOL     OW21763   1.714   0.768   8.250 -0.2991  0.7965 -0.2579
 3434SOL    HW121764   1.649   0.743   8.184 -0.5518 -2.2119  1.1305
 3434SOL    HW221765   1.720   0.679   8.285 -3.4580  0.2857 -1.0705
 3435SOL     OW21766   1.847   1.876   3.039 -0.2094 -0.1218 -0.1611
 3435SOL    HW121767   1.868   1.939   2.971  0.0148 -0.5181 -0.4618
 3435SOL    HW221768   1.879   1.921   3.117  2.1366 -2.0535  0.0076
 3436SOL     OW21769   1.402   0.482   8.681 -0.6854 -0.1676  0.0586
 3436SOL    HW121770   1.398   0.395   8.642  1.2457 -0.1882 -0.1073
 3436SOL    HW221771   1.314   0.517   8.670 -0.3436  0.9182  0.7448
 3437SOL     OW21772   3.693   1.246   7.719 -0.1580  0.0143  0.0280
 3437SOL    HW121773   3.709   1.302   7.795  0.1024  2.1297 -1.6020
 3437SOL    HW221774   3.749   1.170   7.737 -1.0859 -0.6164  0.2573
 3438SOL     OW21775   0.979   2.491   8.156  1.1970  0.5363 -0.0353
 3438SOL    HW121776   1.040   2.508   8.228 -0.3593  0.3564  1.3416
 3438SOL    HW221777   0.941   2.576   8.133  0.6796 -0.1294 -1.5921
 3439SOL     OW21778   2.096   4.250   7.416  0.6010  0.2583 -0.0228
 3439SOL    HW121779   2.013   4.297   7.422  1.5458  1.8908  0.3979
 3439SOL    HW221780   2.151   4.286   7.485 -0.2548 -1.2658  1.4247
 3440SOL     OW21781   3.851   2.519  17.096 -0.1090  0.4202 -0.2208
 3440SOL    HW121782   3.813   2.591  17.146  0.6221  0.6063  0.0661
 3440SOL    HW221783   3.875   2.572  17.020 -1.2149 -1.0451 -1.5864
 3441SOL     OW21784   0.146   2.740   1.089 -0.6353 -0.8411 -0.5495
 3441SOL    HW121785   0.146   2.681   1.013 -0.0300 -1.8040  0.2028
 3441SOL    HW221786   0.052   2.757   1.103 -0.6306  1.7530 -3.5856
 3442SOL     OW21787   2.378   2.498   1.819  0.2260  0.4013  0.6461
 3442SOL    HW121788   2.428   2.498   1.737  0.2963 -2.8145  0.6995
 3442SOL    HW221789   2.404   2.415   1.858  0.3513 -0.9318 -2.2364
 3443SOL     OW21790   0.403   2.193  14.752  0.0419 -0.9067 -0.2200
 3443SOL    HW121791   0.407   2.255  14.679  1.6472  0.7882  1.2975
 3443SOL    HW221792   0.463   2.233  14.816  0.2533 -0.7453 -0.5215
 3444SOL     OW21793   0.019   1.139   5.892 -0.0196 -0.4926 -0.0555
 3444SOL    HW121794   4.667   1.186   5.932  0.6774  0.3181  0.2851
 3444SOL    HW221795   0.055   1.101   5.972 -2.5908  0.5536  1.6237
 3445SOL     OW21796   3.894   4.647   8.631  0.1652  0.0524 -0.3534
 3445SOL    HW121797   3.899   0.011   8.587 -4.7817  0.4154 -0.3061
 3445SOL    HW221798   3.825   4.599   8.586 -0.9164  0.3679  0.9562
 3446SOL     OW21799   3.214   4.695   1.106  0.3732  0.1943  0.4326
 3446SOL    HW121800   3.192   4.603   1.089  1.4671 -0.0334  0.2419
 3446SOL    HW221801   3.128   0.010   1.123  0.4558  0.8286 -0.4841
 3447SOL     OW21802   3.638   4.353   7.005 -0.0261 -0.3857  0.1711
 3447SOL    HW121803   3.550   4.315   7.011 -1.0550  2.0882  0.6985
 3447SOL    HW221804   3.687   4.286   7.054 -0.1256 -0.7776 -0.2650
 3448SOL     OW21805   1.509   2.072   6.462 -0.1332  0.0973  0.2610
 3448SOL    HW121806   1.441   2.004   6.457  0.7767 -0.9128  1.8863
 3448SOL    HW221807   1.548   2.075   6.374 -1.8798 -0.1646 -0.5372
 3449SOL     OW21808   2.704   3.645   2.315 -0.2889  0.6960  0.2117
 3449SOL    HW121809   2.616   3.681   2.301 -1.1109 -1.5363 -0.3405
 3449SOL    HW221810   2.728   3.646   2.222  2.0842 -0.7226  0.8274
 3450SOL     OW21811   3.469   0.742  11.626 -0.0171  0.0689  0.4099
 3450SOL    HW121812   3.459   0.814  11.688 -0.0988 -0.0625  0.5507
 3450SOL    HW221813   3.560   0.720  11.648 -0.3000 -0.4284  1.1217
 3451SOL     OW21814   0.028   1.514   8.117  0.3121  0.1009 -0.4654
 3451SOL    HW121815   4.669   1.545   8.074 -0.6775 -2.1912 -0.2711
 3451SOL    HW221816   4.721   1.447   8.179  1.9714 -0.6580 -0.5391
 3452SOL     OW21817   1.267   2.804   6.040  0.1490 -0.1753 -0.0443
 3452SOL    HW121818   1.242   2.712   6.038  0.6376 -0.3094 -0.0428
 3452SOL    HW221819   1.346   2.812   6.093 -0.8119  2.2448  1.0335
 3453SOL     OW21820   3.117   1.716   1.279  0.0226 -0.6243  0.2346
 3453SOL    HW121821   3.073   1.737   1.362  1.4969 -1.1363  1.1551
 3453SOL    HW221822   3.037   1.700   1.230  1.0087 -2.4812 -0.7726
 3454SOL     OW21823   0.489   2.726   7.845  0.5720 -0.3656 -0.4600
 3454SOL    HW121824   0.422   2.721   7.914  2.1387 -0.7620  1.0455
 3454SOL    HW221825   0.502   2.821   7.843 -1.9220  0.0040 -0.1150
 3455SOL     OW21826   4.080   2.424  13.231 -0.5212  0.3106 -0.2802
 3455SOL    HW121827   3.985   2.421  13.221 -0.4398 -2.9238 -0.1082
 3455SOL    HW221828   4.098   2.332  13.210 -3.2890 -0.2031 -0.3598
 3456SOL     OW21829   0.453   0.329   7.513  0.0463 -0.0874 -0.3406
 3456SOL    HW121830   0.376   0.272   7.505  0.4665 -0.4447 -1.9534
 3456SOL    HW221831   0.514   0.285   7.572  1.0937 -0.7669 -1.9103
 3457SOL     OW21832   2.121   3.720  17.422  0.2579 -0.0078  0.5883
 3457SOL    HW121833   2.056   3.649  17.424  3.0723 -2.6163 -0.5181
 3457SOL    HW221834   2.071   3.798  17.397 -1.9224 -1.0038  1.8842
 3458SOL     OW21835   1.334   3.835   2.866 -0.2032 -0.5617 -0.2819
 3458SOL    HW121836   1.395   3.762   2.870 -0.0146 -0.3935 -0.1161
 3458SOL    HW221837   1.288   3.805   2.787  0.5713  0.9713 -1.3182
 3459SOL     OW21838   1.906   2.391  11.218 -0.6989 -0.1235  0.3751
 3459SOL    HW121839   1.944   2.304  11.217 -0.6908 -0.1033 -0.7538
 3459SOL    HW221840   1.940   2.433  11.297 -0.1572 -0.6363  0.4176
 3460SOL     OW21841   1.466   3.810   3.992  0.4306  0.3541  0.4902
 3460SOL    HW121842   1.484   3.760   3.913  1.4194  1.0429  0.2689
 3460SOL    HW221843   1.387   3.776   4.033  0.8603 -1.8667 -0.5255
 3461SOL     OW21844   3.531   1.634   7.696  0.1688  0.2330  0.1809
 3461SOL    HW121845   3.500   1.693   7.628 -0.1531  0.7919  0.8008
 3461SOL    HW221846   3.469   1.562   7.694  2.6813 -1.9974  2.1502
 3462SOL     OW21847   0.184   2.633   8.353  0.3641 -0.2946  0.5370
 3462SOL    HW121848   0.203   2.650   8.260  2.6659 -0.0643  1.0387
 3462SOL    HW221849   0.091   2.613   8.342  0.3826 -0.0137 -0.1768
 3463SOL     OW21850   2.531   0.419  15.578  0.3643  0.0866 -0.1430
 3463SOL    HW121851   2.566   0.504  15.604 -2.7559  1.2120  0.4067
 3463SOL    HW221852   2.612   0.370  15.586  0.6266  0.3886 -0.9340
 3464SOL     OW21853   4.386   1.620  10.690  0.4573 -0.2523 -0.6392
 3464SOL    HW121854   4.434   1.651  10.614  0.5602  0.7615 -0.1568
 3464SOL    HW221855   4.303   1.588  10.654 -1.0593  1.1039  1.6423
 3465SOL     OW21856   3.945   0.026  10.992  0.3257  0.1467 -0.0642
 3465SOL    HW121857   4.000   0.096  10.954 -0.2945  1.2928  1.1451
 3465SOL    HW221858   3.986   0.036  11.078 -0.4026  0.0009  0.2960
 3466SOL     OW21859   3.268   3.570   5.826 -0.0287 -0.2632 -0.2585
 3466SOL    HW121860   3.219   3.514   5.887  1.5566  1.1911  2.3421
 3466SOL    HW221861   3.348   3.519   5.814  0.9583  1.6890 -1.9478
 3467SOL     OW21862   3.483   0.740   4.976  0.1382 -0.5886  0.3577
 3467SOL    HW121863   3.493   0.788   4.893 -0.8945  2.1855  1.8181
 3467SOL    HW221864   3.522   0.656   4.952  0.1478 -0.9303  1.5866
 3468SOL     OW21865   0.800   1.075   8.721 -0.3376  0.3783 -0.4734
 3468SOL    HW121866   0.723   1.126   8.697 -0.5017  0.6342  0.5901
 3468SOL    HW221867   0.787   1.072   8.816  2.5478 -2.5904 -0.1496
 3469SOL     OW21868   4.674   3.371  12.828  0.4059 -0.2048  0.7318
 3469SOL    HW121869   4.663   3.292  12.882  3.0213 -0.6052  0.6947
 3469SOL    HW221870   0.001   3.332  12.755 -0.8536  0.5863 -0.5169
 3470SOL     OW21871   1.738   3.129   7.160 -0.1456  0.2534 -0.1539
 3470SOL    HW121872   1.686   3.136   7.241 -0.2430 -0.3038 -0.1678
 3470SOL    HW221873   1.801   3.064   7.189  1.5399  1.6308 -0.7460
 3471SOL     OW21874   3.854   4.227  14.890 -0.1705 -0.5468 -0.3463
 3471SOL    HW121875   3.813   4.306  14.924  1.3707 -0.1912  0.6859
 3471SOL    HW221876   3.895   4.261  14.811  0.9503  1.6655  1.1798
 3472SOL     OW21877   2.311   2.637   0.782 -0.5033 -0.0370  0.3188
 3472SOL    HW121878   2.329   2.589   0.701  0.9103  0.6273  0.2418
 3472SOL    HW221879   2.387   2.604   0.831  0.7368 -1.2971 -2.4533
 3473SOL     OW21880   3.588   3.727   0.652 -0.0349  0.7056  1.1133
 3473SOL    HW121881   3.662   3.746   0.595 -0.4607 -0.3968  0.1924
 3473SOL    HW221882   3.623   3.662   0.713 -0.4638  0.5796  1.2290
 3474SOL     OW21883   1.252   2.210   5.362 -0.4599  0.0248 -0.6521
 3474SOL    HW121884   1.308   2.269   5.413 -1.3747 -1.6082  2.2551
 3474SOL    HW221885   1.179   2.268   5.340 -1.4878 -0.7790  0.6442
 3475SOL     OW21886   2.204   1.308   7.369 -0.4190 -0.1358 -0.6215
 3475SOL    HW121887   2.299   1.300   7.374 -0.2117  2.8852 -0.0377
 3475SOL    HW221888   2.197   1.402   7.382  0.3844 -0.2707  0.7662
 3476SOL     OW21889   1.002   4.170   1.111  0.5731  0.0683  0.2425
 3476SOL    HW121890   0.930   4.113   1.137  0.5479  0.3652  0.8410
 3476SOL    HW221891   1.044   4.194   1.194  1.6354  0.4963 -0.4234
 3477SOL     OW21892   2.475   1.475   6.305  0.1774  0.0621 -0.1830
 3477SOL    HW121893   2.491   1.534   6.379 -1.0736 -0.1001  0.2116
 3477SOL    HW221894   2.490   1.394   6.355  0.3437  0.3268  0.1944
 3478SOL     OW21895   1.488   4.117  13.580  0.5332  0.0845 -0.2990
 3478SOL    HW121896   1.543   4.086  13.508 -1.2258 -2.1124 -0.7349
 3478SOL    HW221897   1.444   4.196  13.549 -0.4815 -0.0421  0.8009
 3479SOL     OW21898   2.713   2.228   4.914  0.0331 -0.1521 -0.2163
 3479SOL    HW121899   2.751   2.272   4.990 -1.4434 -0.2428  0.5805
 3479SOL    HW221900   2.739   2.137   4.929  1.3226 -0.2982 -3.2492
 3480SOL     OW21901   3.151   3.145   8.861 -0.0329  0.1909 -0.2680
 3480SOL    HW121902   3.241   3.179   8.858  0.1355 -0.0659  1.5944
 3480SOL    HW221903   3.166   3.051   8.874  1.8690  0.6938  1.3325
 3481SOL     OW21904   3.947   3.655   2.498 -0.1554 -0.1887 -0.4847
 3481SOL    HW121905   4.040   3.631   2.498  0.6175  2.8198  3.4001
 3481SOL    HW221906   3.962   3.747   2.521 -0.5481 -0.1026 -0.5728
 3482SOL     OW21907   3.310   4.444   8.011 -0.3354 -0.4005 -0.0615
 3482SOL    HW121908   3.284   4.358   7.978  0.0036 -0.2890 -0.6194
 3482SOL    HW221909   3.260   4.432   8.092  1.3681  1.6600  1.2722
 3483SOL     OW21910   4.601   1.716   1.616  0.5075  0.1185  0.4059
 3483SOL    HW121911   4.660   1.643   1.598  2.7576  2.0418 -0.1321
 3483SOL    HW221912   4.551   1.732   1.536 -1.4998 -1.3775  1.3595
 3484SOL     OW21913   1.421   1.078   7.256  0.3011 -0.1444 -0.2070
 3484SOL    HW121914   1.326   1.075   7.245  0.1470  0.4716  0.9945
 3484SOL    HW221915   1.437   1.139   7.328  0.5618  0.2662 -0.6132
 3485SOL     OW21916   0.824   4.360   3.916  0.7654 -0.1908  0.0327
 3485SOL    HW121917   0.774   4.345   3.835 -0.6664  0.0494  0.8809
 3485SOL    HW221918   0.765   4.322   3.981  2.0583  0.5072  1.6013
 3486SOL     OW21919   2.346   1.070   4.104 -0.9749 -0.7228 -0.4426
 3486SOL    HW121920   2.392   0.991   4.076 -0.9978 -1.3093  1.1826
 3486SOL    HW221921   2.256   1.050   4.080 -0.5905 -1.3460 -1.3318
 3487SOL     OW21922   3.988   3.776   3.592  0.4886  0.0535 -0.6247
 3487SOL    HW121923   3.936   3.796   3.670  2.9322  1.6825  0.5525
 3487SOL    HW221924   3.921   3.800   3.527  0.0370 -0.1837 -0.2519
 3488SOL     OW21925   2.662   3.414   9.916 -0.3014  0.1815  0.4370
 3488SOL    HW121926   2.757   3.402   9.919 -0.3047  0.6659  2.6068
 3488SOL    HW221927   2.633   3.421  10.007 -0.1276  1.8892  0.3655
 3489SOL     OW21928   4.245   0.393   8.435  0.1320 -0.2338  0.4031
 3489SOL    HW121929   4.219   0.470   8.386  1.4343 -0.5138 -0.7295
 3489SOL    HW221930   4.333   0.413   8.468 -0.2551 -0.2474  1.4427
 3490SOL     OW21931   0.032   0.577  12.524 -0.0788  0.1768 -0.2136
 3490SOL    HW121932   0.108   0.557  12.469  0.7927  1.2538  0.5953
 3490SOL    HW221933   0.067   0.557  12.612  2.0159  0.9687 -0.8616
 3491SOL     OW21934   0.363   1.315   3.833  0.0773 -0.0789 -0.0556
 3491SOL    HW121935   0.442   1.296   3.883  0.0702  0.0437  0.0019
 3491SOL    HW221936   0.376   1.240   3.775  3.2066  2.6033 -2.8533
 3492SOL     OW21937   4.193   4.445   2.083  0.0779 -0.0551  0.2139
 3492SOL    HW121938   4.233   4.447   2.170  2.1698  1.0446 -0.7849
 3492SOL    HW221939   4.204   4.536   2.054 -0.0881  0.0297  0.4124
 3493SOL     OW21940   2.776   0.199   0.572  0.0044 -0.0761 -0.3708
 3493SOL    HW121941   2.709   0.150   0.620  0.9528 -2.1955 -1.2419
 3493SOL    HW221942   2.809   0.255   0.643 -0.1664  0.5091 -0.7528
 3494SOL     OW21943   1.295   3.181   2.419 -0.2524 -0.3578  0.0012
 3494SOL    HW121944   1.221   3.173   2.479  0.0732 -1.5392  0.2480
 3494SOL    HW221945   1.302   3.277   2.418  0.6613 -0.4398 -1.4311
 3495SOL     OW21946   3.827   4.283   0.687  0.0632  0.0087  0.7363
 3495SOL    HW121947   3.839   4.370   0.648  0.3083 -0.8315 -1.0971
 3495SOL    HW221948   3.887   4.234   0.630 -0.8865 -2.2453  1.6842
 3496SOL     OW21949   4.442   0.637   2.836 -0.4762  0.0810 -0.4284
 3496SOL    HW121950   4.389   0.706   2.874  1.9385  2.6941 -1.7856
 3496SOL    HW221951   4.425   0.631   2.742  0.0056 -0.5508 -0.4757
 3497SOL     OW21952   2.606   3.700  15.324  0.5508  0.5393 -0.1093
 3497SOL    HW121953   2.605   3.604  15.332 -1.2445  0.7887  2.8616
 3497SOL    HW221954   2.699   3.719  15.339  0.5689 -0.2486  0.8357
 3498SOL     OW21955   0.718   4.127   2.773 -0.1937  0.0262 -0.5251
 3498SOL    HW121956   0.699   4.043   2.731 -0.9962 -0.9090  1.7400
 3498SOL    HW221957   0.719   4.187   2.697  1.8801  2.7387  1.6177
 3499SOL     OW21958   3.058   2.481  15.053 -0.7818  0.1338 -0.1387
 3499SOL    HW121959   2.975   2.488  15.099 -0.4872  2.3697  0.0426
 3499SOL    HW221960   3.105   2.424  15.114  0.3562 -0.8928 -1.9793
 3500SOL     OW21961   4.358   0.688   4.451  0.4502 -0.9539 -0.0988
 3500SOL    HW121962   4.355   0.593   4.458 -1.3197 -0.9654 -1.0892
 3500SOL    HW221963   4.446   0.708   4.485  0.4995 -3.7222  1.4326
 3501SOL     OW21964   4.128   3.276   1.142  0.2415  0.0308 -0.2932
 3501SOL    HW121965   4.201   3.216   1.122 -1.0577  0.0215 -5.0770
 3501SOL    HW221966   4.056   3.215   1.125  1.3763 -1.0419 -1.3436
 3502SOL     OW21967   2.607   3.173  13.268 -0.2568 -0.3429 -0.2750
 3502SOL    HW121968   2.575   3.237  13.204 -0.6278  0.2957  0.5624
 3502SOL    HW221969   2.689   3.216  13.293 -0.5798  1.3723 -2.2156
 3503SOL     OW21970   3.686   1.527   2.794 -0.2941  0.3651  0.0565
 3503SOL    HW121971   3.633   1.447   2.802 -0.2836  0.4909  1.3995
 3503SOL    HW221972   3.738   1.525   2.874 -1.2228  3.1593  0.6972
 3504SOL     OW21973   0.723   0.967   3.318  0.1050  0.1031  0.0371
 3504SOL    HW121974   0.757   0.917   3.244  0.5908  0.3094  0.1169
 3504SOL    HW221975   0.630   0.978   3.298 -0.1373 -0.0762  1.0858
 3505SOL     OW21976   0.245   1.190   5.018 -0.1276  0.7388 -0.0094
 3505SOL    HW121977   0.164   1.211   4.971 -1.4139 -0.9365  1.4958
 3505SOL    HW221978   0.237   1.107   5.064  1.3532  1.5105  1.6197
 3506SOL     OW21979   2.634   1.478   7.446 -0.5428  0.1382  0.2816
 3506SOL    HW121980   2.592   1.406   7.399  0.5482 -0.2233 -0.1296
 3506SOL    HW221981   2.638   1.449   7.537  1.0022  0.3167  0.2634
 3507SOL     OW21982   2.846   3.374   2.423  0.4939 -0.3896  0.3297
 3507SOL    HW121983   2.894   3.292   2.437  2.4984 -0.0794 -4.7597
 3507SOL    HW221984   2.760   3.345   2.392  0.7703 -0.3678 -0.4584
 3508SOL     OW21985   3.262   3.326  13.614  0.2170  0.0228  0.6237
 3508SOL    HW121986   3.222   3.396  13.666 -1.3964  0.0447 -0.6302
 3508SOL    HW221987   3.353   3.356  13.613  0.0359  0.5433 -0.4097
 3509SOL     OW21988   0.781   1.569   5.773 -0.2914  0.2701 -0.0092
 3509SOL    HW121989   0.722   1.608   5.837 -3.5562  1.9460 -4.0509
 3509SOL    HW221990   0.758   1.477   5.781 -1.0172  0.6934  2.7929
 3510SOL     OW21991   0.375   0.518   1.582  0.1598 -0.1093 -0.0184
 3510SOL    HW121992   0.386   0.544   1.673  2.1738 -0.4205 -0.1574
 3510SOL    HW221993   0.371   0.602   1.536  0.4857  0.7422  1.5417
 3511SOL     OW21994   4.118   1.955   4.680 -0.2387  0.0895 -0.2040
 3511SOL    HW121995   4.047   1.891   4.690 -0.9276  1.3713  3.0386
 3511SOL    HW221996   4.137   1.971   4.772  2.6345  0.4574 -0.8473
 3512SOL     OW21997   1.953   1.888  17.335  0.9248  0.4305 -0.2202
 3512SOL    HW121998   1.937   1.825  17.265 -1.6230  1.3982 -0.4911
 3512SOL    HW221999   2.046   1.908  17.323  1.0759 -0.9499 -1.2870
 3513SOL     OW22000   1.509   2.354   6.482  0.0140  0.1476  0.3264
 3513SOL    HW122001   1.583   2.374   6.539 -1.0655 -0.0705  1.7867
 3513SOL    HW222002   1.524   2.271   6.436 -2.7941  0.7492 -1.6631
 3514SOL     OW22003   3.129   3.204   8.284  0.0255  0.6393 -0.4714
 3514SOL    HW122004   3.160   3.162   8.204 -0.4732 -1.4739  0.4353
 3514SOL    HW222005   3.042   3.164   8.293  0.5639  0.0434  1.8650
 3515SOL     OW22006   2.743   2.404   2.055  0.1548  0.1886  0.4318
 3515SOL    HW122007   2.770   2.483   2.008 -1.4490 -0.0491 -0.8646
 3515SOL    HW222008   2.756   2.343   1.983  1.2254  1.9373 -0.8481
 3516SOL     OW22009   4.659   3.482  16.393  0.8769 -0.3053  0.1155
 3516SOL    HW122010   0.007   3.519  16.338  0.5504  0.7713  0.4281
 3516SOL    HW222011   4.635   3.401  16.348 -1.1278  1.4804 -2.0066
 3517SOL     OW22012   1.647   1.640   2.688  0.5909 -0.3909  0.0607
 3517SOL    HW122013   1.593   1.677   2.758 -1.6680  2.0791 -2.9641
 3517SOL    HW222014   1.598   1.576   2.636  1.9463 -0.3915 -1.2413
 3518SOL     OW22015   2.683   0.645  17.664 -0.1524  0.6873 -0.2441
 3518SOL    HW122016   2.624   0.620  17.593 -2.6753 -0.6201  2.3045
 3518SOL    HW222017   2.765   0.645  17.614  0.6961  2.5959  1.1419
 3519SOL     OW22018   2.676   0.061  15.702 -0.5030 -0.4050 -0.1484
 3519SOL    HW122019   2.765   0.054  15.738  0.0019 -0.6325 -1.4398
 3519SOL    HW222020   2.680   0.136  15.643  1.0933  0.0977  0.6105
 3520SOL     OW22021   1.203   3.362  17.188 -0.2560  0.3029  0.5419
 3520SOL    HW122022   1.209   3.434  17.125 -1.4131 -0.1704 -0.1039
 3520SOL    HW222023   1.132   3.392  17.244 -2.1242 -1.9883 -0.6097
 3521SOL     OW22024   4.380   2.464   7.097 -0.2615 -0.3383  1.2883
 3521SOL    HW122025   4.467   2.467   7.137  0.7339 -0.1833 -0.8746
 3521SOL    HW222026   4.348   2.386   7.142  0.8592 -1.5195  0.0014
 3522SOL     OW22027   3.371   2.536   8.102 -0.1489 -0.1004  0.3640
 3522SOL    HW122028   3.376   2.477   8.178  1.3991 -0.6355 -0.1592
 3522SOL    HW222029   3.464   2.550   8.086 -0.5793  1.2683 -0.9057
 3523SOL     OW22030   1.727   4.689  11.255 -0.2659  0.2171  0.9653
 3523SOL    HW122031   1.749   0.054  11.291  0.0867 -0.0348  1.3564
 3523SOL    HW222032   1.673   4.719  11.182  1.0985  1.0118  0.2871
 3524SOL     OW22033   1.995   2.172   9.413  0.2173 -0.1184 -0.1379
 3524SOL    HW122034   1.940   2.135   9.482  0.4873 -0.1084  0.0828
 3524SOL    HW222035   2.077   2.123   9.412  0.7645  0.7943  0.0906
 3525SOL     OW22036   1.480   2.336  10.868 -0.2036  0.4113  0.2709
 3525SOL    HW122037   1.454   2.288  10.789  0.8324  0.2723  0.0178
 3525SOL    HW222038   1.456   2.269  10.932 -1.2100  1.8401  1.3899
 3526SOL     OW22039   1.734   3.992   0.042  0.4808 -0.2847 -0.3965
 3526SOL    HW122040   1.681   4.010   0.119  2.1562  2.9120 -0.0290
 3526SOL    HW222041   1.825   3.983   0.071  0.0530 -1.7918  0.4831
 3527SOL     OW22042   2.377   0.697   0.517  0.1098 -0.0194  0.3393
 3527SOL    HW122043   2.457   0.651   0.492  0.7580  0.3772  1.6587
 3527SOL    HW222044   2.318   0.622   0.528 -1.1337  0.8699 -0.2465
 3528SOL     OW22045   4.487   1.195   8.580 -0.3586  0.3508  0.0076
 3528SOL    HW122046   4.507   1.258   8.648  2.2105 -0.5921  0.1213
 3528SOL    HW222047   4.503   1.261   8.513 -0.0374 -0.6277 -0.8833
 3529SOL     OW22048   4.414   3.069   1.076 -0.2039 -0.2386  0.3102
 3529SOL    HW122049   4.356   3.048   1.150 -3.5448  1.5184 -1.7877
 3529SOL    HW222050   4.356   3.060   1.000  0.9721 -0.1863 -0.5821
 3530SOL     OW22051   4.584   2.597   4.945 -0.0002  0.2521 -0.2322
 3530SOL    HW122052   4.549   2.654   4.876 -0.7945  0.9175  0.7316
 3530SOL    HW222053   4.537   2.517   4.921  2.0036 -1.4994  1.6651
 3531SOL     OW22054   2.465   3.391  16.441 -0.0683 -0.6327  0.3921
 3531SOL    HW122055   2.460   3.348  16.527  0.8537  0.0042  0.7627
 3531SOL    HW222056   2.552   3.429  16.443 -0.7655  1.0134 -1.6099
 3532SOL     OW22057   0.623   3.713   3.633 -0.0102  0.2942 -0.3273
 3532SOL    HW122058   0.610   3.619   3.618 -0.8597 -0.2430  3.6646
 3532SOL    HW222059   0.715   3.722   3.610 -0.8957  0.9628 -3.4962
 3533SOL     OW22060   3.030   0.486   2.266 -0.5410  0.4693  0.9472
 3533SOL    HW122061   2.956   0.547   2.262 -1.6916 -1.0033 -0.0861
 3533SOL    HW222062   3.086   0.535   2.327 -0.2822  2.4222 -0.8546
 3534SOL     OW22063   3.267   0.204  11.699  0.1681  0.3250  0.7412
 3534SOL    HW122064   3.360   0.183  11.706  0.0757 -0.0342  0.8985
 3534SOL    HW222065   3.265   0.236  11.609  2.3061  2.3640  1.4175
 3535SOL     OW22066   1.790   0.571   0.676 -0.5855  0.4447  0.3393
 3535SOL    HW122067   1.750   0.658   0.687 -1.3191  0.1529 -0.0571
 3535SOL    HW222068   1.778   0.530   0.762 -0.5070  0.1072  0.1864
 3536SOL     OW22069   3.276   2.273   4.883  0.6083  0.5541  0.2996
 3536SOL    HW122070   3.213   2.345   4.871  2.0691  1.3114 -3.0815
 3536SOL    HW222071   3.302   2.253   4.793  1.9718  0.8648  0.6214
 3537SOL     OW22072   2.962   1.766  17.392 -0.3324 -0.1261 -0.5617
 3537SOL    HW122073   3.013   1.844  17.369  0.8565 -1.0043 -0.8684
 3537SOL    HW222074   2.916   1.799  17.470  2.6104  0.4098  0.9421
 3538SOL     OW22075   1.631   1.666   3.463 -0.0180 -0.6079  0.2462
 3538SOL    HW122076   1.607   1.631   3.377  1.5582  1.2281 -0.9578
 3538SOL    HW222077   1.658   1.585   3.504  1.2251 -1.1332 -1.5965
 3539SOL     OW22078   0.118   0.614   7.148 -0.4131  0.1486 -0.1758
 3539SOL    HW122079   0.156   0.645   7.230  2.3395  0.1514 -1.4654
 3539SOL    HW222080   0.189   0.567   7.103 -1.4712 -1.1121 -0.5336
 3540SOL     OW22081   0.617   3.440   3.537 -0.3200  0.1220  0.0710
 3540SOL    HW122082   0.589   3.468   3.450 -1.3911 -0.7198  0.1322
 3540SOL    HW222083   0.620   3.345   3.526 -2.4554  0.1924 -1.1633
 3541SOL     OW22084   0.412   1.358  15.286 -0.0482 -0.6950  0.1321
 3541SOL    HW122085   0.489   1.414  15.286 -1.5711  1.4028  0.7399
 3541SOL    HW222086   0.449   1.270  15.289 -0.1574 -0.7609 -0.3499
 3542SOL     OW22087   2.954   3.795   5.550 -0.0125 -0.0129  0.0854
 3542SOL    HW122088   2.926   3.839   5.631 -0.0288  1.1536 -0.5500
 3542SOL    HW222089   3.048   3.787   5.565  0.0912 -2.1625 -1.7234
 3543SOL     OW22090   3.375   3.015   2.054  0.3645 -0.8602  0.0266
 3543SOL    HW122091   3.320   3.076   2.104 -0.0198 -1.2294  0.0585
 3543SOL    HW222092   3.446   3.071   2.025  1.6900 -2.0195  1.0208
 3544SOL     OW22093   0.922   2.967   6.962 -0.1620  0.4242  0.4444
 3544SOL    HW122094   0.834   2.943   6.993 -0.0282 -0.1018  0.4167
 3544SOL    HW222095   0.942   3.032   7.030  2.4967  0.2812 -0.2096
 3545SOL     OW22096   1.869   3.704   1.314 -0.1656  0.4931  0.0015
 3545SOL    HW122097   1.938   3.704   1.381 -0.8435  2.3477  0.7038
 3545SOL    HW222098   1.840   3.792   1.336 -2.9264 -0.7193  1.2561
 3546SOL     OW22099   4.051   1.165   0.524 -0.1265 -0.1056  0.0515
 3546SOL    HW122100   3.990   1.229   0.486 -1.7043 -1.6796 -0.1037
 3546SOL    HW222101   4.001   1.084   0.514  0.6018 -0.5039 -0.4328
 3547SOL     OW22102   0.030   2.004  10.171  0.5730 -0.2231 -0.6169
 3547SOL    HW122103   0.115   2.004  10.216 -1.0932 -0.1917  2.5689
 3547SOL    HW222104   4.692   1.990  10.245  1.0894 -0.4493 -0.2411
 3548SOL     OW22105   3.377   2.807  11.438 -0.0897  0.4892 -0.0385
 3548SOL    HW122106   3.350   2.829  11.349  0.0881  0.6025 -0.0636
 3548SOL    HW222107   3.350   2.716  11.451 -1.2260  0.7958 -0.2730
 3549SOL     OW22108   2.321   1.206  15.330 -0.1987 -0.6710  0.0904
 3549SOL    HW122109   2.362   1.185  15.247  1.0817  0.1724  0.5108
 3549SOL    HW222110   2.232   1.173  15.315  0.2292 -1.6001 -0.3645
 3550SOL     OW22111   1.503   3.944   2.077  0.2602  0.7504 -0.2895
 3550SOL    HW122112   1.414   3.951   2.043  0.4696 -0.1602 -1.0131
 3550SOL    HW222113   1.496   3.930   2.172 -1.3160 -0.4080 -0.5814
 3551SOL     OW22114   1.106   0.432   4.820  0.3439  0.4064  0.2348
 3551SOL    HW122115   1.121   0.354   4.767  0.2736  0.2785  0.4023
 3551SOL    HW222116   1.021   0.448   4.779 -0.2238  0.5904  1.4806
 3552SOL     OW22117   4.265   2.483   9.309  0.0951 -0.9264 -0.1268
 3552SOL    HW122118   4.234   2.530   9.386  1.0410 -3.1925  1.6059
 3552SOL    HW222119   4.178   2.455   9.279 -0.0973  0.8763 -1.3070
 3553SOL     OW22120   3.207   1.915  14.516 -0.3265  0.2370 -0.5109
 3553SOL    HW122121   3.270   1.930  14.587  0.1158  0.7524 -1.0066
 3553SOL    HW222122   3.242   1.832  14.484 -0.1372 -1.0067  2.9230
 3554SOL     OW22123   3.761   0.533   4.217  0.7130  0.3339 -0.3517
 3554SOL    HW122124   3.726   0.588   4.147  0.2209 -0.3063 -0.6231
 3554SOL    HW222125   3.830   0.490   4.167  1.9768  1.7435  0.2217
 3555SOL     OW22126   2.592   1.903   5.307  0.4880  0.2224  0.2865
 3555SOL    HW122127   2.532   1.977   5.318 -0.2190 -0.1962 -0.7882
 3555SOL    HW222128   2.598   1.893   5.212  0.5025  1.5118  0.1477
 3556SOL     OW22129   3.641   0.594   0.766 -0.0746  0.4969 -0.1511
 3556SOL    HW122130   3.720   0.605   0.819  0.0679 -3.0244  0.3654
 3556SOL    HW222131   3.578   0.597   0.838  1.0262 -1.7633  0.8965
 3557SOL     OW22132   2.978   0.781   6.455  0.3006 -1.1072  0.0233
 3557SOL    HW122133   2.907   0.725   6.424 -0.4669 -0.1848  0.1270
 3557SOL    HW222134   3.015   0.739   6.533  0.8682  0.2484  0.4725
 3558SOL     OW22135   0.398   2.796   6.927 -0.1408  0.2783 -0.2901
 3558SOL    HW122136   0.327   2.849   6.962  0.3637  1.0514 -0.4491
 3558SOL    HW222137   0.353   2.715   6.901  0.5447  0.1473 -1.0765
 3559SOL     OW22138   1.336   1.925  11.992 -0.6591 -0.2933  0.0265
 3559SOL    HW122139   1.298   1.987  11.930 -0.7154 -1.3069 -0.9495
 3559SOL    HW222140   1.258   1.882  12.025  0.9403 -2.1684  1.3698
 3560SOL     OW22141   3.638   2.800   9.200 -0.0304  0.5400 -0.3685
 3560SOL    HW122142   3.594   2.715   9.202 -1.5574  1.3626  1.6823
 3560SOL    HW222143   3.581   2.840   9.266  0.3405 -0.4768  0.5602
 3561SOL     OW22144   3.997   3.660  12.288 -0.2722 -0.0368 -0.0799
 3561SOL    HW122145   4.007   3.567  12.271 -0.0393  0.1063 -0.7115
 3561SOL    HW222146   4.015   3.691  12.199  0.9726  0.6588  0.4235
 3562SOL     OW22147   1.701   0.407   2.850  0.1099  0.5747 -0.0666
 3562SOL    HW122148   1.730   0.320   2.876  1.6430  1.2596  0.4945
 3562SOL    HW222149   1.626   0.373   2.801 -0.2577  0.3247  0.6770
 3563SOL     OW22150   2.019   4.067  17.119  0.1940  0.1342  0.9106
 3563SOL    HW122151   2.006   4.115  17.037 -0.6370 -3.1392 -0.8782
 3563SOL    HW222152   2.013   3.980  17.080  1.5830  0.8864 -1.0195
 3564SOL     OW22153   3.063   0.299  13.360  0.0485  0.9034  0.1824
 3564SOL    HW122154   3.068   0.259  13.447 -1.0672  0.1072 -0.1322
 3564SOL    HW222155   3.116   0.234  13.313  1.4524  0.9280  1.7083
 3565SOL     OW22156   0.518   0.060   4.874  0.0234 -0.2823  0.4616
 3565SOL    HW122157   0.591   0.003   4.896  0.9566  0.7424  0.0302
 3565SOL    HW222158   0.495   0.109   4.953  2.1133 -1.2212  1.6300
 3566SOL     OW22159   4.350   1.100  14.234 -0.3497 -0.2155 -0.3345
 3566SOL    HW122160   4.421   1.103  14.298  0.2453 -2.2278 -0.8853
 3566SOL    HW222161   4.315   1.013  14.255  0.8679 -0.4552  0.6431
 3567SOL     OW22162   3.126   2.476   6.422  0.1049  0.6698 -0.0391
 3567SOL    HW122163   3.041   2.486   6.465 -1.3887 -1.4256 -2.5045
 3567SOL    HW222164   3.186   2.497   6.494  1.5646 -1.4480 -0.6356
 3568SOL     OW22165   1.051   3.594   0.901  0.0353 -0.5436 -0.2028
 3568SOL    HW122166   0.987   3.559   0.963  2.6971 -1.4583  2.0778
 3568SOL    HW222167   1.099   3.513   0.890 -0.7134 -1.0249  0.0853
 3569SOL     OW22168   0.073   3.550   4.728  0.0708 -0.1077  0.4178
 3569SOL    HW122169   0.086   3.493   4.652  0.9369  0.8769 -0.1684
 3569SOL    HW222170   0.040   3.631   4.691  0.8970  0.6640  1.3623
 3570SOL     OW22171   3.029   1.483   5.503  0.0209  0.4179  1.4275
 3570SOL    HW122172   3.012   1.553   5.567  0.5267 -0.9818  3.0821
 3570SOL    HW222173   2.975   1.512   5.430 -0.1846 -0.0207  1.4086
 3571SOL     OW22174   1.835   0.631   7.783 -0.2974 -0.3973  0.6422
 3571SOL    HW122175   1.862   0.703   7.725 -0.3859 -1.2265 -0.4290
 3571SOL    HW222176   1.744   0.613   7.761  0.3061 -0.5379 -1.7340
 3572SOL     OW22177   2.056   2.451  13.842 -0.1692 -0.3750  0.2488
 3572SOL    HW122178   2.096   2.426  13.925 -1.4117 -1.1848  0.6026
 3572SOL    HW222179   2.126   2.507  13.808 -0.6457  0.0718  0.0109
 3573SOL     OW22180   1.121   3.641   7.220 -0.0097  0.2559  0.0135
 3573SOL    HW122181   1.040   3.596   7.242 -1.3525  2.5483 -0.2522
 3573SOL    HW222182   1.163   3.578   7.161 -1.3385 -2.6069  2.1339
 3574SOL     OW22183   0.191   4.548   3.044 -0.4564 -0.0355  0.2422
 3574SOL    HW122184   0.145   4.547   3.128  0.2804  2.7216  0.6924
 3574SOL    HW222185   0.256   4.483   3.070  0.8049  0.6450 -1.2563
 3575SOL     OW22186   2.276   2.990   1.710 -0.1187  0.4428 -0.4203
 3575SOL    HW122187   2.313   3.015   1.794  2.0622  0.5251 -1.3965
 3575SOL    HW222188   2.338   2.921   1.687 -2.8450 -2.3295  0.4423
 3576SOL     OW22189   1.473   2.087   5.845 -0.1314 -0.2756  0.5311
 3576SOL    HW122190   1.420   2.162   5.873 -0.3184 -0.6479  1.1673
 3576SOL    HW222191   1.484   2.115   5.754 -1.9442  1.3003  0.7771
 3577SOL     OW22192   2.226   3.890   5.606 -0.3314 -0.6040  0.1828
 3577SOL    HW122193   2.289   3.836   5.558 -1.4024 -2.1760  0.5651
 3577SOL    HW222194   2.284   3.965   5.618 -1.5731  0.4671 -0.4740
 3578SOL     OW22195   0.761   2.981   2.122  0.1412  0.0233  0.4226
 3578SOL    HW122196   0.801   3.048   2.067 -0.8999  0.0103 -0.3507
 3578SOL    HW222197   0.727   3.037   2.191  2.6628  1.5962  0.3985
 3579SOL     OW22198   1.156   3.188   3.860 -0.3665 -0.6797  0.0781
 3579SOL    HW122199   1.103   3.162   3.785 -0.1907 -0.8919  0.0283
 3579SOL    HW222200   1.085   3.205   3.922  0.8524 -0.9627  1.5756
 3580SOL     OW22201   4.568   2.665   4.056  0.6680  0.6665  0.3148
 3580SOL    HW122202   4.646   2.719   4.046  0.3438  1.1844  0.5961
 3580SOL    HW222203   4.611   2.581   4.040 -1.0023 -0.5301  2.1252
 3581SOL     OW22204   2.076   0.321   3.210  0.6620  0.5141 -0.3570
 3581SOL    HW122205   1.999   0.333   3.155 -0.1464  0.9550  0.8636
 3581SOL    HW222206   2.134   0.310   3.135 -1.0185  0.7612 -1.6592
 3582SOL     OW22207   3.105   0.774  17.363 -0.4565 -0.7590 -0.6745
 3582SOL    HW122208   3.197   0.750  17.363 -0.0810  0.6430  0.7665
 3582SOL    HW222209   3.097   0.860  17.323 -2.0001 -0.2590  0.6939
 3583SOL     OW22210   0.832   3.553   4.259  0.0729  0.1015  0.4060
 3583SOL    HW122211   0.835   3.576   4.167 -1.7272  1.3414  0.6494
 3583SOL    HW222212   0.749   3.582   4.298  0.1930 -0.5445  1.1472
 3584SOL     OW22213   2.786   3.192   9.614  0.2449  0.5053  0.0880
 3584SOL    HW122214   2.702   3.236   9.632  0.3662  0.9883 -0.5191
 3584SOL    HW222215   2.776   3.185   9.519 -2.6138 -1.1055  0.5231
 3585SOL     OW22216   2.243   1.772  10.567 -0.4406 -0.0978  0.6785
 3585SOL    HW122217   2.196   1.695  10.534 -1.6788  1.5693 -1.4581
 3585SOL    HW222218   2.223   1.771  10.661 -1.0982 -0.3057  0.5335
 3586SOL     OW22219   3.738   1.725   1.006  0.3937 -0.1960 -0.3780
 3586SOL    HW122220   3.745   1.820   1.006  0.2103 -0.1831  0.2906
 3586SOL    HW222221   3.716   1.717   1.098 -1.0631 -0.2202 -0.7372
 3587SOL     OW22222   3.680   2.892  15.992  0.1331  0.2833 -0.3340
 3587SOL    HW122223   3.751   2.894  15.928  0.0630 -0.0380 -0.4230
 3587SOL    HW222224   3.617   2.825  15.965 -1.6106  1.1045  1.7403
 3588SOL     OW22225   2.220   1.527   4.442  0.4478 -0.3673  0.4035
 3588SOL    HW122226   2.176   1.584   4.378  1.7507  0.2577  0.0618
 3588SOL    HW222227   2.163   1.450   4.450 -0.9871  0.5318 -0.9134
 3589SOL     OW22228   2.783   1.590   7.250 -0.2456 -0.3451 -0.2141
 3589SOL    HW122229   2.742   1.533   7.315  0.1027 -0.6344 -0.2422
 3589SOL    HW222230   2.861   1.543   7.219 -0.6469 -1.8682  1.1110
 3590SOL     OW22231   2.011   2.998   2.259 -0.4152  0.4729  0.6050
 3590SOL    HW122232   2.073   2.938   2.300  1.0566  0.5860 -1.4966
 3590SOL    HW222233   2.070   3.071   2.240  0.3707 -0.3728 -0.2100
 3591SOL     OW22234   4.109   2.299  11.559  0.2865  0.4853 -0.1214
 3591SOL    HW122235   4.096   2.362  11.487  2.4465  2.7690  1.4794
 3591SOL    HW222236   4.098   2.358  11.633  1.8614 -1.9523  2.0466
 3592SOL     OW22237   3.509   3.426   2.359 -0.0780 -0.2253 -0.2299
 3592SOL    HW122238   3.436   3.425   2.421  0.6639  1.2754  0.6643
 3592SOL    HW222239   3.507   3.337   2.324 -0.4346 -0.6804  0.9513
 3593SOL     OW22240   1.173   3.769  10.339  0.2554 -0.4178 -0.7454
 3593SOL    HW122241   1.078   3.758  10.346  0.5535 -1.4137  1.7690
 3593SOL    HW222242   1.193   3.799  10.428 -3.0893 -1.0616  0.2345
 3594SOL     OW22243   0.351   2.522  14.321  0.9232  0.0531 -0.2806
 3594SOL    HW122244   0.439   2.560  14.326  0.3983  1.1192  1.0521
 3594SOL    HW222245   0.292   2.581  14.369  0.2246 -0.3806 -0.6200
 3595SOL     OW22246   0.256   3.785   3.392 -0.2457 -0.1988  0.0469
 3595SOL    HW122247   0.201   3.863   3.396  0.0446  0.0076 -0.0066
 3595SOL    HW222248   0.219   3.730   3.323 -2.6178  2.8026 -1.0450
 3596SOL     OW22249   3.412   1.734   7.114  0.2390 -0.4241 -0.0537
 3596SOL    HW122250   3.323   1.721   7.149  0.7232  0.1071  1.3810
 3596SOL    HW222251   3.409   1.828   7.130 -3.5337 -0.6836  0.8570
 3597SOL     OW22252   3.072   2.648   6.147 -0.2898 -0.1233  0.4149
 3597SOL    HW122253   3.084   2.591   6.222 -2.3610 -2.3574 -0.9845
 3597SOL    HW222254   3.091   2.737   6.179 -2.8844  0.6324 -0.1117
 3598SOL     OW22255   2.302   3.142   2.212 -0.3078  0.1741 -0.2372
 3598SOL    HW122256   2.380   3.103   2.250 -2.1308  0.4003  3.7598
 3598SOL    HW222257   2.254   3.179   2.287 -2.7211  0.6656 -2.0147
 3599SOL     OW22258   1.656   3.634  10.354 -0.4547 -0.0313 -0.7719
 3599SOL    HW122259   1.661   3.703  10.287 -2.3018 -0.0748 -0.9750
 3599SOL    HW222260   1.609   3.685  10.420  1.4850  1.5210 -0.6103
 3600SOL     OW22261   1.016   0.936   6.903  0.3334  0.1243 -0.5519
 3600SOL    HW122262   0.921   0.930   6.898  0.1987  1.9991 -0.2118
 3600SOL    HW222263   1.024   0.841   6.916 -1.3718  0.0357 -0.1803
 3601SOL     OW22264   2.915   1.118  13.883 -0.6362  0.3200  0.6588
 3601SOL    HW122265   2.895   1.134  13.791 -0.4367  0.9777  0.7318
 3601SOL    HW222266   2.828   1.127  13.923 -0.3658  1.5439  0.9690
 3602SOL     OW22267   3.422   2.080   5.028  0.4957  0.0727 -0.2115
 3602SOL    HW122268   3.390   1.995   5.060  1.3744 -0.3549 -0.4567
 3602SOL    HW222269   3.347   2.132   5.000  0.6477  1.1439  1.4014
 3603SOL     OW22270   3.154   0.207   7.085 -0.2497  0.0830  0.2643
 3603SOL    HW122271   3.102   0.262   7.026 -1.3930 -1.4049 -0.1301
 3603SOL    HW222272   3.156   0.121   7.043  0.1270 -0.7015  1.8820
 3604SOL     OW22273   3.127   0.539   1.987 -0.0964 -0.6445 -0.3217
 3604SOL    HW122274   3.138   0.544   2.082 -0.3114  2.7109 -0.4685
 3604SOL    HW222275   3.049   0.487   1.970 -1.6817  1.6243  0.0435
 3605SOL     OW22276   3.449   3.514  13.613  0.2133 -0.0038  0.1061
 3605SOL    HW122277   3.442   3.578  13.542 -1.1158  3.4625  3.3520
 3605SOL    HW222278   3.532   3.545  13.649 -0.3925  0.4109  1.1300
 3606SOL     OW22279   0.974   3.547  10.428 -0.6379 -0.0885 -0.3657
 3606SOL    HW122280   0.906   3.608  10.458 -0.2528  0.1750 -0.0375
 3606SOL    HW222281   1.011   3.530  10.514 -0.4017 -0.0158 -0.4527
 3607SOL     OW22282   0.578   3.915  15.481  0.1334 -0.0222  0.2889
 3607SOL    HW122283   0.604   3.979  15.546 -0.1430 -0.8480  1.2159
 3607SOL    HW222284   0.612   3.832  15.516 -0.7794 -0.5291 -0.0129
 3608SOL     OW22285   3.808   1.039   5.054  0.2920 -0.2394  0.1910
 3608SOL    HW122286   3.853   0.974   5.001  1.3693  0.0196  0.7851
 3608SOL    HW222287   3.731   0.994   5.088  1.0147 -1.4365  0.2287
 3609SOL     OW22288   0.100   1.798  16.832  0.4188 -0.0541 -0.5662
 3609SOL    HW122289   0.110   1.743  16.910 -0.6921  0.0991 -0.3104
 3609SOL    HW222290   0.068   1.880  16.870 -0.2527 -0.8646  0.6194
 3610SOL     OW22291   3.698   2.254   4.274  0.5114  0.5606  0.3043
 3610SOL    HW122292   3.626   2.192   4.285  0.7162  0.2873  0.1211
 3610SOL    HW222293   3.755   2.203   4.216  0.5036  0.6986  0.1756
 3611SOL     OW22294   3.405   0.535   1.874 -0.1819 -0.7217  0.2026
 3611SOL    HW122295   3.358   0.616   1.894 -0.2222 -0.5402 -0.6472
 3611SOL    HW222296   3.344   0.490   1.815 -0.0103  0.2629 -0.7247
 3612SOL     OW22297   3.422   1.512   4.864 -0.2467  0.0339 -0.2606
 3612SOL    HW122298   3.399   1.489   4.774  2.2638  0.2494 -0.9400
 3612SOL    HW222299   3.367   1.590   4.872 -0.3122  0.1556 -1.8649
 3613SOL     OW22300   2.065   3.344   7.032  0.3772 -0.1751 -0.0381
 3613SOL    HW122301   2.002   3.286   6.989  1.5435 -0.4470 -1.3635
 3613SOL    HW222302   2.019   3.426   7.015  1.8187  0.4964 -0.7124
 3614SOL     OW22303   0.683   0.159  10.717 -0.2840  0.1257  0.0911
 3614SOL    HW122304   0.705   0.137  10.627 -1.8614  0.8994 -0.4886
 3614SOL    HW222305   0.760   0.204  10.752 -0.7562  0.2909  0.9270
 3615SOL     OW22306   2.696   1.829   3.322  0.0190 -0.6933 -0.2152
 3615SOL    HW122307   2.761   1.766   3.292 -0.3239 -0.3926 -1.5940
 3615SOL    HW222308   2.750   1.909   3.318 -2.1790  0.7261 -1.4684
 3616SOL     OW22309   3.065   1.013  15.446 -0.2748  0.2865 -0.1245
 3616SOL    HW122310   3.096   0.966  15.368  1.2552  0.5971  0.2905
 3616SOL    HW222311   3.037   1.090  15.397 -0.0439  1.1182  1.0627
 3617SOL     OW22312   1.847   3.461   2.327  0.7069 -0.4454  0.6521
 3617SOL    HW122313   1.878   3.442   2.415  2.1465  3.5042  1.0055
 3617SOL    HW222314   1.813   3.550   2.338  1.8228  0.1679 -0.8450
 3618SOL     OW22315   4.402   0.913  16.133 -0.1022 -1.1770 -0.1328
 3618SOL    HW122316   4.446   0.954  16.207  0.3030 -2.2127  0.2023
 3618SOL    HW222317   4.473   0.897  16.071 -0.0220 -0.0499 -0.3306
 3619SOL     OW22318   2.629   2.689   5.325  0.4387 -0.0627 -0.1539
 3619SOL    HW122319   2.656   2.670   5.235 -2.2945 -1.5963 -0.6423
 3619SOL    HW222320   2.706   2.666   5.377  0.2942 -0.6730 -0.2114
 3620SOL     OW22321   4.617   3.964   0.857 -0.0085 -0.3317 -0.2594
 3620SOL    HW122322   4.535   3.970   0.807 -0.7485 -1.2348  0.8404
 3620SOL    HW222323   4.587   4.003   0.939 -1.4366  1.3188 -1.5737
 3621SOL     OW22324   1.294   1.910   6.465 -0.1281  0.1064  0.2836
 3621SOL    HW122325   1.204   1.940   6.453  0.0982 -0.4874 -3.0964
 3621SOL    HW222326   1.286   1.907   6.560  0.6976  2.1168  0.4122
 3622SOL     OW22327   0.150   0.390   9.245  0.7353 -0.2884  0.0241
 3622SOL    HW122328   0.105   0.370   9.328 -1.3831  1.0580 -0.8026
 3622SOL    HW222329   0.221   0.325   9.240  1.3852  0.2997  1.5323
 3623SOL     OW22330   3.054   1.146  15.150  0.4344  0.1349 -0.3111
 3623SOL    HW122331   2.991   1.074  15.159 -0.1997  0.7731  0.3999
 3623SOL    HW222332   3.132   1.109  15.108  0.3805 -0.0719 -0.2276
 3624SOL     OW22333   3.188   0.078   1.378 -0.1591 -0.3457  0.2313
 3624SOL    HW122334   3.210   0.158   1.331 -0.6886  0.7941  1.9158
 3624SOL    HW222335   3.190   0.010   1.311 -0.8108 -0.6074  0.4710
 3625SOL     OW22336   1.539   4.278  14.847  0.3683  0.5108  0.2254
 3625SOL    HW122337   1.609   4.220  14.817  0.2883 -0.5217  2.0053
 3625SOL    HW222338   1.491   4.281  14.764 -0.0495  3.9426  0.6026
 3626SOL     OW22339   4.123   3.405   0.430 -0.0907  0.3200 -0.0241
 3626SOL    HW122340   4.127   3.414   0.334  1.8400 -0.5391 -0.0333
 3626SOL    HW222341   4.141   3.495   0.455  0.0816  0.3255 -0.1657
 3627SOL     OW22342   1.420   3.759   6.769  0.6753 -0.5934 -0.0394
 3627SOL    HW122343   1.512   3.737   6.756  0.7870  0.5306 -1.2191
 3627SOL    HW222344   1.406   3.765   6.863  0.2592  2.5132 -0.2857
 3628SOL     OW22345   4.376   2.107   8.928  0.0752 -0.3572  0.2974
 3628SOL    HW122346   4.292   2.062   8.936 -0.4954  0.0822 -3.2839
 3628SOL    HW222347   4.422   2.094   9.011 -0.0299 -0.4620  0.3402
 3629SOL     OW22348   1.995   3.885   8.815  0.1298 -0.1685  0.1681
 3629SOL    HW122349   1.908   3.896   8.852 -0.2020  0.2274 -0.7487
 3629SOL    HW222350   1.970   3.821   8.748  0.0823  0.3856 -0.3414
 3630SOL     OW22351   0.583   2.680   5.518  0.0672  0.3486 -0.7056
 3630SOL    HW122352   0.525   2.741   5.473  2.4316  1.0955 -2.7775
 3630SOL    HW222353   0.650   2.662   5.451  0.5566 -3.7485  0.9337
 3631SOL     OW22354   3.774   0.763   1.163  0.2798 -0.5421  0.3376
 3631SOL    HW122355   3.809   0.807   1.086  0.5555 -1.9741 -0.3563
 3631SOL    HW222356   3.704   0.711   1.122 -2.3288  3.5582 -0.4815
 3632SOL     OW22357   2.392   3.014   7.626 -0.3598 -0.5393  0.6365
 3632SOL    HW122358   2.401   3.073   7.551 -0.5741 -0.6297  0.5378
 3632SOL    HW222359   2.477   2.970   7.629 -1.0705 -1.8837  1.4127
 3633SOL     OW22360   0.259   2.509   1.008 -0.2698 -0.3413 -0.0981
 3633SOL    HW122361   0.349   2.535   0.986  0.0513 -0.3675  1.2018
 3633SOL    HW222362   0.268   2.432   1.063 -1.4007  0.9261  1.8628
 3634SOL     OW22363   0.680   1.510   8.498 -0.0709 -0.7491 -0.6072
 3634SOL    HW122364   0.617   1.576   8.467 -1.5097 -1.6145  0.5022
 3634SOL    HW222365   0.709   1.553   8.579 -2.0540 -1.6872  0.6316
 3635SOL     OW22366   0.669   1.936  12.797 -0.0375 -0.0662 -0.2239
 3635SOL    HW122367   0.624   1.989  12.863 -0.9341 -1.9140  0.6453
 3635SOL    HW222368   0.620   1.928  12.715 -1.0725 -0.7287  0.4641
 3636SOL     OW22369   4.247   3.249   3.534 -0.4119 -0.8773 -0.6871
 3636SOL    HW122370   4.247   3.167   3.583 -1.6541  0.4429  1.4919
 3636SOL    HW222371   4.337   3.246   3.501  0.2631 -1.5372  1.2086
 3637SOL     OW22372   1.939   3.597  13.958 -0.3373 -0.0926 -0.3993
 3637SOL    HW122373   1.878   3.570  14.026 -0.9308  1.5479 -0.2591
 3637SOL    HW222374   2.009   3.652  13.994  0.2637 -0.5502 -0.8737
 3638SOL     OW22375   1.292   1.806   4.053 -0.0043  0.5500  0.0281
 3638SOL    HW122376   1.248   1.746   3.993  0.2588  1.2498 -0.8596
 3638SOL    HW222377   1.247   1.777   4.132  0.1820  2.6912  0.9071
 3639SOL     OW22378   4.262   2.714   5.455 -0.4885  0.2262  0.0546
 3639SOL    HW122379   4.271   2.806   5.478  0.6003  0.6264 -1.9577
 3639SOL    HW222380   4.224   2.679   5.536  1.2645 -0.6068  0.5133
 3640SOL     OW22381   3.112   2.810   0.813  0.1292  0.3954 -0.2153
 3640SOL    HW122382   3.044   2.763   0.765  0.4576 -0.3982  0.1016
 3640SOL    HW222383   3.188   2.753   0.799  0.1571  0.3242  0.2477
 3641SOL     OW22384   3.566   0.872   5.207 -0.1745  0.5463  0.0500
 3641SOL    HW122385   3.495   0.925   5.244  0.3101  1.7145 -0.6852
 3641SOL    HW222386   3.519   0.826   5.138  0.6545 -2.7443  1.6853
 3642SOL     OW22387   3.038   4.083   2.137 -1.0550 -0.5528  0.0216
 3642SOL    HW122388   3.065   4.094   2.045 -1.0125 -4.2030 -0.4089
 3642SOL    HW222389   3.085   4.002   2.153  0.7426  0.8110  1.5960
 3643SOL     OW22390   4.037   1.959  14.147 -0.2063 -0.2519  0.6391
 3643SOL    HW122391   4.070   1.883  14.196  0.0579  0.5988  1.7763
 3643SOL    HW222392   4.113   1.986  14.096 -1.9651  0.7320 -1.4405
 3644SOL     OW22393   2.084   2.523   6.630  0.4082 -0.1798 -0.2902
 3644SOL    HW122394   2.008   2.483   6.587  0.2319 -1.6467  1.3499
 3644SOL    HW222395   2.054   2.604   6.672  0.8254 -0.6415  0.8960
 3645SOL     OW22396   0.934   4.461   5.475  0.2481  0.1030  0.1662
 3645SOL    HW122397   0.838   4.464   5.478  0.2881  1.5734  0.3746
 3645SOL    HW222398   0.942   4.366   5.471 -0.2098  0.1231 -1.0301
 3646SOL     OW22399   4.631   1.168   5.340  0.3351 -0.0979  0.7103
 3646SOL    HW122400   4.565   1.116   5.294  2.5050  0.4716 -3.0397
 3646SOL    HW222401   4.646   1.116   5.419  0.6106 -0.1069  0.6522
 3647SOL     OW22402   2.429   0.480   8.204  0.2873  0.3198  0.2036
 3647SOL    HW122403   2.377   0.401   8.188  0.8380  0.1242 -0.6497
 3647SOL    HW222404   2.369   0.538   8.250  0.3601  2.0245 -1.8547
 3648SOL     OW22405   2.236   4.555  17.350 -0.2669  0.8795  0.0344
 3648SOL    HW122406   2.304   4.601  17.399  1.0927 -0.3649 -0.6742
 3648SOL    HW222407   2.255   4.463  17.369  0.6732  0.9847 -0.4115
 3649SOL     OW22408   2.017   4.552   5.073  0.4732  0.1179 -0.7964
 3649SOL    HW122409   1.938   4.516   5.033 -0.4077  0.3683  0.7280
 3649SOL    HW222410   1.999   4.553   5.167 -0.7530  3.3260 -1.0653
 3650SOL     OW22411   1.919   4.592   1.866  0.1444 -0.7351 -0.4556
 3650SOL    HW122412   1.832   4.600   1.904 -0.3892  0.7314 -1.9506
 3650SOL    HW222413   1.977   4.600   1.942  0.7216  0.5355 -1.0256
 3651SOL     OW22414   4.268   1.743   6.295 -0.1645 -0.3708 -0.0481
 3651SOL    HW122415   4.211   1.820   6.306  2.2528  1.3756  0.1595
 3651SOL    HW222416   4.350   1.781   6.264  1.1357 -1.2033  2.4361
 3652SOL     OW22417   2.063   3.518   9.722 -0.2392  0.4867 -0.5432
 3652SOL    HW122418   2.026   3.440   9.764  3.0664 -1.3750 -1.1065
 3652SOL    HW222419   2.097   3.479   9.642  1.4756  0.6573  0.1089
 3653SOL     OW22420   2.197   3.035   3.518 -0.1993 -0.0399  0.2626
 3653SOL    HW122421   2.175   2.997   3.432  0.8465 -0.7845  0.3123
 3653SOL    HW222422   2.293   3.035   3.511 -0.3054 -3.2931 -1.4862
 3654SOL     OW22423   2.394   1.424   0.166 -0.1535 -1.4562  0.3962
 3654SOL    HW122424   2.388   1.330   0.181  1.7433 -1.8955 -1.6093
 3654SOL    HW222425   2.396   1.451   0.258 -2.0214  0.3204 -0.0877
 3655SOL     OW22426   4.078   4.222   2.206 -0.3348 -0.4777  0.0978
 3655SOL    HW122427   4.086   4.281   2.131 -0.9135 -2.5638 -1.6105
 3655SOL    HW222428   4.162   4.176   2.209 -0.0211  0.1449  0.7736
 3656SOL     OW22429   0.334   1.288   8.570 -0.0267  0.0627 -0.4175
 3656SOL    HW122430   0.356   1.296   8.477 -0.1565  2.4026 -0.2477
 3656SOL    HW222431   0.282   1.368   8.573  0.8393  0.5974  0.3074
 3657SOL     OW22432   0.112   1.787   6.661  0.7708 -0.1202  0.4662
 3657SOL    HW122433   0.027   1.822   6.685 -0.1035 -1.5247 -0.5583
 3657SOL    HW222434   0.147   1.836   6.586 -0.0232 -0.0925  0.1204
 3658SOL     OW22435   4.418   1.717   1.845 -0.3924  0.3730  0.1524
 3658SOL    HW122436   4.484   1.713   1.776 -0.5480  1.8408 -0.0806
 3658SOL    HW222437   4.390   1.626   1.855  2.4500 -0.6006 -0.7466
 3659SOL     OW22438   2.621   4.706   8.050  0.2037  0.4367  0.0403
 3659SOL    HW122439   2.607   4.644   7.979  2.3503 -0.3667  0.2962
 3659SOL    HW222440   2.566   0.055   8.016  0.1844 -0.6294 -2.1124
 3660SOL     OW22441   1.213   3.876   7.895 -0.1080  0.1839 -0.8482
 3660SOL    HW122442   1.213   3.938   7.968  0.3851 -1.2633  0.3864
 3660SOL    HW222443   1.138   3.893   7.839  0.1241  1.1584 -0.8553
 3661SOL     OW22444   2.437   2.323  12.281 -0.0364 -0.2536  0.7002
 3661SOL    HW122445   2.368   2.294  12.221 -0.1573  1.6238 -0.0674
 3661SOL    HW222446   2.491   2.244  12.284 -1.4514 -1.3295 -1.8483
 3662SOL     OW22447   1.641   0.163   9.907 -0.7025 -0.4727  0.1855
 3662SOL    HW122448   1.622   0.179   9.815 -1.8647  0.4228  0.5681
 3662SOL    HW222449   1.600   0.078   9.920 -0.8041 -0.2883  1.0779
 3663SOL     OW22450   2.084   4.682   8.117 -0.1246  1.0934 -0.4614
 3663SOL    HW122451   2.019   4.615   8.137  1.7461  0.1309  2.3231
 3663SOL    HW222452   2.032   0.041   8.114 -1.9108 -0.0238  0.4193
 3664SOL     OW22453   3.960   3.777   9.515 -0.1339  0.2135  0.0755
 3664SOL    HW122454   3.999   3.862   9.494  0.0191  0.3736  0.9938
 3664SOL    HW222455   4.017   3.714   9.471 -0.8505 -1.1135  1.0415
 3665SOL     OW22456   0.130   0.598   8.402  0.3310  0.0131 -0.2068
 3665SOL    HW122457   0.171   0.649   8.332  0.9680  0.2792  0.3556
 3665SOL    HW222458   0.205   0.552   8.441 -1.8229 -4.2757 -1.1449
 3666SOL     OW22459   0.664   4.498   5.427  0.2461  0.0321  0.4104
 3666SOL    HW122460   0.608   4.448   5.368  1.1303 -0.8423  0.3193
 3666SOL    HW222461   0.674   4.586   5.390  2.4686 -0.7667 -0.8661
 3667SOL     OW22462   1.125   2.256   8.812 -0.3463  0.0129  0.1717
 3667SOL    HW122463   1.206   2.219   8.777 -0.8882 -1.0310  0.0175
 3667SOL    HW222464   1.126   2.233   8.905  0.7413 -0.7125 -0.0270
 3668SOL     OW22465   4.657   0.433   7.658 -0.2295 -0.6463  0.6571
 3668SOL    HW122466   4.657   0.339   7.672 -1.1336 -0.9643 -1.4630
 3668SOL    HW222467   4.583   0.467   7.710  0.0661  0.4334  0.3730
 3669SOL     OW22468   0.947   1.565   8.402 -0.0742  0.0470 -0.2158
 3669SOL    HW122469   0.863   1.532   8.431  1.6184 -2.1011  2.2283
 3669SOL    HW222470   0.944   1.554   8.307  1.3398  0.5788 -0.3361
 3670SOL     OW22471   3.984   2.049  11.597  0.1395  0.0265 -0.3192
 3670SOL    HW122472   3.967   2.072  11.688 -0.7713 -1.0041 -0.2270
 3670SOL    HW222473   4.025   2.130  11.566  0.7627  0.5777  1.9222
 3671SOL     OW22474   3.160   1.502   4.052  0.4315  0.1030  0.3776
 3671SOL    HW122475   3.203   1.523   3.970  0.5826 -3.9344 -0.5933
 3671SOL    HW222476   3.158   1.585   4.099 -0.5111  1.0589 -1.3871
 3672SOL     OW22477   1.411   3.072  17.043  0.4569  0.3426  0.1096
 3672SOL    HW122478   1.317   3.084  17.049  0.7654  1.3752  3.1134
 3672SOL    HW222479   1.418   3.034  16.956 -0.6006  0.3241  0.0338
 3673SOL     OW22480   1.933   3.604   6.518 -0.3435 -0.2006 -0.6508
 3673SOL    HW122481   2.013   3.654   6.505  0.2717 -1.0138  0.0177
 3673SOL    HW222482   1.969   3.523   6.553  1.2086  0.5498 -0.5229
 3674SOL     OW22483   4.327   4.206  13.778 -0.1984 -0.0451  0.4103
 3674SOL    HW122484   4.241   4.206  13.738 -0.0264 -0.4870  0.0329
 3674SOL    HW222485   4.302   4.191  13.869 -3.3601  0.7239 -0.3601
 3675SOL     OW22486   4.244   1.825  10.420 -0.6088 -0.2702 -0.4636
 3675SOL    HW122487   4.233   1.730  10.430 -2.7406  0.1131  0.9374
 3675SOL    HW222488   4.255   1.833  10.325 -0.8707 -0.2667 -0.4946
 3676SOL     OW22489   0.365   4.649   6.735  0.3059  0.5386  0.2934
 3676SOL    HW122490   0.320   4.565   6.749  1.5987 -0.2896 -0.5382
 3676SOL    HW222491   0.349   4.701   6.814 -1.7124  2.3945 -1.3281
 3677SOL     OW22492   1.721   1.462   9.177  0.0940 -0.0745 -0.0900
 3677SOL    HW122493   1.691   1.372   9.189  1.3370 -0.8194 -2.6320
 3677SOL    HW222494   1.636   1.506   9.174 -0.6074 -1.5295 -1.9718
 3678SOL     OW22495   2.494   2.906   8.107 -0.0012 -0.4829  0.2714
 3678SOL    HW122496   2.519   2.816   8.090  0.0837 -0.2570 -0.7810
 3678SOL    HW222497   2.459   2.930   8.022 -1.0763 -0.8645  0.6098
 3679SOL     OW22498   1.525   2.843   6.120 -0.3628 -0.1354  0.4480
 3679SOL    HW122499   1.575   2.897   6.182  0.6095 -0.5269  0.0100
 3679SOL    HW222500   1.600   2.793   6.086 -0.5380  0.6638 -1.1155
 3680SOL     OW22501   2.319   3.233   1.483 -0.1478 -0.5392  0.2704
 3680SOL    HW122502   2.376   3.157   1.491 -0.2910 -0.6934 -0.1555
 3680SOL    HW222503   2.354   3.274   1.404  1.5065 -1.1617  0.6815
 3681SOL     OW22504   1.042   2.739   2.148 -0.4858 -0.2578 -0.2215
 3681SOL    HW122505   1.114   2.794   2.120 -0.3066  1.2053  3.1934
 3681SOL    HW222506   0.988   2.723   2.070 -1.2693  1.3069  0.0086
 3682SOL     OW22507   3.370   0.500   2.999 -0.5619  0.1783 -0.1574
 3682SOL    HW122508   3.459   0.484   3.031 -0.9731 -1.3261  0.2202
 3682SOL    HW222509   3.381   0.483   2.906  1.4220 -0.5463  0.2049
 3683SOL     OW22510   4.200   1.454   5.793 -0.3563  0.6509 -0.5435
 3683SOL    HW122511   4.223   1.469   5.884 -0.0186 -2.0182 -0.2102
 3683SOL    HW222512   4.236   1.533   5.752  0.3499  0.3449 -0.5054
 3684SOL     OW22513   2.482   2.305   3.540 -0.4397  0.4447 -0.0966
 3684SOL    HW122514   2.425   2.381   3.529 -0.9552 -0.1198 -1.4085
 3684SOL    HW222515   2.466   2.281   3.631  1.1225  1.5776  0.4704
 3685SOL     OW22516   2.507   3.802   6.415  0.3777  0.3087 -0.4309
 3685SOL    HW122517   2.440   3.851   6.462 -0.7502 -1.7279  0.0746
 3685SOL    HW222518   2.558   3.766   6.488  0.3997  0.3693 -0.4160
 3686SOL     OW22519   3.856   2.577  15.109  0.1549  0.4940  0.5938
 3686SOL    HW122520   3.924   2.512  15.128  0.4625  1.3386  2.4089
 3686SOL    HW222521   3.891   2.624  15.034 -0.0360  0.0477  0.2307
 3687SOL     OW22522   2.858   1.957   3.588 -0.1526 -0.2564  0.0670
 3687SOL    HW122523   2.861   1.998   3.501 -0.0050 -1.2018 -0.3741
 3687SOL    HW222524   2.947   1.975   3.618 -0.9965 -0.8127  2.8573
 3688SOL     OW22525   2.648   0.901  13.359 -0.7843 -0.4878  0.2788
 3688SOL    HW122526   2.683   0.961  13.425  0.8257  0.1496 -1.1526
 3688SOL    HW222527   2.725   0.868  13.313 -0.8909 -1.1275  0.5560
 3689SOL     OW22528   0.738   0.806   9.310 -0.2731  0.1101 -0.5070
 3689SOL    HW122529   0.807   0.741   9.308 -1.7017 -1.4732  0.8058
 3689SOL    HW222530   0.721   0.794   9.217  1.2736 -0.2635 -0.7315
 3690SOL     OW22531   1.885   3.142   7.463  0.2456  0.1717 -0.2432
 3690SOL    HW122532   1.817   3.199   7.427  0.0116 -0.2444 -0.4639
 3690SOL    HW222533   1.968   3.163   7.419  0.3883  1.6887  0.7507
 3691SOL     OW22534   1.746   4.528  10.388 -0.6299 -0.0117 -0.2451
 3691SOL    HW122535   1.740   4.445  10.342  2.0133 -0.0551 -0.5245
 3691SOL    HW222536   1.837   4.548  10.363 -0.6545 -0.2570 -0.5259
 3692SOL     OW22537   4.443   2.582   5.887 -0.3889 -0.3950  0.6012
 3692SOL    HW122538   4.442   2.654   5.824  1.7220 -2.2300 -1.5206
 3692SOL    HW222539   4.526   2.601   5.931 -1.5338  3.9432  0.8942
 3693SOL     OW22540   2.988   1.333   7.213 -0.2536 -0.0292 -0.3910
 3693SOL    HW122541   3.050   1.285   7.268  2.4325  2.5706 -1.2052
 3693SOL    HW222542   3.021   1.317   7.125  0.4944  0.0592 -0.1228
 3694SOL     OW22543   2.953   4.681   7.921 -0.6448 -0.1276  0.0025
 3694SOL    HW122544   3.038   4.704   7.959 -1.1221 -1.9185  2.1664
 3694SOL    HW222545   2.883   0.011   7.962 -1.8247 -2.9443  1.5622
 3695SOL     OW22546   1.280   3.044  16.055 -0.1031 -0.6109  0.0636
 3695SOL    HW122547   1.279   2.976  16.122 -0.0843  0.4303  1.1083
 3695SOL    HW222548   1.194   3.083  16.072 -0.2685  0.4192 -3.0779
 3696SOL     OW22549   0.775   2.675   7.959  0.0866 -0.3946 -0.1960
 3696SOL    HW122550   0.730   2.749   7.919 -0.4896  0.8857  2.8605
 3696SOL    HW222551   0.820   2.716   8.033 -0.4184  2.5545 -1.5317
 3697SOL     OW22552   3.858   0.204   2.176 -0.1631 -0.1474 -0.0541
 3697SOL    HW122553   3.802   0.158   2.238  0.8220 -1.2299  0.0174
 3697SOL    HW222554   3.872   0.286   2.224 -0.0540  0.7379 -1.6090
 3698SOL     OW22555   2.549   3.095  16.896  0.5083  0.2859 -0.7806
 3698SOL    HW122556   2.628   3.077  16.845 -0.5034 -2.9847 -1.2034
 3698SOL    HW222557   2.552   3.190  16.904 -0.7573  0.2215  0.3936
 3699SOL     OW22558   1.184   2.635   8.278  0.3732 -0.2807 -0.4297
 3699SOL    HW122559   1.264   2.636   8.226  0.7528  0.7027  0.1751
 3699SOL    HW222560   1.207   2.662   8.366  1.5836 -1.0153 -0.5307
 3700SOL     OW22561   2.098   0.391   6.241 -0.0269 -0.1593  0.1567
 3700SOL    HW122562   2.177   0.355   6.282 -1.4525 -1.9616  1.3122
 3700SOL    HW222563   2.058   0.317   6.195  0.6703 -0.0793 -0.5825
 3701SOL     OW22564   1.869   0.039   6.292 -0.1606 -0.4095 -0.6448
 3701SOL    HW122565   1.942   4.699   6.300  0.6884  0.5110 -1.2865
 3701SOL    HW222566   1.839   0.019   6.203 -0.6209  0.9363 -0.7967
 3702SOL     OW22567   3.094   3.584   2.374  0.5212 -0.1765 -0.1333
 3702SOL    HW122568   3.054   3.635   2.444  1.1737  4.4634 -3.1490
 3702SOL    HW222569   3.173   3.631   2.347  0.3244 -0.4365 -1.1795
 3703SOL     OW22570   0.321   1.588   4.852  0.1051  0.1573  0.1313
 3703SOL    HW122571   0.362   1.503   4.869 -1.8653 -1.2436 -2.2255
 3703SOL    HW222572   0.335   1.597   4.758 -0.3444  3.4494  0.3820
 3704SOL     OW22573   3.776   1.508   4.844 -0.1808  0.2232  0.0153
 3704SOL    HW122574   3.792   1.588   4.894  1.6532  0.0298 -0.2516
 3704SOL    HW222575   3.703   1.473   4.896 -2.1471  2.2474 -1.4316
 3705SOL     OW22576   3.938   2.336  15.253  0.1936  0.1562 -0.0129
 3705SOL    HW122577   3.889   2.318  15.173  2.7693 -1.5793 -1.2189
 3705SOL    HW222578   4.026   2.305  15.231  0.5412  0.4917  0.9049
 3706SOL     OW22579   0.551   4.406   2.048 -0.0736  0.2027  0.0494
 3706SOL    HW122580   0.635   4.379   2.011 -0.3113 -1.0199  0.3907
 3706SOL    HW222581   0.551   4.495   2.013 -3.0594  0.1208 -0.1730
 3707SOL     OW22582   1.161   3.662   6.042  0.0712  0.3473  0.4706
 3707SOL    HW122583   1.081   3.691   5.999  1.3530  0.4408 -1.8272
 3707SOL    HW222584   1.183   3.579   6.000 -2.1485  0.2207 -0.4467
 3708SOL     OW22585   2.538   3.105   3.330 -0.2477  0.7824  0.0758
 3708SOL    HW122586   2.506   3.069   3.413 -0.0853  0.0883 -0.1584
 3708SOL    HW222587   2.496   3.036   3.279  0.6298  1.1036 -1.0804
 3709SOL     OW22588   3.001   3.270   2.943  0.1968 -0.1305  0.5179
 3709SOL    HW122589   2.998   3.204   2.873 -1.5632 -1.5474  1.9310
 3709SOL    HW222590   3.073   3.324   2.911 -0.4845  0.5023  0.0606
 3710SOL     OW22591   4.637   3.030  14.684  0.4075  0.1774  0.1221
 3710SOL    HW122592   4.569   3.012  14.618  0.8299  1.3339 -0.6204
 3710SOL    HW222593   4.654   3.124  14.678  1.7793 -0.0471  0.5653
 3711SOL     OW22594   0.904   0.990   2.148  0.3329  0.3748 -0.0137
 3711SOL    HW122595   0.863   1.052   2.088 -1.2793  0.3961  1.0986
 3711SOL    HW222596   0.832   0.957   2.202 -1.3980 -0.0281 -2.5448
 3712SOL     OW22597   0.406   1.820  10.656 -0.0710  0.2260  0.8303
 3712SOL    HW122598   0.483   1.874  10.673  1.1173 -0.9277 -0.8633
 3712SOL    HW222599   0.379   1.786  10.742 -0.4412  1.2057  1.0967
 3713SOL     OW22600   2.160   4.628   7.812  0.2271  0.2588 -0.0541
 3713SOL    HW122601   2.167   4.548   7.863 -1.0281  1.2196  1.5993
 3713SOL    HW222602   2.163   4.702   7.873 -1.6092 -0.0227  0.3762
 3714SOL     OW22603   3.708   1.305  12.621  0.0647 -0.1616  0.0789
 3714SOL    HW122604   3.648   1.232  12.603 -0.5721  0.9038 -2.1447
 3714SOL    HW222605   3.703   1.338  12.531  0.7338 -1.7996 -0.5655
 3715SOL     OW22606   0.948   0.045   3.871 -0.0475 -0.0753  0.8671
 3715SOL    HW122607   0.867   0.019   3.916  0.8811 -1.5705  1.6891
 3715SOL    HW222608   1.021   0.036   3.933  0.9781 -0.6969 -0.4341
 3716SOL     OW22609   1.195   1.673  14.938 -0.0200  0.5316 -0.1360
 3716SOL    HW122610   1.112   1.689  14.893  0.7583 -0.2444 -1.8298
 3716SOL    HW222611   1.251   1.708  14.869 -1.4623 -1.0556 -2.1187
 3717SOL     OW22612   0.964   1.438   4.543  0.2779  0.0443  0.5483
 3717SOL    HW122613   0.916   1.398   4.615  0.0840 -0.6340  0.0470
 3717SOL    HW222614   0.910   1.416   4.467 -0.9979  4.0453  0.3229
 3718SOL     OW22615   0.610   3.162   7.164 -0.2841  0.4419 -0.1121
 3718SOL    HW122616   0.620   3.105   7.088 -3.1650 -0.5806  0.2704
 3718SOL    HW222617   0.607   3.244   7.115  0.4165 -0.0885 -1.0651
 3719SOL     OW22618   2.882   0.683   2.766  0.3200  0.3919 -0.0975
 3719SOL    HW122619   2.909   0.760   2.716 -0.5465 -0.3848 -1.7553
 3719SOL    HW222620   2.898   0.609   2.708  1.5945  0.6864 -0.1112
 3720SOL     OW22621   3.162   0.807   3.574 -0.4781 -0.0175 -0.1586
 3720SOL    HW122622   3.243   0.850   3.547  1.2132 -2.1973  1.4585
 3720SOL    HW222623   3.195   0.719   3.593  2.0032  0.6279 -1.5340
 3721SOL     OW22624   0.456   4.048   9.474  0.1766  0.1347  0.0330
 3721SOL    HW122625   0.492   4.121   9.424 -0.7028  0.5835  0.0483
 3721SOL    HW222626   0.535   3.996   9.485 -0.7934 -0.7032  3.0917
 3722SOL     OW22627   1.158   1.784   9.001  0.1944 -0.5839 -0.2683
 3722SOL    HW122628   1.135   1.778   8.908  1.5028  0.7051 -0.6895
 3722SOL    HW222629   1.250   1.809   8.996 -0.1380  0.1911 -2.6809
 3723SOL     OW22630   3.134   1.138  12.202 -0.0833  0.3686 -0.0661
 3723SOL    HW122631   3.197   1.182  12.259  0.1205 -0.1168  0.0824
 3723SOL    HW222632   3.056   1.193  12.212  0.0312  0.5005  0.1134
 3724SOL     OW22633   1.907   4.018   9.204 -0.1582 -0.3454 -0.2481
 3724SOL    HW122634   1.871   4.064   9.280 -0.3052 -1.5214  0.3811
 3724SOL    HW222635   1.950   3.944   9.247 -0.2407  0.5194  1.3355
 3725SOL     OW22636   2.401   3.627   3.646  0.4678  0.3330 -0.1139
 3725SOL    HW122637   2.339   3.563   3.681  0.4297  0.6164  0.3318
 3725SOL    HW222638   2.466   3.563   3.615 -0.6157 -1.6248  1.6782
 3726SOL     OW22639   0.878   4.641  14.156  0.1144  0.0780  0.3304
 3726SOL    HW122640   0.937   4.654  14.230 -0.6513  2.4939  0.5177
 3726SOL    HW222641   0.826   4.566  14.186  0.0953 -0.1105 -0.1781
 3727SOL     OW22642   3.909   3.441   1.930  0.2454  0.3987 -0.2461
 3727SOL    HW122643   3.927   3.519   1.878  1.3066  0.0204 -0.4502
 3727SOL    HW222644   3.816   3.446   1.953 -0.3897  2.3507 -3.1753
 3728SOL     OW22645   4.140   4.706   6.862 -0.2234 -0.4823  0.0462
 3728SOL    HW122646   4.061   0.035   6.883  0.9433  1.5265 -0.3426
 3728SOL    HW222647   4.142   4.699   6.766  1.1108 -2.1013  0.1940
 3729SOL     OW22648   3.923   0.902   8.623 -0.1586 -0.1071  0.0339
 3729SOL    HW122649   3.936   0.993   8.595 -1.4115 -0.2482 -0.9753
 3729SOL    HW222650   3.966   0.851   8.555 -0.7055  0.3359 -0.6445
 3730SOL     OW22651   1.017   1.142   5.817  0.5505  0.2733 -0.8455
 3730SOL    HW122652   1.051   1.080   5.753  2.1156 -0.9961  1.2535
 3730SOL    HW222653   1.036   1.231   5.786 -1.1451  0.3038 -1.7864
 3731SOL     OW22654   2.863   0.072   5.116 -1.0463 -0.3696 -0.0775
 3731SOL    HW122655   2.939   0.125   5.091 -1.6075  0.0251 -0.9415
 3731SOL    HW222656   2.796   0.138   5.132  0.1432  0.4683  1.4048
 3732SOL     OW22657   3.772   4.296   2.953 -0.5335  0.0796  0.5882
 3732SOL    HW122658   3.860   4.265   2.934  0.3010  0.3191  4.1049
 3732SOL    HW222659   3.747   4.325   2.865 -0.5868 -1.3882  0.1150
 3733SOL     OW22660   1.347   1.881   8.116  0.3041  0.3156 -0.7424
 3733SOL    HW122661   1.286   1.807   8.123  1.8323 -0.7790  1.1464
 3733SOL    HW222662   1.283   1.950   8.103 -1.0089 -0.6995  0.3290
 3734SOL     OW22663   0.901   4.477   6.189  0.0718  0.3726 -0.7791
 3734SOL    HW122664   0.946   4.510   6.267  0.1499  2.4799 -1.7249
 3734SOL    HW222665   0.964   4.417   6.149  1.6434  1.3613  0.1997
 3735SOL     OW22666   0.858   4.457   9.143  0.0909 -0.1827 -0.3303
 3735SOL    HW122667   0.813   4.383   9.100 -2.1899  0.6582  0.5814
 3735SOL    HW222668   0.872   4.519   9.071 -1.2232  0.3251 -0.1642
 3736SOL     OW22669   4.414   2.042   9.613 -0.6497 -0.1150  0.5842
 3736SOL    HW122670   4.487   2.037   9.674 -0.6003  0.4298  0.5705
 3736SOL    HW222671   4.397   2.133   9.587  1.6015  0.1677  0.1648
 3737SOL     OW22672   4.534   2.379   6.793 -0.2083  0.0285 -0.6499
 3737SOL    HW122673   4.503   2.439   6.861  2.1624 -0.5234  0.9222
 3737SOL    HW222674   4.527   2.293   6.835 -2.0352  0.6913  0.4113
 3738SOL     OW22675   0.943   3.448   1.856 -0.1125 -0.2124  0.4007
 3738SOL    HW122676   1.023   3.482   1.895  0.8389 -0.5796 -1.2571
 3738SOL    HW222677   0.883   3.494   1.915 -0.1313  1.9191 -1.2660
 3739SOL     OW22678   1.993   1.959   5.201  0.8320 -0.2359  0.2475
 3739SOL    HW122679   1.966   2.031   5.259  0.7069 -0.3995  0.3916
 3739SOL    HW222680   2.073   2.002   5.171  0.5864 -0.1444 -0.2675
 3740SOL     OW22681   1.160   1.012   5.222  0.2816 -0.0159 -0.1793
 3740SOL    HW122682   1.214   0.964   5.285 -0.3521 -0.7252 -0.1726
 3740SOL    HW222683   1.187   0.958   5.147 -0.7877  0.1597 -0.6798
 3741SOL     OW22684   3.817   0.671  14.693  0.2875 -0.1657 -0.1627
 3741SOL    HW122685   3.864   0.603  14.645  3.0483  1.8012 -0.2201
 3741SOL    HW222686   3.843   0.633  14.777 -0.1013 -0.4548 -0.1719
 3742SOL     OW22687   1.236   2.787   1.926  0.0318 -0.2857  0.4537
 3742SOL    HW122688   1.289   2.847   1.875  0.3171  0.9088  2.1615
 3742SOL    HW222689   1.164   2.773   1.864 -0.2748  0.4266  0.6496
 3743SOL     OW22690   1.252   1.703   5.229 -0.1629  0.1800 -0.3521
 3743SOL    HW122691   1.196   1.708   5.307  0.4972 -0.7015  0.1755
 3743SOL    HW222692   1.332   1.663   5.264 -0.8606 -1.2150 -0.3798
 3744SOL     OW22693   4.003   3.122   4.272 -0.8894 -0.3196 -0.3084
 3744SOL    HW122694   4.046   3.119   4.357  0.2970  0.7139 -0.8841
 3744SOL    HW222695   4.062   3.185   4.231 -1.8611  1.5050  1.0918
 3745SOL     OW22696   1.404   2.481  14.549  0.2762  0.6160  0.0276
 3745SOL    HW122697   1.434   2.403  14.596  0.9076  0.8944  0.0952
 3745SOL    HW222698   1.370   2.449  14.466 -1.7707  0.5559  0.9063
 3746SOL     OW22699   3.790   0.251   5.541  0.2150  0.5985  0.5514
 3746SOL    HW122700   3.723   0.227   5.476  0.9953  0.1142 -0.0701
 3746SOL    HW222701   3.792   0.346   5.529  1.4290  0.6324  1.0223
 3747SOL     OW22702   2.470   2.134   2.635 -0.0710 -0.5116  0.3735
 3747SOL    HW122703   2.400   2.076   2.606 -0.5804  1.0809 -1.6013
 3747SOL    HW222704   2.538   2.069   2.655 -0.1788 -0.5054  0.7640
 3748SOL     OW22705   3.700   2.136   4.837  0.3196 -0.3564 -0.3392
 3748SOL    HW122706   3.760   2.107   4.905 -0.4079  0.5183  0.6637
 3748SOL    HW222707   3.636   2.181   4.892  0.9084  0.5269 -0.3793
 3749SOL     OW22708   0.993   2.187   3.062  0.0279  0.0521  0.0576
 3749SOL    HW122709   0.943   2.228   2.991  0.5933  0.2754 -0.2048
 3749SOL    HW222710   0.952   2.222   3.141  0.0743 -1.1145  0.5950
 3750SOL     OW22711   3.031   1.339   8.386  0.4179  0.2661  0.2514
 3750SOL    HW122712   3.077   1.315   8.305  0.1590 -1.4189  0.6097
 3750SOL    HW222713   3.054   1.432   8.385 -0.0969  0.3805 -1.2971
 3751SOL     OW22714   3.291   2.831   8.043  0.1891 -0.9066  0.0486
 3751SOL    HW122715   3.365   2.797   7.993  0.1247  1.2039 -1.5058
 3751SOL    HW222716   3.315   2.811   8.133  0.9997 -0.4061 -0.0635
 3752SOL     OW22717   0.382   2.597  15.574 -0.0594  0.4726  0.5319
 3752SOL    HW122718   0.417   2.518  15.616 -1.4322 -0.6296 -0.4142
 3752SOL    HW222719   0.346   2.574  15.489  2.7795  1.2233 -0.8413
 3753SOL     OW22720   3.808   0.420   4.982 -0.4110  0.0801  0.8319
 3753SOL    HW122721   3.790   0.327   4.966  0.8804 -0.4422  2.4461
 3753SOL    HW222722   3.772   0.453   4.899  1.3880  1.5438  0.6338
 3754SOL     OW22723   2.979   2.980   0.590 -0.9682  0.2496 -0.1119
 3754SOL    HW122724   3.046   3.048   0.600  0.5300 -1.1319 -0.8610
 3754SOL    HW222725   2.999   2.930   0.669  1.1163  0.3543 -0.5573
 3755SOL     OW22726   4.165   2.143  13.197  0.4760  0.5067 -0.4876
 3755SOL    HW122727   4.097   2.086  13.231  0.9880 -0.0533 -0.4126
 3755SOL    HW222728   4.246   2.106  13.233 -0.7045 -0.9455  0.6193
 3756SOL     OW22729   2.720   2.432   6.714 -0.1797 -0.4341  0.0299
 3756SOL    HW122730   2.656   2.379   6.666  1.5349 -1.4942 -1.0985
 3756SOL    HW222731   2.665   2.473   6.780 -1.4967  0.0773 -1.3713
 3757SOL     OW22732   2.335   3.989   9.321 -0.0032 -0.0140  0.4989
 3757SOL    HW122733   2.286   3.920   9.276 -1.1383  0.4387  1.0362
 3757SOL    HW222734   2.423   3.953   9.326  0.2091  0.3202 -0.7772
 3758SOL     OW22735   1.533   3.226   1.252 -0.3601 -0.1262  0.4756
 3758SOL    HW122736   1.472   3.298   1.264  0.4709  0.4218  1.3989
 3758SOL    HW222737   1.518   3.170   1.328 -3.3951 -0.0451 -0.0509
 3759SOL     OW22738   1.700   1.669   1.578  0.3384 -0.0863  0.4338
 3759SOL    HW122739   1.754   1.667   1.499 -0.1577  0.7812  0.0792
 3759SOL    HW222740   1.694   1.762   1.599  0.7113 -0.2352  1.2122
 3760SOL     OW22741   1.648   2.156   1.458  0.0322  0.1638  0.0375
 3760SOL    HW122742   1.611   2.152   1.546 -1.8261  1.0942 -0.6828
 3760SOL    HW222743   1.597   2.232   1.428 -1.9399 -1.1962 -0.0808
 3761SOL     OW22744   2.032   1.253   6.299  0.0171  0.2111 -0.4095
 3761SOL    HW122745   2.005   1.233   6.209  3.9813  0.4367 -1.6368
 3761SOL    HW222746   2.102   1.311   6.271  2.2588 -0.7662  3.1984
 3762SOL     OW22747   2.139   4.087   1.568  0.6318  0.3156  0.0569
 3762SOL    HW122748   2.064   4.059   1.620  1.7818 -1.0104  0.9863
 3762SOL    HW222749   2.185   4.149   1.625 -1.5587 -0.7868  2.9750
 3763SOL     OW22750   3.122   3.194   4.483  0.2219 -0.1538 -0.6883
 3763SOL    HW122751   3.200   3.219   4.434 -0.1247  2.1348 -0.0801
 3763SOL    HW222752   3.117   3.271   4.540  0.3188 -1.4733  1.1338
 3764SOL     OW22753   4.248   1.565  10.417  0.1641 -0.1873  0.1580
 3764SOL    HW122754   4.261   1.520  10.333 -0.9040  1.0202 -0.6567
 3764SOL    HW222755   4.194   1.499  10.460 -1.8410  0.7112 -0.9746
 3765SOL     OW22756   3.903   2.828   2.860 -0.1483 -0.2721 -0.4605
 3765SOL    HW122757   3.900   2.790   2.948  1.4966  0.6979  0.0231
 3765SOL    HW222758   3.822   2.879   2.861 -1.0362 -1.7073  0.4518
 3766SOL     OW22759   2.651   3.425  15.405 -0.1903 -0.4401 -0.5048
 3766SOL    HW122760   2.739   3.412  15.369 -0.3909 -3.3906  0.0666
 3766SOL    HW222761   2.674   3.464  15.489 -0.3326 -1.0983 -0.1557
 3767SOL     OW22762   2.185   0.831   6.998 -0.5384  0.5403  0.2745
 3767SOL    HW122763   2.117   0.881   6.952 -0.7817 -1.0107 -1.0536
 3767SOL    HW222764   2.153   0.741   7.007 -0.1898  0.1545 -2.3088
 3768SOL     OW22765   3.784   1.795   3.167  0.2009  0.0816  0.3517
 3768SOL    HW122766   3.721   1.804   3.239  0.3062 -1.1776  0.6138
 3768SOL    HW222767   3.791   1.885   3.137  2.5869  0.5620  2.2937
 3769SOL     OW22768   3.305   0.804  13.642  0.0020  0.3074 -0.1832
 3769SOL    HW122769   3.274   0.744  13.710 -1.6778 -1.3267 -2.4050
 3769SOL    HW222770   3.306   0.892  13.680 -2.1258  0.4924 -0.5555
 3770SOL     OW22771   1.989   0.267   8.811  0.5041  0.3401  0.1911
 3770SOL    HW122772   2.076   0.227   8.809 -0.0171 -0.8077  0.2483
 3770SOL    HW222773   2.022   0.355   8.832  0.1269  0.5277 -0.0188
 3771SOL     OW22774   4.565   4.717   4.892 -0.1354  0.3943 -0.2933
 3771SOL    HW122775   4.653   4.691   4.866 -1.0075 -2.6811 -0.2453
 3771SOL    HW222776   4.577   0.089   4.907 -1.7305  0.4306  0.7070
 3772SOL     OW22777   2.439   0.727   3.571 -0.2665 -0.3786 -0.2474
 3772SOL    HW122778   2.380   0.661   3.607  0.3619 -1.0364 -0.4309
 3772SOL    HW222779   2.482   0.676   3.502 -0.3151 -0.6833 -0.0553
 3773SOL     OW22780   1.200   0.821  12.739 -0.4458  0.2075 -0.0094
 3773SOL    HW122781   1.173   0.747  12.793 -0.5955 -2.1600 -3.3366
 3773SOL    HW222782   1.161   0.806  12.652 -2.4651 -0.6349  1.0383
 3774SOL     OW22783   3.180   1.780   8.630 -0.1041 -0.1488 -0.0981
 3774SOL    HW122784   3.206   1.776   8.723  0.1361 -2.2879 -0.2577
 3774SOL    HW222785   3.085   1.777   8.641 -0.1380  0.5437 -0.1904
 3775SOL     OW22786   3.588   3.759   5.532  0.1383  0.2263  0.4235
 3775SOL    HW122787   3.580   3.663   5.534  0.6361  0.1396 -1.2230
 3775SOL    HW222788   3.619   3.777   5.620  0.4652  2.8548 -0.2520
 3776SOL     OW22789   0.528   4.256  10.976  0.5462  0.2341 -0.5606
 3776SOL    HW122790   0.515   4.292  11.064  0.5378 -1.6380  0.1930
 3776SOL    HW222791   0.590   4.184  10.988  0.3798  0.4559  1.7030
 3777SOL     OW22792   3.693   0.518   3.732  0.2312  0.3549 -0.4823
 3777SOL    HW122793   3.628   0.475   3.789  2.6325  0.5495  2.3753
 3777SOL    HW222794   3.652   0.601   3.707 -0.3829  0.5693  1.2523
 3778SOL     OW22795   2.273   2.988  11.074  0.0464 -0.8189  0.7508
 3778SOL    HW122796   2.185   3.025  11.069 -0.4846 -1.9321  1.7995
 3778SOL    HW222797   2.293   2.996  11.167 -2.0425 -1.5614  1.2601
 3779SOL     OW22798   0.528   0.158   5.824 -0.0484 -0.1110 -0.6245
 3779SOL    HW122799   0.535   0.109   5.906 -0.5437  0.1669 -0.4144
 3779SOL    HW222800   0.434   0.167   5.810 -0.4784 -3.2646  0.2624
 3780SOL     OW22801   3.212   4.340   0.531 -0.6934 -0.0731 -0.0313
 3780SOL    HW122802   3.190   4.396   0.457 -0.1983 -0.4485 -0.4628
 3780SOL    HW222803   3.212   4.254   0.489  1.0509 -0.3504  0.5268
 3781SOL     OW22804   1.226   3.860   7.380 -0.6248  0.4139 -0.6968
 3781SOL    HW122805   1.179   3.928   7.331 -1.9143 -0.1959 -0.2963
 3781SOL    HW222806   1.194   3.786   7.328 -0.8769 -0.5306  0.8070
 3782SOL     OW22807   3.168   4.058  14.968 -0.4888 -0.5326  0.0472
 3782SOL    HW122808   3.244   4.073  14.913 -0.9285  0.1509 -0.3843
 3782SOL    HW222809   3.097   4.076  14.905 -1.2350 -2.5813  0.3048
 3783SOL     OW22810   2.553   4.128   7.341 -0.2244 -0.6489 -0.0770
 3783SOL    HW122811   2.524   4.218   7.352 -1.7045 -1.0182 -0.9305
 3783SOL    HW222812   2.619   4.146   7.273 -0.9595  0.6447 -0.4305
 3784SOL     OW22813   2.517   1.339   3.660  0.0443 -0.0224 -0.3700
 3784SOL    HW122814   2.566   1.261   3.634  3.3528  0.7611  3.3881
 3784SOL    HW222815   2.434   1.311   3.624 -0.1510  0.5085 -0.3373
 3785SOL     OW22816   0.777   1.403   9.209 -0.4500 -0.2285 -0.4255
 3785SOL    HW122817   0.702   1.349   9.184  0.8015 -2.2694  0.2329
 3785SOL    HW222818   0.812   1.348   9.280  0.3751  0.9728  0.1016
 3786SOL     OW22819   3.135   2.042   3.615  0.2913  0.0243  0.2430
 3786SOL    HW122820   3.104   2.110   3.554 -2.0458 -2.7096 -1.5896
 3786SOL    HW222821   3.204   2.085   3.666  2.3269 -1.6014 -1.1727
 3787SOL     OW22822   4.606   0.627  15.387  0.0268  0.0011  0.9556
 3787SOL    HW122823   4.538   0.607  15.451  1.0510 -3.6847  0.8505
 3787SOL    HW222824   4.674   0.564  15.409  0.4371 -0.7112 -2.3456
 3788SOL     OW22825   3.892   3.442   3.216  0.3941  0.0767 -0.2585
 3788SOL    HW122826   3.894   3.464   3.309 -0.2452 -0.4340 -0.1273
 3788SOL    HW222827   3.987   3.429   3.204  0.5202 -1.3901  2.4810
 3789SOL     OW22828   4.544   0.861   5.449  0.3400  0.1786 -0.5271
 3789SOL    HW122829   4.575   0.902   5.530 -0.2098  1.5902 -1.0210
 3789SOL    HW222830   4.450   0.861   5.464  0.5902 -3.2997  1.0039
 3790SOL     OW22831   0.603   2.975   6.962 -0.1076 -0.1288 -0.7472
 3790SOL    HW122832   0.608   3.012   6.874 -0.3876 -0.5017 -0.9192
 3790SOL    HW222833   0.520   2.927   6.961 -0.7089  0.9459 -1.5658
 3791SOL     OW22834   3.734   0.519  16.221  0.0869 -0.4312  0.1255
 3791SOL    HW122835   3.813   0.471  16.244 -0.3468 -1.6388 -0.8746
 3791SOL    HW222836   3.750   0.530  16.127 -2.1329 -1.4225 -0.3765
 3792SOL     OW22837   4.409   2.502   5.164  0.4844  0.3940  0.1381
 3792SOL    HW122838   4.454   2.419   5.176  0.8794  0.4549 -0.9798
 3792SOL    HW222839   4.480   2.553   5.126  2.6368 -1.7356  1.3351
 3793SOL     OW22840   3.130   1.707   5.174  0.0399  0.6405  0.2039
 3793SOL    HW122841   3.051   1.734   5.127 -0.0102 -0.7003 -0.4641
 3793SOL    HW222842   3.198   1.743   5.117  0.4177 -1.1745 -0.4688
 3794SOL     OW22843   3.480   0.989   4.016 -0.3342 -0.0182 -0.7605
 3794SOL    HW122844   3.448   0.900   4.005 -0.0790 -0.1078 -0.7687
 3794SOL    HW222845   3.445   1.043   3.945 -0.3448 -1.7540 -2.0725
 3795SOL     OW22846   2.716   4.181  14.275  0.6855  0.0629 -0.6335
 3795SOL    HW122847   2.786   4.181  14.209  0.5773 -2.1839 -0.7648
 3795SOL    HW222848   2.727   4.092  14.310 -0.9258 -0.1047 -0.5778
 3796SOL     OW22849   3.531   3.950   4.716  0.0142  0.2066  0.0725
 3796SOL    HW122850   3.614   3.903   4.720 -1.0832 -1.7747 -0.4339
 3796SOL    HW222851   3.524   3.940   4.621  2.6048 -1.5058  0.0743
 3797SOL     OW22852   1.445   4.563  11.241  0.2884  0.3211  0.1654
 3797SOL    HW122853   1.458   4.636  11.301  0.6873  0.4627 -0.0967
 3797SOL    HW222854   1.537   4.541  11.226  0.6765  0.9248  1.6770
 3798SOL     OW22855   2.058   1.292   2.123  0.0256  0.6348  0.2787
 3798SOL    HW122856   1.983   1.266   2.177  0.9737  0.2362  1.4105
 3798SOL    HW222857   2.117   1.222   2.151  1.0116  0.3928 -2.4001
 3799SOL     OW22858   2.988   0.843   8.591  0.3523 -0.2269  0.1936
 3799SOL    HW122859   3.062   0.831   8.650  0.8784 -1.9311 -0.8261
 3799SOL    HW222860   2.957   0.929   8.620  1.5535  0.5719 -0.8474
 3800SOL     OW22861   0.112   2.228  13.461 -0.2425  0.3010 -0.2129
 3800SOL    HW122862   0.171   2.155  13.480  1.2162  1.7522  0.7868
 3800SOL    HW222863   0.025   2.197  13.487 -1.0379  2.4767 -0.2724
 3801SOL     OW22864   1.570   0.638   8.536  0.2264 -0.0526  0.1382
 3801SOL    HW122865   1.533   0.713   8.582 -1.0739  0.9976 -2.5914
 3801SOL    HW222866   1.515   0.572   8.578 -0.1976 -0.2260 -0.6906
 3802SOL     OW22867   3.853   3.462   8.526  0.0234 -0.1089 -0.1603
 3802SOL    HW122868   3.822   3.455   8.616 -0.1913  1.1451 -0.1346
 3802SOL    HW222869   3.819   3.378   8.495 -1.4454  0.7997 -1.0264
 3803SOL     OW22870   2.796   3.611   8.647 -1.0389  0.3819 -0.9278
 3803SOL    HW122871   2.816   3.569   8.731  1.1680  0.5698 -1.3581
 3803SOL    HW222872   2.763   3.534   8.601 -0.3310 -1.4230  1.5720
 3804SOL     OW22873   1.675   3.009   6.256  0.9183  0.3558  0.4293
 3804SOL    HW122874   1.654   3.100   6.234  0.4456  0.0853 -0.2458
 3804SOL    HW222875   1.770   3.010   6.260  1.0285 -1.6683 -1.2421
 3805SOL     OW22876   1.901   1.076  15.681 -0.5067 -0.1368 -0.2344
 3805SOL    HW122877   1.923   1.015  15.610 -0.9103 -0.7140  0.1364
 3805SOL    HW222878   1.958   1.150  15.659  1.1058 -0.8790  1.4295
 3806SOL     OW22879   3.278   3.897   3.089  0.0760  0.2672 -1.1571
 3806SOL    HW122880   3.223   3.859   3.021 -1.8742  1.8977 -0.4642
 3806SOL    HW222881   3.298   3.820   3.143  0.9307  0.5124 -1.1148
 3807SOL     OW22882   4.445   2.677  10.660 -0.2349  0.6576 -0.4191
 3807SOL    HW122883   4.407   2.642  10.579 -0.4513  1.6468 -0.7364
 3807SOL    HW222884   4.445   2.771  10.643 -0.3037  0.3754 -1.9440
 3808SOL     OW22885   0.296   2.176   3.418  0.4302 -0.5165  0.2869
 3808SOL    HW122886   0.246   2.095   3.406  1.2026 -1.3279  2.4388
 3808SOL    HW222887   0.388   2.154   3.400  0.0534  0.0358 -2.3306
 3809SOL     OW22888   2.510   2.085   0.347 -0.3711  0.1190 -0.0464
 3809SOL    HW122889   2.415   2.074   0.343 -0.5004  1.2738 -0.1082
 3809SOL    HW222890   2.521   2.085   0.442  0.0076  0.5726 -0.0896
 3810SOL     OW22891   1.048   2.961   7.748 -0.5024 -0.4455  0.2079
 3810SOL    HW122892   1.086   2.924   7.828  1.0426  0.2869 -0.1819
 3810SOL    HW222893   1.094   3.044   7.733 -0.1334 -0.4560  1.2621
 3811SOL     OW22894   2.130   2.709  16.192  0.6284  0.3395 -1.0194
 3811SOL    HW122895   2.166   2.745  16.112  1.0580 -1.3424 -1.5710
 3811SOL    HW222896   2.055   2.659  16.161  1.6764 -3.2386  2.1671
 3812SOL     OW22897   1.053   3.605   2.059  0.4190 -0.4724 -0.6233
 3812SOL    HW122898   0.999   3.684   2.047  2.1590  0.9470  0.8410
 3812SOL    HW222899   1.132   3.647   2.093  0.0815 -0.4440  0.1224
 3813SOL     OW22900   0.353   2.915   5.993  0.3838  0.1465 -0.2820
 3813SOL    HW122901   0.342   3.003   5.957 -0.0592  0.4458  0.5869
 3813SOL    HW222902   0.275   2.895   6.044  1.4466 -3.7720 -0.1831
 3814SOL     OW22903   3.116   2.104  14.958 -0.0597 -0.2769 -0.3454
 3814SOL    HW122904   3.047   2.150  15.005 -0.6509 -0.8843 -0.6224
 3814SOL    HW222905   3.123   2.168  14.888 -0.8462 -1.3366 -1.4006
 3815SOL     OW22906   3.862   3.715   2.046 -0.0277  0.3984  0.2452
 3815SOL    HW122907   3.833   3.797   2.086  0.7681  1.0354 -0.4776
 3815SOL    HW222908   3.956   3.723   2.064  0.2464  2.8907 -2.2525
 3816SOL     OW22909   0.277   0.859   2.703 -0.9531 -0.2415 -0.0501
 3816SOL    HW122910   0.350   0.920   2.716  0.0358 -1.9807  2.6780
 3816SOL    HW222911   0.317   0.792   2.647 -2.3416  1.8601 -3.5535
 3817SOL     OW22912   1.830   4.704  12.447  0.2620 -0.2630 -0.2516
 3817SOL    HW122913   1.765   4.709  12.518 -0.2004 -0.4823 -0.6607
 3817SOL    HW222914   1.869   0.070  12.440 -0.6132  0.3410  2.3800
 3818SOL     OW22915   2.567   1.793   5.668  0.0153 -0.2725  0.1418
 3818SOL    HW122916   2.519   1.861   5.621  1.5024  0.6957  0.0337
 3818SOL    HW222917   2.498   1.762   5.727  1.0740 -1.4107  0.7765
 3819SOL     OW22918   2.339   3.519   0.750  0.0560 -0.8824 -0.1506
 3819SOL    HW122919   2.426   3.547   0.724 -0.2464  0.5448  0.3878
 3819SOL    HW222920   2.307   3.604   0.779  0.3218 -1.0657  0.7006
 3820SOL     OW22921   3.771   1.597  16.658 -0.3102  0.3419 -0.2129
 3820SOL    HW122922   3.820   1.632  16.732 -1.1608 -0.0821  0.5424
 3820SOL    HW222923   3.784   1.503  16.673  1.8244  0.5588 -0.6969
 3821SOL     OW22924   3.945   3.943  17.536  0.2804  0.2778  0.1561
 3821SOL    HW122925   3.943   3.860  17.488 -2.7344  1.6088 -2.0012
 3821SOL    HW222926   3.878   3.937  17.603 -0.6484 -2.1565 -1.0095
 3822SOL     OW22927   1.768   3.503   7.781 -0.0095 -0.5877  0.3895
 3822SOL    HW122928   1.815   3.505   7.698 -0.1313 -1.1184  0.3105
 3822SOL    HW222929   1.727   3.419   7.764  0.1155 -0.8911  1.5635
 3823SOL     OW22930   3.540   1.183  11.514  0.1902  0.3946  0.5899
 3823SOL    HW122931   3.521   1.266  11.471  0.7291 -0.6838 -1.7923
 3823SOL    HW222932   3.602   1.201  11.585 -0.0601 -0.4586  1.0286
 3824SOL     OW22933   4.201   1.691   9.590  0.1210 -0.0608  0.2220
 3824SOL    HW122934   4.281   1.664   9.634  0.1011  1.1088  0.9911
 3824SOL    HW222935   4.171   1.765   9.644 -0.9021  1.0840 -1.8963
 3825SOL     OW22936   4.542   2.598  13.376 -0.3575 -0.7496  0.3387
 3825SOL    HW122937   4.552   2.659  13.449  0.3865  0.8627 -1.1061
 3825SOL    HW222938   4.543   2.518  13.429  2.1323 -1.3757 -0.6794
 3826SOL     OW22939   4.627   1.426   4.435 -0.8210 -0.5172  0.1508
 3826SOL    HW122940   4.665   1.401   4.520  1.5530 -0.4822 -0.8892
 3826SOL    HW222941   4.694   1.410   4.368 -1.5532 -0.9391 -0.4678
 3827SOL     OW22942   1.680   3.223  11.138  0.7463 -0.1017  0.6401
 3827SOL    HW122943   1.599   3.274  11.144  1.1524  0.6394 -0.3000
 3827SOL    HW222944   1.733   3.270  11.202  0.8776 -1.0653  1.2477
 3828SOL     OW22945   1.367   2.380   5.555 -0.5461  0.2157  0.5085
 3828SOL    HW122946   1.445   2.400   5.504 -0.7723 -0.0050  0.0792
 3828SOL    HW222947   1.323   2.464   5.551 -1.6312 -0.2726  1.8539
 3829SOL     OW22948   4.696   0.490   6.824 -0.5596  0.2100 -0.0599
 3829SOL    HW122949   0.014   0.402   6.820 -0.1609  0.3145  1.7608
 3829SOL    HW222950   4.692   0.507   6.730 -0.9018  1.4379  0.1768
 3830SOL     OW22951   3.819   1.466   5.612 -0.3613 -0.2114  0.2583
 3830SOL    HW122952   3.785   1.494   5.527  1.5492 -0.2053 -0.5039
 3830SOL    HW222953   3.875   1.540   5.634 -0.8845  0.6786 -1.4802
 3831SOL     OW22954   3.200   4.235   1.604 -0.6613 -0.1055 -0.7234
 3831SOL    HW122955   3.138   4.182   1.553  0.6316 -1.0385 -1.3331
 3831SOL    HW222956   3.279   4.188   1.579 -1.1899 -0.9146 -0.8552
 3832SOL     OW22957   2.905   0.577   8.650  0.6184 -0.1968  0.3615
 3832SOL    HW122958   2.942   0.665   8.650 -0.5022  0.2698 -0.6515
 3832SOL    HW222959   2.816   0.599   8.623  0.3372 -1.3632  0.3438
 3833SOL     OW22960   0.279   4.046   3.082  0.0195 -0.3690 -0.0697
 3833SOL    HW122961   0.365   4.073   3.051 -0.6764 -0.9862 -2.5520
 3833SOL    HW222962   0.301   3.957   3.111  3.0780  0.9917  1.7134
 3834SOL     OW22963   2.811   1.556   6.684  0.6545  0.3606  0.2880
 3834SOL    HW122964   2.810   1.627   6.749  0.6927  0.8376 -0.2366
 3834SOL    HW222965   2.895   1.566   6.639  0.6766  2.4755  0.8025
 3835SOL     OW22966   2.994   2.368  13.730 -0.0942  0.2369  0.1137
 3835SOL    HW122967   2.939   2.384  13.806 -1.2801  0.2280 -0.7354
 3835SOL    HW222968   3.051   2.301  13.768 -1.5982  0.5420  2.9170
 3836SOL     OW22969   4.355   3.844   5.122 -0.3316 -0.3081 -0.5877
 3836SOL    HW122970   4.336   3.826   5.214 -1.3142  2.0548 -0.3381
 3836SOL    HW222971   4.267   3.866   5.092 -1.1345 -1.7032  0.7394
 3837SOL     OW22972   3.770   3.837   0.496  0.2711  0.0529  0.5310
 3837SOL    HW122973   3.712   3.905   0.462  0.5213 -0.7833 -1.5934
 3837SOL    HW222974   3.853   3.884   0.491  1.9498 -2.9312  0.0106
 3838SOL     OW22975   2.508   1.968  14.713 -0.0796 -0.5589 -0.2013
 3838SOL    HW122976   2.506   1.943  14.620 -1.3492  0.9554 -0.5840
 3838SOL    HW222977   2.517   1.883  14.756  2.1580  0.1842  0.7899
 3839SOL     OW22978   1.033   2.030   8.534  0.4728 -0.1728  0.3525
 3839SOL    HW122979   1.104   1.968   8.517  0.7606  0.3423 -0.2921
 3839SOL    HW222980   0.999   2.047   8.446  1.5359  0.8757  0.1470
 3840SOL     OW22981   2.575   3.210  13.541 -0.0671 -0.3364 -0.5321
 3840SOL    HW122982   2.592   3.183  13.451  0.2376  1.8040 -1.1159
 3840SOL    HW222983   2.497   3.159  13.562 -1.3519  2.4717  1.6693
 3841SOL     OW22984   2.701   3.736   9.323  0.0194  0.2230  0.2438
 3841SOL    HW122985   2.616   3.741   9.369  0.7692 -1.0819  1.7801
 3841SOL    HW222986   2.682   3.792   9.248  0.0131 -2.0406 -1.4360
 3842SOL     OW22987   3.196   0.251  10.550 -0.9267 -0.0124  0.3337
 3842SOL    HW122988   3.246   0.201  10.486 -2.1825  0.9468 -1.4095
 3842SOL    HW222989   3.260   0.290  10.610  0.0927  0.7033 -1.2181
 3843SOL     OW22990   1.754   0.944   4.341 -0.5033 -0.0765  0.0890
 3843SOL    HW122991   1.719   0.893   4.268  0.4552  0.2779 -0.6128
 3843SOL    HW222992   1.773   0.878   4.408  0.6651 -1.2155 -1.3717
 3844SOL     OW22993   1.819   3.787   1.898  0.1647 -0.1346 -0.1517
 3844SOL    HW122994   1.724   3.800   1.897 -0.4173 -4.2260  2.1743
 3844SOL    HW222995   1.825   3.694   1.917  3.2651 -0.2172 -1.6547
 3845SOL     OW22996   0.539   3.492   7.366 -0.0694  0.2991 -0.4435
 3845SOL    HW122997   0.578   3.555   7.427 -3.1784  1.2037  0.6059
 3845SOL    HW222998   0.588   3.513   7.287  2.0099 -2.7519  0.0312
 3846SOL     OW22999   2.469   2.977  10.589 -0.1784  0.2939  0.1378
 3846SOL    HW123000   2.521   2.969  10.668  0.5950 -1.0811 -0.5182
 3846SOL    HW223001   2.394   2.924  10.616  0.5268 -0.6186  0.3003
 3847SOL     OW23002   2.228   0.803  17.312  0.1850  0.1486  0.1720
 3847SOL    HW123003   2.168   0.842  17.376 -0.8045  1.1070 -1.3403
 3847SOL    HW223004   2.217   0.870  17.244 -0.0508  0.5333  0.5901
 3848SOL     OW23005   1.571   0.641   7.609 -0.0228 -0.1189 -0.0115
 3848SOL    HW123006   1.580   0.734   7.590  1.1607  0.0351  1.3189
 3848SOL    HW223007   1.582   0.603   7.521  1.5922  2.0539 -0.7323
 3849SOL     OW23008   2.218   3.807   7.401 -0.7879  0.2748 -0.3860
 3849SOL    HW123009   2.207   3.727   7.349  4.3639 -0.3165 -0.5797
 3849SOL    HW223010   2.229   3.777   7.491 -0.4980 -0.3633 -0.6295
 3850SOL     OW23011   3.996   1.179   2.851  0.7914  0.2757  0.2027
 3850SOL    HW123012   4.087   1.193   2.827  0.6412  0.2609 -0.3807
 3850SOL    HW223013   3.965   1.229   2.775  3.2244  1.2700 -0.1251
 3851SOL     OW23014   4.065   0.281  13.542  0.3498  0.0869  0.0066
 3851SOL    HW123015   3.985   0.240  13.575  0.4218 -1.0348 -1.1884
 3851SOL    HW223016   4.099   0.298  13.630 -0.4346 -1.4055  0.6043
 3852SOL     OW23017   0.432   4.432   4.610 -0.5097  0.5558  0.6046
 3852SOL    HW123018   0.441   4.344   4.648 -1.0261  0.4380  0.4668
 3852SOL    HW223019   0.340   4.434   4.584 -0.6342 -0.5701  0.9522
 3853SOL     OW23020   1.587   1.929  12.967 -0.2622  0.6532  0.2387
 3853SOL    HW123021   1.611   1.892  12.882 -1.2921 -2.7598  1.4256
 3853SOL    HW223022   1.494   1.948  12.957 -0.6212 -0.6168  1.0766
 3854SOL     OW23023   4.642   1.361   7.207 -0.6395  0.9831  0.0128
 3854SOL    HW123024   4.548   1.351   7.220  0.0945 -0.4657  4.0672
 3854SOL    HW223025   4.644   1.416   7.129 -0.3087  1.3435  0.2729
 3855SOL     OW23026   4.674   1.725   4.604 -0.1371 -0.6616 -0.0213
 3855SOL    HW123027   4.642   1.763   4.685 -1.2586  0.8563 -1.1778
 3855SOL    HW223028   0.045   1.749   4.597 -0.4645  0.3839 -0.7874
 3856SOL     OW23029   1.011   1.219   8.050  0.0126  0.1519 -0.5937
 3856SOL    HW123030   1.106   1.228   8.052 -0.0932  1.3261 -0.5567
 3856SOL    HW223031   1.002   1.167   8.130  0.1599  0.0661 -0.6346
 3857SOL     OW23032   4.415   3.823  10.622  0.3061  0.5782 -0.9160
 3857SOL    HW123033   4.377   3.818  10.534  0.7500 -2.2450 -0.9482
 3857SOL    HW223034   4.470   3.745  10.626  0.0640  0.4245 -0.5945
 3858SOL     OW23035   3.404   1.780   7.520 -0.0152 -0.2772 -0.1061
 3858SOL    HW123036   3.382   1.854   7.577  1.4616 -1.0637  1.4994
 3858SOL    HW223037   3.335   1.788   7.455 -1.5901  1.2745  1.7645
 3859SOL     OW23038   1.316   2.982   6.821  0.4882  0.5476  0.3096
 3859SOL    HW123039   1.346   2.916   6.759  3.1121  0.7336  1.3517
 3859SOL    HW223040   1.328   2.948   6.910 -1.5430  1.1340  0.8066
 3860SOL     OW23041   4.150   1.265  15.705 -0.0800  0.0820 -0.1172
 3860SOL    HW123042   4.121   1.246  15.615 -0.0082  2.1113 -0.5815
 3860SOL    HW223043   4.222   1.202  15.715 -1.5987 -1.9433 -1.8729
 3861SOL     OW23044   0.568   2.748   2.370 -0.8137 -0.4878 -0.3648
 3861SOL    HW123045   0.561   2.765   2.464 -0.5747 -0.1021 -0.4138
 3861SOL    HW223046   0.661   2.735   2.354 -0.9036  0.1471 -1.3863
 3862SOL     OW23047   3.545   3.396  12.749  0.6374 -0.0828 -0.3586
 3862SOL    HW123048   3.625   3.357  12.713 -1.1388 -2.2137 -2.0050
 3862SOL    HW223049   3.533   3.354  12.834  0.1935  1.5493  0.3824
 3863SOL     OW23050   3.260   2.560  11.891 -0.4663 -0.2011  0.7415
 3863SOL    HW123051   3.312   2.487  11.924 -0.6936 -1.6656 -2.1515
 3863SOL    HW223052   3.334   2.607  11.853 -0.9908 -0.1374 -0.2243
 3864SOL     OW23053   0.580   2.434   9.370  0.3469  0.4345 -0.5550
 3864SOL    HW123054   0.494   2.394   9.382  1.3848 -1.2059  1.5263
 3864SOL    HW223055   0.612   2.425   9.460  0.6069  0.2822 -0.6631
 3865SOL     OW23056   2.772   1.057  10.089  0.7338  0.2263 -0.4432
 3865SOL    HW123057   2.831   1.129  10.111  0.1537  0.3128  0.8283
 3865SOL    HW223058   2.834   0.984  10.085 -0.5754 -0.9461  0.6787
 3866SOL     OW23059   0.590   1.580   6.238 -0.2538 -0.0996  0.0725
 3866SOL    HW123060   0.517   1.567   6.299 -0.3955 -1.5786 -0.4111
 3866SOL    HW223061   0.638   1.640   6.295  0.4037 -1.3770  0.8684
 3867SOL     OW23062   0.725   0.588   6.051  0.3609  0.0242  0.0049
 3867SOL    HW123063   0.746   0.494   6.045 -0.3726 -0.0500 -1.4781
 3867SOL    HW223064   0.688   0.596   6.139  0.0327 -1.2421 -0.0181
 3868SOL     OW23065   4.327   3.836   8.737  0.0331  0.3384  0.0110
 3868SOL    HW123066   4.380   3.799   8.808 -0.6553 -0.0850  0.3000
 3868SOL    HW223067   4.364   3.925   8.735 -0.1654  0.4192 -0.0503
 3869SOL     OW23068   3.399   0.970   5.900  0.0475  0.1617  0.2067
 3869SOL    HW123069   3.387   1.006   5.812  0.0112 -1.2027 -0.3513
 3869SOL    HW223070   3.439   0.886   5.874 -0.9186 -0.1569 -0.2345
 3870SOL     OW23071   4.367   2.804   6.850  0.2418  0.4371  0.6089
 3870SOL    HW123072   4.361   2.847   6.765 -2.3424  0.4275  0.7829
 3870SOL    HW223073   4.436   2.852   6.897  0.2545  1.3792 -0.3795
 3871SOL     OW23074   1.453   2.583   4.197  0.0723  0.5603 -0.1087
 3871SOL    HW123075   1.362   2.600   4.221 -0.6137 -1.3236 -1.3217
 3871SOL    HW223076   1.458   2.491   4.225 -1.3355  0.7926  0.9145
 3872SOL     OW23077   0.941   0.955   6.539 -0.4316 -0.1298  0.1589
 3872SOL    HW123078   0.875   0.920   6.480 -0.9619  0.3481  0.4619
 3872SOL    HW223079   0.991   0.995   6.468  0.7854 -1.6993  0.1641
 3873SOL     OW23080   1.884   4.516   8.215  0.5529  0.3076 -0.5201
 3873SOL    HW123081   1.856   4.426   8.227  0.5318  0.2888 -0.7081
 3873SOL    HW223082   1.820   4.570   8.262 -0.3386 -0.4922 -0.8215
 3874SOL     OW23083   3.134   4.476   4.702 -0.3459 -0.1355  0.0038
 3874SOL    HW123084   3.041   4.466   4.721 -1.1272  1.6027 -2.7857
 3874SOL    HW223085   3.166   4.406   4.758  2.0095  0.9928  0.0517
 3875SOL     OW23086   0.784   3.720   1.761  0.2875 -0.0894  0.1462
 3875SOL    HW123087   0.837   3.721   1.840 -0.0865  1.1846  0.3884
 3875SOL    HW223088   0.847   3.729   1.690  0.0824  0.4063  0.0242
 3876SOL     OW23089   1.889   1.095   9.661  0.4508 -0.5499 -0.2362
 3876SOL    HW123090   1.831   1.088   9.737  0.8195 -0.3056  0.0623
 3876SOL    HW223091   1.921   1.005   9.654  1.5203 -0.0869 -1.3269
 3877SOL     OW23092   2.414   1.506   8.145 -0.4313  0.2114 -0.2122
 3877SOL    HW123093   2.447   1.550   8.222 -0.7412  0.7758 -0.3981
 3877SOL    HW223094   2.322   1.483   8.156 -0.2453 -0.7513 -0.6320
 3878SOL     OW23095   3.789   3.955   3.475  0.4782 -0.1380 -0.1002
 3878SOL    HW123096   3.815   3.966   3.384  0.6730  1.8271  0.1946
 3878SOL    HW223097   3.710   3.904   3.457 -0.8782  1.7599  0.5024
 3879SOL     OW23098   0.364   1.822  10.394  0.2860  0.1384  0.0593
 3879SOL    HW123099   0.323   1.742  10.362  1.3057 -0.7075  0.8628
 3879SOL    HW223100   0.398   1.789  10.477  0.9201 -0.7999 -0.5676
 3880SOL     OW23101   0.276   0.328   0.205 -0.3726  0.7060 -0.2141
 3880SOL    HW123102   0.231   0.268   0.266  0.1015  1.1765  0.5945
 3880SOL    HW223103   0.214   0.400   0.201  0.7233  1.7995  2.3301
 3881SOL     OW23104   1.112   4.204   3.380  0.0814  0.1021 -0.2835
 3881SOL    HW123105   1.054   4.263   3.332 -1.6405 -0.4642  1.0926
 3881SOL    HW223106   1.111   4.261   3.457 -2.8528 -0.5416  0.1864
 3882SOL     OW23107   0.117   3.620   3.970  0.9977 -0.1418  0.3652
 3882SOL    HW123108   0.071   3.644   3.889  0.0459 -0.0194  0.9354
 3882SOL    HW223109   0.191   3.680   3.983  0.0950  0.6018  2.0682
 3883SOL     OW23110   4.262   4.373  11.259  0.0541  0.1994  0.1863
 3883SOL    HW123111   4.195   4.328  11.311 -0.6591  1.6500  0.5181
 3883SOL    HW223112   4.313   4.421  11.323  0.0507 -1.0926  1.1514
 3884SOL     OW23113   2.330   1.866   7.131  0.0095 -0.5549 -0.3113
 3884SOL    HW123114   2.358   1.899   7.045  0.9927 -0.8015 -0.0838
 3884SOL    HW223115   2.381   1.787   7.147  2.6703  1.4637  1.1505
 3885SOL     OW23116   2.938   4.029   8.134 -0.0831 -0.4020  0.8436
 3885SOL    HW123117   2.971   4.082   8.062 -0.0961 -0.3753  0.8573
 3885SOL    HW223118   2.846   4.056   8.138  0.4471  1.1010  2.5377
 3886SOL     OW23119   1.903   4.405   4.050 -0.2769  0.6064 -0.0876
 3886SOL    HW123120   1.845   4.372   4.119 -2.1234  1.8253 -1.0593
 3886SOL    HW223121   1.848   4.425   3.975  0.8260  2.8648 -0.2887
 3887SOL     OW23122   3.556   2.793   0.517 -0.1970 -0.1396 -0.7680
 3887SOL    HW123123   3.521   2.864   0.571 -0.7448  1.4922 -3.2733
 3887SOL    HW223124   3.479   2.768   0.466  1.0982 -3.7762 -0.9467
 3888SOL     OW23125   1.140   3.706  17.683 -0.0079 -0.9560 -0.4212
 3888SOL    HW123126   1.230   3.681   0.017  0.0320  0.9811  1.5067
 3888SOL    HW223127   1.136   3.662  17.597 -3.3950 -0.7138 -0.3626
 3889SOL     OW23128   0.468   3.896   5.022  0.0901 -0.0315  0.0911
 3889SOL    HW123129   0.558   3.871   5.042  0.1588  1.3922  1.5489
 3889SOL    HW223130   0.480   3.875   4.929 -0.5711  0.1183 -0.0282
 3890SOL     OW23131   3.431   0.071   5.953  0.1491 -1.1003  0.4617
 3890SOL    HW123132   3.449   0.104   6.041 -2.6670  1.8867 -0.0874
 3890SOL    HW223133   3.344   0.104   5.932 -0.0804 -3.4248 -2.2122
 3891SOL     OW23134   3.885   3.345  16.051 -0.4146  0.0958 -0.2046
 3891SOL    HW123135   3.868   3.329  15.958  0.7395 -0.5456 -0.3089
 3891SOL    HW223136   3.957   3.283  16.061 -0.6158  0.4191  3.2705
 3892SOL     OW23137   1.498   2.842   5.810 -0.0557  0.5721 -0.1976
 3892SOL    HW123138   1.515   2.840   5.715 -0.5418 -0.6364 -0.2584
 3892SOL    HW223139   1.497   2.936   5.825 -1.6547  0.3947  0.7928
 3893SOL     OW23140   3.498   1.402   5.606 -0.3080  0.0054 -0.1808
 3893SOL    HW123141   3.540   1.316   5.602  1.1859  0.7152  0.1598
 3893SOL    HW223142   3.483   1.429   5.515  1.9712  1.0820 -0.2424
 3894SOL     OW23143   2.507   3.586   4.874 -0.2325 -0.2635  0.3501
 3894SOL    HW123144   2.418   3.553   4.883  0.1410 -1.1561  0.7699
 3894SOL    HW223145   2.509   3.632   4.958 -1.1128 -0.0444  0.2530
 3895SOL     OW23146   0.873   4.168   4.349  0.0629  0.0878  0.0393
 3895SOL    HW123147   0.826   4.114   4.412 -0.2811  0.0210 -0.2723
 3895SOL    HW223148   0.803   4.214   4.301  0.2767  0.7292  0.3366
 3896SOL     OW23149   4.332   4.177   7.109  0.4222  0.3000 -0.0784
 3896SOL    HW123150   4.305   4.098   7.155 -3.3821 -0.4351 -3.5156
 3896SOL    HW223151   4.259   4.188   7.048  0.4066  1.3390  0.1273
 3897SOL     OW23152   0.504   3.824   4.109  0.1011  0.1769 -0.0624
 3897SOL    HW123153   0.570   3.813   4.041 -0.7756 -1.5617 -0.6429
 3897SOL    HW223154   0.420   3.825   4.062 -0.2025  3.1535  0.5004
 3898SOL     OW23155   2.903   4.385   5.225 -0.1269 -0.6001 -0.3237
 3898SOL    HW123156   2.952   4.467   5.229 -0.1867 -0.5493 -0.6217
 3898SOL    HW223157   2.867   4.396   5.137  0.8855  1.3270 -0.4949
 3899SOL     OW23158   0.223   2.587  13.350 -0.4530 -0.5222  0.4662
 3899SOL    HW123159   0.310   2.570  13.388 -0.0062  0.5176 -0.1149
 3899SOL    HW223160   0.247   2.644  13.278  0.1726 -1.4641 -0.0797
 3900SOL     OW23161   1.685   2.642   4.805  0.0442 -0.1363  0.5544
 3900SOL    HW123162   1.768   2.665   4.763 -0.0581 -1.4316 -0.3493
 3900SOL    HW223163   1.654   2.573   4.746  0.9523 -0.1969  0.1414
 3901SOL     OW23164   1.101   3.782   2.991  0.2589  0.2814 -0.4519
 3901SOL    HW123165   1.184   3.828   2.986  1.5505 -1.5538  4.0850
 3901SOL    HW223166   1.128   3.690   2.987 -0.9475 -0.0486 -1.2548
 3902SOL     OW23167   3.785   4.308  16.466 -0.3041  0.2966  0.2278
 3902SOL    HW123168   3.869   4.354  16.458 -1.1906  2.1259  1.4224
 3902SOL    HW223169   3.734   4.363  16.406 -0.3741  0.9098  0.8528
 3903SOL     OW23170   1.315   1.455   7.500  0.4481  0.3355  0.2284
 3903SOL    HW123171   1.263   1.386   7.542  0.1079 -0.9037 -2.2240
 3903SOL    HW223172   1.280   1.455   7.411 -1.2157  0.2808  0.8797
 3904SOL     OW23173   2.493   4.330  14.209  0.1180  0.3462  0.0525
 3904SOL    HW123174   2.542   4.254  14.243  0.7255  0.2575 -1.0113
 3904SOL    HW223175   2.531   4.405  14.254 -1.7721  1.8618 -0.8934
 3905SOL     OW23176   3.174   2.065   4.594  0.3653 -0.3785  0.2547
 3905SOL    HW123177   3.113   2.056   4.521 -0.9748  0.5407  1.2466
 3905SOL    HW223178   3.208   2.153   4.584 -0.2880 -0.4683 -2.7484
 3906SOL     OW23179   4.500   1.687   1.289 -0.0364 -0.5480  0.1183
 3906SOL    HW123180   4.405   1.692   1.300 -0.0179 -0.4668  0.2386
 3906SOL    HW223181   4.532   1.738   1.215  2.7860 -0.8952  1.0783
 3907SOL     OW23182   3.389   4.640   4.805  0.2755  0.0572 -0.4109
 3907SOL    HW123183   3.378   4.659   4.712  2.2458 -0.4480 -0.7625
 3907SOL    HW223184   3.304   4.605   4.832 -0.3883  2.8867  1.1357
 3908SOL     OW23185   1.396   0.001   9.915 -0.4241 -0.4797 -0.2372
 3908SOL    HW123186   1.355   0.077   9.873 -0.4541 -0.1967  0.2957
 3908SOL    HW223187   1.409   4.659   9.846  0.8514 -0.6455  0.1478
 3909SOL     OW23188   3.705   0.135   5.170  0.0331 -0.3896 -0.0232
 3909SOL    HW123189   3.743   0.154   5.085 -0.4708  3.5685  0.6108
 3909SOL    HW223190   3.751   0.066   5.218  3.0408  2.1462  0.7285
 3910SOL     OW23191   2.976   3.386  14.218 -0.2816 -0.1382 -0.0764
 3910SOL    HW123192   3.026   3.401  14.298 -0.0702 -0.5347 -0.1346
 3910SOL    HW223193   3.050   3.384  14.156 -0.9630  1.1232 -0.9320
 3911SOL     OW23194   4.459   2.050  11.195 -0.2564 -0.1995  0.3478
 3911SOL    HW123195   4.426   2.072  11.108  0.9541  0.3212  0.0322
 3911SOL    HW223196   4.469   1.955  11.187  4.0318  0.4065 -1.3237
 3912SOL     OW23197   2.535   2.575   0.919  0.4313  0.2302  0.4924
 3912SOL    HW123198   2.543   2.481   0.903 -1.7081 -0.0200  0.8918
 3912SOL    HW223199   2.614   2.606   0.875 -0.3916  2.0517  0.3015
 3913SOL     OW23200   4.572   0.552  11.928  0.3785  0.5703 -0.1156
 3913SOL    HW123201   4.505   0.568  11.862 -0.0856 -0.8897  0.0106
 3913SOL    HW223202   4.638   0.608  11.887  1.1035 -1.3009 -1.5211
 3914SOL     OW23203   2.012   1.157  17.193 -0.1452 -0.5554  0.5029
 3914SOL    HW123204   2.096   1.113  17.178 -0.1185  0.4170 -2.2298
 3914SOL    HW223205   2.024   1.176  17.286 -0.4358 -1.9247  0.8106
 3915SOL     OW23206   2.543   3.338   0.901 -0.4715  0.0744 -0.0958
 3915SOL    HW123207   2.526   3.418   0.951 -0.1546  0.6155 -0.8420
 3915SOL    HW223208   2.512   3.373   0.817  1.9371 -0.3267 -1.1703
 3916SOL     OW23209   3.017   1.175   6.589  0.1315  0.2752  0.1679
 3916SOL    HW123210   3.082   1.116   6.627  0.9938  0.4194 -1.0757
 3916SOL    HW223211   3.043   1.166   6.498  1.3963 -3.5865  0.9472
 3917SOL     OW23212   2.176   3.745  15.031 -0.0565 -0.1248 -0.3592
 3917SOL    HW123213   2.128   3.733  15.113  0.1366  0.9567 -0.0857
 3917SOL    HW223214   2.260   3.703  15.051  0.9782  3.0342  1.9070
 3918SOL     OW23215   0.612   2.657   5.083 -0.0839 -0.2246 -0.3539
 3918SOL    HW123216   0.526   2.686   5.112  0.2202  0.4520 -0.1402
 3918SOL    HW223217   0.681   2.712   5.121 -0.0528 -1.2438  1.0874
 3919SOL     OW23218   0.488   2.769   9.395  0.0407 -0.3724 -0.7442
 3919SOL    HW123219   0.501   2.721   9.313 -0.2172  0.0947 -1.0588
 3919SOL    HW223220   0.497   2.860   9.367 -0.3183  0.2638  1.1844
 3920SOL     OW23221   0.819   3.379   6.982 -0.1638 -0.4050 -0.2054
 3920SOL    HW123222   0.858   3.411   6.900 -0.6683  1.6414  0.3605
 3920SOL    HW223223   0.901   3.337   7.009 -0.7903 -0.9551  0.8445
 3921SOL     OW23224   0.430   4.132  13.898  0.2337 -0.2080  0.2686
 3921SOL    HW123225   0.351   4.126  13.951 -0.8893 -0.1689 -1.3728
 3921SOL    HW223226   0.451   4.043  13.869  0.6928  0.5309 -1.6662
 3922SOL     OW23227   1.617   0.515   6.385  0.3548 -0.6629 -0.0144
 3922SOL    HW123228   1.660   0.430   6.371  1.7328 -0.0739  0.6247
 3922SOL    HW223229   1.691   0.572   6.402  0.5164 -0.7996 -0.2549
 3923SOL     OW23230   1.362   0.739   1.528 -0.0958 -0.5197 -0.5125
 3923SOL    HW123231   1.280   0.759   1.573  1.8187  0.8462  2.2926
 3923SOL    HW223232   1.353   0.798   1.453 -0.4600  0.5586  0.3795
 3924SOL     OW23233   3.388   3.660   4.612 -0.4212  0.7828  0.3014
 3924SOL    HW123234   3.300   3.653   4.649 -1.0366  0.0382 -1.3089
 3924SOL    HW223235   3.354   3.696   4.531 -0.7634 -0.7663 -0.2401
 3925SOL     OW23236   1.991   3.170   3.285 -0.3731 -0.2588  0.3267
 3925SOL    HW123237   2.036   3.088   3.264  0.1727  0.4018 -1.0936
 3925SOL    HW223238   1.992   3.223   3.206 -1.9347 -1.4537 -0.4807
 3926SOL     OW23239   4.263   3.381   5.106  0.3457 -0.0436 -0.9066
 3926SOL    HW123240   4.226   3.293   5.112  0.2131  0.0558 -0.2658
 3926SOL    HW223241   4.204   3.434   5.159  1.5705 -0.4855  0.8674
 3927SOL     OW23242   3.201   2.844   1.976  0.0132 -0.0655  0.2300
 3927SOL    HW123243   3.135   2.896   1.931  0.8462  2.0340  1.4672
 3927SOL    HW223244   3.253   2.910   2.022  0.0416  0.1192 -0.0664
 3928SOL     OW23245   2.291   4.306   4.306 -0.1013  0.1177 -0.5491
 3928SOL    HW123246   2.254   4.371   4.246 -0.6454 -0.4004 -0.7678
 3928SOL    HW223247   2.314   4.361   4.381  0.7581 -2.8444  1.3711
 3929SOL     OW23248   0.681   1.254   9.581  0.5753  0.5889 -0.0951
 3929SOL    HW123249   0.625   1.187   9.542 -1.1934  2.0709 -0.1497
 3929SOL    HW223250   0.706   1.211   9.663 -0.6382 -3.5018 -1.8658
 3930SOL     OW23251   2.385   4.120  16.783 -0.5333 -0.1999  0.0456
 3930SOL    HW123252   2.478   4.140  16.789 -0.2031 -1.7035 -0.0563
 3930SOL    HW223253   2.363   4.155  16.696 -0.7675  0.8095  0.5077
 3931SOL     OW23254   0.051   0.247   6.037  0.6418 -0.3909 -0.3065
 3931SOL    HW123255   0.008   0.284   6.114 -0.0119 -3.0894  0.6276
 3931SOL    HW223256   4.714   0.278   5.968  0.6920 -0.3093 -0.3123
 3932SOL     OW23257   0.815   3.437   6.701 -0.0188  0.0299 -0.0239
 3932SOL    HW123258   0.888   3.425   6.640  0.8256 -0.1378  1.0028
 3932SOL    HW223259   0.756   3.494   6.652 -0.5530 -0.2293  0.3154
 3933SOL     OW23260   2.202   4.237   8.409 -0.4379 -0.3967  0.4956
 3933SOL    HW123261   2.173   4.254   8.498  0.8999 -0.4563  0.9389
 3933SOL    HW223262   2.296   4.253   8.410 -0.0324 -2.7116 -1.7999
 3934SOL     OW23263   2.605   0.136  10.305  0.2280 -0.6243 -0.1056
 3934SOL    HW123264   2.638   0.053  10.271  1.4542 -0.8606  1.6559
 3934SOL    HW223265   2.523   0.109  10.348  0.2128 -1.9762 -0.9836
 3935SOL     OW23266   1.456   2.991   7.131  0.5076  0.4814  0.1082
 3935SOL    HW123267   1.423   3.065   7.182 -1.2896  1.2560 -2.1951
 3935SOL    HW223268   1.398   2.919   7.156 -0.7044  0.3367 -3.1493
 3936SOL     OW23269   1.187   0.681   8.912  0.4018 -0.3124 -0.0516
 3936SOL    HW123270   1.110   0.688   8.968  0.8687 -1.7520  0.7612
 3936SOL    HW223271   1.146   0.649   8.832  0.3798 -1.1693  0.3013
 3937SOL     OW23272   0.582   2.242   5.323  0.1572  0.4832 -0.7073
 3937SOL    HW123273   0.535   2.284   5.395 -0.0288  0.9851 -1.1147
 3937SOL    HW223274   0.547   2.154   5.333 -0.9681  1.1507  1.3450
 3938SOL     OW23275   2.147   4.264   3.028  0.1322 -0.4333  0.3251
 3938SOL    HW123276   2.173   4.188   2.975 -3.1242 -0.9483 -0.5213
 3938SOL    HW223277   2.054   4.248   3.040  0.1679 -1.0159 -0.1630
 3939SOL     OW23278   4.069   2.909  10.023  0.3002 -0.5289 -0.2220
 3939SOL    HW123279   3.976   2.889  10.011  0.0917  0.3543 -0.0677
 3939SOL    HW223280   4.090   2.834  10.078 -0.5238 -1.7247 -1.5360
 3940SOL     OW23281   1.489   3.621   2.959 -0.6918  0.0468  0.3675
 3940SOL    HW123282   1.559   3.570   3.001 -0.0297  0.1733 -0.5897
 3940SOL    HW223283   1.495   3.588   2.870  0.6789  2.4047 -0.4117
 3941SOL     OW23284   4.370   0.797   6.421 -0.6270  0.1950 -0.0850
 3941SOL    HW123285   4.386   0.745   6.500  0.0634 -1.0470 -1.0366
 3941SOL    HW223286   4.458   0.833   6.432  1.1716 -4.2252 -0.0238
 3942SOL     OW23287   0.286   1.670  14.263  0.1157  0.1061 -0.6726
 3942SOL    HW123288   0.205   1.714  14.287  0.0169  0.9438 -2.4865
 3942SOL    HW223289   0.252   1.593  14.218 -0.1064 -0.5919  0.6962
 3943SOL     OW23290   2.878   3.772  16.279  0.0828 -0.1431  0.3835
 3943SOL    HW123291   2.954   3.812  16.237 -2.4066  1.2926 -2.7337
 3943SOL    HW223292   2.813   3.828  16.236  0.1028  0.5061  1.1978
 3944SOL     OW23293   3.722   4.588   3.281  0.0757 -0.2181 -0.4320
 3944SOL    HW123294   3.627   4.573   3.275 -0.3175  2.1887  0.0740
 3944SOL    HW223295   3.727   4.673   3.322  0.7796 -0.0955 -0.7760
 3945SOL     OW23296   2.396   1.318  17.016 -0.7716  0.6933 -0.3837
 3945SOL    HW123297   2.476   1.287  17.058  0.9141  2.9077 -1.9634
 3945SOL    HW223298   2.370   1.237  16.972 -1.9352  0.2514  1.1387
 3946SOL     OW23299   4.039   3.253   0.755 -0.3971 -0.4007  0.7918
 3946SOL    HW123300   4.046   3.347   0.769  2.4665 -0.2312 -1.8221
 3946SOL    HW223301   4.039   3.228   0.848  2.0788 -1.6432  0.4497
 3947SOL     OW23302   0.026   2.449  12.949 -0.4295  0.4051 -0.1117
 3947SOL    HW123303   4.700   2.453  13.032 -0.7877 -2.1876 -0.1924
 3947SOL    HW223304   0.082   2.372  12.960 -0.0919  1.1544  3.2920
 3948SOL     OW23305   0.434   2.215  11.254  0.1510 -0.2824 -0.3814
 3948SOL    HW123306   0.488   2.191  11.179 -1.2882 -0.4129 -1.3712
 3948SOL    HW223307   0.442   2.310  11.250  0.8615 -0.1543  3.7294
 3949SOL     OW23308   3.126   2.008   2.798 -0.2605 -0.2300 -0.0785
 3949SOL    HW123309   3.081   1.933   2.837  0.3243 -1.0047 -0.9211
 3949SOL    HW223310   3.125   1.981   2.706 -1.3478 -0.2120 -0.0719
 3950SOL     OW23311   3.831   2.291   7.883  0.4287 -0.1268 -0.6264
 3950SOL    HW123312   3.864   2.251   7.963  2.8190 -0.6402 -1.8524
 3950SOL    HW223313   3.761   2.233   7.855 -0.2861  0.1532  0.6102
 3951SOL     OW23314   2.675   2.114   8.336  0.6981 -0.0294  0.0387
 3951SOL    HW123315   2.603   2.159   8.381 -1.1875 -3.8637  0.8689
 3951SOL    HW223316   2.730   2.189   8.311  1.2868 -0.1201  1.0632
 3952SOL     OW23317   1.978   3.597   4.766 -0.3654  0.4884 -0.4876
 3952SOL    HW123318   1.894   3.621   4.725  0.4219  1.7136 -1.3771
 3952SOL    HW223319   1.999   3.670   4.823  0.0467  0.7300 -0.9452
 3953SOL     OW23320   1.341   0.485  10.024  0.2300 -0.2650  0.1852
 3953SOL    HW123321   1.291   0.567  10.021 -0.8041 -0.7914  3.4896
 3953SOL    HW223322   1.346   0.470   9.929  2.1169 -1.2210  0.4431
 3954SOL     OW23323   0.095   2.287   3.676 -0.0807 -0.3186 -0.1126
 3954SOL    HW123324   0.150   2.275   3.754  1.0929  2.4647 -0.5333
 3954SOL    HW223325   0.082   2.380   3.694  2.2416 -0.4140  2.1923
 3955SOL     OW23326   4.318   4.136   7.446 -0.0783 -0.1543  0.2534
 3955SOL    HW123327   4.382   4.107   7.512 -0.1415 -1.6797 -0.3561
 3955SOL    HW223328   4.368   4.208   7.408  0.7734 -0.3338  1.0155
 3956SOL     OW23329   3.809   0.585   7.552  0.4751 -0.0326  0.2185
 3956SOL    HW123330   3.713   0.581   7.557  0.6067  0.8251  3.2508
 3956SOL    HW223331   3.818   0.490   7.537 -0.5756 -0.3040  1.2949
 3957SOL     OW23332   3.332   3.913   5.574  0.7370 -0.3543 -0.3902
 3957SOL    HW123333   3.280   3.836   5.598 -0.7976  1.2421  1.4002
 3957SOL    HW223334   3.404   3.868   5.530 -0.3742 -1.6986 -0.8573
 3958SOL     OW23335   2.289   4.310   1.708  0.1099  0.5740  0.1354
 3958SOL    HW123336   2.331   4.345   1.629 -2.4917  2.2370 -0.5182
 3958SOL    HW223337   2.215   4.369   1.722 -0.8993 -1.1025  1.8442
 3959SOL     OW23338   0.926   4.463   4.491 -0.3193 -0.1243  0.4303
 3959SOL    HW123339   0.950   4.378   4.453  0.5993  0.2488  0.1759
 3959SOL    HW223340   0.834   4.453   4.515  0.0700 -3.5072  0.5653
 3960SOL     OW23341   1.732   1.597   2.199  0.2017  0.5752 -0.3512
 3960SOL    HW123342   1.822   1.628   2.193  0.1240  1.0140  0.6679
 3960SOL    HW223343   1.737   1.540   2.276  0.6544 -0.4513 -1.1494
 3961SOL     OW23344   1.966   0.849   4.716 -0.1730 -0.3054  0.8817
 3961SOL    HW123345   1.936   0.919   4.773 -0.1727 -0.9904  1.7281
 3961SOL    HW223346   2.051   0.835   4.758  0.7329  1.4600 -0.3317
 3962SOL     OW23347   1.074   3.480  10.679 -0.7866  0.5140 -0.4700
 3962SOL    HW123348   1.076   3.551  10.743 -1.1517  0.0179  0.1057
 3962SOL    HW223349   1.000   3.431  10.716  0.0910  0.1232  0.7764
 3963SOL     OW23350   3.280   0.212  13.759 -0.0918 -0.8831 -0.1980
 3963SOL    HW123351   3.362   0.233  13.805 -0.0467 -1.8416  0.1633
 3963SOL    HW223352   3.216   0.275  13.791  0.5894 -0.8152  1.0378
 3964SOL     OW23353   1.801   2.912   4.295 -0.1843  0.3894  0.0376
 3964SOL    HW123354   1.854   2.987   4.269 -0.3651 -0.4544 -2.8103
 3964SOL    HW223355   1.757   2.895   4.211 -0.5812  1.4932  0.0230
 3965SOL     OW23356   2.487   3.973   8.787 -0.6610  0.4625  0.3393
 3965SOL    HW123357   2.434   3.920   8.847  0.9905 -1.6779 -0.0828
 3965SOL    HW223358   2.496   4.046   8.848 -2.4645 -0.4666  1.7247
 3966SOL     OW23359   4.128   1.919   9.727 -0.0372 -0.0754 -0.4354
 3966SOL    HW123360   4.034   1.922   9.747  0.0606 -3.2899  0.5314
 3966SOL    HW223361   4.154   2.010   9.721  0.6057 -0.2596 -0.4486
 3967SOL     OW23362   0.679   1.333   4.994 -0.2787 -0.5283 -0.6237
 3967SOL    HW123363   0.662   1.244   5.023  0.4261 -0.8491 -1.1968
 3967SOL    HW223364   0.612   1.331   4.926  0.4036  0.3531 -1.3138
 3968SOL     OW23365   1.596   0.968   8.387 -0.8159 -0.5118 -0.1149
 3968SOL    HW123366   1.635   0.898   8.336 -0.9823 -0.1796 -0.6938
 3968SOL    HW223367   1.604   0.933   8.476 -0.2025  1.8434  0.7502
 3969SOL     OW23368   1.699   3.241   7.720  0.4432  0.0573 -0.3422
 3969SOL    HW123369   1.737   3.237   7.631  1.2958  0.2665  0.0097
 3969SOL    HW223370   1.609   3.236   7.690  1.0247  0.6226 -2.1819
 3970SOL     OW23371   2.235   1.008  17.111  0.0235  0.7476 -0.2775
 3970SOL    HW123372   2.318   1.050  17.133  0.9888 -1.0549 -0.4961
 3970SOL    HW223373   2.248   1.009  17.016 -0.5354 -0.0041 -0.3679
 3971SOL     OW23374   2.067   0.320   4.040  0.0145 -0.1080 -0.0646
 3971SOL    HW123375   2.019   0.354   4.116 -2.0057 -0.9433 -0.9727
 3971SOL    HW223376   2.002   0.330   3.971  1.0997 -0.3643 -1.1136
 3972SOL     OW23377   4.624   0.930   2.872 -0.0373 -0.5906  1.0315
 3972SOL    HW123378   4.554   0.994   2.861 -0.0908 -1.0932 -1.5434
 3972SOL    HW223379   4.573   0.853   2.899 -0.8689  0.1255  1.4863
 3973SOL     OW23380   4.621   0.364   3.597  0.0935 -0.1616  0.2103
 3973SOL    HW123381   4.667   0.423   3.537  0.6235  0.0492  0.8234
 3973SOL    HW223382   4.594   0.291   3.542  2.7770 -0.9504 -0.0459
 3974SOL     OW23383   0.509   2.297   5.676  0.4834 -0.1612 -0.0478
 3974SOL    HW123384   0.488   2.322   5.766  0.2556 -0.5097 -0.0070
 3974SOL    HW223385   0.433   2.253   5.639  2.0356 -0.7652 -2.4870
 3975SOL     OW23386   1.036   3.652   0.265  0.5786  1.0086 -0.7033
 3975SOL    HW123387   1.069   3.566   0.292  2.6241  1.6716 -1.1406
 3975SOL    HW223388   1.068   3.656   0.175  2.6679 -1.4670 -0.0616
 3976SOL     OW23389   2.431   3.068   9.084 -0.2771  0.1085  0.0488
 3976SOL    HW123390   2.421   3.010   9.009 -0.2988 -1.2778  1.1277
 3976SOL    HW223391   2.514   3.113   9.066  1.1079 -1.5540  2.2918
 3977SOL     OW23392   3.278   1.716   6.108  0.5109 -0.1248  0.3751
 3977SOL    HW123393   3.345   1.695   6.043  0.7250 -4.2287  1.9712
 3977SOL    HW223394   3.332   1.755   6.176  0.6626  0.7416 -0.2385
 3978SOL     OW23395   0.878   2.900   9.075 -0.3367 -0.3699  0.1740
 3978SOL    HW123396   0.864   2.923   9.167 -2.2544  1.3040 -0.5492
 3978SOL    HW223397   0.794   2.861   9.049 -1.4928  1.4980  1.1332
 3979SOL     OW23398   1.396   1.567  17.324  0.6310 -0.2262 -0.4541
 3979SOL    HW123399   1.359   1.654  17.309 -1.8308 -1.4360 -1.6273
 3979SOL    HW223400   1.321   1.522  17.363  1.1921 -1.0430 -0.3185
 3980SOL     OW23401   0.723   4.053  14.560 -0.3537  0.2753  0.2067
 3980SOL    HW123402   0.646   4.109  14.562 -0.3658  0.2148  1.6055
 3980SOL    HW223403   0.739   4.039  14.653  2.2862 -2.6937 -0.6708
 3981SOL     OW23404   1.635   3.479  17.030  0.1547  0.2771  0.0019
 3981SOL    HW123405   1.584   3.505  17.107  2.1039 -0.6432  1.6140
 3981SOL    HW223406   1.725   3.474  17.063  0.2561  0.3236 -0.2690
 3982SOL     OW23407   3.065   1.182   5.910  0.2118  0.6310 -0.0866
 3982SOL    HW123408   2.971   1.172   5.923  0.2654  0.9713  0.5444
 3982SOL    HW223409   3.093   1.093   5.887 -1.3503  0.3096 -0.7782
 3983SOL     OW23410   4.577   2.122   2.251 -0.2100  0.2450  0.5209
 3983SOL    HW123411   4.543   2.093   2.166  0.9658  1.2732 -0.3093
 3983SOL    HW223412   4.551   2.214   2.245  2.3406  0.9193 -0.2543
 3984SOL     OW23413   1.822   0.628  17.242 -0.1705  0.3086 -0.8970
 3984SOL    HW123414   1.886   0.591  17.182  0.0464  2.0574 -1.7403
 3984SOL    HW223415   1.750   0.584  17.197  0.8357 -2.7032  0.4310
 3985SOL     OW23416   4.154   2.845   4.313  0.0376  0.1852  0.3019
 3985SOL    HW123417   4.107   2.814   4.390  2.5137  1.1249  2.2275
 3985SOL    HW223418   4.143   2.771   4.254  2.2184  0.9033 -1.0248
 3986SOL     OW23419   0.523   1.754   0.777 -1.0757  0.4884  0.2755
 3986SOL    HW123420   0.592   1.748   0.843 -0.7802  2.6590  0.1764
 3986SOL    HW223421   0.454   1.808   0.816  0.1343  1.4335  1.1032
 3987SOL     OW23422   3.904   1.883   3.449 -0.6638 -0.2637 -0.1741
 3987SOL    HW123423   3.981   1.843   3.490  0.4714  1.1169 -0.9846
 3987SOL    HW223424   3.912   1.855   3.358  1.7100 -0.2882  0.0453
 3988SOL     OW23425   3.976   3.478  14.428  0.0760 -0.4625  0.1866
 3988SOL    HW123426   3.887   3.507  14.411  0.2581  0.3231  0.5565
 3988SOL    HW223427   4.029   3.527  14.364 -0.3469  0.4972  0.5758
 3989SOL     OW23428   0.901   4.636   2.761 -0.0114  0.0877  0.5749
 3989SOL    HW123429   0.896   4.701   2.690  2.6709 -0.5849 -0.2231
 3989SOL    HW223430   0.965   4.574   2.726  1.3012  2.4109 -1.1920
 3990SOL     OW23431   4.319   0.943  11.050  0.0146 -0.1334 -0.0203
 3990SOL    HW123432   4.259   1.018  11.054  0.0992  0.0299 -2.0849
 3990SOL    HW223433   4.399   0.978  11.088  1.2236 -1.2114 -1.5708
 3991SOL     OW23434   4.053   3.420   2.688  0.3054  0.3994 -0.4808
 3991SOL    HW123435   4.023   3.367   2.615  0.8559 -0.2128 -0.2651
 3991SOL    HW223436   3.999   3.392   2.762  1.8874  0.1512  0.5897
 3992SOL     OW23437   4.419   4.333   4.277 -0.4952 -0.0779 -0.5247
 3992SOL    HW123438   4.392   4.264   4.337 -1.1504  1.1927  0.6530
 3992SOL    HW223439   4.382   4.325   4.189  1.5798  0.5644 -1.4557
 3993SOL     OW23440   1.615   1.369   5.083  0.0656 -0.0050  0.0091
 3993SOL    HW123441   1.571   1.444   5.042 -0.3819 -0.3032 -0.0456
 3993SOL    HW223442   1.589   1.374   5.174  1.7108 -0.9487  0.5328
 3994SOL     OW23443   0.879   1.623   4.088 -0.3017  0.6705 -0.3483
 3994SOL    HW123444   0.957   1.611   4.034 -0.3539 -0.1542 -0.2459
 3994SOL    HW223445   0.911   1.641   4.176 -0.5691 -0.3644 -0.0360
 3995SOL     OW23446   3.817   0.167   4.929 -0.2761 -0.3254 -0.0506
 3995SOL    HW123447   3.831   0.072   4.922 -0.2741 -0.4309  1.3084
 3995SOL    HW223448   3.885   0.187   4.865  0.2720  0.9197  0.9403
 3996SOL     OW23449   0.898   2.667  17.101  0.2509 -0.4660  0.2443
 3996SOL    HW123450   0.957   2.626  17.037  0.1763 -0.1303 -0.0396
 3996SOL    HW223451   0.815   2.633  17.067  0.5176 -1.9952  1.0998
 3997SOL     OW23452   2.128   4.242   0.073 -0.5752 -0.0047  0.1238
 3997SOL    HW123453   2.211   4.277   0.038 -0.3266  0.2259  0.9558
 3997SOL    HW223454   2.097   4.301   0.142 -0.1166 -1.8565  1.8906
 3998SOL     OW23455   2.242   1.307   1.007 -0.7576  0.2612 -0.4781
 3998SOL    HW123456   2.329   1.342   1.027 -0.9176 -0.9200  2.3284
 3998SOL    HW223457   2.268   1.220   0.976 -0.4799 -0.6512  2.2877
 3999SOL     OW23458   1.209   2.345   0.078 -0.3337  0.2022  0.0095
 3999SOL    HW123459   1.163   2.271   0.041 -1.5465  0.9405  0.0404
 3999SOL    HW223460   1.258   2.385   0.006 -0.9916 -0.6850 -0.9165
 4000SOL     OW23461   2.137   4.286  13.285 -0.4181 -0.6601  0.7466
 4000SOL    HW123462   2.229   4.274  13.306  0.0942 -0.2092 -1.2029
 4000SOL    HW223463   2.103   4.245  13.365  0.1668 -0.0640  1.2930
 4001SOL     OW23464   0.373   0.945   4.295 -0.5616  0.4476 -0.2185
 4001SOL    HW123465   0.325   0.933   4.212 -0.5343 -0.8673 -0.0424
 4001SOL    HW223466   0.326   0.877   4.344 -0.4468  0.3357 -0.2631
 4002SOL     OW23467   1.572   4.056   0.258  0.1500  0.2541 -0.6600
 4002SOL    HW123468   1.584   4.144   0.224 -1.3577 -1.1795 -4.9323
 4002SOL    HW223469   1.607   4.065   0.347  0.1607 -1.0997 -0.5204
 4003SOL     OW23470   0.813   1.558   8.809  0.6257 -0.4893  0.4019
 4003SOL    HW123471   0.876   1.489   8.828  1.1229  0.2285  1.3382
 4003SOL    HW223472   0.834   1.625   8.875  0.6344  0.9140 -1.0029
 4004SOL     OW23473   4.031   1.612   6.512  0.0181  0.1568 -0.1401
 4004SOL    HW123474   4.051   1.524   6.481 -0.0855 -0.0213  0.3126
 4004SOL    HW223475   4.119   1.641   6.534  0.3284  1.5726 -3.1992
 4005SOL     OW23476   2.501   3.802   5.725  0.2624 -0.5381  0.2085
 4005SOL    HW123477   2.512   3.878   5.783  4.7826 -2.3654  1.6986
 4005SOL    HW223478   2.480   3.848   5.643 -2.5957 -0.6321  0.8786
 4006SOL     OW23479   0.235   0.687   5.517 -0.8542  0.0457 -0.0043
 4006SOL    HW123480   0.201   0.638   5.592  3.6720  1.2128  2.8050
 4006SOL    HW223481   0.265   0.768   5.557  0.2468 -0.9850  1.2654
 4007SOL     OW23482   3.128   0.064   3.708 -0.1744 -0.0425  0.1396
 4007SOL    HW123483   3.171   0.023   3.633 -0.5806 -1.9482  0.9436
 4007SOL    HW223484   3.146   0.001   3.778 -1.9399  0.4915  1.0795
 4008SOL     OW23485   0.600   3.717   7.802  0.0528  0.0091  0.0302
 4008SOL    HW123486   0.584   3.655   7.873  0.7679 -0.8363 -0.5519
 4008SOL    HW223487   0.509   3.735   7.778  0.3212  2.7611  1.0051
 4009SOL     OW23488   2.210   2.382  13.542 -0.5074 -0.4731 -0.1200
 4009SOL    HW123489   2.227   2.288  13.543 -2.1798 -0.7235  3.0515
 4009SOL    HW223490   2.287   2.421  13.584 -0.3102 -1.5026  0.4602
 4010SOL     OW23491   4.589   3.746   1.645  0.0166 -0.2933  0.1604
 4010SOL    HW123492   4.601   3.832   1.605  1.5543  0.4234  2.1823
 4010SOL    HW223493   4.650   3.753   1.718  1.5541  0.8174 -1.2276
 4011SOL     OW23494   1.797   4.019   4.224 -0.2096 -0.2196 -0.4214
 4011SOL    HW123495   1.704   4.000   4.229  0.1890 -1.5806  1.7285
 4011SOL    HW223496   1.798   4.114   4.216  1.2510 -0.0034  2.4524
 4012SOL     OW23497   3.467   2.143  10.806  0.4891  0.4991 -0.1171
 4012SOL    HW123498   3.407   2.069  10.804  2.1670 -0.8553 -0.4001
 4012SOL    HW223499   3.415   2.220  10.785  0.8747  0.5815 -0.7615
 4013SOL     OW23500   3.482   3.981   0.605 -0.1550 -0.4137  0.3947
 4013SOL    HW123501   3.398   3.946   0.637 -0.2562  0.8175  1.4632
 4013SOL    HW223502   3.537   3.903   0.604 -0.3563 -0.5603  0.5848
 4014SOL     OW23503   3.832   2.553   6.715  0.1002 -0.3782 -0.1516
 4014SOL    HW123504   3.886   2.619   6.758 -0.8681  1.6772 -2.1262
 4014SOL    HW223505   3.802   2.606   6.641 -1.5620  1.0920  1.6112
 4015SOL     OW23506   2.577   3.189  10.145  0.0259  0.1785  0.0068
 4015SOL    HW123507   2.531   3.139  10.213  0.8854  1.2829  1.4063
 4015SOL    HW223508   2.514   3.178  10.075 -0.2388  0.2565  0.2336
 4016SOL     OW23509   2.514   3.589   1.063 -0.2411  0.5907 -0.2281
 4016SOL    HW123510   2.541   3.597   1.155  0.9819 -0.0147 -0.5430
 4016SOL    HW223511   2.520   3.678   1.028 -2.3020  0.6076 -0.5713
 4017SOL     OW23512   3.520   4.300   9.373  0.3368 -0.2475  0.3404
 4017SOL    HW123513   3.513   4.300   9.468  0.9991 -1.4818  0.3886
 4017SOL    HW223514   3.427   4.305   9.351  0.4220  1.7385  0.4745
 4018SOL     OW23515   1.800   0.279   9.612 -0.0918  0.0552 -0.3974
 4018SOL    HW123516   1.727   0.217   9.603 -0.7288  0.6309  0.8178
 4018SOL    HW223517   1.860   0.213   9.646 -1.4289 -0.5532  0.7938
 4019SOL     OW23518   1.996   3.471   5.404 -0.2660 -0.0337 -0.0468
 4019SOL    HW123519   1.972   3.440   5.491  4.1389 -0.7840  0.9207
 4019SOL    HW223520   1.974   3.399   5.346 -3.3088  1.5713 -0.8287
 4020SOL     OW23521   4.279   2.014   3.753 -0.0918  0.0309 -0.1858
 4020SOL    HW123522   4.274   2.078   3.682  0.9166 -1.1955 -1.3566
 4020SOL    HW223523   4.261   1.928   3.716 -0.5692 -0.0909  0.3227
 4021SOL     OW23524   3.668   3.274   3.210 -0.1117 -0.5208 -0.4344
 4021SOL    HW123525   3.714   3.307   3.133 -0.2208 -0.5720 -0.5221
 4021SOL    HW223526   3.719   3.317   3.279 -0.3069 -2.2472  0.7732
 4022SOL     OW23527   0.634   2.269   1.343 -0.0143  0.2560 -0.3005
 4022SOL    HW123528   0.552   2.219   1.343 -1.0965  2.0301  0.7789
 4022SOL    HW223529   0.670   2.245   1.428 -0.2545  0.7174 -0.0663
 4023SOL     OW23530   4.133   0.849   4.204  0.2147 -0.3557  0.1431
 4023SOL    HW123531   4.156   0.824   4.114 -1.4059 -0.0614 -0.3387
 4023SOL    HW223532   4.217   0.876   4.241 -0.0868  1.2700 -0.3802
 4024SOL     OW23533   3.549   2.705   2.145  0.1340  0.4032 -0.2163
 4024SOL    HW123534   3.489   2.632   2.126 -1.2512  1.2390  0.9255
 4024SOL    HW223535   3.631   2.660   2.163  0.6431  0.9132 -1.2754
 4025SOL     OW23536   0.537   0.321  12.285  0.0603 -0.1433 -0.0779
 4025SOL    HW123537   0.443   0.304  12.289 -0.1701  2.0525  3.6991
 4025SOL    HW223538   0.579   0.272  12.356 -0.0385  2.1514  1.5530
 4026SOL     OW23539   3.938   3.851   0.240 -0.1452  0.0161 -0.3375
 4026SOL    HW123540   3.950   3.782   0.175 -1.9381 -2.2980  1.8055
 4026SOL    HW223541   3.842   3.851   0.244 -0.1224  2.5549  0.1998
 4027SOL     OW23542   1.036   3.278  13.751 -0.2748 -0.3301 -0.6198
 4027SOL    HW123543   1.022   3.352  13.692 -2.2704 -0.6911 -0.5810
 4027SOL    HW223544   1.097   3.229  13.696  2.0711  0.3866  1.3095
 4028SOL     OW23545   0.920   2.690   4.613 -0.7145  0.5375 -0.3361
 4028SOL    HW123546   0.893   2.690   4.521 -1.7775 -0.7362 -0.0236
 4028SOL    HW223547   0.863   2.623   4.652  2.9570 -0.4410  3.3392
 4029SOL     OW23548   3.489   4.514   8.550  0.4293 -1.2393 -0.1929
 4029SOL    HW123549   3.526   4.562   8.624 -0.8557  0.9594 -0.9964
 4029SOL    HW223550   3.408   4.484   8.591 -0.1815 -0.4242 -0.8128
 4030SOL     OW23551   2.329   0.151   2.464  0.3047 -0.4857 -0.7073
 4030SOL    HW123552   2.413   0.182   2.497  0.1429  1.6820 -2.3039
 4030SOL    HW223553   2.345   0.161   2.370  0.4327  1.9750 -0.4129
 4031SOL     OW23554   3.959   1.146   9.202 -0.1602 -0.2133 -0.3647
 4031SOL    HW123555   4.012   1.181   9.131  1.0815 -2.7591 -0.7152
 4031SOL    HW223556   4.025   1.131   9.270  0.2809  2.5621 -0.1724
 4032SOL     OW23557   3.408   4.097   0.339 -0.6509  0.1842 -0.4907
 4032SOL    HW123558   3.328   4.053   0.311 -1.4337  2.9432 -2.5734
 4032SOL    HW223559   3.375   4.097   0.429 -1.3787  0.4341 -0.7643
 4033SOL     OW23560   0.562   0.407   8.668  0.1740  0.4473  0.1335
 4033SOL    HW123561   0.616   0.380   8.594  1.2875  1.9752  0.3922
 4033SOL    HW223562   0.620   0.458   8.726 -0.2426  0.9288  0.1252
 4034SOL     OW23563   1.721   2.720   5.960  0.4409  0.3984 -0.0383
 4034SOL    HW123564   1.677   2.700   5.878 -0.0672  1.5488 -0.0510
 4034SOL    HW223565   1.761   2.635   5.979  1.5345  0.9832  0.3051
 4035SOL     OW23566   2.153   1.181  14.943 -0.1813 -0.1543  0.2568
 4035SOL    HW123567   2.138   1.127  15.021 -1.8859  0.1268  0.1233
 4035SOL    HW223568   2.199   1.126  14.880  0.5783 -0.3795  1.0062
 4036SOL     OW23569   0.276   2.252   3.911  0.0271  0.0277 -0.2388
 4036SOL    HW123570   0.315   2.203   3.984 -2.5859 -1.2708  0.2856
 4036SOL    HW223571   0.335   2.211   3.847  0.5211  2.5492 -1.4011
 4037SOL     OW23572   4.417   3.574  14.945  0.2196  0.2054  0.2521
 4037SOL    HW123573   4.345   3.620  14.901  0.4699  1.0341  0.7089
 4037SOL    HW223574   4.373   3.492  14.967  0.3318 -0.1928 -1.0024
 4038SOL     OW23575   4.564   3.213   7.559  0.2208 -0.0574 -0.0242
 4038SOL    HW123576   4.578   3.119   7.551  3.1797  0.3055  0.6708
 4038SOL    HW223577   4.524   3.236   7.475  3.4861 -1.6469 -2.0215
 4039SOL     OW23578   2.625   4.408   1.948  0.4079  0.4137  0.5393
 4039SOL    HW123579   2.602   4.332   1.896  1.8016  0.8927 -0.8002
 4039SOL    HW223580   2.720   4.420   1.939  0.6619 -3.1676 -1.6730
 4040SOL     OW23581   4.343   4.553   2.327  0.5362 -0.8684  0.1583
 4040SOL    HW123582   4.285   4.527   2.399 -0.8076 -1.2271 -1.0454
 4040SOL    HW223583   4.325   4.647   2.328 -1.4967 -1.2386 -0.5197
 4041SOL     OW23584   2.729   1.663  12.476  0.4125  0.0960 -0.4662
 4041SOL    HW123585   2.696   1.663  12.566  2.4045 -1.8682  0.2556
 4041SOL    HW223586   2.684   1.734  12.430  1.2798 -0.1854 -1.7302
 4042SOL     OW23587   3.042   2.384   6.086 -0.3851 -0.2948 -0.2901
 4042SOL    HW123588   3.083   2.470   6.079 -0.9675  0.0397  0.5421
 4042SOL    HW223589   3.087   2.331   6.019 -0.4588 -0.6617 -0.0479
 4043SOL     OW23590   4.127   4.134   1.249 -0.1301 -0.1971  0.1180
 4043SOL    HW123591   4.042   4.120   1.207  0.1118  0.8534 -0.7363
 4043SOL    HW223592   4.114   4.227   1.268  1.1147  0.2987 -1.4413
 4044SOL     OW23593   2.578   4.639   9.325 -0.1747  0.2732 -0.1393
 4044SOL    HW123594   2.607   0.007   9.307  0.9989  0.0544  0.7128
 4044SOL    HW223595   2.606   4.620   9.414 -3.1355  1.2540  0.9871
 4045SOL     OW23596   0.597   2.330  10.172 -0.2227  0.3379  0.2325
 4045SOL    HW123597   0.659   2.308  10.242  0.7607  0.7248 -0.5181
 4045SOL    HW223598   0.625   2.417  10.146 -1.6704  1.3993  2.2015
 4046SOL     OW23599   4.026   0.508   6.472  0.3880 -0.0937  0.0644
 4046SOL    HW123600   4.064   0.589   6.507  2.4191 -1.2135  0.4346
 4046SOL    HW223601   4.103   0.461   6.441  0.4269  0.2631 -0.3982
 4047SOL     OW23602   0.441   0.656   3.039  0.5110  0.5589  0.5695
 4047SOL    HW123603   0.500   0.688   2.971 -1.4848  0.3830 -1.2384
 4047SOL    HW223604   0.365   0.637   2.984  1.5899 -1.7294 -0.1278
 4048SOL     OW23605   4.454   0.239   1.973 -0.3477 -0.7735 -0.2738
 4048SOL    HW123606   4.513   0.239   1.897 -1.7962 -3.5646 -1.4105
 4048SOL    HW223607   4.372   0.279   1.944  1.8259  2.6448 -1.7258
 4049SOL     OW23608   0.560   0.513   6.885  0.2312 -0.0233  0.4819
 4049SOL    HW123609   0.534   0.559   6.964 -1.1664  0.3242 -0.1788
 4049SOL    HW223610   0.474   0.501   6.843  0.0991 -0.9578  1.0188
 4050SOL     OW23611   3.496   1.374   2.103 -0.1341 -0.6938  0.2192
 4050SOL    HW123612   3.525   1.318   2.031 -0.0037  1.1921 -1.1966
 4050SOL    HW223613   3.447   1.441   2.056  0.1816 -1.1861 -0.8138
 4051SOL     OW23614   3.886   4.060  17.099  0.0420 -0.4836  0.5721
 4051SOL    HW123615   3.819   4.077  17.165 -0.8232  0.6984 -0.6145
 4051SOL    HW223616   3.911   3.970  17.120 -0.6288 -0.7311  0.2992
 4052SOL     OW23617   4.425   2.655   3.401 -0.4399 -0.0121  0.1311
 4052SOL    HW123618   4.462   2.701   3.476 -1.8752 -1.1200  1.5418
 4052SOL    HW223619   4.507   2.623   3.365 -0.8808  1.2445 -2.0028
 4053SOL     OW23620   0.773   3.036   0.729  0.0317  0.1678 -0.1680
 4053SOL    HW123621   0.767   3.010   0.821 -0.8902  3.2138  0.6105
 4053SOL    HW223622   0.848   2.983   0.703  2.7789  2.6468  2.6947
 4054SOL     OW23623   1.160   3.162  16.582 -0.5699 -0.0229 -0.0891
 4054SOL    HW123624   1.144   3.242  16.532 -0.7357  0.1467  0.2433
 4054SOL    HW223625   1.253   3.163  16.604 -0.7458 -0.5673  0.6560
 4055SOL     OW23626   3.769   2.247  16.339  0.1114 -0.2690 -0.3633
 4055SOL    HW123627   3.807   2.162  16.363  0.7649 -0.1701 -1.0599
 4055SOL    HW223628   3.847   2.301  16.339 -0.2805  0.2803 -2.2758
 4056SOL     OW23629   0.414   1.585   3.883 -0.2367  0.4712 -0.2508
 4056SOL    HW123630   0.377   1.501   3.854  0.4829 -0.0197  0.2702
 4056SOL    HW223631   0.486   1.556   3.938  0.1551 -0.0793 -1.0474
 4057SOL     OW23632   1.664   0.015  12.684  0.6119  0.1425 -0.1369
 4057SOL    HW123633   1.649   4.643  12.673  0.0517  0.3339 -1.0255
 4057SOL    HW223634   1.749   0.020  12.726 -0.1667  1.7739  1.2524
 4058SOL     OW23635   4.195   1.796  11.111  0.2536  0.3044  0.1722
 4058SOL    HW123636   4.189   1.788  11.206  0.4143  2.3352  0.3704
 4058SOL    HW223637   4.289   1.783  11.100  0.0554  0.7726 -2.1841
 4059SOL     OW23638   4.038   2.896   7.170 -0.0279 -0.5736 -0.5010
 4059SOL    HW123639   4.085   2.813   7.166  1.2289  0.1486 -0.6455
 4059SOL    HW223640   4.054   2.932   7.083  0.4413 -1.3142 -0.7212
 4060SOL     OW23641   1.881   2.719   8.450 -0.3470 -0.2473 -0.3500
 4060SOL    HW123642   1.796   2.763   8.456 -1.0999 -2.4117  4.7935
 4060SOL    HW223643   1.885   2.650   8.516  2.7589  0.4471  0.1843
 4061SOL     OW23644   0.576   2.423   0.306 -0.5886 -0.1648  0.2571
 4061SOL    HW123645   0.581   2.362   0.379 -0.1505  0.7285  0.9659
 4061SOL    HW223646   0.662   2.462   0.317 -1.0466  1.1136 -0.6865
 4062SOL     OW23647   0.858   4.476   3.580 -0.2868 -0.4829  0.0462
 4062SOL    HW123648   0.949   4.454   3.597 -0.3095 -1.2854 -0.9225
 4062SOL    HW223649   0.838   4.551   3.636 -2.1302 -1.2094  0.3695
 4063SOL     OW23650   1.551   2.177   2.477 -0.5127 -0.7838 -0.4196
 4063SOL    HW123651   1.582   2.088   2.496 -0.5071 -1.0069 -1.4942
 4063SOL    HW223652   1.543   2.208   2.567  3.9538 -2.1324  0.4406
 4064SOL     OW23653   4.591   0.905  15.951  0.6637  0.1653 -0.4398
 4064SOL    HW123654   4.592   0.898  15.855 -0.3788 -1.5063 -0.3195
 4064SOL    HW223655   4.685   0.908  15.972  0.3675  0.2756  0.8411
 4065SOL     OW23656   2.029   2.560   7.925  0.4500 -0.4546 -0.3539
 4065SOL    HW123657   2.064   2.519   8.005  1.3720 -1.0803 -1.0776
 4065SOL    HW223658   1.939   2.588   7.944  1.1548  0.5241  1.5388
 4066SOL     OW23659   3.325   2.820  15.228  0.1497 -0.0554  0.1001
 4066SOL    HW123660   3.358   2.731  15.246  1.9828  1.1548  2.8156
 4066SOL    HW223661   3.250   2.796  15.175  0.5900 -0.5711 -0.2883
 4067SOL     OW23662   3.233   0.654   2.710 -0.1770 -0.0044 -0.4008
 4067SOL    HW123663   3.293   0.581   2.695  0.2917  0.1663  0.6074
 4067SOL    HW223664   3.151   0.613   2.737 -0.6189  2.4374  2.0162
 4068SOL     OW23665   0.067   0.019   5.409 -0.2382  0.0691  0.1468
 4068SOL    HW123666   0.068   4.716   5.502  0.4708 -1.1222 -0.1753
 4068SOL    HW223667   0.058   4.650   5.379  0.6442 -0.1501  0.5618
 4069SOL     OW23668   4.115   3.791   7.945 -0.2152 -0.1221 -0.0378
 4069SOL    HW123669   4.184   3.824   8.002 -1.2238  1.9359  0.0076
 4069SOL    HW223670   4.036   3.796   7.999  0.7864  2.3222  1.1749
 4070SOL     OW23671   3.308   1.131   0.417  0.1448 -0.2105  0.7232
 4070SOL    HW123672   3.317   1.036   0.422  0.1000 -0.2443  0.0521
 4070SOL    HW223673   3.215   1.135   0.442 -0.3827  1.7661 -1.6020
 4071SOL     OW23674   1.018   0.392   5.246 -0.0106  0.1669 -0.0518
 4071SOL    HW123675   0.981   0.415   5.332 -2.0093 -0.2097 -0.8253
 4071SOL    HW223676   1.048   0.480   5.224 -0.5427 -0.0524 -1.6548
 4072SOL     OW23677   0.226   2.579  10.646 -0.7288  0.0863  0.0577
 4072SOL    HW123678   0.258   2.537  10.726 -0.9318 -1.0225 -0.4563
 4072SOL    HW223679   0.158   2.632  10.689 -0.4944 -0.6594  1.3442
 4073SOL     OW23680   2.258   3.322   4.346  0.2355 -0.2393  0.4188
 4073SOL    HW123681   2.299   3.408   4.334  0.5615 -0.5770 -0.9104
 4073SOL    HW223682   2.218   3.347   4.430  0.7223  0.1806  0.5259
 4074SOL     OW23683   0.375   1.366   4.304 -0.3971 -0.4371  0.4562
 4074SOL    HW123684   0.324   1.322   4.236  2.1240 -0.8653 -1.1363
 4074SOL    HW223685   0.452   1.312   4.323  0.7969  1.3633  0.6896
 4075SOL     OW23686   3.664   3.609   4.183 -0.3736  0.0484  0.1654
 4075SOL    HW123687   3.607   3.563   4.121 -0.9699  1.6221 -0.4628
 4075SOL    HW223688   3.644   3.695   4.146  0.3745  0.5565  0.9523
 4076SOL     OW23689   1.570   1.913   4.496  0.6300 -0.2880 -0.1534
 4076SOL    HW123690   1.576   1.846   4.427  3.2697  1.2220 -1.3866
 4076SOL    HW223691   1.661   1.941   4.503  0.3493  0.6328 -0.2333
 4077SOL     OW23692   2.349   2.130   3.747  0.3200 -0.6638  0.6670
 4077SOL    HW123693   2.351   2.071   3.672  0.7378  2.4747 -1.8055
 4077SOL    HW223694   2.276   2.186   3.722  0.2690 -0.7969  0.5204
 4078SOL     OW23695   1.361   3.383   7.418 -0.6025  0.3207 -0.1378
 4078SOL    HW123696   1.274   3.407   7.452 -0.8794 -0.5615 -0.2163
 4078SOL    HW223697   1.392   3.468   7.387 -0.5449  0.3168 -0.0906
 4079SOL     OW23698   0.382   3.883   6.196  0.4702  0.4915 -0.0731
 4079SOL    HW123699   0.372   3.885   6.291 -1.9725 -0.9154 -0.2873
 4079SOL    HW223700   0.455   3.944   6.186 -0.4088  1.5687  0.0225
 4080SOL     OW23701   0.450   2.784   4.469  0.0282  0.6747 -0.4729
 4080SOL    HW123702   0.476   2.777   4.377  0.7466 -0.6049 -0.1601
 4080SOL    HW223703   0.374   2.728   4.460 -0.1477  0.7347  0.5944
 4081SOL     OW23704   1.733   1.023   7.531 -0.1841 -0.0008 -0.3968
 4081SOL    HW123705   1.810   0.987   7.575 -0.7575 -1.8533 -0.8772
 4081SOL    HW223706   1.745   0.995   7.441 -0.4568 -1.3766 -0.0076
 4082SOL     OW23707   1.751   1.475   7.081 -0.6216 -0.9399 -0.0808
 4082SOL    HW123708   1.680   1.425   7.041 -2.3100  0.9213  0.5459
 4082SOL    HW223709   1.790   1.390   7.099 -0.2610 -0.3236  2.0732
 4083SOL     OW23710   0.747   2.189  10.371 -0.2804  0.1111  0.1577
 4083SOL    HW123711   0.770   2.135  10.295  1.1620  1.5363 -0.4179
 4083SOL    HW223712   0.829   2.197  10.420 -0.2731  0.1007  0.1472
 4084SOL     OW23713   3.090   2.447   0.796  0.4506  0.5945 -0.1092
 4084SOL    HW123714   3.029   2.519   0.781  1.3882  1.4991  0.4001
 4084SOL    HW223715   3.030   2.393   0.847  2.2054  0.0136  1.3477
 4085SOL     OW23716   0.976   4.004  12.859 -0.4571 -0.0984  0.3404
 4085SOL    HW123717   1.005   4.060  12.788  2.1522  0.1541  1.6276
 4085SOL    HW223718   1.029   3.926  12.843  1.0835  0.7431  1.3183
 4086SOL     OW23719   1.592   1.799   6.323  0.0542  0.3068 -0.1583
 4086SOL    HW123720   1.619   1.707   6.334  0.3673  0.1688 -2.2002
 4086SOL    HW223721   1.649   1.830   6.393  0.6368 -1.0069 -0.0418
 4087SOL     OW23722   2.057   2.620  10.298 -0.4118  0.0045  0.3596
 4087SOL    HW123723   1.981   2.668  10.266  1.1408  0.8885 -2.0469
 4087SOL    HW223724   2.020   2.567  10.368 -0.1299  0.4611  0.8503
 4088SOL     OW23725   4.479   1.238   6.350 -0.1966 -0.4598  0.6576
 4088SOL    HW123726   4.571   1.264   6.340 -0.0702 -1.0040  0.3896
 4088SOL    HW223727   4.437   1.323   6.338 -0.6446 -1.1189 -2.6631
 4089SOL     OW23728   0.106   4.015   7.756 -0.1643  0.4601  0.0198
 4089SOL    HW123729   0.184   4.051   7.713 -0.6401  1.0060 -0.3744
 4089SOL    HW223730   0.041   4.023   7.686  0.9494  1.0266 -0.9650
 4090SOL     OW23731   3.955   3.350   6.407  1.1834 -0.2122  0.1646
 4090SOL    HW123732   3.946   3.436   6.448 -0.4708  1.0364 -2.8329
 4090SOL    HW223733   4.019   3.304   6.461  2.0790  0.3811 -0.3806
 4091SOL     OW23734   4.164   3.141   5.154 -0.4348  0.7549  0.2002
 4091SOL    HW123735   4.201   3.054   5.139 -0.3602  0.7111  0.6218
 4091SOL    HW223736   4.164   3.129   5.249  0.1356  0.7185  0.1969
 4092SOL     OW23737   2.964   1.068   2.094 -0.4524 -0.0566 -0.3583
 4092SOL    HW123738   2.949   1.138   2.031 -0.9571  2.0195  2.0339
 4092SOL    HW223739   3.005   1.000   2.041  0.9624 -1.0849  2.0241
 4093SOL     OW23740   0.582   4.652  14.798 -0.0041  0.1514  0.0823
 4093SOL    HW123741   0.583   4.588  14.870 -2.7502 -0.8436 -0.7429
 4093SOL    HW223742   0.549   4.604  14.722 -0.2576  1.5965 -0.7093
 4094SOL     OW23743   0.617   1.650   5.964 -0.1733  0.3288  0.0984
 4094SOL    HW123744   0.570   1.733   5.961 -1.4756 -0.4110  0.1099
 4094SOL    HW223745   0.595   1.609   6.047  2.9258 -2.9052 -0.6905
 4095SOL     OW23746   2.695   3.302   5.637 -0.3072  0.4195 -0.3537
 4095SOL    HW123747   2.612   3.312   5.590 -1.4453 -3.1997  0.8999
 4095SOL    HW223748   2.708   3.397   5.641 -1.2116  0.4122  2.6238
 4096SOL     OW23749   2.963   2.970   3.382 -0.3016  0.0623  0.1029
 4096SOL    HW123750   3.044   3.019   3.364  0.4129 -0.5064  1.8099
 4096SOL    HW223751   2.963   2.901   3.316 -2.9490 -0.1851  0.3740
 4097SOL     OW23752   0.911   2.556   6.006  0.0946 -0.5385  0.2475
 4097SOL    HW123753   1.001   2.527   6.023  1.0101  1.9616 -0.4257
 4097SOL    HW223754   0.892   2.580   6.097 -2.0227 -0.3879 -0.2335
 4098SOL     OW23755   1.557   1.709   4.324 -0.0445 -0.3581 -0.3268
 4098SOL    HW123756   1.530   1.638   4.383  1.8609 -0.8149 -0.0021
 4098SOL    HW223757   1.601   1.654   4.259 -0.1071 -0.3942 -0.3387
 4099SOL     OW23758   3.642   3.734  13.257 -0.3982 -0.0102 -0.0918
 4099SOL    HW123759   3.670   3.695  13.175 -1.1808  1.7478 -1.1915
 4099SOL    HW223760   3.588   3.800  13.214  1.5799  0.9543 -1.0788
 4100SOL     OW23761   0.468   0.359  17.236  0.0950 -0.2668 -0.0825
 4100SOL    HW123762   0.412   0.432  17.212 -0.5700 -0.0922  1.9828
 4100SOL    HW223763   0.404   0.297  17.272 -0.2062 -0.8497 -1.6339
 4101SOL     OW23764   1.189   0.824   1.731 -0.6667  0.1251 -0.6402
 4101SOL    HW123765   1.151   0.855   1.814  1.1169 -1.1281  0.6551
 4101SOL    HW223766   1.212   0.905   1.687 -2.3186  1.9699  1.9082
 4102SOL     OW23767   1.996   0.486  17.010 -0.2760  0.0898  0.0571
 4102SOL    HW123768   2.058   0.548  16.972  1.7722 -1.9592  0.0379
 4102SOL    HW223769   1.987   0.419  16.942  0.0261 -0.5488  0.6489
 4103SOL     OW23770   3.413   4.461   9.085 -0.1393  0.4097  0.7406
 4103SOL    HW123771   3.326   4.442   9.121 -0.5456 -1.0259 -1.0140
 4103SOL    HW223772   3.445   4.519   9.154 -0.7930  0.9485  0.5835
 4104SOL     OW23773   2.655   1.902   2.897 -0.2468 -0.7767 -0.1594
 4104SOL    HW123774   2.563   1.927   2.885  0.3052  0.7097 -1.3418
 4104SOL    HW223775   2.639   1.823   2.949  0.8608 -2.3448 -2.2140
 4105SOL     OW23776   0.715   0.267   3.283  0.5879  0.2131 -0.1062
 4105SOL    HW123777   0.637   0.233   3.238  1.3761 -1.5481 -0.1548
 4105SOL    HW223778   0.731   0.343   3.227  0.4469 -0.5933 -1.2542
 4106SOL     OW23779   2.873   1.962   5.935  0.2266  0.1840  0.1075
 4106SOL    HW123780   2.959   1.950   5.976 -0.3628  0.4754  1.4267
 4106SOL    HW223781   2.818   1.897   5.979 -0.8349 -0.5881 -2.3792
 4107SOL     OW23782   4.651   1.824   2.846 -0.0160 -0.3138  0.0748
 4107SOL    HW123783   4.562   1.846   2.874 -0.6310 -0.3261 -1.8098
 4107SOL    HW223784   4.638   1.785   2.759 -0.1921  2.5258 -1.1806
 4108SOL     OW23785   0.710   0.618   2.372  0.1917 -0.3804  0.1242
 4108SOL    HW123786   0.654   0.696   2.380 -1.5298 -1.5983  0.0422
 4108SOL    HW223787   0.706   0.614   2.277  0.3893 -0.5919  0.1251
 4109SOL     OW23788   1.677   4.262   7.466  0.3448 -0.3676  0.0291
 4109SOL    HW123789   1.688   4.231   7.376 -1.7947 -1.2402  0.0833
 4109SOL    HW223790   1.731   4.204   7.519  1.1673  1.0364  0.7510
 4110SOL     OW23791   0.860   2.877   0.972  0.2999 -0.2494 -0.3971
 4110SOL    HW123792   0.845   2.786   0.943  2.1039 -0.3785 -0.8852
 4110SOL    HW223793   0.941   2.862   1.021  1.1387  2.4106 -1.0167
 4111SOL     OW23794   2.818   4.350   8.044  0.0679  0.0959 -0.2885
 4111SOL    HW123795   2.754   4.280   8.030 -2.6221  2.2431  1.1746
 4111SOL    HW223796   2.842   4.359   7.951 -1.5860 -0.2043 -0.7514
 4112SOL     OW23797   3.572   0.546  16.421 -0.0839  0.0667 -0.1355
 4112SOL    HW123798   3.563   0.639  16.404 -0.5458 -0.2265 -1.4952
 4112SOL    HW223799   3.606   0.533  16.333  0.5277  0.8888 -0.0134
 4113SOL     OW23800   0.095   0.017  16.229 -0.5001 -0.2437  0.2619
 4113SOL    HW123801   0.040   0.095  16.225 -1.0767 -0.7964 -2.2042
 4113SOL    HW223802   0.103   4.717  16.322  0.1112  1.8044  0.6900
 4114SOL     OW23803   0.598   4.575  10.756 -0.5050  0.5798 -0.4992
 4114SOL    HW123804   0.608   4.659  10.802  0.2305  0.7148 -0.9075
 4114SOL    HW223805   0.515   4.534  10.779  1.2469 -2.1826  0.8350
 4115SOL     OW23806   3.736   3.830   7.087  0.4740  0.8223 -0.0360
 4115SOL    HW123807   3.644   3.854   7.075 -0.4574 -3.1333 -0.8070
 4115SOL    HW223808   3.737   3.737   7.110 -2.0532  0.7016 -0.3971
 4116SOL     OW23809   4.364   3.535   5.936  0.4798  0.3506 -0.0560
 4116SOL    HW123810   4.361   3.464   6.001  0.2678 -0.0719 -0.5301
 4116SOL    HW223811   4.458   3.547   5.928  0.4310 -0.5413 -1.8474
 4117SOL     OW23812   3.168   1.135   9.119 -0.4387  0.2624 -0.2593
 4117SOL    HW123813   3.192   1.216   9.074 -0.0768 -0.0515 -0.6319
 4117SOL    HW223814   3.138   1.171   9.203  2.4604  1.8900  0.0936
 4118SOL     OW23815   0.369   0.156  10.354 -0.1176 -0.0915  0.3475
 4118SOL    HW123816   0.338   0.129  10.441 -0.3299  1.2985  0.7045
 4118SOL    HW223817   0.427   0.230  10.371 -1.3371  0.8505  0.4714
 4119SOL     OW23818   2.050   2.590   8.863 -0.2903 -0.1680 -0.0191
 4119SOL    HW123819   2.016   2.566   8.949 -1.1298 -0.3990 -0.4093
 4119SOL    HW223820   2.065   2.683   8.877 -0.7671 -0.1272  0.2522
 4120SOL     OW23821   2.719   2.871  14.728  0.0227 -0.6768  0.1001
 4120SOL    HW123822   2.725   2.802  14.794 -0.4674 -1.1882 -0.3802
 4120SOL    HW223823   2.787   2.929  14.762  0.6489 -1.7318  0.6357
 4121SOL     OW23824   2.207   1.073  11.101 -0.0944  0.3848 -0.3590
 4121SOL    HW123825   2.221   1.011  11.030  0.6560 -0.2545  0.3450
 4121SOL    HW223826   2.112   1.068  11.091 -0.0691  0.4707 -0.6400
 4122SOL     OW23827   1.924   3.339  16.966  0.0997  0.0930 -0.1530
 4122SOL    HW123828   1.909   3.311  17.056  0.3013 -0.9712 -0.4582
 4122SOL    HW223829   1.840   3.303  16.938  0.3250  0.1663 -0.9340
 4123SOL     OW23830   0.579   1.654   4.970 -0.3499  0.2663  0.0838
 4123SOL    HW123831   0.536   1.620   5.049  1.6205 -0.6832  0.7384
 4123SOL    HW223832   0.504   1.675   4.914 -0.4782  0.2098  0.2348
 4124SOL     OW23833   3.477   1.549   5.163 -0.1254 -0.1813 -0.0326
 4124SOL    HW123834   3.494   1.485   5.094 -1.3179  1.2188 -1.6082
 4124SOL    HW223835   3.409   1.506   5.215  2.4359 -1.4654  2.2704
 4125SOL     OW23836   3.891   1.543   1.934  0.2187 -0.1863  0.2491
 4125SOL    HW123837   3.796   1.547   1.948  0.7035  0.3866  3.4518
 4125SOL    HW223838   3.913   1.451   1.921  0.3318 -0.2584  0.9147
 4126SOL     OW23839   2.294   0.966   3.537  0.6600  0.4833 -0.2912
 4126SOL    HW123840   2.352   0.900   3.575 -0.1540 -0.0638 -0.0003
 4126SOL    HW223841   2.275   0.922   3.454 -0.8497 -1.5036  1.0978
 4127SOL     OW23842   0.164   3.586  15.986 -0.4278 -0.4248  0.5214
 4127SOL    HW123843   0.191   3.556  15.899 -1.1090  2.4957 -0.7169
 4127SOL    HW223844   0.086   3.639  15.964 -0.3218 -0.2070  0.6722
 4128SOL     OW23845   3.278   1.514  11.457 -0.3038 -0.0911 -0.1519
 4128SOL    HW123846   3.354   1.477  11.411 -0.3150 -0.1619 -0.1127
 4128SOL    HW223847   3.207   1.491  11.397 -1.0313 -0.2581  0.7823
 4129SOL     OW23848   1.666   0.901   0.871 -0.1337 -0.2442 -0.5622
 4129SOL    HW123849   1.624   0.875   0.789  0.1865 -0.6415 -0.6019
 4129SOL    HW223850   1.756   0.921   0.845 -0.4802  1.6551 -0.2442
 4130SOL     OW23851   3.963   2.445   8.949 -0.3712  0.2945 -0.6241
 4130SOL    HW123852   3.878   2.405   8.967 -0.7527  0.6610 -1.5817
 4130SOL    HW223853   4.014   2.433   9.029 -0.7809 -0.7686 -0.5219
 4131SOL     OW23854   3.670   2.817  11.362 -0.2665 -0.0792 -0.2819
 4131SOL    HW123855   3.578   2.797  11.344 -0.8061  1.2650  0.9279
 4131SOL    HW223856   3.685   2.780  11.449  2.8002  1.0086 -0.3684
 4132SOL     OW23857   3.086   1.994   4.985 -0.4069 -0.0761  0.1260
 4132SOL    HW123858   3.061   2.042   4.907 -0.4778 -0.6922 -0.2354
 4132SOL    HW223859   3.007   2.007   5.037  0.3252  1.7220  0.7713
 4133SOL     OW23860   0.740   1.005   1.897 -0.0946 -0.1896 -0.0570
 4133SOL    HW123861   0.701   1.037   1.816  1.3407 -1.1903 -1.1561
 4133SOL    HW223862   0.833   1.013   1.876 -0.3862  0.5402 -1.0608
 4134SOL     OW23863   3.381   4.265   5.179  0.0288 -0.3254 -0.5085
 4134SOL    HW123864   3.363   4.305   5.094 -1.2176 -0.7994 -0.4620
 4134SOL    HW223865   3.290   4.252   5.205  0.7431 -2.9616  0.7168
 4135SOL     OW23866   3.739   4.265   8.591  0.2347 -0.5427 -0.1997
 4135SOL    HW123867   3.818   4.313   8.565  1.0723 -1.4249  0.7197
 4135SOL    HW223868   3.773   4.179   8.616 -1.8017 -1.6385 -1.1483
 4136SOL     OW23869   2.564   3.481   4.026  0.1318  0.5292 -0.3433
 4136SOL    HW123870   2.481   3.526   4.043 -0.1123 -0.5469  1.3997
 4136SOL    HW223871   2.573   3.411   4.090  0.1670 -0.6980 -1.7077
 4137SOL     OW23872   3.587   1.431  10.154 -0.2236  0.5115 -0.7140
 4137SOL    HW123873   3.492   1.443  10.143 -0.4850 -0.1855  0.6736
 4137SOL    HW223874   3.625   1.451  10.069 -0.2316  0.6768 -0.6774
 4138SOL     OW23875   3.197   0.472   3.392 -0.1652  0.1831  0.2865
 4138SOL    HW123876   3.112   0.434   3.369 -1.2391  2.5086  0.4648
 4138SOL    HW223877   3.189   0.565   3.409  1.1272  0.3315  0.0881
 4139SOL     OW23878   0.790   3.378   2.359 -0.1618 -0.3649  0.0252
 4139SOL    HW123879   0.791   3.295   2.312 -1.5377 -0.8782  0.8910
 4139SOL    HW223880   0.702   3.370   2.397 -1.1393  0.1598 -2.1247
 4140SOL     OW23881   1.252   0.757   5.866  0.2287  0.0132  0.0234
 4140SOL    HW123882   1.330   0.790   5.821 -0.0481 -1.1055 -1.2705
 4140SOL    HW223883   1.232   0.675   5.821  1.2273  0.4662 -1.2480
 4141SOL     OW23884   1.064   4.162  12.673  0.2141 -0.1990 -0.3361
 4141SOL    HW123885   1.018   4.245  12.688 -0.4249 -0.3312 -1.5954
 4141SOL    HW223886   1.051   4.164  12.578 -1.6636 -0.1752 -0.0835
 4142SOL     OW23887   1.312   1.977   7.394 -0.0510  0.2407 -1.1633
 4142SOL    HW123888   1.268   1.946   7.314 -0.2821  1.4930 -1.5210
 4142SOL    HW223889   1.281   1.915   7.459 -1.1121 -0.0919 -1.9785
 4143SOL     OW23890   1.267   3.390  16.847 -0.2258 -0.0937  0.1346
 4143SOL    HW123891   1.360   3.393  16.827 -0.1199 -2.3351  0.3718
 4143SOL    HW223892   1.264   3.334  16.925  0.5488  2.0718  1.7499
 4144SOL     OW23893   3.749   4.123   2.503 -0.6502  0.1833  0.0235
 4144SOL    HW123894   3.838   4.141   2.472 -0.5891 -0.9543 -0.4361
 4144SOL    HW223895   3.762   4.108   2.597 -1.8052  0.4441  0.2179
 4145SOL     OW23896   1.841   2.930  10.382  0.2077 -0.6347 -0.4233
 4145SOL    HW123897   1.864   2.848  10.426  2.9129 -0.2467 -1.1314
 4145SOL    HW223898   1.770   2.901  10.325  0.6998  0.3516 -1.5348
 4146SOL     OW23899   0.419   4.024   9.070 -0.2358 -0.5396  0.2522
 4146SOL    HW123900   0.429   4.028   8.975 -0.4699 -1.3874  0.2010
 4146SOL    HW223901   0.459   4.107   9.098  1.0432 -0.0657 -3.0307
 4147SOL     OW23902   2.241   3.733   8.640 -0.5101 -0.1910 -0.0629
 4147SOL    HW123903   2.290   3.752   8.720  0.7155  0.2822 -0.9067
 4147SOL    HW223904   2.195   3.653   8.664 -1.9933  1.1993  1.7716
 4148SOL     OW23905   4.479   4.499   5.341  0.0610  0.0472  0.8497
 4148SOL    HW123906   4.546   4.564   5.361  0.3625 -0.7375  2.4366
 4148SOL    HW223907   4.530   4.418   5.346 -1.4688 -0.9718  0.0244
 4149SOL     OW23908   2.687   0.877   4.647  0.0714  0.0980 -0.6625
 4149SOL    HW123909   2.750   0.932   4.600  0.4710 -1.9386 -2.5083
 4149SOL    HW223910   2.701   0.905   4.738 -2.5821 -0.0001 -0.2380
 4150SOL     OW23911   1.410   4.192   7.227 -0.3590 -0.4863  0.2319
 4150SOL    HW123912   1.435   4.122   7.287  2.5236  1.6745  1.5457
 4150SOL    HW223913   1.335   4.146   7.190  0.0145 -2.1837  1.6245
 4151SOL     OW23914   2.959   1.984   6.336 -0.7749 -0.5768  0.8893
 4151SOL    HW123915   2.973   2.002   6.243 -2.0067  1.6688  1.1387
 4151SOL    HW223916   2.866   1.979   6.356 -0.3853 -0.1727  2.8099
 4152SOL     OW23917   0.603   4.715   3.632 -0.3169 -0.2428  0.0960
 4152SOL    HW123918   0.587   4.698   3.725  1.0118 -1.9740  0.0042
 4152SOL    HW223919   0.531   4.668   3.589  0.1684 -0.0508 -0.9271
 4153SOL     OW23920   4.714   4.253   0.550 -0.1666  0.0431 -0.4161
 4153SOL    HW123921   0.001   4.254   0.645  0.7394  1.1403 -0.5071
 4153SOL    HW223922   0.072   4.205   0.530  0.6613  1.0045  0.5478
 4154SOL     OW23923   0.848   1.141   3.086  0.2383  0.0163  0.3058
 4154SOL    HW123924   0.921   1.146   3.148  1.1467 -0.7316 -0.7026
 4154SOL    HW223925   0.840   1.046   3.079  1.9713 -0.1550  0.4448
 4155SOL     OW23926   0.624   2.414   4.939 -0.5083 -0.6686  0.0747
 4155SOL    HW123927   0.552   2.357   4.968  0.1771 -1.2318  0.6584
 4155SOL    HW223928   0.609   2.492   4.992 -0.7410  0.0346 -1.0248
 4156SOL     OW23929   4.279   1.651   8.143  0.5109  0.1220  0.7378
 4156SOL    HW123930   4.233   1.683   8.220 -2.3015  1.7646 -1.6169
 4156SOL    HW223931   4.229   1.672   8.064 -0.2966  0.9834  1.4703
 4157SOL     OW23932   4.680   1.779   9.957 -0.2961  0.1929 -0.0745
 4157SOL    HW123933   4.715   1.858   9.999  0.8646  1.4030 -3.2817
 4157SOL    HW223934   4.612   1.827   9.909 -0.9139 -1.0528 -0.4449
 4158SOL     OW23935   4.402   3.453   7.238  0.2803  0.1209 -1.0096
 4158SOL    HW123936   4.444   3.540   7.237  0.6854 -0.0589  0.5502
 4158SOL    HW223937   4.471   3.408   7.189 -0.6343 -0.3514 -1.8517
 4159SOL     OW23938   2.997   3.250  16.034  0.1471  1.0382 -0.0285
 4159SOL    HW123939   3.077   3.296  16.010  0.6597  1.2314  2.0945
 4159SOL    HW223940   2.937   3.323  16.018 -1.5796 -0.8450 -2.1543
 4160SOL     OW23941   0.977   3.981   3.471 -0.0477  0.6602 -0.1205
 4160SOL    HW123942   1.047   4.034   3.432  2.2543  0.2838  3.5886
 4160SOL    HW223943   0.899   4.032   3.448 -3.1619 -2.8582  2.6825
 4161SOL     OW23944   1.144   0.570   8.641 -0.4172 -0.0759  0.3431
 4161SOL    HW123945   1.073   0.506   8.637  1.1567 -1.8071  0.1766
 4161SOL    HW223946   1.165   0.563   8.548 -1.4090  2.9012 -0.1168
 4162SOL     OW23947   0.505   0.823   5.451  0.1921 -0.1966 -0.5763
 4162SOL    HW123948   0.535   0.909   5.421  0.5547  0.0652  0.5512
 4162SOL    HW223949   0.562   0.803   5.525 -0.4521 -0.2388 -0.0925
 4163SOL     OW23950   1.144   0.894   8.579 -0.5549 -0.3185  0.1314
 4163SOL    HW123951   1.126   0.806   8.544  0.1606 -0.0199 -0.9656
 4163SOL    HW223952   1.069   0.905   8.638 -0.8602  0.6081 -0.4245
 4164SOL     OW23953   3.289   4.409   6.809  0.3070  0.4176  0.2200
 4164SOL    HW123954   3.319   4.499   6.801 -1.2292  1.0464  1.4962
 4164SOL    HW223955   3.234   4.427   6.885 -0.0072 -0.3831  0.1870
 4165SOL     OW23956   4.619   4.259   5.376 -0.1589  0.2408 -0.0077
 4165SOL    HW123957   4.570   4.210   5.443  0.8508 -2.1373 -1.0368
 4165SOL    HW223958   4.613   4.190   5.310 -1.6134  0.0343  0.3304
 4166SOL     OW23959   4.195   4.155  11.791 -0.1729  0.7332  0.2113
 4166SOL    HW123960   4.237   4.179  11.874  0.8755 -1.0963  0.2193
 4166SOL    HW223961   4.211   4.242  11.755  0.7500 -0.6287 -2.6531
 4167SOL     OW23962   4.717   2.695   7.610 -0.0692 -0.9346 -0.3461
 4167SOL    HW123963   0.063   2.643   7.654 -1.1939 -0.8239  1.5151
 4167SOL    HW223964   0.051   2.760   7.567 -0.4682 -0.7922 -0.6489
 4168SOL     OW23965   1.871   4.195   9.415 -0.2449 -0.2665  0.2591
 4168SOL    HW123966   1.856   4.289   9.406  2.3686  0.0976 -0.4966
 4168SOL    HW223967   1.804   4.170   9.479  1.0770 -1.8949  1.0175
 4169SOL     OW23968   4.120   3.923  13.475 -0.7519 -0.0493  0.3084
 4169SOL    HW123969   4.193   3.865  13.454  0.3761  1.4084  0.2117
 4169SOL    HW223970   4.046   3.862  13.480 -1.2567  0.5368 -0.0134
 4170SOL     OW23971   3.405   2.963   8.493 -0.1502 -0.4500 -0.2634
 4170SOL    HW123972   3.435   3.041   8.541 -0.1485 -0.8220  0.3372
 4170SOL    HW223973   3.347   2.915   8.552  0.2689 -1.0283 -0.3177
 4171SOL     OW23974   1.469   1.279   3.189 -0.2310 -0.0634  0.1195
 4171SOL    HW123975   1.465   1.310   3.098 -1.7379 -0.8662 -0.0906
 4171SOL    HW223976   1.399   1.214   3.190 -1.0405  0.8363  1.2672
 4172SOL     OW23977   2.248   3.880   8.914 -0.3276  0.0922 -0.4584
 4172SOL    HW123978   2.174   3.912   8.862  1.3696  3.4351 -0.7641
 4172SOL    HW223979   2.202   3.831   8.982 -0.1700 -0.5370 -0.7986
 4173SOL     OW23980   1.741   4.028   1.086 -0.1574  0.2088 -0.6428
 4173SOL    HW123981   1.731   3.936   1.059  1.0932 -0.6425  1.7924
 4173SOL    HW223982   1.833   4.035   1.111 -0.2657 -1.2367  0.1987
 4174SOL     OW23983   0.705   4.135   2.489  0.6643  0.6446  0.0076
 4174SOL    HW123984   0.657   4.119   2.408  0.6706 -3.7235  0.8452
 4174SOL    HW223985   0.707   4.230   2.488  0.0803  0.6529 -0.6725
 4175SOL     OW23986   1.727   2.738   8.899  0.0918  0.4056 -0.6456
 4175SOL    HW123987   1.635   2.761   8.895  0.3087  1.5299  1.0525
 4175SOL    HW223988   1.753   2.771   8.985 -1.5102 -2.0011  0.7829
 4176SOL     OW23989   1.202   1.442   4.874  0.0450 -0.1877  0.0536
 4176SOL    HW123990   1.215   1.351   4.898 -0.0575  0.1123  1.2508
 4176SOL    HW223991   1.292   1.458   4.846  0.1282 -2.8858 -1.2062
 4177SOL     OW23992   2.307   0.432  11.931 -0.1851  0.8521 -0.5547
 4177SOL    HW123993   2.344   0.364  11.875 -0.1204 -0.1922  0.7713
 4177SOL    HW223994   2.213   0.416  11.932  0.1491 -0.9042  1.9576
 4178SOL     OW23995   2.211   4.377   7.653  0.2815  0.3771 -0.5588
 4178SOL    HW123996   2.201   4.470   7.633 -1.1248  0.4882  0.6987
 4178SOL    HW223997   2.215   4.379   7.749 -0.7140 -0.7767 -0.4992
 4179SOL     OW23998   4.556   0.050   7.077  0.8697  0.5683 -0.2681
 4179SOL    HW123999   4.585   0.002   7.155  2.0545 -2.0375 -2.3271
 4179SOL    HW224000   4.509   0.125   7.114  0.4262  0.6675 -1.0513
 4180SOL     OW24001   1.910   3.077  11.492 -0.9122 -0.0110  0.0419
 4180SOL    HW124002   1.873   3.149  11.441  1.1066  1.6314  0.9076
 4180SOL    HW224003   1.964   3.029  11.429 -0.2798 -1.2220  1.4958
 4181SOL     OW24004   4.340   4.454   1.789  0.0542 -0.4825 -0.3714
 4181SOL    HW124005   4.433   4.472   1.804  0.0322 -0.4132 -0.3162
 4181SOL    HW224006   4.300   4.537   1.815  2.0008  0.5024 -0.5395
 4182SOL     OW24007   2.766   2.312  15.813  0.0526 -0.1855  0.1344
 4182SOL    HW124008   2.686   2.276  15.852 -1.0324  1.6888 -0.3863
 4182SOL    HW224009   2.771   2.396  15.859 -1.0724  0.8934 -1.7347
 4183SOL     OW24010   1.013   2.462   2.605 -0.5744 -0.2988 -0.2163
 4183SOL    HW124011   1.063   2.381   2.614  1.2644  0.7644 -0.6853
 4183SOL    HW224012   1.010   2.475   2.510  1.2280 -2.4517 -0.5593
 4184SOL     OW24013   0.834   1.275   7.612 -0.4534 -0.1163 -0.3956
 4184SOL    HW124014   0.897   1.235   7.552 -0.4003 -1.2364  0.4032
 4184SOL    HW224015   0.887   1.319   7.679  0.4478  0.0574 -1.2167
 4185SOL     OW24016   1.586   1.974   7.396  0.1525  0.7485 -0.1528
 4185SOL    HW124017   1.492   1.993   7.392  0.4212  1.8984 -1.0993
 4185SOL    HW224018   1.595   1.986   7.491 -1.1252 -2.3463  0.3479
 4186SOL     OW24019   2.748   1.482   3.082 -0.4230 -0.7973  0.7880
 4186SOL    HW124020   2.692   1.405   3.092  1.4827 -2.3301 -0.4388
 4186SOL    HW224021   2.827   1.439   3.052  0.3362  0.6160  0.7622
 4187SOL     OW24022   0.405   1.525  14.460  0.0815  0.3393  0.0144
 4187SOL    HW124023   0.500   1.536  14.456  0.0166  0.6895 -0.4635
 4187SOL    HW224024   0.380   1.574  14.382  0.6861 -2.1645 -1.7304
 4188SOL     OW24025   2.079   4.324  13.901  0.4595 -0.2897  0.3294
 4188SOL    HW124026   2.031   4.252  13.860  0.1342  0.3408 -0.4130
 4188SOL    HW224027   2.121   4.357  13.821 -1.7105 -0.2036 -0.8021
 4189SOL     OW24028   0.185   0.059  12.436  0.1141  0.1179 -0.3198
 4189SOL    HW124029   0.094   0.066  12.462  0.8992  4.0492  1.5219
 4189SOL    HW224030   0.179   0.051  12.340  0.3164 -2.0488 -0.1378
 4190SOL     OW24031   0.538   0.560   9.532 -0.1859 -0.0620  0.8241
 4190SOL    HW124032   0.535   0.555   9.436  2.3663 -1.8977  0.8307
 4190SOL    HW224033   0.510   0.472   9.558 -0.3810  0.1864  1.4374
 4191SOL     OW24034   3.838   1.291   2.652 -0.3531  0.4495 -0.0796
 4191SOL    HW124035   3.770   1.334   2.599  0.0114  1.0580 -0.0509
 4191SOL    HW224036   3.812   1.199   2.641  0.9521 -0.0609  1.2456
 4192SOL     OW24037   3.914   2.149   1.366 -0.0554 -0.0152  0.1710
 4192SOL    HW124038   3.915   2.196   1.450 -2.6743 -0.1035  0.2274
 4192SOL    HW224039   3.971   2.209   1.318 -0.1633  0.6312  0.8479
 4193SOL     OW24040   2.558   2.548  12.233  0.3285  0.3045  0.1121
 4193SOL    HW124041   2.524   2.460  12.249 -3.1705  1.2387 -2.3787
 4193SOL    HW224042   2.479   2.600  12.247  0.2077 -0.0353  0.6898
 4194SOL     OW24043   3.479   0.610   5.476 -0.0127 -0.0225 -0.0143
 4194SOL    HW124044   3.446   0.700   5.471  0.4535  0.1471 -0.0202
 4194SOL    HW224045   3.415   0.563   5.423 -0.0600 -0.7957  0.7269
 4195SOL     OW24046   0.372   4.351   3.730  0.7165 -0.1034  0.1986
 4195SOL    HW124047   0.362   4.285   3.662  0.7658  1.1412 -1.0324
 4195SOL    HW224048   0.352   4.435   3.688  2.1628  0.1571  0.0357
 4196SOL     OW24049   1.918   0.836   6.484 -0.9121 -1.0090 -0.0775
 4196SOL    HW124050   1.937   0.762   6.428  2.1246  1.8970 -2.8780
 4196SOL    HW224051   2.003   0.874   6.509 -2.5364  2.4345  0.1550
 4197SOL     OW24052   2.857   0.101   3.622  0.6902 -0.5875 -0.2319
 4197SOL    HW124053   2.941   0.057   3.639  0.0814 -2.1168 -1.2025
 4197SOL    HW224054   2.804   0.041   3.569 -0.0337 -0.9884  0.9427
 4198SOL     OW24055   1.289   0.655   3.131  0.6866 -0.1171  0.4594
 4198SOL    HW124056   1.364   0.595   3.133 -0.3801 -1.4206  1.1034
 4198SOL    HW224057   1.253   0.638   3.044  2.9773  0.1564 -0.5642
 4199SOL     OW24058   4.683   3.753  15.896 -0.6521 -0.0425 -0.1353
 4199SOL    HW124059   4.650   3.842  15.904  2.0479  0.8906  0.8610
 4199SOL    HW224060   4.700   3.751  15.802 -2.9289 -1.0785 -0.5010
 4200SOL     OW24061   0.840   1.979   4.191  0.5589  0.1519  0.4225
 4200SOL    HW124062   0.927   2.011   4.169  1.1823 -1.1466  0.9952
 4200SOL    HW224063   0.853   1.890   4.158  0.3043  0.5845 -0.8452
 4201SOL     OW24064   3.511   3.969   1.440 -0.0544  0.6462 -0.1706
 4201SOL    HW124065   3.509   4.062   1.463  1.7427  0.8209 -0.7621
 4201SOL    HW224066   3.433   3.963   1.384 -0.8909 -0.4919  1.1305
 4202SOL     OW24067   3.362   0.629   3.245  0.5555 -0.0424  0.0877
 4202SOL    HW124068   3.353   0.547   3.294 -0.9488 -0.9841 -1.7778
 4202SOL    HW224069   3.351   0.601   3.154  0.4945  1.2598 -0.3032
 4203SOL     OW24070   1.911   4.475   2.871  0.2204 -0.5334  0.0238
 4203SOL    HW124071   1.881   4.407   2.810 -1.1723 -1.9833  2.2888
 4203SOL    HW224072   1.850   4.541   2.837  1.5826  0.7517  0.1233
 4204SOL     OW24073   0.592   2.762   2.639  0.0048  0.6178  0.1264
 4204SOL    HW124074   0.670   2.713   2.612  0.3046  0.9381  0.4097
 4204SOL    HW224075   0.565   2.715   2.717 -2.0981 -1.1309 -1.6516
 4205SOL     OW24076   4.510   4.439  11.100  0.4225  0.0819  0.0492
 4205SOL    HW124077   4.603   4.438  11.077  0.0789  1.2099 -1.4427
 4205SOL    HW224078   4.489   4.532  11.112 -0.8132 -0.0135 -1.2626
 4206SOL     OW24079   0.986   3.301   5.278  0.7285 -0.0609 -0.1338
 4206SOL    HW124080   0.965   3.346   5.360 -1.1550 -1.2497  0.0392
 4206SOL    HW224081   1.013   3.363   5.210  0.2584  0.2927 -0.0062
 4207SOL     OW24082   0.458   1.168   5.532  0.1890  0.2365 -0.2477
 4207SOL    HW124083   0.525   1.155   5.465  1.2566  1.4657  0.6031
 4207SOL    HW224084   0.465   1.094   5.592 -0.8891 -0.0977 -0.5273
 4208SOL     OW24085   2.451   3.880   4.397 -0.3518  0.6386  0.0563
 4208SOL    HW124086   2.456   3.960   4.344  0.7551  1.4739  1.4188
 4208SOL    HW224087   2.364   3.889   4.436 -0.0311  0.7770  0.7389
 4209SOL     OW24088   0.480   1.787   5.567  0.3949  0.1191 -0.4317
 4209SOL    HW124089   0.466   1.720   5.634  0.7636  0.0379 -0.4329
 4209SOL    HW224090   0.434   1.861   5.605  0.3523  0.2489 -0.7350
 4210SOL     OW24091   2.371   2.621   4.551  0.3477  0.0408 -0.1855
 4210SOL    HW124092   2.325   2.603   4.633  3.6903 -1.9076  1.2623
 4210SOL    HW224093   2.309   2.675   4.502  0.3647 -0.0742 -0.3322
 4211SOL     OW24094   2.303   2.388   6.584  0.2657  0.0671  0.8705
 4211SOL    HW124095   2.218   2.432   6.592 -0.5097 -1.6286  1.8908
 4211SOL    HW224096   2.287   2.306   6.630  0.3384  0.1037  0.9620
 4212SOL     OW24097   0.525   4.510   8.123 -0.4714  0.1930  0.2484
 4212SOL    HW124098   0.528   4.604   8.102 -1.2743  0.2724  0.4540
 4212SOL    HW224099   0.616   4.500   8.149 -0.2321  2.3308  0.2979
 4213SOL     OW24100   1.197   2.619   4.863  0.7720  0.3745 -0.0592
 4213SOL    HW124101   1.190   2.677   4.939  0.5830  1.3252 -0.8022
 4213SOL    HW224102   1.136   2.655   4.798 -0.2036  1.0481  1.2179
 4214SOL     OW24103   0.902   0.895  15.846 -0.1734  0.1559 -0.3856
 4214SOL    HW124104   0.890   0.900  15.941  3.2042  1.1106  0.0239
 4214SOL    HW224105   0.944   0.981  15.835 -0.2979 -0.1055 -2.8098
 4215SOL     OW24106   1.341   3.519   4.579  0.3567  0.1853 -0.3524
 4215SOL    HW124107   1.303   3.499   4.494 -2.2989  1.0765  0.6221
 4215SOL    HW224108   1.328   3.443   4.636  2.5001  0.7110  0.8272
 4216SOL     OW24109   1.444   0.770  13.631 -0.2567 -0.0871  0.1774
 4216SOL    HW124110   1.447   0.704  13.561  0.2926  0.9183 -0.7441
 4216SOL    HW224111   1.452   0.856  13.590 -1.6276 -0.4278 -0.7946
 4217SOL     OW24112   4.407   0.930   0.577 -0.0031  0.6760  0.2047
 4217SOL    HW124113   4.360   1.011   0.556 -2.2213  0.0481  2.7551
 4217SOL    HW224114   4.338   0.870   0.605  1.2754 -0.5596  0.7072
 4218SOL     OW24115   3.158   1.829   8.889  0.0386  0.1034  0.2293
 4218SOL    HW124116   3.199   1.801   8.971 -2.3130  0.2909  1.4886
 4218SOL    HW224117   3.144   1.921   8.912 -3.9087 -0.4394  0.0302
 4219SOL     OW24118   4.362   1.473  11.840 -0.3516  0.0291  0.7269
 4219SOL    HW124119   4.301   1.499  11.771 -0.3185 -2.0817 -0.0844
 4219SOL    HW224120   4.367   1.378  11.833  0.5356  0.2377 -1.5255
 4220SOL     OW24121   2.532   0.223  12.515  0.3841  0.6412 -0.4529
 4220SOL    HW124122   2.505   0.176  12.436  2.1885  1.6691 -1.6961
 4220SOL    HW224123   2.450   0.262  12.546  0.3778  0.5072 -0.3024
 4221SOL     OW24124   0.665   3.750   9.679  0.1134 -0.2225  0.2320
 4221SOL    HW124125   0.719   3.695   9.622 -1.9265 -0.0260 -1.9280
 4221SOL    HW224126   0.689   3.836   9.644  1.9017 -1.2871 -1.1528
 4222SOL     OW24127   0.410   2.885  12.832 -0.6740  0.0158 -0.3661
 4222SOL    HW124128   0.411   2.969  12.786 -0.9703  0.0633 -0.2874
 4222SOL    HW224129   0.316   2.876  12.847 -0.5786 -1.8849 -0.8688
 4223SOL     OW24130   3.300   2.004  15.605  0.2852 -0.7661  0.2999
 4223SOL    HW124131   3.210   1.980  15.627  0.0018  2.8198  3.0626
 4223SOL    HW224132   3.321   2.082  15.656 -0.4675 -1.5368  1.7672
 4224SOL     OW24133   3.996   2.447   5.199 -0.3917  0.0962  0.0658
 4224SOL    HW124134   4.008   2.352   5.210 -0.9822  0.0331  0.1479
 4224SOL    HW224135   3.928   2.449   5.132 -2.4236 -1.0863  2.1083
 4225SOL     OW24136   0.184   0.331   4.466 -0.2906 -0.8880  0.0006
 4225SOL    HW124137   0.219   0.270   4.400 -0.1032 -0.5429 -0.2181
 4225SOL    HW224138   0.234   0.300   4.542  0.6246 -0.7820 -0.5546
 4226SOL     OW24139   1.959   0.896   8.192  0.0857  0.6073 -0.0729
 4226SOL    HW124140   1.873   0.854   8.195  0.2037  0.3968  0.4453
 4226SOL    HW224141   1.974   0.897   8.287  1.2456  3.4531 -0.2888
 4227SOL     OW24142   2.712   4.409   6.446  0.0464 -0.6127 -1.0159
 4227SOL    HW124143   2.622   4.422   6.474  0.4483 -0.9330  0.4382
 4227SOL    HW224144   2.731   4.315   6.452 -2.0322 -1.0009 -0.4800
 4228SOL     OW24145   1.163   1.085  11.034 -0.0619 -0.3383  0.6392
 4228SOL    HW124146   1.249   1.110  10.998 -0.4313  0.4340  0.2835
 4228SOL    HW224147   1.152   1.000  10.992  0.8342 -0.8186  1.3729
 4229SOL     OW24148   1.427   1.717   3.659 -0.3841 -0.5137 -0.1778
 4229SOL    HW124149   1.470   1.668   3.729  0.5388  0.7855  0.1586
 4229SOL    HW224150   1.501   1.712   3.598 -0.4641 -0.1824 -0.3015
 4230SOL     OW24151   1.145   1.810  12.691 -0.2958  0.0309 -0.7285
 4230SOL    HW124152   1.093   1.806  12.611 -0.7121  0.4376 -0.4802
 4230SOL    HW224153   1.083   1.772  12.752 -1.0783 -0.0179 -1.5574
 4231SOL     OW24154   1.863   3.001   8.721  0.0535  0.0889  0.2090
 4231SOL    HW124155   1.827   3.003   8.632 -2.1916  0.9672  1.1178
 4231SOL    HW224156   1.949   2.965   8.701  0.8619  1.6298  0.8858
 4232SOL     OW24157   4.253   3.809   3.633 -0.3868 -0.5104 -0.1650
 4232SOL    HW124158   4.169   3.836   3.596  1.0899  2.4621 -1.3145
 4232SOL    HW224159   4.259   3.714   3.625  0.6141 -0.3981 -0.8402
 4233SOL     OW24160   2.805   0.396   5.567  0.6880 -0.9610 -0.3422
 4233SOL    HW124161   2.808   0.415   5.474  0.9707  2.0410  0.2763
 4233SOL    HW224162   2.720   0.437   5.584  1.4737  0.2954  0.6149
 4234SOL     OW24163   4.296   1.354   8.137  0.6995  0.0009 -0.1821
 4234SOL    HW124164   4.321   1.273   8.093 -0.1821  0.1397 -0.9604
 4234SOL    HW224165   4.205   1.366   8.108  0.6162  0.0604  0.1011
 4235SOL     OW24166   2.924   0.720  17.572  0.2415  0.3057 -0.5896
 4235SOL    HW124167   2.971   0.688  17.495  0.8940 -1.4943  0.5684
 4235SOL    HW224168   2.982   0.792  17.598  1.3604  0.4959 -3.6095
 4236SOL     OW24169   1.496   1.472   5.322 -0.0834 -0.0289  0.3770
 4236SOL    HW124170   1.451   1.498   5.402  0.0337  1.4979 -0.0606
 4236SOL    HW224171   1.432   1.415   5.278 -0.0886  0.5075 -0.3178
 4237SOL     OW24172   0.261   4.083  10.627 -0.1673  0.1760  0.5105
 4237SOL    HW124173   0.307   4.025  10.566  2.4167  1.5812  1.1563
 4237SOL    HW224174   0.184   4.029  10.648 -0.0777 -0.7594 -1.5300
 4238SOL     OW24175   4.534   1.255   1.543  0.0847  1.0052  0.5815
 4238SOL    HW124176   4.613   1.247   1.597  1.4344  0.0053 -1.5293
 4238SOL    HW224177   4.565   1.323   1.483  2.9149 -0.1961  0.6691
 4239SOL     OW24178   2.635   3.112  11.669  0.5812  0.9538  0.6131
 4239SOL    HW124179   2.646   3.201  11.635  0.9386  0.5017 -0.4786
 4239SOL    HW224180   2.639   3.083  11.578  0.0834  0.6721  0.6849
 4240SOL     OW24181   0.041   4.591   3.282 -0.3493 -0.0510 -0.3368
 4240SOL    HW124182   0.063   4.562   3.371  0.4257 -0.3050 -0.6163
 4240SOL    HW224183   4.670   4.564   3.288  0.4272 -2.5851  0.3552
 4241SOL     OW24184   4.583   4.104   3.264 -0.3985  0.0128 -0.1971
 4241SOL    HW124185   4.498   4.062   3.275 -0.4049  0.9668  3.1492
 4241SOL    HW224186   4.633   4.034   3.221  0.7224  0.4342  0.4273
 4242SOL     OW24187   1.485   1.431   2.645  0.3561  0.0011 -0.5222
 4242SOL    HW124188   1.390   1.426   2.658  0.1142 -1.9004 -3.1957
 4242SOL    HW224189   1.509   1.354   2.594  0.0022  0.9869 -2.1783
 4243SOL     OW24190   1.776   1.878   0.119 -0.3242 -0.1470  0.2188
 4243SOL    HW124191   1.813   1.804   0.168 -1.7287 -1.1040 -0.1555
 4243SOL    HW224192   1.760   1.828   0.039  1.3634 -0.6881  0.2119
 4244SOL     OW24193   0.642   3.863  10.645 -0.3202 -0.2154  0.2818
 4244SOL    HW124194   0.625   3.941  10.696 -0.2517 -0.0472  0.0473
 4244SOL    HW224195   0.552   3.837  10.623 -0.0343 -1.2842  0.3511
 4245SOL     OW24196   0.827   2.836  12.016  0.7320  0.0205  0.1947
 4245SOL    HW124197   0.845   2.825  12.109  0.3053 -0.0924  0.2658
 4245SOL    HW224198   0.913   2.855  11.980  1.2970 -0.9621  1.0315
 4246SOL     OW24199   3.476   0.462   2.744 -0.0332 -0.2409 -0.3196
 4246SOL    HW124200   3.518   0.395   2.690  4.0430  1.8015  0.3390
 4246SOL    HW224201   3.551   0.515   2.768 -0.2612  0.2524 -0.7043
 4247SOL     OW24202   0.310   1.262   9.064 -0.3587 -0.1372  0.4422
 4247SOL    HW124203   0.291   1.352   9.037 -1.2102 -0.7227 -0.8779
 4247SOL    HW224204   0.247   1.270   9.137 -2.9754 -3.5017 -1.4333
 4248SOL     OW24205   4.613   2.854   1.098 -0.8090 -0.5271  0.1044
 4248SOL    HW124206   4.599   2.896   1.183 -0.4817 -1.3454  0.5676
 4248SOL    HW224207   4.558   2.907   1.041  1.9984  0.6036 -1.5203
 4249SOL     OW24208   3.673   0.862   2.536 -0.1600  0.1633  0.0193
 4249SOL    HW124209   3.738   0.830   2.474  0.7419 -0.3401  1.2241
 4249SOL    HW224210   3.591   0.825   2.502 -1.1238  1.8222  0.5186
 4250SOL     OW24211   2.481   3.806   5.054  0.0997  0.0581  0.2226
 4250SOL    HW124212   2.523   3.883   5.092 -1.0965 -0.2900  2.2749
 4250SOL    HW224213   2.394   3.835   5.027  0.6889 -0.0063 -1.6932
 4251SOL     OW24214   1.506   3.908   7.319 -0.0974 -0.2741 -0.2126
 4251SOL    HW124215   1.538   3.938   7.404 -0.8826  2.7574 -0.9754
 4251SOL    HW224216   1.419   3.886   7.350  0.0229 -0.7221 -0.1945
 4252SOL     OW24217   4.109   3.725   7.670 -0.4951 -0.0002 -0.1523
 4252SOL    HW124218   4.107   3.727   7.766 -0.8277  3.2519 -0.2196
 4252SOL    HW224219   4.024   3.763   7.645  0.6534  1.0794 -2.3684
 4253SOL     OW24220   2.986   4.370   3.432  0.1138 -0.0187 -0.0915
 4253SOL    HW124221   3.018   4.305   3.370 -0.4954 -1.1858  0.8047
 4253SOL    HW224222   2.930   4.325   3.495  0.7250  0.1257  0.5594
 4254SOL     OW24223   4.348   3.752   0.744  0.3449 -0.7187  0.8540
 4254SOL    HW124224   4.297   3.828   0.716  0.8925 -0.7569 -0.2296
 4254SOL    HW224225   4.317   3.734   0.833  3.5557 -3.5923  1.4008
 4255SOL     OW24226   3.406   1.150   7.056  0.4481  0.0074  0.7154
 4255SOL    HW124227   3.395   1.176   7.148 -0.5318  1.5582  0.1588
 4255SOL    HW224228   3.407   1.235   7.012  0.5026 -0.5112 -0.2799
 4256SOL     OW24229   2.350   1.068  16.856  0.4838  0.1679 -0.0378
 4256SOL    HW124230   2.433   1.093  16.815  0.8383 -1.8534 -0.6003
 4256SOL    HW224231   2.302   1.042  16.777  0.3163 -0.6176  0.3179
 4257SOL     OW24232   3.438   1.003  11.354 -0.0262  0.2189 -0.7836
 4257SOL    HW124233   3.369   1.054  11.311  0.3498  0.9450 -0.5166
 4257SOL    HW224234   3.485   1.072  11.401 -1.4260  0.1680  0.7017
 4258SOL     OW24235   0.763   4.386  14.513 -0.5216 -0.2371  0.4925
 4258SOL    HW124236   0.762   4.423  14.425  2.0332  0.2968  0.6995
 4258SOL    HW224237   0.674   4.373  14.546 -1.6973 -0.7675 -2.9169
 4259SOL     OW24238   4.484   3.034   8.097 -0.6966 -0.0703 -0.5940
 4259SOL    HW124239   4.565   3.005   8.138 -1.6660 -0.9149  0.7379
 4259SOL    HW224240   4.479   3.123   8.132 -1.0333 -1.0412  1.8213
 4260SOL     OW24241   0.811   3.439  10.763  0.0653  0.3522  0.6762
 4260SOL    HW124242   0.719   3.419  10.777  0.1295 -1.1526 -1.0554
 4260SOL    HW224243   0.814   3.533  10.776  0.2347  0.3988  0.2848
 4261SOL     OW24244   0.524   3.877   8.090  0.8928 -0.1237 -0.6798
 4261SOL    HW124245   0.556   3.789   8.069 -1.1111 -1.1016  0.3694
 4261SOL    HW224246   0.469   3.859   8.167  0.0193 -1.0415 -1.5102
 4262SOL     OW24247   0.036   4.674  13.739 -0.7308  0.0392 -0.2656
 4262SOL    HW124248   0.114   4.714  13.775  1.1814 -1.6141 -2.5021
 4262SOL    HW224249   0.038   4.694  13.645 -0.0446  2.0586  0.1951
 4263SOL     OW24250   1.471   2.516  13.767  0.1268 -0.0022  0.4168
 4263SOL    HW124251   1.481   2.499  13.673 -1.1635  0.8066  0.1303
 4263SOL    HW224252   1.440   2.606  13.765 -0.8438 -0.3752 -1.3267
 4264SOL     OW24253   2.573   2.993   2.419 -0.1148 -0.0144  0.1385
 4264SOL    HW124254   2.486   2.960   2.445 -0.0351 -0.1889  0.1838
 4264SOL    HW224255   2.603   2.906   2.393 -2.5810 -0.3583 -1.5465
 4265SOL     OW24256   3.714   0.012  15.524 -0.1068  0.0329  0.2256
 4265SOL    HW124257   3.687   4.641  15.520 -1.5352  0.5845 -2.3390
 4265SOL    HW224258   3.748   0.028  15.437 -0.7074 -0.8004 -0.1679
 4266SOL     OW24259   4.708   0.321  16.717 -0.4134 -0.2400 -0.4381
 4266SOL    HW124260   0.050   0.385  16.685 -1.9827  0.8769 -1.2910
 4266SOL    HW224261   4.625   0.357  16.686 -0.1733 -0.3635 -1.2358
 4267SOL     OW24262   2.270   2.823   4.092  0.5949 -0.2368 -0.3909
 4267SOL    HW124263   2.264   2.913   4.123  1.1746 -1.1942  2.5964
 4267SOL    HW224264   2.217   2.773   4.154  3.5488 -0.8623  1.6470
 4268SOL     OW24265   1.682   2.375   4.035  0.6200  0.7937 -0.2547
 4268SOL    HW124266   1.609   2.405   4.089 -0.9158  0.3139 -2.0458
 4268SOL    HW224267   1.691   2.291   4.078 -1.3288  0.6206 -0.1797
 4269SOL     OW24268   2.218   4.365   7.929  0.3907 -0.5175 -0.7974
 4269SOL    HW124269   2.172   4.350   8.012  1.6229 -0.4733 -0.1056
 4269SOL    HW224270   2.310   4.365   7.954 -0.2377 -2.3946  1.5790
 4270SOL     OW24271   1.064   1.961   9.216 -0.6638  0.2333  0.8782
 4270SOL    HW124272   1.016   1.916   9.285  0.4759 -2.1785  0.1021
 4270SOL    HW224273   1.093   1.884   9.167 -1.2710  1.0790 -0.8432
 4271SOL     OW24274   0.695   1.425   7.154 -0.3806 -1.0330 -0.9513
 4271SOL    HW124275   0.663   1.510   7.185 -0.6597 -0.8468 -1.7402
 4271SOL    HW224276   0.753   1.403   7.226 -1.2433 -1.5754 -0.4178
 4272SOL     OW24277   1.256   0.804   2.300 -0.2969  0.8510  0.3141
 4272SOL    HW124278   1.328   0.846   2.348 -0.2765 -0.8372  1.7815
 4272SOL    HW224279   1.260   0.850   2.216  0.6626  0.2986  0.0550
 4273SOL     OW24280   3.077   0.803  10.685 -0.5481 -0.4496 -0.5691
 4273SOL    HW124281   3.065   0.719  10.641  0.4371 -0.6887 -0.3929
 4273SOL    HW224282   2.991   0.812  10.725  0.0843  0.5635  0.5881
 4274SOL     OW24283   0.642   4.390   2.544 -0.3860 -0.4165 -0.9691
 4274SOL    HW124284   0.550   4.366   2.555 -0.0442 -1.1495  0.2585
 4274SOL    HW224285   0.636   4.482   2.572  1.0422 -0.6432  0.0847
 4275SOL     OW24286   1.748   3.415  10.583  0.0876  0.7605  1.0277
 4275SOL    HW124287   1.660   3.393  10.552 -0.5867 -0.5641  3.8896
 4275SOL    HW224288   1.750   3.490  10.524 -1.1002 -2.3813 -3.0462
 4276SOL     OW24289   2.075   1.980  10.738 -0.4222 -0.0700  0.1889
 4276SOL    HW124290   1.998   1.929  10.764 -0.3298 -0.2550  0.0950
 4276SOL    HW224291   2.079   2.032  10.819 -2.5823  0.8253 -0.2667
 4277SOL     OW24292   2.121   2.962   8.656 -0.0001  0.2462  0.2472
 4277SOL    HW124293   2.192   2.934   8.715 -0.4722 -1.9235 -0.2221
 4277SOL    HW224294   2.171   2.989   8.579 -0.0110  1.1923  0.5626
 4278SOL     OW24295   0.840   2.649   6.996 -0.3448 -0.3491  0.6971
 4278SOL    HW124296   0.880   2.635   7.082  0.0394  1.2823  0.7929
 4278SOL    HW224297   0.859   2.742   6.979 -0.2495 -0.1298  1.9568
 4279SOL     OW24298   4.051   4.037   6.196  0.1339  0.9593 -0.4718
 4279SOL    HW124299   4.057   4.133   6.196  2.6199  0.7884 -1.6916
 4279SOL    HW224300   3.961   4.021   6.224  0.4498 -1.0878 -0.6161
 4280SOL     OW24301   2.093   3.789  12.134 -0.5834 -0.4799  0.2678
 4280SOL    HW124302   2.115   3.775  12.226 -0.6361  1.1479  0.5288
 4280SOL    HW224303   2.008   3.745  12.140 -0.4518 -0.9122 -1.1215
 4281SOL     OW24304   0.045   1.131  16.950 -0.0714 -0.1254  0.2081
 4281SOL    HW124305   0.089   1.090  17.024 -1.0211 -2.3500 -0.4502
 4281SOL    HW224306   0.044   1.064  16.881 -0.1320  0.1518 -0.0600
 4282SOL     OW24307   0.669   2.402   4.496  0.2409 -0.4367  0.1936
 4282SOL    HW124308   0.584   2.359   4.496  0.5877 -1.1385 -0.2980
 4282SOL    HW224309   0.725   2.331   4.528  0.0366 -0.5928  0.2020
 4283SOL     OW24310   2.573   2.007   8.764  1.2508  0.4921 -0.3848
 4283SOL    HW124311   2.536   1.944   8.826 -1.9543  2.4106 -0.3409
 4283SOL    HW224312   2.533   1.970   8.685  0.5494 -0.6746  0.5306
 4284SOL     OW24313   3.713   2.354   9.047 -0.1773  0.6813  0.1467
 4284SOL    HW124314   3.627   2.355   9.006 -0.8267 -0.7259  1.4461
 4284SOL    HW224315   3.687   2.287   9.111  1.7976  1.6777  1.9625
 4285SOL     OW24316   1.882   3.124   2.570  0.2418 -0.2895  0.2010
 4285SOL    HW124317   1.911   3.130   2.479 -1.3854 -1.3671 -0.3846
 4285SOL    HW224318   1.796   3.086   2.554 -0.5398  1.5330  0.1368
 4286SOL     OW24319   3.815   2.276  13.729  0.2181  0.4977  0.2898
 4286SOL    HW124320   3.868   2.221  13.671 -0.3950  0.2831 -0.0697
 4286SOL    HW224321   3.876   2.342  13.761 -1.0894  1.0015  1.7315
 4287SOL     OW24322   1.427   2.803  13.697 -0.2977 -0.0353 -0.1019
 4287SOL    HW124323   1.339   2.823  13.729 -0.8004 -3.3894  0.6152
 4287SOL    HW224324   1.440   2.851  13.615 -0.0277  1.6112  0.8927
 4288SOL     OW24325   1.680   0.451   5.074 -0.2620  0.2526  0.1813
 4288SOL    HW124326   1.663   0.435   5.167  0.3702 -0.8100  0.1206
 4288SOL    HW224327   1.623   0.393   5.024 -0.5968 -0.9197  1.9192
 4289SOL     OW24328   1.820   4.685  15.061  0.3741 -0.1922 -0.4948
 4289SOL    HW124329   1.806   0.015  14.981  0.0181 -2.5314 -1.9379
 4289SOL    HW224330   1.771   4.606  15.039  0.5059  0.2570 -2.4387
 4290SOL     OW24331   2.640   0.453   6.523  0.1613  0.4466 -0.0236
 4290SOL    HW124332   2.567   0.515   6.532 -0.3481 -0.2455  0.5957
 4290SOL    HW224333   2.595   0.370   6.512  0.5345 -0.0192  1.8726
 4291SOL     OW24334   2.393   1.639  14.236 -0.1921 -0.0779  0.3642
 4291SOL    HW124335   2.450   1.671  14.166 -0.9159 -0.9413 -0.6150
 4291SOL    HW224336   2.343   1.719  14.255 -0.7511 -0.9109  2.4235
 4292SOL     OW24337   3.219   0.842  11.357 -0.4475 -0.1544 -0.0857
 4292SOL    HW124338   3.249   0.754  11.381 -0.4418  0.6454  2.8396
 4292SOL    HW224339   3.304   0.885  11.354 -0.2000 -0.7621 -1.5840
 4293SOL     OW24340   4.583   1.522   3.731  0.0671 -0.4239 -0.4310
 4293SOL    HW124341   4.589   1.441   3.679  0.4082 -0.8008  0.1913
 4293SOL    HW224342   4.573   1.593   3.667 -3.5386 -0.2216  0.3999
 4294SOL     OW24343   2.764   1.428   3.502 -0.0240  0.1635 -0.5792
 4294SOL    HW124344   2.726   1.359   3.447 -0.0887 -0.1281 -0.1637
 4294SOL    HW224345   2.849   1.385   3.514 -0.1506  0.1181  0.1357
 4295SOL     OW24346   0.690   0.575  10.714  1.0524  0.6301  0.1171
 4295SOL    HW124347   0.612   0.572  10.770  0.2123  0.9150 -1.0574
 4295SOL    HW224348   0.756   0.613  10.772  0.7373 -0.6378  1.3162
 4296SOL     OW24349   0.640   0.707   8.629  0.4382 -0.2105  0.1465
 4296SOL    HW124350   0.566   0.765   8.645  0.5647  0.0762 -0.3036
 4296SOL    HW224351   0.620   0.673   8.541 -0.4487  0.7604 -0.0142
 4297SOL     OW24352   3.248   0.690  13.117 -0.2181 -0.2593  0.2049
 4297SOL    HW124353   3.247   0.744  13.197 -0.0888  0.7646 -0.4786
 4297SOL    HW224354   3.313   0.627  13.148 -0.5743  0.3548  2.2028
 4298SOL     OW24355   2.497   1.362   1.086 -0.1000 -0.2393  0.0280
 4298SOL    HW124356   2.543   1.445   1.076  0.8536 -0.3152  3.9872
 4298SOL    HW224357   2.474   1.365   1.179 -0.6840  2.2284 -0.2015
 4299SOL     OW24358   2.190   3.145  16.246  0.3407 -0.6263  0.2834
 4299SOL    HW124359   2.215   3.238  16.250 -0.8158 -0.3797  1.7626
 4299SOL    HW224360   2.153   3.138  16.158  0.8491 -1.4523  0.1367
 4300SOL     OW24361   3.774   0.232  10.366 -0.4676 -0.3783 -0.1437
 4300SOL    HW124362   3.852   0.200  10.321 -1.0825 -0.8814 -0.8403
 4300SOL    HW224363   3.710   0.171  10.331 -0.0159 -1.0692  0.2331
 4301SOL     OW24364   3.297   1.885   3.929  0.0272  0.2298  0.1163
 4301SOL    HW124365   3.322   1.972   3.898 -1.0509  0.4041 -0.2885
 4301SOL    HW224366   3.205   1.869   3.904  0.3793 -0.1206 -0.9493
 4302SOL     OW24367   2.035   1.850   9.385  0.2340  0.1993  0.0904
 4302SOL    HW124368   2.099   1.855   9.314 -0.1304 -1.2436 -0.3537
 4302SOL    HW224369   1.970   1.905   9.340  0.8460 -0.1829 -1.2537
 4303SOL     OW24370   2.383   2.504   4.257  0.0302 -0.2159 -0.7045
 4303SOL    HW124371   2.375   2.580   4.314  1.0141  0.8348 -1.9530
 4303SOL    HW224372   2.473   2.524   4.233  0.6002  0.1737  1.7789
 4304SOL     OW24373   1.717   0.454  10.723  0.2573 -0.4401  0.0418
 4304SOL    HW124374   1.707   0.394  10.797  1.0214 -0.0465  0.4721
 4304SOL    HW224375   1.808   0.481  10.737  0.2803 -1.4748  1.9403
 4305SOL     OW24376   1.209   3.180   5.374  0.1128 -0.2172 -0.2542
 4305SOL    HW124377   1.157   3.259   5.358  0.9441  0.3268 -0.3224
 4305SOL    HW224378   1.256   3.175   5.290 -2.5234 -2.3212 -1.6108
 4306SOL     OW24379   3.493   4.575   9.323 -0.4268  0.3486 -0.1903
 4306SOL    HW124380   3.454   4.623   9.397 -0.0785 -0.8917  0.8003
 4306SOL    HW224381   3.523   4.488   9.350  0.9311  1.0743  0.6319
 4307SOL     OW24382   4.510   1.078  11.204 -0.5513 -0.4718 -0.6316
 4307SOL    HW124383   4.535   1.129  11.127 -1.1481 -1.2425 -1.3532
 4307SOL    HW224384   4.456   1.140  11.254 -0.1232  0.9706 -1.9691
 4308SOL     OW24385   0.914   0.675   8.342 -0.2485  0.0237  0.6253
 4308SOL    HW124386   0.855   0.745   8.313 -0.3981  0.6384  2.4133
 4308SOL    HW224387   0.888   0.604   8.284 -0.2730  2.6602 -2.6094
 4309SOL     OW24388   4.131   4.265  11.493 -0.4022  0.5031  0.5289
 4309SOL    HW124389   4.220   4.230  11.500  0.2646  1.8273 -1.6223
 4309SOL    HW224390   4.081   4.186  11.516 -0.2572  0.1448 -0.4090
 4310SOL     OW24391   4.443   4.111   5.556  0.1926  0.1028 -0.4214
 4310SOL    HW124392   4.495   4.030   5.553 -1.2501 -0.8896  1.0754
 4310SOL    HW224393   4.400   4.110   5.471 -1.2475 -3.0260  0.3131
 4311SOL     OW24394   4.535   2.584   8.601 -0.6402 -0.1070  0.3296
 4311SOL    HW124395   4.507   2.498   8.634 -0.0625 -0.8896 -1.2195
 4311SOL    HW224396   4.619   2.595   8.644 -0.2027  0.0195 -0.5556
 4312SOL     OW24397   0.491   3.125   0.983  0.0841  0.1506  0.3281
 4312SOL    HW124398   0.476   3.100   0.892 -0.6398  1.0689  0.1936
 4312SOL    HW224399   0.406   3.161   1.009 -0.0988  1.3260 -1.8753
 4313SOL     OW24400   1.982   0.214   6.816 -0.1913  0.1302 -0.3454
 4313SOL    HW124401   1.978   0.138   6.875  0.9182  0.2737 -0.0894
 4313SOL    HW224402   2.043   0.272   6.860 -0.5929  0.1472  0.1911
 4314SOL     OW24403   3.712   1.858   8.479 -0.0596 -0.7838  0.3958
 4314SOL    HW124404   3.665   1.829   8.558  0.6289 -1.0925  0.6966
 4314SOL    HW224405   3.691   1.789   8.417 -2.0881 -0.2542  0.4742
 4315SOL     OW24406   0.999   1.132   8.334  0.1976 -0.1493 -0.4480
 4315SOL    HW124407   1.009   1.191   8.409 -0.9080  1.8957 -1.9316
 4315SOL    HW224408   0.908   1.110   8.355 -0.6679  2.8966 -1.1207
 4316SOL     OW24409   2.460   3.790   1.943 -0.1035 -0.6983  0.2336
 4316SOL    HW124410   2.528   3.733   1.978  1.6053  0.3075 -1.4709
 4316SOL    HW224411   2.385   3.731   1.952 -0.9951  0.3093 -0.4996
 4317SOL     OW24412   3.472   3.157   1.633  0.1725  0.1719 -0.0002
 4317SOL    HW124413   3.484   3.084   1.694  1.5799  0.5267  0.1384
 4317SOL    HW224414   3.510   3.120   1.554 -0.7113  4.1312 -2.2719
 4318SOL     OW24415   4.497   3.838   7.015 -0.2342  0.0642 -0.2392
 4318SOL    HW124416   4.553   3.895   7.069  0.7813 -0.6981 -0.4987
 4318SOL    HW224417   4.456   3.895   6.950  0.7265  0.3485 -0.6006
 4319SOL     OW24418   1.495   2.475   2.529  0.4079 -0.0809 -0.7451
 4319SOL    HW124419   1.472   2.568   2.526  0.7376 -0.0161 -1.3263
 4319SOL    HW224420   1.489   2.452   2.436 -3.0468  1.9801 -1.0542
 4320SOL     OW24421   1.847   3.298  13.931 -0.3289 -0.5678  0.4443
 4320SOL    HW124422   1.753   3.279  13.938 -0.6111  0.1421 -1.3903
 4320SOL    HW224423   1.866   3.270  14.020  0.2783  0.0170  0.4918
 4321SOL     OW24424   2.092   4.048  13.101  0.6883  0.0384 -0.6983
 4321SOL    HW124425   2.048   4.133  13.104 -0.3832 -0.5227 -0.3912
 4321SOL    HW224426   2.021   3.996  13.138  0.8932 -0.6382 -1.2514
 4322SOL     OW24427   0.177   1.803   0.606  0.0745  0.2755  0.1040
 4322SOL    HW124428   0.199   1.760   0.523 -1.5260  0.3734 -0.3593
 4322SOL    HW224429   0.210   1.892   0.600  1.6000 -0.3661 -1.0549
 4323SOL     OW24430   0.212   1.336  14.550 -0.1740  0.2228 -0.3606
 4323SOL    HW124431   0.259   1.414  14.523  0.0828  0.3359  0.4185
 4323SOL    HW224432   0.281   1.292  14.600 -0.2175  0.4303 -0.1215
 4324SOL     OW24433   3.138   1.801   6.432 -0.2011 -0.0892 -0.2009
 4324SOL    HW124434   3.223   1.839   6.412  0.5057 -2.1873 -1.1748
 4324SOL    HW224435   3.079   1.870   6.403  0.2374  0.9165  1.3034
 4325SOL     OW24436   4.576   0.705   1.023  0.6669  0.5477  0.4954
 4325SOL    HW124437   4.541   0.621   0.993 -1.0019  0.4575  2.6731
 4325SOL    HW224438   4.602   0.750   0.943 -0.3603  2.8805  1.4608
 4326SOL     OW24439   3.633   2.577   7.131 -0.1325 -0.0042  0.2049
 4326SOL    HW124440   3.712   2.598   7.180  0.2371  0.7087 -0.7014
 4326SOL    HW224441   3.644   2.484   7.109  1.6639  0.0714  0.8450
 4327SOL     OW24442   4.545   1.881  12.264  0.4639  0.4087 -0.0048
 4327SOL    HW124443   4.580   1.837  12.186 -0.6759  0.7011 -0.6910
 4327SOL    HW224444   4.540   1.973  12.238  1.8145  0.6760  0.6814
 4328SOL     OW24445   3.799   0.910   3.570 -0.4680 -0.8754  0.3257
 4328SOL    HW124446   3.846   0.969   3.512  0.9464 -2.8231 -0.5176
 4328SOL    HW224447   3.834   0.828   3.535 -0.9536 -0.4450 -1.1945
 4329SOL     OW24448   1.080   1.191   3.606 -0.1513 -0.3405 -0.8241
 4329SOL    HW124449   1.003   1.159   3.560 -0.8319 -0.6791  0.5569
 4329SOL    HW224450   1.117   1.110   3.642 -2.1862 -1.1054 -0.5001
 4330SOL     OW24451   3.038   1.009   4.173 -0.2633  0.2059  0.1387
 4330SOL    HW124452   3.054   0.980   4.263  0.5602 -0.7629 -0.3182
 4330SOL    HW224453   3.075   1.097   4.174  0.0175  0.0927 -0.2879
 4331SOL     OW24454   1.230   2.015   6.722  0.0269  0.2095  0.4878
 4331SOL    HW124455   1.152   1.967   6.751  1.6768 -2.0178  1.2838
 4331SOL    HW224456   1.263   2.057   6.801  0.6574  1.0213 -0.2056
 4332SOL     OW24457   0.430   1.234   2.877  0.6730  0.0147 -0.2953
 4332SOL    HW124458   0.479   1.157   2.848  0.9503 -0.2880  0.9488
 4332SOL    HW224459   0.492   1.301   2.907 -0.5993  0.2273  1.9080
 4333SOL     OW24460   0.768   2.628   0.793  0.0692  0.2169 -0.4693
 4333SOL    HW124461   0.673   2.637   0.782 -0.1608 -0.2318  1.1519
 4333SOL    HW224462   0.800   2.664   0.710  1.7387 -1.0046 -0.3412
 4334SOL     OW24463   0.313   4.165   0.286 -1.0982  0.1333 -0.4023
 4334SOL    HW124464   0.353   4.250   0.304 -0.2170  0.3464 -3.3995
 4334SOL    HW224465   0.280   4.155   0.375 -0.9719 -1.6677 -0.5414
 4335SOL     OW24466   1.461   1.642   9.164 -0.7178  0.6786  0.1046
 4335SOL    HW124467   1.370   1.627   9.192 -0.0049 -1.7930  1.0047
 4335SOL    HW224468   1.456   1.717   9.104  1.2172  0.4748 -0.3006
 4336SOL     OW24469   2.482   1.262   7.635 -0.2528  0.0411 -0.5475
 4336SOL    HW124470   2.519   1.183   7.596 -0.0947  0.0372 -0.3909
 4336SOL    HW224471   2.558   1.291   7.685  0.1403  1.0907 -1.7754
 4337SOL     OW24472   0.258   2.756   8.580 -0.2407 -0.1241 -0.2279
 4337SOL    HW124473   0.313   2.690   8.623  0.3174 -0.0262 -0.7869
 4337SOL    HW224474   0.237   2.714   8.497  1.1373  0.0557 -0.6665
 4338SOL     OW24475   0.726   4.092  11.004  0.1956 -0.2193  0.2303
 4338SOL    HW124476   0.801   4.053  11.050  0.0619  0.9071  1.3962
 4338SOL    HW224477   0.755   4.103  10.914 -1.9156  1.6887 -0.1917
 4339SOL     OW24478   0.145   4.060  17.605  0.3613 -0.1586  0.0275
 4339SOL    HW124479   0.208   4.125  17.635  0.0855 -0.4951  1.3553
 4339SOL    HW224480   0.195   3.981  17.625 -0.8792 -0.9168  0.1089
 4340SOL     OW24481   3.134   2.926   6.265  1.0329 -0.5012 -0.7429
 4340SOL    HW124482   3.076   2.935   6.189  0.7788  0.6009 -0.4200
 4340SOL    HW224483   3.108   3.003   6.316 -0.1902 -1.5078  0.1467
 4341SOL     OW24484   1.262   4.078   0.883  0.4314 -0.4678  0.2822
 4341SOL    HW124485   1.262   3.992   0.842  0.3870  0.0088 -0.7045
 4341SOL    HW224486   1.216   4.136   0.823  0.4111 -2.6035 -1.7539
 4342SOL     OW24487   1.114   4.252   0.656 -0.7816  0.1474  0.2285
 4342SOL    HW124488   1.139   4.341   0.681 -1.3569 -0.1591  1.9062
 4342SOL    HW224489   1.047   4.226   0.719 -0.5880  3.0777  1.6402
 4343SOL     OW24490   2.814   0.391   7.551  0.0115 -0.1658 -0.6440
 4343SOL    HW124491   2.834   0.298   7.562 -0.0818 -0.1888 -0.6719
 4343SOL    HW224492   2.841   0.419   7.639  0.1571 -0.9233 -0.4488
 4344SOL     OW24493   3.253   0.587   0.624  0.1836  0.4263 -0.9461
 4344SOL    HW124494   3.179   0.535   0.656 -0.0598  1.3001 -0.0765
 4344SOL    HW224495   3.215   0.666   0.662  3.3063  1.3046  0.3468
 4345SOL     OW24496   3.728   3.381   3.496  0.6386  0.1103 -0.3440
 4345SOL    HW124497   3.821   3.403   3.492  0.1992  2.2099  1.1536
 4345SOL    HW224498   3.690   3.462   3.530  0.0325  0.2501 -1.3521
 4346SOL     OW24499   4.263   1.834  10.141  1.0561 -0.2493 -0.0124
 4346SOL    HW124500   4.331   1.767  10.143  0.3575 -0.8899  1.8365
 4346SOL    HW224501   4.203   1.785  10.084 -1.3300  2.4705  0.1589
 4347SOL     OW24502   4.489   1.674  15.167 -0.0647  0.0412 -0.2366
 4347SOL    HW124503   4.490   1.750  15.110 -2.6248 -0.8593 -1.4818
 4347SOL    HW224504   4.576   1.673  15.208 -0.4943  0.9200  0.6828
 4348SOL     OW24505   4.116   2.424  11.824 -0.7103  0.0099  0.0953
 4348SOL    HW124506   4.096   2.384  11.909  2.4899  0.6470  1.1393
 4348SOL    HW224507   4.206   2.395  11.809 -0.8291  0.2170 -1.0073
 4349SOL     OW24508   0.953   3.791  14.202 -0.4406 -0.1362  0.4067
 4349SOL    HW124509   1.042   3.771  14.229  0.7231  3.0826 -1.0389
 4349SOL    HW224510   0.942   3.881  14.233 -2.0516  0.5017 -2.0015
 4350SOL     OW24511   0.172   4.333  16.731 -0.3730 -0.7570 -0.2781
 4350SOL    HW124512   0.127   4.404  16.776 -0.8457 -1.9883  1.1992
 4350SOL    HW224513   0.105   4.264  16.725 -1.2132  0.1468 -1.4003
 4351SOL     OW24514   0.344   3.787   8.833 -0.8759  0.2087 -0.3228
 4351SOL    HW124515   0.272   3.737   8.795 -0.2587  0.8887 -2.3922
 4351SOL    HW224516   0.416   3.737   8.794 -1.6052 -0.2411 -1.0753
 4352SOL     OW24517   1.937   0.209  12.463  0.4286  0.2430  0.1505
 4352SOL    HW124518   1.979   0.196  12.548  0.5109 -1.5534 -0.1547
 4352SOL    HW224519   1.890   0.287  12.492 -0.5092  0.8541 -3.0332
 4353SOL     OW24520   1.318   3.665   1.064  0.3853  0.3491  0.3151
 4353SOL    HW124521   1.284   3.600   1.125  1.7942 -0.5674  0.1272
 4353SOL    HW224522   1.256   3.656   0.992  1.5027  1.7239 -0.8238
 4354SOL     OW24523   2.176   2.047   1.921  0.3351  0.5800  0.7034
 4354SOL    HW124524   2.169   2.097   2.003 -0.4007  0.2544  0.8437
 4354SOL    HW224525   2.109   1.981   1.941  0.3102  0.9918  2.0116
 4355SOL     OW24526   1.425   0.792  11.272 -0.1386  0.1797 -0.3313
 4355SOL    HW124527   1.340   0.815  11.236 -0.4009  1.4821  1.0934
 4355SOL    HW224528   1.484   0.867  11.261  0.1786 -0.2907 -1.8322
 4356SOL     OW24529   4.192   0.300   4.601 -0.6391  0.3551  0.3638
 4356SOL    HW124530   4.249   0.235   4.560 -0.3564  0.3257  0.8117
 4356SOL    HW224531   4.252   0.372   4.622 -2.1612  1.7167  0.1136
 4357SOL     OW24532   2.635   0.508  14.714  0.7139  0.5643 -0.0924
 4357SOL    HW124533   2.590   0.440  14.664 -1.0290  0.8452  1.0816
 4357SOL    HW224534   2.561   0.565  14.735  0.7907  0.9205 -0.7681
 4358SOL     OW24535   3.898   2.910   7.671 -0.2243 -0.2489 -0.8645
 4358SOL    HW124536   3.812   2.951   7.665 -0.1309  0.0225 -0.3249
 4358SOL    HW224537   3.944   2.988   7.639 -1.1272  0.7750  0.3355
 4359SOL     OW24538   4.653   1.628   4.891  0.0639  0.1936 -0.0546
 4359SOL    HW124539   4.669   1.554   4.950 -2.5805  0.0987  0.5558
 4359SOL    HW224540   4.666   1.579   4.810  0.1675 -3.6592  2.2577
 4360SOL     OW24541   1.691   1.395   3.662  0.3852  0.3180  0.5698
 4360SOL    HW124542   1.627   1.379   3.731  1.3091  0.2902  1.4243
 4360SOL    HW224543   1.654   1.373   3.576  0.2394  3.2847 -0.1189
 4361SOL     OW24544   1.492   4.629   6.429 -0.3934  0.1169 -0.5267
 4361SOL    HW124545   1.514   4.536   6.440  1.5534  0.7841  0.9095
 4361SOL    HW224546   1.496   4.650   6.522  1.7580  0.3259 -0.6728
 4362SOL     OW24547   4.679   0.417   4.857 -0.6309 -0.6371  0.1493
 4362SOL    HW124548   4.658   0.376   4.941 -3.5901  1.5583  0.4671
 4362SOL    HW224549   0.048   0.446   4.873  0.0769 -2.4040 -0.6792
 4363SOL     OW24550   2.251   1.187   6.466  0.3111 -0.2066  0.8398
 4363SOL    HW124551   2.213   1.198   6.379 -1.2355  0.7143  1.6244
 4363SOL    HW224552   2.343   1.189   6.439  0.0960  2.1692  0.3252
 4364SOL     OW24553   0.688   0.239   2.900 -0.5922  0.2051  0.0849
 4364SOL    HW124554   0.719   0.268   2.814  1.9996 -0.3457  0.8095
 4364SOL    HW224555   0.632   0.170   2.864 -0.1584  0.3869 -0.9418
 4365SOL     OW24556   1.284   3.919   2.492  0.1874 -0.2727  0.5890
 4365SOL    HW124557   1.340   3.845   2.515  2.2573  0.8096 -0.9304
 4365SOL    HW224558   1.198   3.878   2.500 -0.0618  0.3448  1.0074
 4366SOL     OW24559   0.561   0.871   2.386 -0.7073  0.2451 -0.4848
 4366SOL    HW124560   0.470   0.887   2.411 -0.7619  0.0963 -0.5896
 4366SOL    HW224561   0.557   0.911   2.299 -1.0205  2.8998  0.7723
 4367SOL     OW24562   2.295   3.391   1.713 -0.2201  0.2246  0.0379
 4367SOL    HW124563   2.309   3.352   1.626 -3.2078  0.9349 -0.7756
 4367SOL    HW224564   2.374   3.352   1.749  0.1682 -1.3783 -2.5411
 4368SOL     OW24565   3.731   1.569   7.439  0.0496 -0.3599 -0.3632
 4368SOL    HW124566   3.766   1.653   7.410 -0.6471  0.2191  0.4667
 4368SOL    HW224567   3.651   1.570   7.387 -0.6260 -0.2769  0.6728
 4369SOL     OW24568   4.146   1.448   1.070 -0.1389 -0.3391 -0.4648
 4369SOL    HW124569   4.098   1.530   1.069 -2.2248 -1.5669 -1.7974
 4369SOL    HW224570   4.082   1.399   1.122  0.8705 -0.5410  0.5811
 4370SOL     OW24571   2.454   0.137   3.970  0.4025  0.1776 -0.3102
 4370SOL    HW124572   2.402   0.148   3.890  0.4484 -0.4244 -0.4241
 4370SOL    HW224573   2.538   0.152   3.927  1.1433 -1.1558  0.7309
 4371SOL     OW24574   2.691   3.854   3.225  0.3316 -1.0117  0.4212
 4371SOL    HW124575   2.663   3.850   3.133  0.5187 -0.8787  0.3595
 4371SOL    HW224576   2.695   3.761   3.247  1.7034 -1.2586 -0.8541
 4372SOL     OW24577   2.032   3.043   4.945  0.0527  0.3225  0.2054
 4372SOL    HW124578   1.963   3.055   5.010  0.5176  1.3609  0.5053
 4372SOL    HW224579   2.091   2.994   5.002  0.1197  2.6279  2.1067
 4373SOL     OW24580   3.849   4.323  11.066  0.5330  0.2084 -0.1840
 4373SOL    HW124581   3.942   4.309  11.048  0.5042 -1.3425  0.9044
 4373SOL    HW224582   3.852   4.338  11.160  0.5214 -1.8958  0.1491
 4374SOL     OW24583   1.321   3.795  12.089  0.5793 -0.4482  0.9128
 4374SOL    HW124584   1.358   3.708  12.077  0.1748 -0.8297  2.4545
 4374SOL    HW224585   1.355   3.813  12.176 -0.5858  0.3529  1.2022
 4375SOL     OW24586   3.113   0.177  12.757  0.3396  0.0547 -0.4842
 4375SOL    HW124587   3.031   0.145  12.721  0.6039 -1.1385  0.0014
 4375SOL    HW224588   3.132   0.113  12.826  0.2827  0.9380  0.3549
 4376SOL     OW24589   2.096   4.139   2.295  0.2603  0.4274 -0.6814
 4376SOL    HW124590   2.160   4.071   2.319 -0.2601 -1.0733 -3.5623
 4376SOL    HW224591   2.039   4.095   2.232 -1.0210  0.1180  0.6970
 4377SOL     OW24592   4.151   2.444   8.763 -0.1932  0.0910  0.5683
 4377SOL    HW124593   4.104   2.498   8.701 -0.3093  0.1811  0.7334
 4377SOL    HW224594   4.090   2.443   8.838 -1.0398  0.4769 -0.1204
 4378SOL     OW24595   1.463   3.819   0.852  0.3686  0.3033  0.2401
 4378SOL    HW124596   1.375   3.812   0.816  0.6293  0.7713 -0.4940
 4378SOL    HW224597   1.449   3.763   0.928  0.6376 -0.0554  0.0217
 4379SOL     OW24598   4.451   3.855   6.519 -0.5347  0.2200 -0.2054
 4379SOL    HW124599   4.395   3.898   6.454 -0.2462  1.2323  0.2065
 4379SOL    HW224600   4.539   3.859   6.480 -1.8763 -0.5562 -3.3614
 4380SOL     OW24601   2.004   0.272  17.230  0.4539  0.0951  0.1312
 4380SOL    HW124602   2.075   0.262  17.293  0.6456 -2.4140 -0.4960
 4380SOL    HW224603   2.027   0.355  17.188  1.6538 -0.5101 -0.3966
 4381SOL     OW24604   3.780   3.559   2.762  0.2835  0.1385 -1.0038
 4381SOL    HW124605   3.729   3.544   2.683  0.4046  0.4198 -1.1354
 4381SOL    HW224606   3.864   3.595   2.733  1.1190 -3.0815 -2.5409
 4382SOL     OW24607   1.111   0.615  11.349 -0.7496  0.0587 -0.0514
 4382SOL    HW124608   1.083   0.667  11.424 -0.8531 -1.7814  1.1998
 4382SOL    HW224609   1.103   0.680  11.280 -2.4475 -1.0635 -0.9197
 4383SOL     OW24610   2.858   3.651  13.706  0.2072  0.2343 -0.1536
 4383SOL    HW124611   2.807   3.655  13.787  0.0290  0.1042 -0.2572
 4383SOL    HW224612   2.809   3.583  13.660 -1.0168  0.1311  1.2853
 4384SOL     OW24613   3.450   1.159   4.949 -0.0929 -0.1600 -0.1552
 4384SOL    HW124614   3.382   1.191   4.890 -1.9463 -3.2112  0.3224
 4384SOL    HW224615   3.517   1.130   4.888 -1.4682 -2.1735 -0.6922
 4385SOL     OW24616   0.372   1.306   7.531  0.1887  0.3324 -0.0921
 4385SOL    HW124617   0.294   1.312   7.476  0.1358  3.2537  0.2655
 4385SOL    HW224618   0.328   1.274   7.610 -0.0334 -2.5089 -1.3919
 4386SOL     OW24619   1.703   1.476   4.731  0.1655  0.2505  0.3572
 4386SOL    HW124620   1.692   1.553   4.787 -1.2921  0.9820 -0.9740
 4386SOL    HW224621   1.771   1.518   4.678 -1.1818 -0.0862 -1.6213
 4387SOL     OW24622   2.088   2.702   0.622  0.3778 -0.4294 -0.5069
 4387SOL    HW124623   2.164   2.743   0.663 -1.1065  2.6279 -0.7815
 4387SOL    HW224624   2.065   2.637   0.689  0.0699 -0.4539 -0.6381
 4388SOL     OW24625   2.562   3.552   0.136 -0.3334 -0.7168  0.3433
 4388SOL    HW124626   2.479   3.599   0.148  1.3078  2.2257  0.1759
 4388SOL    HW224627   2.545   3.464   0.169  1.0291 -1.3423 -0.6139
 4389SOL     OW24628   3.406   2.836   4.237 -0.0531 -0.2732  0.2055
 4389SOL    HW124629   3.354   2.782   4.178  0.1841 -0.6060  0.2986
 4389SOL    HW224630   3.336   2.895   4.266  0.6226 -0.6745  2.6380
 4390SOL     OW24631   2.475   4.334   4.782 -0.6540 -0.2141  0.5548
 4390SOL    HW124632   2.519   4.268   4.729  0.9585 -0.5381  2.3197
 4390SOL    HW224633   2.509   4.414   4.741  0.7555 -2.6003 -2.8896
 4391SOL     OW24634   3.548   1.571  15.266 -0.6141 -0.7053 -0.1407
 4391SOL    HW124635   3.517   1.648  15.219 -1.7994 -2.5861 -2.4100
 4391SOL    HW224636   3.471   1.531  15.307 -0.2828  0.2655  1.4420
 4392SOL     OW24637   2.175   4.496   6.353  0.1515  0.1677 -0.9146
 4392SOL    HW124638   2.091   4.450   6.354  1.3710 -2.0155  0.3405
 4392SOL    HW224639   2.234   4.446   6.410  0.3995  0.4017 -0.9667
 4393SOL     OW24640   0.148   0.925   2.999  0.4653 -0.6284  0.4178
 4393SOL    HW124641   0.053   0.915   2.990  0.3064 -0.1940  1.6804
 4393SOL    HW224642   0.173   0.889   2.913  3.2675  1.0843  0.5108
 4394SOL     OW24643   1.924   1.988   2.798 -0.0368  0.0485 -0.1764
 4394SOL    HW124644   1.937   2.033   2.715 -1.7963 -1.4299 -1.2525
 4394SOL    HW224645   1.951   1.904   2.760 -2.5553 -0.2892 -1.2078
 4395SOL     OW24646   2.510   3.916   3.986  0.5362 -0.2161 -0.0013
 4395SOL    HW124647   2.552   3.967   4.055  2.0900 -0.4069 -0.8273
 4395SOL    HW224648   2.463   3.979   3.931  2.3087  3.0064  2.1479
 4396SOL     OW24649   3.239   2.321   4.568  0.1429  0.3411 -0.2802
 4396SOL    HW124650   3.222   2.409   4.602 -0.8392 -0.7694  2.0710
 4396SOL    HW224651   3.320   2.350   4.526 -0.8225 -1.3726 -3.3300
 4397SOL     OW24652   2.406   0.582  15.920 -0.0967 -0.0695 -0.3833
 4397SOL    HW124653   2.449   0.622  15.844 -0.8033  2.8155  0.7321
 4397SOL    HW224654   2.336   0.539  15.871 -0.8133  2.6396 -1.7394
 4398SOL     OW24655   4.392   2.840  12.157  0.2762  0.2248  0.1380
 4398SOL    HW124656   4.486   2.835  12.170  0.3915  1.1758 -0.3449
 4398SOL    HW224657   4.371   2.756  12.117 -2.0342  0.2266  1.3009
 4399SOL     OW24658   1.165   4.682   4.373  0.2214  0.0276 -0.2069
 4399SOL    HW124659   1.142   4.589   4.366 -0.6447  0.3836 -2.0675
 4399SOL    HW224660   1.086   4.721   4.337 -0.8690  0.0958  2.2501
 4400SOL     OW24661   2.748   1.614  16.132  0.2300 -0.2112  0.4524
 4400SOL    HW124662   2.790   1.700  16.123 -2.2076  0.9759  0.2965
 4400SOL    HW224663   2.792   1.568  16.203 -1.3213 -1.2745  0.7073
 4401SOL     OW24664   1.869   1.627   9.019  0.0213  0.1130  0.5162
 4401SOL    HW124665   1.916   1.622   9.102  0.0572 -2.6609  0.3393
 4401SOL    HW224666   1.785   1.585   9.040  0.2377 -1.5149 -1.7511
 4402SOL     OW24667   4.317   2.661  12.909 -0.1731 -0.0249 -0.2317
 4402SOL    HW124668   4.348   2.617  12.989 -0.2921  0.8569  0.3047
 4402SOL    HW224669   4.248   2.720  12.940  0.5122  1.1084 -0.8756
 4403SOL     OW24670   2.033   2.988  16.595  0.1360  0.0716 -0.4187
 4403SOL    HW124671   2.017   3.077  16.625 -0.7656 -0.6408  1.2129
 4403SOL    HW224672   1.995   2.991  16.508  2.2197  0.4951 -1.3130
 4404SOL     OW24673   0.978   2.540   5.507 -0.0137  0.1012  0.2560
 4404SOL    HW124674   0.925   2.479   5.557 -1.7659  1.1472 -0.3290
 4404SOL    HW224675   1.002   2.486   5.432  1.8288  2.6384 -0.9932
 4405SOL     OW24676   2.828   2.479   8.426 -0.6791  0.7125  0.2862
 4405SOL    HW124677   2.919   2.448   8.426 -0.0159  2.7031  1.3382
 4405SOL    HW224678   2.846   2.549   8.364  0.1098  0.7784  0.5895
 4406SOL     OW24679   2.643   0.187   3.802 -0.2323  0.0164 -0.4630
 4406SOL    HW124680   2.614   0.260   3.747 -0.2582  0.9386  0.7751
 4406SOL    HW224681   2.700   0.142   3.740  0.7424 -3.1774  2.8142
 4407SOL     OW24682   4.413   2.971   5.490  0.1935 -0.1204  0.6198
 4407SOL    HW124683   4.448   3.053   5.525 -0.9520  0.8773 -0.5680
 4407SOL    HW224684   4.343   3.018   5.445 -1.2066 -1.1366  1.6891
 4408SOL     OW24685   2.972   0.612  13.882 -0.4550 -0.0633 -0.1468
 4408SOL    HW124686   2.916   0.664  13.939  0.3245 -0.3530  0.8660
 4408SOL    HW224687   3.037   0.677  13.856  0.2162 -1.0940 -1.0732
 4409SOL     OW24688   1.398   1.470  10.089  0.5266  0.2106 -0.2322
 4409SOL    HW124689   1.321   1.526  10.105 -0.2002 -0.6365 -0.7363
 4409SOL    HW224690   1.466   1.525  10.126  0.5700  1.4582 -2.1678
 4410SOL     OW24691   3.296   3.876   3.567  0.3452 -0.2066 -0.4303
 4410SOL    HW124692   3.303   3.781   3.583  1.6182  0.3144  2.0763
 4410SOL    HW224693   3.361   3.881   3.497  0.2236  3.4316 -0.2420
 4411SOL     OW24694   1.539   2.124  16.153  0.1200  0.1409 -0.2015
 4411SOL    HW124695   1.613   2.071  16.121  1.3908  3.1827 -2.2848
 4411SOL    HW224696   1.465   2.098  16.098 -2.2005  2.7070  1.7422
 4412SOL     OW24697   0.476   2.515   3.840 -0.2666 -0.2856 -0.1394
 4412SOL    HW124698   0.417   2.579   3.879  2.6125  1.3210  1.6106
 4412SOL    HW224699   0.429   2.435   3.862 -0.3970 -0.2511 -0.2963
 4413SOL     OW24700   3.968   2.367   5.666  0.4371  0.0673  0.0653
 4413SOL    HW124701   3.988   2.295   5.726 -0.2296 -0.8166 -0.7750
 4413SOL    HW224702   3.937   2.438   5.722 -0.8188 -1.0490  0.7947
 4414SOL     OW24703   2.257   2.332   6.077  0.1948  0.0480  0.6957
 4414SOL    HW124704   2.167   2.319   6.106 -0.3007  1.4806 -0.2011
 4414SOL    HW224705   2.305   2.362   6.155  1.3486 -1.0354  0.4103
 4415SOL     OW24706   0.128   3.501  14.652  0.0462  0.1805 -0.8688
 4415SOL    HW124707   0.222   3.493  14.668 -0.1589  1.9023  1.1700
 4415SOL    HW224708   0.116   3.468  14.563 -2.3907 -2.0503  0.3051
 4416SOL     OW24709   4.139   1.235   6.643  0.1639  0.2962  0.2980
 4416SOL    HW124710   4.233   1.229   6.661 -0.1417  1.4411  2.3205
 4416SOL    HW224711   4.134   1.277   6.557  2.3397  1.4638  0.7197
 4417SOL     OW24712   1.535   4.310   2.605  0.1964 -0.1480  0.0271
 4417SOL    HW124713   1.621   4.342   2.632 -0.6781 -1.0722  3.7923
 4417SOL    HW224714   1.503   4.303   2.695 -1.5987  1.1149 -0.5064
 4418SOL     OW24715   3.738   3.822  14.185  0.2393  0.1658  0.5330
 4418SOL    HW124716   3.741   3.855  14.095  3.1293  0.7182  0.8146
 4418SOL    HW224717   3.711   3.731  14.177  0.5158 -0.0664  2.1421
 4419SOL     OW24718   3.173   2.243   3.971 -0.2092 -0.1730 -0.1023
 4419SOL    HW124719   3.143   2.332   3.991  1.6207 -0.2091  2.7101
 4419SOL    HW224720   3.086   2.205   3.956  0.1659 -0.6269 -1.1191
 4420SOL     OW24721   1.130   0.662  10.795 -0.1123 -0.7030  0.2508
 4420SOL    HW124722   1.098   0.572  10.804  0.5240 -1.0065 -0.5122
 4420SOL    HW224723   1.040   0.696  10.793 -0.3280 -1.2125  1.0836
 4421SOL     OW24724   3.163   4.184  13.930  0.1256  0.0529  0.9312
 4421SOL    HW124725   3.191   4.276  13.937 -0.0327  0.1616  0.0613
 4421SOL    HW224726   3.106   4.173  14.006 -0.9320  1.5863  0.3545
 4422SOL     OW24727   3.975   4.696   7.985  0.5622  0.5112  0.1863
 4422SOL    HW124728   3.885   4.710   7.958  0.6108  0.3397 -0.0654
 4422SOL    HW224729   3.960   4.659   8.072  0.0833 -1.5298 -0.7552
 4423SOL     OW24730   3.742   2.491   2.225 -0.0040 -0.2593  0.0981
 4423SOL    HW124731   3.699   2.405   2.222  0.4742 -0.4289 -2.2839
 4423SOL    HW224732   3.747   2.497   2.320  0.7306 -0.0789  0.0443
 4424SOL     OW24733   0.730   3.804  13.648  0.3307 -0.3459  0.1773
 4424SOL    HW124734   0.702   3.722  13.608  2.7514  0.1842 -2.5949
 4424SOL    HW224735   0.810   3.767  13.684  1.0110  0.9003 -0.0380
 4425SOL     OW24736   2.939   2.457   8.013  0.0141  0.1881 -0.0156
 4425SOL    HW124737   3.013   2.486   7.961 -0.8765  0.4781 -1.1018
 4425SOL    HW224738   2.877   2.525   7.990 -2.3928 -1.4661  1.5747
 4426SOL     OW24739   0.270   1.674   0.357 -0.3683 -0.6394 -0.0873
 4426SOL    HW124740   0.356   1.669   0.315  0.2924  2.0735  0.9635
 4426SOL    HW224741   0.243   1.582   0.364 -0.5069 -0.4895  1.3460
 4427SOL     OW24742   4.440   2.698   7.550  0.3225 -0.0343 -0.5072
 4427SOL    HW124743   4.448   2.603   7.537  0.3401 -0.0965 -0.0242
 4427SOL    HW224744   4.489   2.707   7.631 -0.7143  0.2177  0.0949
 4428SOL     OW24745   0.521   3.555   5.676 -0.2304 -0.8305  0.1310
 4428SOL    HW124746   0.588   3.595   5.621  0.4818 -0.3348  1.3511
 4428SOL    HW224747   0.450   3.564   5.612  1.3636  1.4492 -1.3250
 4429SOL     OW24748   1.558   0.055   4.752  0.0398  0.5399  0.1782
 4429SOL    HW124749   1.588   0.140   4.720 -0.7308  1.6404  2.4380
 4429SOL    HW224750   1.466   0.068   4.775 -0.3301  0.1287 -1.0918
 4430SOL     OW24751   0.457   1.185   4.609 -0.1381 -0.3407  0.5523
 4430SOL    HW124752   0.420   1.097   4.602 -0.8337 -0.1456  1.7554
 4430SOL    HW224753   0.519   1.189   4.536 -0.8031  0.0816  0.0169
 4431SOL     OW24754   3.553   0.826   7.274 -0.7937 -0.3855  0.5375
 4431SOL    HW124755   3.485   0.828   7.342  0.1132  0.0050  1.4331
 4431SOL    HW224756   3.612   0.895   7.304  1.1594 -2.0492  0.4898
 4432SOL     OW24757   4.721   1.675  11.794 -0.2307 -0.1339  0.2955
 4432SOL    HW124758   0.045   1.759  11.787 -0.7134  0.1451  0.5726
 4432SOL    HW224759   4.691   1.661  11.704  0.3291 -0.5753  0.1760
 4433SOL     OW24760   1.870   0.870  17.392 -0.3916  0.4136 -0.0821
 4433SOL    HW124761   1.856   0.786  17.349  0.4386  0.3406 -0.2116
 4433SOL    HW224762   1.814   0.926  17.338 -0.3827 -0.5344 -1.0728
 4434SOL     OW24763   1.445   4.712   4.499 -0.5956  0.1077 -0.6465
 4434SOL    HW124764   1.435   0.063   4.437 -0.1013 -0.6366 -1.6020
 4434SOL    HW224765   1.390   0.010   4.575 -0.8337 -2.7952 -0.0985
 4435SOL     OW24766   0.282   3.331   6.490  0.1710 -0.1069  0.7156
 4435SOL    HW124767   0.275   3.356   6.398 -1.8143 -1.9553  0.3631
 4435SOL    HW224768   0.267   3.417   6.529  1.8000  0.0584  0.9742
 4436SOL     OW24769   0.931   0.629   3.480 -0.4778 -0.0833  0.1204
 4436SOL    HW124770   0.890   0.557   3.528 -0.7427 -1.2369 -1.8264
 4436SOL    HW224771   0.869   0.702   3.477  0.1070  0.4338  0.6806
 4437SOL     OW24772   3.865   3.449   7.858  0.4766  0.7887 -0.4871
 4437SOL    HW124773   3.848   3.519   7.920 -0.3555  1.8424 -1.9128
 4437SOL    HW224774   3.958   3.434   7.874 -0.5003 -1.2599  3.3407
 4438SOL     OW24775   0.259   3.375   6.855  0.3510 -0.4051  0.2021
 4438SOL    HW124776   0.354   3.372   6.842  0.2449  3.2049 -1.2519
 4438SOL    HW224777   0.252   3.353   6.948 -1.4798 -1.2866 -0.1544
 4439SOL     OW24778   0.170   4.447   2.010  0.1467  0.5010 -0.4245
 4439SOL    HW124779   0.192   4.484   2.096  1.0122  2.3003 -1.4224
 4439SOL    HW224780   0.147   4.359   2.040  0.0384 -0.6502 -3.8997
 4440SOL     OW24781   2.259   3.675   8.378  0.4541 -0.5716 -0.2361
 4440SOL    HW124782   2.353   3.663   8.361  0.3474  0.1273 -1.3151
 4440SOL    HW224783   2.258   3.728   8.458 -0.9663 -1.7330  0.5020
 4441SOL     OW24784   4.286   2.925   3.568 -0.0619  0.0034 -0.4604
 4441SOL    HW124785   4.268   2.842   3.611 -1.3935  0.2424 -0.5528
 4441SOL    HW224786   4.378   2.930   3.594 -0.0729  0.3316 -0.4803
 4442SOL     OW24787   1.854   3.702  12.200  0.6671 -0.2265  0.0964
 4442SOL    HW124788   1.866   3.623  12.146 -0.8581 -0.3147 -0.1202
 4442SOL    HW224789   1.779   3.672  12.252  0.4005 -2.5287 -1.6136
 4443SOL     OW24790   1.629   2.429  12.501 -0.3684  0.1804  0.3415
 4443SOL    HW124791   1.699   2.470  12.551 -1.9826  0.9783  1.9827
 4443SOL    HW224792   1.600   2.504  12.449  1.8738  1.0505  0.3481
 4444SOL     OW24793   4.352   0.371  15.312 -0.2149 -0.1198  0.4350
 4444SOL    HW124794   4.424   0.312  15.289 -0.3485  0.9303 -2.6296
 4444SOL    HW224795   4.376   0.388  15.403  0.9197  3.0764 -0.4685
 4445SOL     OW24796   0.602   3.902   2.028  0.0530  0.1794 -0.0601
 4445SOL    HW124797   0.530   3.848   2.059  0.6537  0.5871  2.0518
 4445SOL    HW224798   0.683   3.851   2.029 -1.7579 -2.6868  1.0780
 4446SOL     OW24799   3.163   0.503  11.181 -0.3569  0.0937 -0.4497
 4446SOL    HW124800   3.121   0.428  11.138 -2.6957  0.1324  1.7535
 4446SOL    HW224801   3.108   0.491  11.258 -0.6688 -0.4351 -0.7476
 4447SOL     OW24802   3.882   0.260   1.194  0.2515 -0.1145  0.0751
 4447SOL    HW124803   3.788   0.245   1.188  0.1453  0.1659  1.0260
 4447SOL    HW224804   3.884   0.353   1.172 -1.1238  0.0281  0.5338
 4448SOL     OW24805   3.683   1.207   5.505 -0.2581 -0.0645 -0.1086
 4448SOL    HW124806   3.704   1.280   5.446 -1.9057 -0.6381 -1.3978
 4448SOL    HW224807   3.759   1.149   5.492 -0.6742 -0.8431  1.0282
 4449SOL     OW24808   0.160   3.837  13.988  0.3719 -0.1156 -0.0802
 4449SOL    HW124809   0.153   3.928  13.956  0.0351 -0.3020 -0.5431
 4449SOL    HW224810   0.238   3.851  14.041  0.7965 -0.7609 -0.5411
 4450SOL     OW24811   3.805   3.018  11.529  0.4833  0.1026  0.2247
 4450SOL    HW124812   3.883   2.985  11.484  0.8629  1.2542  0.0119
 4450SOL    HW224813   3.732   2.990  11.474 -0.4795 -0.1421  1.6409
 4451SOL     OW24814   1.157   3.417  13.290  0.0381  0.3933  0.1527
 4451SOL    HW124815   1.235   3.448  13.335  0.5407 -1.5467  0.6010
 4451SOL    HW224816   1.200   3.380  13.214  0.7447  0.0354  0.7261
 4452SOL     OW24817   1.090   2.156   1.628  0.3609  0.1352 -0.1506
 4452SOL    HW124818   1.154   2.161   1.556  0.2348 -0.6884 -0.3124
 4452SOL    HW224819   1.017   2.117   1.580 -0.7284 -0.0286  1.6775
 4453SOL     OW24820   4.082   4.242   5.553 -0.3006 -0.0868 -0.3614
 4453SOL    HW124821   4.036   4.314   5.598  0.3444 -0.2656  0.5796
 4453SOL    HW224822   4.143   4.288   5.495  0.1946  2.7019  2.3499
 4454SOL     OW24823   2.651   4.603   4.731  0.5434 -0.3786 -0.3833
 4454SOL    HW124824   2.621   4.634   4.646  1.7006  0.6399 -0.4137
 4454SOL    HW224825   2.608   4.669   4.785  1.2933 -0.5249  0.3855
 4455SOL     OW24826   3.836   2.577   5.024 -0.4025 -0.6123 -0.0692
 4455SOL    HW124827   3.895   2.651   5.007 -0.5948 -0.1135  1.3971
 4455SOL    HW224828   3.788   2.573   4.941  2.1197 -1.1964 -1.4969
 4456SOL     OW24829   3.439   3.110   6.189  0.3367  0.3183  1.1793
 4456SOL    HW124830   3.363   3.097   6.133 -0.7590 -0.6769  2.9170
 4456SOL    HW224831   3.456   3.201   6.165  0.9683 -0.5289 -1.5480
 4457SOL     OW24832   0.829   2.351   5.221 -0.0778  0.0464  0.6438
 4457SOL    HW124833   0.748   2.347   5.271  0.9432 -1.5686  2.1710
 4457SOL    HW224834   0.796   2.386   5.139 -0.7014  1.2011  1.3961
 4458SOL     OW24835   2.911   1.357   7.460  0.3099  0.0140  0.2832
 4458SOL    HW124836   2.961   1.435   7.481  0.5979  0.0991 -0.7004
 4458SOL    HW224837   2.911   1.360   7.364 -0.6879  0.5020  0.3031
 4459SOL     OW24838   1.887   2.001   6.005  0.3042  0.1304 -0.0384
 4459SOL    HW124839   1.816   1.961   5.955 -0.3252 -1.1965  1.8867
 4459SOL    HW224840   1.881   1.948   6.085  3.2965 -1.2685 -0.7013
 4460SOL     OW24841   0.414   2.558  16.413 -0.3405  0.8045 -0.6404
 4460SOL    HW124842   0.425   2.646  16.448 -0.2121  1.0126 -1.2102
 4460SOL    HW224843   0.331   2.567  16.366 -0.6478  1.1651 -0.0219
 4461SOL     OW24844   4.124   4.502   0.374  0.2540  0.1193  0.0352
 4461SOL    HW124845   4.207   4.543   0.398  0.9461 -0.9266 -0.5862
 4461SOL    HW224846   4.068   4.575   0.349  1.0210  1.1663  1.3748
 4462SOL     OW24847   0.083   0.125   3.576 -0.4352  0.1984 -0.3992
 4462SOL    HW124848   0.010   0.146   3.519  0.8405  1.1291 -1.6827
 4462SOL    HW224849   0.047   0.042   3.607  0.3985  1.1784  3.1627
 4463SOL     OW24850   1.112   0.386   6.524  0.2568 -0.0089  0.2584
 4463SOL    HW124851   1.046   0.326   6.491 -0.9627  0.7244  1.3991
 4463SOL    HW224852   1.156   0.420   6.446  0.0166 -0.0533  0.1036
 4464SOL     OW24853   0.788   4.217   3.630  0.0539 -0.1904 -0.5557
 4464SOL    HW124854   0.810   4.305   3.599  1.8014 -0.5476 -0.3735
 4464SOL    HW224855   0.746   4.167   3.560  0.7795 -0.0302 -1.1023
 4465SOL     OW24856   0.258   3.295  12.169  0.3009 -0.9921 -0.4292
 4465SOL    HW124857   0.344   3.265  12.197 -0.7624 -3.0448  0.6581
 4465SOL    HW224858   0.233   3.344  12.248  0.7568 -0.9943 -0.2868
 4466SOL     OW24859   1.956   1.860  16.224 -0.2711  0.1355 -0.2682
 4466SOL    HW124860   1.883   1.863  16.162  0.1546 -1.0035 -0.8374
 4466SOL    HW224861   1.989   1.770  16.226 -0.7865 -0.0340  0.8915
 4467SOL     OW24862   3.378   0.856   5.465  0.4929 -0.3045  0.0465
 4467SOL    HW124863   3.286   0.880   5.458 -0.1751 -2.9690 -0.2868
 4467SOL    HW224864   3.398   0.915   5.538 -0.0517  0.9706 -0.8442
 4468SOL     OW24865   2.842   0.855   6.689  0.6234 -0.5768 -0.0769
 4468SOL    HW124866   2.925   0.823   6.723  0.1220 -0.0877  1.5893
 4468SOL    HW224867   2.861   0.848   6.595  0.3033  0.9670 -0.2721
 4469SOL     OW24868   2.074   0.329   5.866 -0.1053 -0.1750 -0.3879
 4469SOL    HW124869   2.047   0.280   5.944 -0.1347  0.5414  0.0504
 4469SOL    HW224870   2.150   0.381   5.892  0.3377 -0.1626 -1.6900
 4470SOL     OW24871   4.235   1.633   7.742 -0.4241  0.5087 -0.0282
 4470SOL    HW124872   4.206   1.696   7.676  0.0853  0.4688 -0.2862
 4470SOL    HW224873   4.292   1.690   7.793 -1.7404  1.2073  0.6828
 4471SOL     OW24874   0.019   2.069  13.648 -0.2801 -0.0496 -0.2323
 4471SOL    HW124875   0.100   2.084  13.697  1.4777 -1.7664 -2.6150
 4471SOL    HW224876   4.677   2.070  13.720 -1.4441 -1.5632 -1.2489
 4472SOL     OW24877   4.428   1.209   4.514  0.1530 -0.2783 -0.2702
 4472SOL    HW124878   4.404   1.257   4.593 -0.0301  1.2140 -1.2310
 4472SOL    HW224879   4.469   1.276   4.460 -0.6915  0.1962 -0.3239
 4473SOL     OW24880   4.515   2.512   6.530  0.5039  0.0791  0.2194
 4473SOL    HW124881   4.441   2.551   6.484  0.4426 -0.8000 -0.4235
 4473SOL    HW224882   4.514   2.542   6.621 -0.8949  0.2386  0.1543
 4474SOL     OW24883   0.033   1.456   4.709 -0.1669  0.3457  0.7063
 4474SOL    HW124884   0.018   1.533   4.654 -1.6928 -2.5093 -2.8526
 4474SOL    HW224885   0.118   1.475   4.749  0.9750 -3.5982  0.1431
 4475SOL     OW24886   2.240   2.154   9.213  0.0240  0.3019  0.1114
 4475SOL    HW124887   2.177   2.221   9.186 -1.8002 -1.1472  0.8108
 4475SOL    HW224888   2.270   2.182   9.299 -0.8815 -1.4225  0.9912
 4476SOL     OW24889   0.282   4.058  14.656 -0.0774 -0.2222  0.2155
 4476SOL    HW124890   0.274   4.027  14.565  1.6197  1.0369 -0.3562
 4476SOL    HW224891   0.331   3.984  14.693 -1.8885 -1.2583  0.5694
 4477SOL     OW24892   3.136   1.945  10.531  0.1996 -0.0576  0.2443
 4477SOL    HW124893   3.222   1.931  10.571 -0.0910  1.5271  1.4224
 4477SOL    HW224894   3.075   1.953  10.604  0.6653  0.4217  0.5775
 4478SOL     OW24895   2.120   1.425   2.996 -0.1151  0.1061  0.1574
 4478SOL    HW124896   2.026   1.426   2.979 -0.3796  0.3990  1.6202
 4478SOL    HW224897   2.114   1.425   3.092  2.1169  1.3985  0.3050
 4479SOL     OW24898   2.594   0.488  13.303  0.6831 -0.5562  0.4551
 4479SOL    HW124899   2.646   0.430  13.247  0.6568 -0.7058  0.5863
 4479SOL    HW224900   2.632   0.457  13.385 -1.3729 -2.1271  0.8069
 4480SOL     OW24901   0.743   2.513   1.641  0.2790  0.4849 -0.4065
 4480SOL    HW124902   0.664   2.459   1.647  0.4797  0.2115 -0.2340
 4480SOL    HW224903   0.702   2.598   1.658  0.6301  1.1494 -2.8467
 4481SOL     OW24904   4.655   1.890   3.751  0.5551 -0.0191  0.1692
 4481SOL    HW124905   4.600   1.907   3.674 -0.6259  0.2214  1.0686
 4481SOL    HW224906   0.020   1.913   3.717 -0.0011  2.3460  0.3543
 4482SOL     OW24907   0.941   2.470   9.582  0.5544 -0.0016 -0.3260
 4482SOL    HW124908   0.986   2.555   9.579 -1.9783  1.4154  1.8042
 4482SOL    HW224909   0.938   2.457   9.487 -3.4688 -1.4490  0.0134
 4483SOL     OW24910   1.769   1.482   7.900  0.1210  0.0521  0.0613
 4483SOL    HW124911   1.765   1.485   7.995 -0.1584  0.8397  0.0251
 4483SOL    HW224912   1.860   1.504   7.880  0.1664  0.3798  0.6364
 4484SOL     OW24913   1.366   0.866   3.890 -0.1155  0.4556  0.2479
 4484SOL    HW124914   1.441   0.806   3.892  0.1225  0.7580  0.5009
 4484SOL    HW224915   1.391   0.933   3.954 -0.3146  1.5746 -0.8454
 4485SOL     OW24916   0.277   2.621   7.635  1.0234  0.0935  0.4625
 4485SOL    HW124917   0.264   2.533   7.670  1.6192 -0.3495 -0.4361
 4485SOL    HW224918   0.286   2.603   7.541  0.8469  0.0681  0.4506
 4486SOL     OW24919   4.017   1.259   5.680 -0.3500  0.1434 -0.0668
 4486SOL    HW124920   4.066   1.320   5.735  0.7289 -1.0436  0.2857
 4486SOL    HW224921   3.957   1.330   5.656  1.0673  1.0064 -1.0844
 4487SOL     OW24922   3.680   0.587  15.838  0.0037 -0.6636 -0.2227
 4487SOL    HW124923   3.691   0.665  15.891  2.3215 -0.7641 -0.5644
 4487SOL    HW224924   3.770   0.555  15.835  0.5862  0.9062  1.0437
 4488SOL     OW24925   3.453   3.637   1.282  0.1486 -0.0029  0.1241
 4488SOL    HW124926   3.465   3.697   1.208  0.8632 -0.2750  0.0181
 4488SOL    HW224927   3.362   3.661   1.297 -0.1910 -0.2926 -1.4336
 4489SOL     OW24928   0.912   1.809   2.817 -0.2966  0.3258 -0.1669
 4489SOL    HW124929   0.842   1.855   2.772 -2.4242 -1.7204  1.0622
 4489SOL    HW224930   0.922   1.726   2.769 -0.8778  0.0549  0.1821
 4490SOL     OW24931   1.171   1.475   8.562  0.2011 -0.1822 -0.3820
 4490SOL    HW124932   1.136   1.397   8.605 -2.0236  0.5816 -0.8067
 4490SOL    HW224933   1.091   1.506   8.518 -0.2851 -1.1260 -0.1696
 4491SOL     OW24934   2.891   3.628   2.573  0.3772 -0.3884 -0.7328
 4491SOL    HW124935   2.875   3.562   2.505  0.0026 -0.3318 -0.6976
 4491SOL    HW224936   2.858   3.584   2.651 -0.3330  1.5056  0.0218
 4492SOL     OW24937   2.674   1.497  11.622 -0.5371 -0.0703  0.8562
 4492SOL    HW124938   2.597   1.479  11.675  0.7505 -0.1360  2.7191
 4492SOL    HW224939   2.639   1.541  11.544  0.0621 -1.5306 -0.2461
 4493SOL     OW24940   3.792   3.685   7.977 -0.1583 -0.0856 -0.1576
 4493SOL    HW124941   3.728   3.746   7.940 -1.0997 -1.1152 -0.2417
 4493SOL    HW224942   3.794   3.707   8.070 -3.0664  1.8472 -0.5312
 4494SOL     OW24943   0.202   0.189   5.214  0.2383  0.2601 -0.3449
 4494SOL    HW124944   0.207   0.281   5.241  1.1239 -0.0777  0.6636
 4494SOL    HW224945   0.178   0.138   5.292  0.0212  1.0265  0.0886
 4495SOL     OW24946   4.312   0.345  12.355  0.0422  0.1151  0.0318
 4495SOL    HW124947   4.408   0.345  12.353 -0.0425 -0.8637 -3.9667
 4495SOL    HW224948   4.289   0.427  12.313  1.6177  0.3949 -0.2905
 4496SOL     OW24949   1.812   2.569   8.720 -0.4724 -0.3897  0.1921
 4496SOL    HW124950   1.759   2.632   8.770 -0.0954  1.5692 -1.8810
 4496SOL    HW224951   1.894   2.571   8.769 -0.1844  1.1656 -0.3370
 4497SOL     OW24952   0.108   1.831   7.965 -0.1815 -0.3144  0.1004
 4497SOL    HW124953   0.191   1.792   7.939 -0.1154 -0.2490  0.2139
 4497SOL    HW224954   0.130   1.921   7.990 -1.0838  0.2984 -1.2591
 4498SOL     OW24955   2.086   0.557   6.872  0.0574  0.7657  0.3650
 4498SOL    HW124956   2.031   0.625   6.834  0.0168  0.5199 -0.0128
 4498SOL    HW224957   2.033   0.537   6.949  0.9465 -1.6041  0.3803
 4499SOL     OW24958   2.337   1.096   7.959  0.7841  0.4022 -0.5039
 4499SOL    HW124959   2.384   1.150   8.021 -3.1436 -0.4779  3.2231
 4499SOL    HW224960   2.389   1.016   7.966  0.5977  0.5626  2.5259
 4500SOL     OW24961   0.480   4.026   5.614  0.0821 -0.1238 -0.1283
 4500SOL    HW124962   0.448   3.979   5.691 -1.9442  1.7627  0.1515
 4500SOL    HW224963   0.503   4.111   5.650 -0.5516  0.8451 -2.0005
 4501SOL     OW24964   4.649   3.239   7.931 -0.6582  0.1294 -0.0282
 4501SOL    HW124965   4.581   3.266   7.993  0.1154  1.5035  0.2158
 4501SOL    HW224966   4.630   3.146   7.915  2.0313 -0.4103 -0.1511
 4502SOL     OW24967   2.930   1.563   9.784 -0.1121  0.6351  0.1521
 4502SOL    HW124968   2.839   1.559   9.813  0.2210 -0.1755  1.0787
 4502SOL    HW224969   2.942   1.511   9.705 -1.7800  1.0181 -0.3575
 4503SOL     OW24970   0.764   0.069   4.499  0.0315 -0.1088  0.3121
 4503SOL    HW124971   0.793   4.721   4.558  0.0723  0.0039  0.4242
 4503SOL    HW224972   0.813   0.141   4.538  1.8621 -0.3248 -1.5558
 4504SOL     OW24973   3.598   4.497  14.005 -0.1370 -0.1105  0.0434
 4504SOL    HW124974   3.605   4.571  13.944  1.9478 -1.4810 -1.4054
 4504SOL    HW224975   3.690   4.471  14.017  0.1241  1.8545  2.4724
 4505SOL     OW24976   1.347   2.228   4.362  0.0918  0.0360 -0.0526
 4505SOL    HW124977   1.302   2.189   4.287 -1.1565  0.9100  0.2545
 4505SOL    HW224978   1.334   2.163   4.431 -1.2801 -0.3701 -0.6836
 4506SOL     OW24979   1.095   0.431   6.831  0.1074  0.2918 -0.2184
 4506SOL    HW124980   1.097   0.497   6.762  0.8953  0.5568  0.0578
 4506SOL    HW224981   1.001   0.418   6.840  0.4061  1.5068  4.4133
 4507SOL     OW24982   3.058   3.655  14.795 -0.4352  0.5070 -0.0940
 4507SOL    HW124983   3.134   3.702  14.829 -0.6723 -0.8408  2.3301
 4507SOL    HW224984   2.999   3.686  14.864  0.3726 -0.4708  1.0512
 4508SOL     OW24985   0.301   0.444   3.402 -0.5081 -0.4068 -0.4701
 4508SOL    HW124986   0.334   0.376   3.460 -1.3295  0.1468  0.6437
 4508SOL    HW224987   0.367   0.445   3.333  0.5857  0.8221  0.5849
 4509SOL     OW24988   3.832   1.886   1.297 -0.0802  0.1526  0.4879
 4509SOL    HW124989   3.865   1.975   1.313  1.2462 -0.2792  0.1946
 4509SOL    HW224990   3.744   1.912   1.270 -0.0638 -0.0309  0.2610
 4510SOL     OW24991   4.527   1.670  11.984 -0.2919 -0.0260 -0.0611
 4510SOL    HW124992   4.605   1.662  11.929  0.7627 -0.6647  1.5283
 4510SOL    HW224993   4.474   1.596  11.955 -0.9572 -0.1883  1.5766
 4511SOL     OW24994   0.196   0.230   7.408 -0.1582  0.2189 -0.2929
 4511SOL    HW124995   0.211   0.325   7.409 -1.8754  0.4967 -0.7780
 4511SOL    HW224996   0.191   0.210   7.314  0.5542  1.3645 -0.5821
 4512SOL     OW24997   2.780   2.241   6.019 -0.2178  0.2645 -0.3352
 4512SOL    HW124998   2.745   2.164   5.973  2.6490 -0.6293 -1.0042
 4512SOL    HW224999   2.869   2.233   5.984  0.8027  4.1561  1.2978
 4513SOL     OW25000   2.860   3.574   1.011 -0.1662 -0.3242  0.6372
 4513SOL    HW125001   2.820   3.562   0.924  2.1738 -1.6270 -0.2496
 4513SOL    HW225002   2.849   3.490   1.055 -0.5742 -0.3184  0.5508
 4514SOL     OW25003   3.943   2.877  16.705 -0.2405 -0.4633 -0.3987
 4514SOL    HW125004   3.918   2.957  16.752  0.6282 -0.7978  0.6401
 4514SOL    HW225005   4.004   2.904  16.637 -1.7766 -2.0946 -2.4349
 4515SOL     OW25006   3.484   2.708   9.581  0.2157  0.5883  0.1356
 4515SOL    HW125007   3.579   2.712   9.583  0.2748 -1.1591  1.5179
 4515SOL    HW225008   3.464   2.653   9.505 -1.3226 -0.1933  1.0983
 4516SOL     OW25009   0.451   0.311  15.759 -0.0420  0.3927  0.1551
 4516SOL    HW125010   0.487   0.303  15.670  1.9599  0.4740  0.9609
 4516SOL    HW225011   0.428   0.403  15.769  2.3782  1.0667 -0.3453
 4517SOL     OW25012   3.456   4.239  13.132  0.4697 -0.5804 -0.1513
 4517SOL    HW125013   3.446   4.249  13.037 -2.1692  1.6300  0.3301
 4517SOL    HW225014   3.518   4.166  13.131 -0.1365 -1.1073  1.9704
 4518SOL     OW25015   4.196   0.329   3.130  0.0857  0.0396 -0.4808
 4518SOL    HW125016   4.210   0.278   3.210 -2.0145  0.3342  0.0890
 4518SOL    HW225017   4.136   0.268   3.086 -0.5781  0.2062  0.1825
 4519SOL     OW25018   3.692   0.043   3.754  0.1957  0.1457  0.3414
 4519SOL    HW125019   3.605   0.005   3.761  0.4265 -0.5031 -0.2751
 4519SOL    HW225020   3.672   0.130   3.719  2.0008  1.1671  1.8718
 4520SOL     OW25021   2.848   2.578   4.682 -0.0782 -0.0959 -0.3507
 4520SOL    HW125022   2.863   2.605   4.591 -0.4316  1.9531  0.1976
 4520SOL    HW225023   2.759   2.607   4.702 -0.5268 -1.6991 -0.0261
 4521SOL     OW25024   1.643   2.359   9.469  0.2399 -0.3529 -0.1036
 4521SOL    HW125025   1.564   2.339   9.520 -1.0371  0.4878 -1.7369
 4521SOL    HW225026   1.715   2.339   9.529  0.7896 -0.3593 -0.7684
 4522SOL     OW25027   4.372   0.650  14.692 -0.5512  0.2511 -0.1486
 4522SOL    HW125028   4.364   0.594  14.769 -0.6881  0.5731  0.0683
 4522SOL    HW225029   4.340   0.598  14.618  0.0068 -0.5900  0.2048
 4523SOL     OW25030   4.671   0.594   5.111 -0.0827 -0.2120 -0.1822
 4523SOL    HW125031   4.713   0.680   5.120 -0.7899  0.2136 -0.9514
 4523SOL    HW225032   4.667   0.592   5.015  2.0384 -2.0119 -0.2128
 4524SOL     OW25033   2.904   0.160   5.427 -0.1971  0.3237 -0.2362
 4524SOL    HW125034   2.884   0.237   5.480 -0.3862 -0.8693  1.4142
 4524SOL    HW225035   2.839   0.151   5.357 -0.3432 -0.7897  0.0464
 4525SOL     OW25036   1.374   0.916  14.499 -0.1726  0.4571 -0.2217
 4525SOL    HW125037   1.461   0.946  14.473 -0.3893  0.3831 -1.0464
 4525SOL    HW225038   1.328   1.000  14.492 -0.2508  0.4171 -0.1969
 4526SOL     OW25039   3.765   0.530   5.496 -0.2888  0.3020 -0.1111
 4526SOL    HW125040   3.675   0.561   5.487  0.1174  1.5133 -0.1109
 4526SOL    HW225041   3.779   0.501   5.406 -2.0899 -2.9203  0.6773
 4527SOL     OW25042   3.467   3.920   7.166  0.3037  0.3493  0.4939
 4527SOL    HW125043   3.399   3.897   7.103  0.6703  0.8713 -0.0946
 4527SOL    HW225044   3.424   3.916   7.251  2.1683  0.6832  1.4495
 4528SOL     OW25045   0.285   1.601   9.656 -0.2233  0.0786 -0.0651
 4528SOL    HW125046   0.307   1.686   9.694 -3.6323  1.9206 -2.2214
 4528SOL    HW225047   0.373   1.568   9.642  0.4616  1.2529  1.4692
 4529SOL     OW25048   4.110   4.341  11.035 -0.0481 -0.3512  0.1988
 4529SOL    HW125049   4.172   4.283  10.990  1.6033  2.8112 -1.6281
 4529SOL    HW225050   4.168   4.354  11.110  0.5084  1.0384 -0.4747
 4530SOL     OW25051   0.265   1.256   2.411  0.0164 -0.0158  0.4340
 4530SOL    HW125052   0.281   1.305   2.491  0.8610  0.9287 -0.3046
 4530SOL    HW225053   0.178   1.287   2.386 -0.6049 -1.3594  0.9570
 4531SOL     OW25054   0.799   2.508  10.484 -0.1965 -0.0384  0.0021
 4531SOL    HW125055   0.745   2.428  10.481 -2.0054  1.0933  2.8461
 4531SOL    HW225056   0.778   2.537  10.572  0.4724 -0.4716  0.3007
 4532SOL     OW25057   0.241   0.365  11.996 -0.1844  0.0478  0.1501
 4532SOL    HW125058   0.238   0.460  12.003 -0.0972 -0.0216  1.1819
 4532SOL    HW225059   0.207   0.318  12.073  0.8756 -3.1554 -1.3443
 4533SOL     OW25060   2.759   3.641   5.236  0.9202 -0.8967  0.3192
 4533SOL    HW125061   2.789   3.684   5.156  1.9490 -1.2927  0.4986
 4533SOL    HW225062   2.781   3.700   5.308 -0.8314  0.0680  0.0807
 4534SOL     OW25063   0.576   4.585   7.431 -0.2728 -0.1166  0.3350
 4534SOL    HW125064   0.533   4.519   7.377 -2.7171  0.8197  1.1561
 4534SOL    HW225065   0.662   4.589   7.388 -0.7775  1.5354 -0.5121
 4535SOL     OW25066   2.817   1.175  17.572  0.0656 -0.7401  0.0710
 4535SOL    HW125067   2.885   1.162  17.506 -0.4683 -3.1737  0.0157
 4535SOL    HW225068   2.759   1.101  17.557 -2.9047  1.7830 -0.7937
 4536SOL     OW25069   2.453   1.966   7.490  0.1999  0.0527 -0.4777
 4536SOL    HW125070   2.481   1.876   7.505 -2.0356 -0.4439  0.8036
 4536SOL    HW225071   2.481   2.005   7.573 -0.0212  0.6537 -0.6824
 4537SOL     OW25072   2.179   2.966  17.626 -0.2095  0.0958  0.2528
 4537SOL    HW125073   2.245   2.982   0.006 -0.9647  2.5214  0.3980
 4537SOL    HW225074   2.150   2.879  17.653  1.9667  0.1704  2.8936
 4538SOL     OW25075   0.587   0.337  15.491  0.2899  0.3921  0.1546
 4538SOL    HW125076   0.671   0.375  15.516  0.9111  0.0984 -1.5575
 4538SOL    HW225077   0.595   0.290  15.408  1.5970  2.4456 -0.8798
 4539SOL     OW25078   2.260   2.924   5.067 -0.0858 -0.0812  0.0373
 4539SOL    HW125079   2.280   2.842   5.113  2.3986 -0.2341 -1.3161
 4539SOL    HW225080   2.326   2.985   5.101 -0.4803  0.1756  0.3420
 4540SOL     OW25081   1.698   2.151   4.181  0.3905  0.5519  0.1699
 4540SOL    HW125082   1.756   2.122   4.251 -1.4427  0.5498  1.6854
 4540SOL    HW225083   1.662   2.069   4.147 -0.2563  1.5324 -1.5164
 4541SOL     OW25084   0.332   2.792   1.533 -0.4572 -0.3524  0.2350
 4541SOL    HW125085   0.304   2.879   1.563  2.3118  0.9003 -0.7912
 4541SOL    HW225086   0.343   2.817   1.441 -1.2732 -1.1056 -0.0620
 4542SOL     OW25087   1.215   2.890   5.377  0.3208 -0.5084  0.3251
 4542SOL    HW125088   1.214   2.972   5.328  1.1233 -2.2799 -2.6581
 4542SOL    HW225089   1.239   2.916   5.466  1.4688  2.3076 -0.8092
 4543SOL     OW25090   3.416   0.811   6.734 -0.3198  0.5342 -0.0918
 4543SOL    HW125091   3.401   0.720   6.760  1.7567 -0.0228 -0.8066
 4543SOL    HW225092   3.488   0.841   6.790 -0.6427  2.0255 -0.4767
 4544SOL     OW25093   2.121   2.430   4.276  0.1540  0.2135 -0.0036
 4544SOL    HW125094   2.079   2.504   4.318 -0.1909  0.4177 -0.7162
 4544SOL    HW225095   2.213   2.458   4.278  0.3373 -0.6017  2.7749
 4545SOL     OW25096   4.564   2.838   7.212 -0.3001 -0.4563  0.6169
 4545SOL    HW125097   4.477   2.851   7.250 -0.1200  1.8116  0.2294
 4545SOL    HW225098   4.569   2.891   7.133 -1.1916 -1.2655  0.0234
 4546SOL     OW25099   1.049   1.878   6.882 -0.1661  0.5183 -0.3745
 4546SOL    HW125100   1.002   1.949   6.925  1.7311  1.3892  0.2650
 4546SOL    HW225101   1.106   1.846   6.952 -0.5392 -2.1292 -1.2601
 4547SOL     OW25102   0.017   4.704   7.576  0.0634  0.4880 -0.5891
 4547SOL    HW125103   0.013   0.067   7.620  2.5651  0.0691  0.4388
 4547SOL    HW225104   4.705   4.646   7.644 -1.6518  0.5860 -1.3667
 4548SOL     OW25105   2.025   3.462   2.550 -0.0498  0.1276 -0.4330
 4548SOL    HW125106   1.992   3.549   2.571  0.5008  0.0849  0.6062
 4548SOL    HW225107   2.041   3.426   2.637  0.9720  2.4984  0.3320
 4549SOL     OW25108   4.067   0.152   4.776 -0.3530 -0.4082  0.3740
 4549SOL    HW125109   4.100   0.220   4.716  1.3879 -1.0066  0.6569
 4549SOL    HW225110   4.112   0.156   4.860  0.4050  0.4108 -0.0621
 4550SOL     OW25111   1.355   0.007  11.788  0.1586  0.4487  0.4228
 4550SOL    HW125112   1.411   0.081  11.766  2.6916 -1.6146 -0.0113
 4550SOL    HW225113   1.269   0.047  11.774  1.3001  2.9375  0.5980
 4551SOL     OW25114   1.828   3.405   5.617  0.1514  1.1643  0.0837
 4551SOL    HW125115   1.743   3.448   5.627 -0.0143  1.1112 -1.1477
 4551SOL    HW225116   1.821   3.348   5.694  1.2884  1.0881  0.1207
 4552SOL     OW25117   4.100   0.057   7.727  0.4959 -0.5053  0.7938
 4552SOL    HW125118   4.007   0.054   7.747  0.5621  0.4907  1.2205
 4552SOL    HW225119   4.110   4.685   7.707  0.1179 -0.6082  1.0912
 4553SOL     OW25120   0.019   1.094   3.168  0.3960  0.4242 -0.1333
 4553SOL    HW125121   0.086   1.069   3.105  0.9193  0.6044  0.3605
 4553SOL    HW225122   0.055   1.172   3.210 -1.8724  1.4495 -0.0508
 4554SOL     OW25123   2.609   0.050   0.728  0.4827  0.4927 -0.0057
 4554SOL    HW125124   2.635   4.701   0.787  1.4713 -0.8717 -2.0450
 4554SOL    HW225125   2.546   0.094   0.785 -0.0658  0.0448 -0.2748
 4555SOL     OW25126   1.171   0.334  11.569 -0.0194  0.3571 -0.9248
 4555SOL    HW125127   1.132   0.256  11.608 -1.6340  0.1579 -2.9298
 4555SOL    HW225128   1.103   0.397  11.591  0.8676  1.7117 -2.1108
 4556SOL     OW25129   2.617   2.817   6.224 -0.1032 -0.6407 -0.1205
 4556SOL    HW125130   2.685   2.752   6.206  0.5624 -0.6748  2.5110
 4556SOL    HW225131   2.606   2.852   6.136  0.0825  1.1833  0.5725
 4557SOL     OW25132   1.116   4.286  15.767 -0.2536 -0.3806  0.3305
 4557SOL    HW125133   1.148   4.196  15.758 -1.2166 -0.5964 -0.9789
 4557SOL    HW225134   1.181   4.335  15.818 -1.6380  0.2956  1.4541
 4558SOL     OW25135   4.317   1.265   3.669 -0.5489 -0.1526 -0.0872
 4558SOL    HW125136   4.405   1.275   3.630  0.0186  0.1717  1.2712
 4558SOL    HW225137   4.306   1.353   3.707 -1.2417 -0.1091 -0.3925
 4559SOL     OW25138   3.967   0.901   2.788 -0.3650  0.4872  0.3033
 4559SOL    HW125139   3.982   0.995   2.795  0.0798  0.5405 -1.4198
 4559SOL    HW225140   3.988   0.868   2.875 -1.8567  0.2389  0.5688
 4560SOL     OW25141   0.034   3.851   8.613  0.2435  0.3323  0.0824
 4560SOL    HW125142   4.701   3.803   8.550 -0.6195  0.3692  0.7954
 4560SOL    HW225143   0.100   3.783   8.622 -0.9725 -0.9373 -0.5307
 4561SOL     OW25144   1.732   0.403   5.342  0.5235 -0.4206 -0.2761
 4561SOL    HW125145   1.724   0.447   5.427 -1.4719  0.7354 -1.0921
 4561SOL    HW225146   1.827   0.407   5.330  0.5517 -0.4934 -0.0910
 4562SOL     OW25147   0.896   1.745  12.799 -0.3729  0.3069 -0.2170
 4562SOL    HW125148   0.876   1.676  12.861 -1.8933 -0.5001 -1.5993
 4562SOL    HW225149   0.828   1.812  12.812 -0.2659 -0.0298  2.1265
 4563SOL     OW25150   3.658   1.537   1.655 -0.2761 -0.3872 -0.3853
 4563SOL    HW125151   3.714   1.578   1.589  0.7406  0.7527  1.2070
 4563SOL    HW225152   3.596   1.501   1.591 -0.1736 -0.1674 -0.6077
 4564SOL     OW25153   2.118   1.698  16.833  0.2623 -0.5768  0.1505
 4564SOL    HW125154   2.034   1.712  16.877  0.8960 -2.5445  1.9478
 4564SOL    HW225155   2.149   1.785  16.809 -1.5207 -0.1202 -0.5432
 4565SOL     OW25156   3.775   0.498   1.363 -0.6670 -0.6505 -0.1532
 4565SOL    HW125157   3.830   0.525   1.437 -1.1705  0.4319 -0.1745
 4565SOL    HW225158   3.778   0.571   1.301 -3.0550 -3.2838 -3.3024
 4566SOL     OW25159   1.667   2.338   2.030  0.3208  0.0319 -0.4501
 4566SOL    HW125160   1.704   2.378   1.950  0.2833  0.8175 -0.0754
 4566SOL    HW225161   1.673   2.246   2.005  2.1733  0.0737 -0.1948
 4567SOL     OW25162   2.284   1.057   0.918  0.0631  0.5938 -0.7628
 4567SOL    HW125163   2.307   0.986   0.978 -0.3758 -0.1486 -1.4631
 4567SOL    HW225164   2.321   1.018   0.839  1.0925 -2.2699  1.1174
 4568SOL     OW25165   1.004   2.116  12.006  0.2469 -0.0432 -0.0806
 4568SOL    HW125166   1.042   2.088  12.089 -2.5466  0.2261  1.2686
 4568SOL    HW225167   1.073   2.109  11.940 -1.3947 -1.2952 -1.6480
 4569SOL     OW25168   4.570   0.158   8.294  0.0058  0.3382 -0.0755
 4569SOL    HW125169   4.604   0.225   8.354  0.3837 -1.3107  1.5361
 4569SOL    HW225170   4.602   0.075   8.330 -0.2302 -0.9875 -2.9416
 4570SOL     OW25171   1.375   3.338   6.477  0.6702 -0.3885 -0.4551
 4570SOL    HW125172   1.306   3.318   6.540 -1.5973  0.6072 -2.6446
 4570SOL    HW225173   1.333   3.406   6.426 -0.0879 -0.5781 -0.0826
 4571SOL     OW25174   4.440   1.864  10.819  0.3223  0.5826  0.1700
 4571SOL    HW125175   4.353   1.896  10.844  0.2508  0.4109  0.1363
 4571SOL    HW225176   4.425   1.770  10.818  0.4237  0.5543  1.2926
 4572SOL     OW25177   1.052   4.151   6.423  0.5239 -0.1479 -0.3171
 4572SOL    HW125178   1.096   4.116   6.501  1.7975  0.8608 -0.5756
 4572SOL    HW225179   1.000   4.072   6.410 -1.1766  1.0143 -0.4847
 4573SOL     OW25180   4.369   3.915  17.290  0.1523 -0.5303 -0.1341
 4573SOL    HW125181   4.275   3.910  17.270 -0.2407 -0.5792  1.6937
 4573SOL    HW225182   4.390   3.876  17.205 -1.0320 -1.0007 -0.2177
 4574SOL     OW25183   3.722   4.511   6.774 -0.0524 -0.0657  0.1776
 4574SOL    HW125184   3.813   4.527   6.800 -0.4005  0.6002  0.9781
 4574SOL    HW225185   3.682   4.479   6.855  1.1076  3.0233  1.9440
 4575SOL     OW25186   1.087   3.101   7.370  0.0247  0.2480  0.3883
 4575SOL    HW125187   1.006   3.145   7.398 -0.1835  0.5523 -0.7150
 4575SOL    HW225188   1.079   3.005   7.364 -4.1296  0.6405 -0.7183
 4576SOL     OW25189   0.934   2.839   5.560 -0.4401  0.0484  0.5392
 4576SOL    HW125190   0.934   2.762   5.504 -1.1282  1.2512 -1.1345
 4576SOL    HW225191   1.002   2.814   5.623  0.3170 -0.7455 -0.6068
 4577SOL     OW25192   1.952   2.350   3.786 -0.1125 -0.6424  0.0600
 4577SOL    HW125193   1.892   2.424   3.787  1.0684  0.3261 -1.3739
 4577SOL    HW225194   1.991   2.361   3.874 -1.6327 -1.5380  0.8387
 4578SOL     OW25195   0.526   4.162  12.739 -0.3950  0.6989 -0.3290
 4578SOL    HW125196   0.523   4.122  12.653 -0.6502 -0.1652  0.0787
 4578SOL    HW225197   0.597   4.112  12.781 -0.4442  0.4186 -0.5813
 4579SOL     OW25198   0.199   3.409   9.458 -0.5412 -1.3206  0.8721
 4579SOL    HW125199   0.108   3.424   9.433  0.1169  0.0047 -0.6869
 4579SOL    HW225200   0.215   3.336   9.399 -1.5690 -1.3765  0.6746
 4580SOL     OW25201   1.655   3.099  16.164  0.2233  0.1448  0.2426
 4580SOL    HW125202   1.723   3.036  16.141  1.3279  0.7156  1.9588
 4580SOL    HW225203   1.700   3.184  16.173  0.2965  0.1015  0.2862
 4581SOL     OW25204   0.250   0.153  16.439 -0.9582 -0.1635  0.3082
 4581SOL    HW125205   0.341   0.133  16.461 -1.3248 -0.9998  1.0521
 4581SOL    HW225206   0.258   0.190  16.351  0.7696 -0.8143  0.1857
 4582SOL     OW25207   0.765   1.759   5.558 -0.0462 -0.1993  0.2254
 4582SOL    HW125208   0.681   1.803   5.566  0.8766  1.4462  0.9247
 4582SOL    HW225209   0.770   1.695   5.629  2.9188  0.2662  0.4607
 4583SOL     OW25210   1.705   3.244  16.501  0.3542 -0.4039 -0.1826
 4583SOL    HW125211   1.725   3.199  16.419 -1.8934  0.6186 -1.2948
 4583SOL    HW225212   1.793   3.268  16.528  0.0735 -0.0478  0.4124
 4584SOL     OW25213   1.119   1.214   4.318  0.2704 -0.0379  0.0921
 4584SOL    HW125214   1.034   1.253   4.338 -0.9076 -0.9751 -2.9767
 4584SOL    HW225215   1.109   1.198   4.224 -2.1168 -0.8795  0.5081
 4585SOL     OW25216   3.043   0.463  16.204  0.1213  0.1846 -0.4524
 4585SOL    HW125217   3.084   0.472  16.118 -2.8173  0.2457 -1.8502
 4585SOL    HW225218   2.965   0.410  16.189  0.7125 -1.5289  2.5533
 4586SOL     OW25219   0.445   1.838   6.266  0.1066 -0.7605  0.4002
 4586SOL    HW125220   0.518   1.817   6.324  3.1932  0.5845 -3.0406
 4586SOL    HW225221   0.407   1.750   6.259  2.2873 -1.7055  0.4499
 4587SOL     OW25222   1.575   2.746   7.063 -0.1703  0.2101 -0.3914
 4587SOL    HW125223   1.572   2.841   7.050  0.7737  0.2199 -0.5448
 4587SOL    HW225224   1.658   2.728   7.107  0.0318 -0.0912 -0.8960
 4588SOL     OW25225   3.245   3.333   2.465 -0.1280 -0.3973  0.6157
 4588SOL    HW125226   3.201   3.275   2.402  0.2481 -1.3298  1.2090
 4588SOL    HW225227   3.195   3.414   2.456 -0.0854 -0.2081  2.0710
 4589SOL     OW25228   1.754   2.343   6.671  0.1938 -0.2966  0.0904
 4589SOL    HW125229   1.811   2.284   6.721  2.4884  2.4279  0.6687
 4589SOL    HW225230   1.750   2.421   6.726 -0.8999  1.3574 -2.3528
 4590SOL     OW25231   2.720   3.919  13.591  0.5477 -0.0040  0.0549
 4590SOL    HW125232   2.706   3.886  13.680  2.2330 -1.7350 -0.3375
 4590SOL    HW225233   2.752   3.845  13.539 -1.4444 -0.9631  0.2139
 4591SOL     OW25234   0.932   2.214  11.720  0.2159  0.6010  0.6288
 4591SOL    HW125235   0.963   2.152  11.786  0.1507 -0.9512 -0.7947
 4591SOL    HW225236   0.858   2.171  11.678  0.4108 -0.9086  1.8422
 4592SOL     OW25237   1.513   3.339  10.523  0.2150 -0.5520 -0.1258
 4592SOL    HW125238   1.483   3.250  10.508  1.5632 -1.1255  0.6558
 4592SOL    HW225239   1.426   3.378  10.534  0.9217  0.8747  0.4131
 4593SOL     OW25240   4.010   1.026   3.209 -0.0032 -0.0566 -0.4067
 4593SOL    HW125241   3.973   1.110   3.182  0.7564  0.9691  1.7661
 4593SOL    HW225242   4.018   1.029   3.305  0.2818  3.3474 -0.5355
 4594SOL     OW25243   2.360   2.331   4.529  0.5198 -0.7684  0.0213
 4594SOL    HW125244   2.401   2.286   4.455  0.2979 -0.2283 -0.4281
 4594SOL    HW225245   2.374   2.422   4.503  0.6383 -0.9728 -0.6219
 4595SOL     OW25246   3.317   1.456   7.518  0.5124  0.0571 -0.7531
 4595SOL    HW125247   3.322   1.441   7.612  1.2618 -1.6272 -1.0510
 4595SOL    HW225248   3.232   1.497   7.498  1.1649  1.8985  0.3298
 4596SOL     OW25249   4.015   3.579   6.874  0.3068 -0.8309 -0.6988
 4596SOL    HW125250   4.087   3.642   6.884  1.9376 -2.9253  0.7035
 4596SOL    HW225251   4.045   3.517   6.941  1.0521 -0.4656 -0.6945
 4597SOL     OW25252   0.882   1.064   5.192  0.0780 -0.4204  0.3508
 4597SOL    HW125253   0.885   1.085   5.098  0.5483 -0.6702  0.3115
 4597SOL    HW225254   0.976   1.053   5.208  0.2882 -0.9920 -1.2259
 4598SOL     OW25255   4.562   4.574   3.950 -0.0560 -0.1790  0.5920
 4598SOL    HW125256   4.484   4.547   3.998  0.6762 -1.6969  0.9568
 4598SOL    HW225257   4.583   4.663   3.980 -1.9034  0.4511  0.0014
 4599SOL     OW25258   3.246   0.003   7.920  0.5116  0.4045 -0.0829
 4599SOL    HW125259   3.260   4.633   7.942 -0.5542 -0.0926 -1.5244
 4599SOL    HW225260   3.266   4.718   7.826  0.7373  1.2544 -0.0972
 4600SOL     OW25261   1.880   4.271   0.245  0.7674  0.1800  0.5981
 4600SOL    HW125262   1.792   4.303   0.223 -0.3686 -3.5896 -0.2904
 4600SOL    HW225263   1.866   4.277   0.339 -1.2225  0.1222  0.3010
 4601SOL     OW25264   3.217   1.503   0.491 -0.0596  1.0128  0.7664
 4601SOL    HW125265   3.174   1.452   0.422  1.0994  0.1397  0.6960
 4601SOL    HW225266   3.150   1.570   0.505 -1.3850  0.5840 -3.5101
 4602SOL     OW25267   3.614   1.247   1.666 -0.2708 -0.3348  0.0942
 4602SOL    HW125268   3.548   1.292   1.613 -0.5383 -2.6232 -1.5452
 4602SOL    HW225269   3.694   1.268   1.616 -1.8757 -2.2172 -3.2471
 4603SOL     OW25270   4.196   1.421   2.714 -0.5360 -0.2099  0.0872
 4603SOL    HW125271   4.215   1.332   2.685 -0.3358 -0.3097  0.5155
 4603SOL    HW225272   4.139   1.459   2.648 -0.6600 -1.9288 -0.7940
 4604SOL     OW25273   2.059   0.417   0.755 -0.0863 -0.0936  0.7623
 4604SOL    HW125274   2.069   0.395   0.848  2.0939  2.5597  1.1564
 4604SOL    HW225275   1.996   0.351   0.725 -1.7827  0.8249  2.2969
 4605SOL     OW25276   3.013   3.868  13.673  0.3505 -0.1441  0.1034
 4605SOL    HW125277   3.006   3.934  13.604  1.8912 -1.2955 -1.1592
 4605SOL    HW225278   2.970   3.791  13.636 -1.2601  0.3690  0.9060
 4606SOL     OW25279   0.315   2.539   2.655  0.0790  0.1500 -0.1608
 4606SOL    HW125280   0.274   2.623   2.672  0.1006  0.3098 -0.9270
 4606SOL    HW225281   0.233   2.495   2.632  0.1429 -0.3746  0.5942
 4607SOL     OW25282   0.256   4.147   6.312 -0.1856 -0.4437 -0.0410
 4607SOL    HW125283   0.274   4.101   6.230  2.6664 -0.0809  0.3787
 4607SOL    HW225284   0.225   4.073   6.365  0.6075 -0.6842  0.0855
 4608SOL     OW25285   3.525   2.055   4.252  0.5354  0.1888  0.3722
 4608SOL    HW125286   3.432   2.077   4.255  0.6083  0.7843 -1.4172
 4608SOL    HW225287   3.515   1.979   4.194  0.3928  2.1151 -2.1120
 4609SOL     OW25288   0.268   0.631   4.655  0.0152 -0.0291 -0.5408
 4609SOL    HW125289   0.212   0.664   4.726  1.5004  2.4821 -0.5477
 4609SOL    HW225290   0.202   0.619   4.587 -0.0098  0.2187 -0.5607
 4610SOL     OW25291   1.737   2.508   5.060  0.4190  0.2628  0.4018
 4610SOL    HW125292   1.714   2.542   4.973 -0.1170 -1.5626 -0.1791
 4610SOL    HW225293   1.720   2.588   5.110  1.2906  1.1126 -0.6704
 4611SOL     OW25294   1.229   3.350  10.510  0.3702 -0.2716 -0.0951
 4611SOL    HW125295   1.169   3.289  10.468 -1.3370 -0.3621  2.4975
 4611SOL    HW225296   1.171   3.385  10.577  0.0266  0.3968 -0.7399
 4612SOL     OW25297   1.662   1.890   8.866  0.0527 -0.1658 -0.3402
 4612SOL    HW125298   1.752   1.877   8.835  0.7495  1.4987  1.0378
 4612SOL    HW225299   1.664   1.986   8.865 -0.2388 -0.1560  0.9757
 4613SOL     OW25300   4.106   3.838  16.919 -0.5959  0.1054  0.0859
 4613SOL    HW125301   4.195   3.867  16.900 -1.1662 -0.5890 -3.5437
 4613SOL    HW225302   4.080   3.797  16.837 -0.0291 -0.2591  0.0922
 4614SOL     OW25303   0.665   0.728   2.102 -0.2287 -0.0294  0.6493
 4614SOL    HW125304   0.603   0.801   2.098 -2.4570 -1.9449  0.1134
 4614SOL    HW225305   0.648   0.690   2.016  1.5372 -1.2117  0.8158
 4615SOL     OW25306   3.122   3.411   5.988 -0.1069  0.3169  0.6381
 4615SOL    HW125307   3.034   3.440   5.964 -0.2773 -0.8281 -0.1041
 4615SOL    HW225308   3.132   3.433   6.080 -0.5266  1.4004  0.4281
 4616SOL     OW25309   0.672   2.181   4.206  0.9537  0.3136 -0.4818
 4616SOL    HW125310   0.741   2.115   4.215 -0.8885 -1.3073  1.7714
 4616SOL    HW225311   0.597   2.125   4.186  1.0132  0.3308 -0.7510
 4617SOL     OW25312   1.179   0.936   8.956  0.0748  0.0550  0.4123
 4617SOL    HW125313   1.270   0.951   8.980  0.2993  0.2559 -0.5359
 4617SOL    HW225314   1.202   0.847   8.931  0.4436 -0.2197  1.7695
 4618SOL     OW25315   3.163   2.946  17.671 -0.3025  0.2420  0.3200
 4618SOL    HW125316   3.109   3.009   0.030 -2.7499 -2.3391  0.9562
 4618SOL    HW225317   3.105   2.929  17.598  0.1724  0.8535 -0.1993
 4619SOL     OW25318   1.866   3.883   5.314 -0.1618  0.1306 -0.4658
 4619SOL    HW125319   1.950   3.873   5.359  0.1083 -1.5033 -1.3637
 4619SOL    HW225320   1.803   3.871   5.386  0.7224  0.8830  0.4447
 4620SOL     OW25321   0.411   0.623   1.840  0.1940  0.3793 -0.2564
 4620SOL    HW125322   0.397   0.675   1.919 -0.6102  2.1876 -1.5753
 4620SOL    HW225323   0.506   0.631   1.833  0.3015 -1.4339 -0.8237
 4621SOL     OW25324   1.881   4.463   5.604 -0.3353 -0.2066 -0.6344
 4621SOL    HW125325   1.933   4.385   5.625 -2.9547 -1.6791  0.3202
 4621SOL    HW225326   1.792   4.431   5.619 -0.8878  2.9896  2.7795
 4622SOL     OW25327   0.955   0.040  10.993  0.0809 -0.0749 -0.1470
 4622SOL    HW125328   0.920   0.098  10.925 -0.1127  1.7145  1.4785
 4622SOL    HW225329   1.048   0.034  10.975  0.6960  2.7978  2.0795
 4623SOL     OW25330   0.108   1.887  12.868 -0.7033 -0.1459 -0.1190
 4623SOL    HW125331   0.046   1.938  12.816  0.9869  1.5531 -0.4891
 4623SOL    HW225332   0.194   1.904  12.827 -1.1052  0.1926 -0.8278
 4624SOL     OW25333   2.245   2.675   2.698 -1.0758 -0.2957  0.0422
 4624SOL    HW125334   2.194   2.624   2.634 -1.9041  0.3972  0.1445
 4624SOL    HW225335   2.323   2.620   2.690 -1.2298 -0.5653  0.4423
 4625SOL     OW25336   4.263   0.833   7.807 -0.1987 -0.2024  0.0944
 4625SOL    HW125337   4.348   0.867   7.779 -0.0576  0.0066  0.7640
 4625SOL    HW225338   4.208   0.840   7.730  1.0233 -0.9353 -0.8448
 4626SOL     OW25339   0.577   4.548  16.264  0.1588 -0.1002  0.1273
 4626SOL    HW125340   0.497   4.594  16.239  0.4291  0.1528 -0.2706
 4626SOL    HW225341   0.616   4.528  16.179  3.4596 -0.7692  1.8121
 4627SOL     OW25342   2.485   4.161   6.924  0.9948 -0.3222  0.5208
 4627SOL    HW125343   2.396   4.131   6.944  0.3541  0.9605 -0.4243
 4627SOL    HW225344   2.457   4.251   6.908  2.3199  0.3305  1.9208
 4628SOL     OW25345   4.257   0.763   0.210 -0.1444 -0.1572 -0.0763
 4628SOL    HW125346   4.255   0.801   0.122  0.6404  1.7590  0.7472
 4628SOL    HW225347   4.349   0.737   0.219 -0.2184  0.2708  1.8112
 4629SOL     OW25348   2.604   4.081   2.348  0.3189  0.2005  0.4065
 4629SOL    HW125349   2.626   4.095   2.256  1.1878  1.6270  0.8246
 4629SOL    HW225350   2.679   4.033   2.382  1.2599  0.3338 -1.5190
 4630SOL     OW25351   2.954   0.974  15.689  0.1878 -0.1489  0.1415
 4630SOL    HW125352   2.902   1.053  15.675 -0.5329 -0.4696  0.9984
 4630SOL    HW225353   3.017   0.987  15.618  0.8543 -0.9027  0.5876
 4631SOL     OW25354   2.110   0.808   2.765  0.3101 -0.0521  0.0322
 4631SOL    HW125355   2.026   0.836   2.728  1.5077  0.7126 -2.0530
 4631SOL    HW225356   2.151   0.884   2.805 -1.1448  0.5612  0.3499
 4632SOL     OW25357   1.102   3.411   7.495 -0.5971 -0.3548 -0.3303
 4632SOL    HW125358   1.052   3.465   7.556  1.4286 -0.0740  1.0739
 4632SOL    HW225359   1.050   3.423   7.416  1.2503 -1.4423 -1.6983
 4633SOL     OW25360   0.184   0.481   7.729 -0.2017 -0.7051 -0.0732
 4633SOL    HW125361   0.205   0.393   7.698  0.5157 -0.4026 -0.4457
 4633SOL    HW225362   0.089   0.475   7.733 -0.1884  0.9582  2.7526
 4634SOL     OW25363   2.958   3.369   1.498 -0.0730  0.0258  0.6039
 4634SOL    HW125364   2.972   3.278   1.473  0.2778  0.3713 -0.4399
 4634SOL    HW225365   3.042   3.410   1.477 -0.2407  0.4489  0.7534
 4635SOL     OW25366   3.153   1.397   9.066 -0.4708  0.3593 -0.0631
 4635SOL    HW125367   3.242   1.402   9.032 -0.7861  1.7646 -0.6837
 4635SOL    HW225368   3.154   1.473   9.125  0.4885  0.1262  0.2261
 4636SOL     OW25369   2.755   4.509  13.352 -0.2337 -0.4029 -0.4770
 4636SOL    HW125370   2.731   4.432  13.300 -0.3125 -0.0859 -0.9103
 4636SOL    HW225371   2.714   4.578  13.300  1.5270  0.5925 -0.5633
 4637SOL     OW25372   2.535   2.889   2.041 -0.1818  0.4946 -0.2746
 4637SOL    HW125373   2.597   2.862   2.109 -0.8135  2.8355  1.2521
 4637SOL    HW225374   2.493   2.806   2.017 -2.3848  1.0032  1.8229
 4638SOL     OW25375   2.190   3.712  15.860 -0.1619 -0.1669  0.0118
 4638SOL    HW125376   2.241   3.723  15.780  2.9511 -1.2516  1.8571
 4638SOL    HW225377   2.126   3.648  15.828 -0.7278  0.5425 -0.2954
 4639SOL     OW25378   2.731   2.779   2.205 -0.2892  0.1379  0.4867
 4639SOL    HW125379   2.824   2.762   2.189 -0.1255  0.9993  0.5495
 4639SOL    HW225380   2.705   2.704   2.260 -2.0433  0.0184 -0.5055
 4640SOL     OW25381   4.345   1.347  10.221  0.2319 -0.0269  0.4670
 4640SOL    HW125382   4.416   1.412  10.224 -0.2064  0.4583  0.4233
 4640SOL    HW225383   4.330   1.344  10.126 -0.9876 -0.8612  0.6890
 4641SOL     OW25384   1.483   0.843   2.886 -0.3757  0.3928 -0.6299
 4641SOL    HW125385   1.540   0.809   2.955 -0.8790  4.1572  1.6483
 4641SOL    HW225386   1.500   0.786   2.811 -0.1685  0.2318 -0.4600
 4642SOL     OW25387   1.170   4.693   5.973  0.6681 -0.4967 -0.7354
 4642SOL    HW125388   1.189   4.654   6.059  2.3584  1.6851 -0.1160
 4642SOL    HW225389   1.091   4.644   5.949 -0.6458  1.2695 -0.0404
 4643SOL     OW25390   0.239   3.998   9.285 -0.6231 -0.0910 -0.3120
 4643SOL    HW125391   0.283   4.025   9.365  0.7957 -2.2065 -0.3752
 4643SOL    HW225392   0.312   4.005   9.223 -0.3565  1.5981  0.1945
 4644SOL     OW25393   4.629   0.162   7.763  0.4055  0.1815  0.0792
 4644SOL    HW125394   4.666   0.192   7.847 -0.3984  1.8773 -0.1818
 4644SOL    HW225395   4.547   0.128   7.798  1.3758 -1.7675  0.4811
 4645SOL     OW25396   0.754   2.300  16.435 -0.0675 -0.1681  0.2456
 4645SOL    HW125397   0.708   2.384  16.430  1.7832  0.7322 -2.0867
 4645SOL    HW225398   0.829   2.339  16.480 -0.8605  0.0341  1.3821
 4646SOL     OW25399   0.080   2.434  17.411 -0.3807 -0.5509 -0.3241
 4646SOL    HW125400   0.096   2.343  17.439  2.8327 -0.1944 -1.0527
 4646SOL    HW225401   0.081   2.480  17.495  1.6069 -0.7189 -0.2614
 4647SOL     OW25402   0.493   0.014   7.074 -0.6749 -0.1154  0.3828
 4647SOL    HW125403   0.588   0.020   7.086 -0.2571 -3.7342 -1.1712
 4647SOL    HW225404   0.460   0.099   7.106  1.2666  0.2626  1.3531
 4648SOL     OW25405   2.281   4.159   6.217 -0.0231  0.1586 -0.6286
 4648SOL    HW125406   2.242   4.156   6.305 -0.3246  0.1723 -0.7623
 4648SOL    HW225407   2.322   4.074   6.205 -0.0287 -0.5311  4.2873
 4649SOL     OW25408   4.238   3.116  11.192  0.2711 -0.4561 -0.3875
 4649SOL    HW125409   4.283   3.099  11.275  0.7091 -1.9132 -0.9312
 4649SOL    HW225410   4.222   3.043  11.133  2.4295 -1.3188  0.0944
 4650SOL     OW25411   1.821   4.500   7.944 -0.0639  0.2732 -0.1306
 4650SOL    HW125412   1.755   4.439   7.978  0.6428 -0.6570 -0.4475
 4650SOL    HW225413   1.868   4.519   8.025  1.6866  0.3264 -1.1687
 4651SOL     OW25414   1.197   0.088   3.149  0.4548  0.4310 -0.6215
 4651SOL    HW125415   1.105   0.109   3.159  0.1656 -0.2352 -1.9126
 4651SOL    HW225416   1.212   0.057   3.239  0.1669 -1.8611 -1.3528
 4652SOL     OW25417   0.533   0.025   2.813  0.1561 -0.4322  0.1680
 4652SOL    HW125418   0.450   0.072   2.823  0.0094  0.0681 -3.3970
 4652SOL    HW225419   0.523   0.020   2.718  0.1281 -0.4649  0.1728
 4653SOL     OW25420   0.607   0.996   9.430 -0.0661  0.3485 -0.0933
 4653SOL    HW125421   0.662   0.935   9.381  1.6933  1.1708  0.8803
 4653SOL    HW225422   0.594   0.940   9.507 -0.8814  0.3515 -0.2301
 4654SOL     OW25423   3.838   3.178  11.175 -0.6407  0.5222 -0.4630
 4654SOL    HW125424   3.871   3.092  11.201  2.0323  1.7150  0.1842
 4654SOL    HW225425   3.788   3.194  11.255 -0.0242  0.1386  0.0103
 4655SOL     OW25426   4.505   1.818   3.179 -0.0378  0.3573 -0.1869
 4655SOL    HW125427   4.594   1.853   3.176  0.1381 -0.4600 -3.6888
 4655SOL    HW225428   4.465   1.838   3.095  1.4776  1.8926 -0.5434
 4656SOL     OW25429   2.728   0.772   4.952 -0.0929  0.1690  0.2787
 4656SOL    HW125430   2.824   0.777   4.948 -0.1401  0.5671 -0.4744
 4656SOL    HW225431   2.711   0.840   5.017 -1.2319  1.5237 -1.4413
 4657SOL     OW25432   1.461   0.708   5.140 -0.0380 -0.1423  0.5538
 4657SOL    HW125433   1.543   0.721   5.188  0.3051  1.5954 -0.5074
 4657SOL    HW225434   1.395   0.759   5.188  1.4984  2.4723 -0.0838
 4658SOL     OW25435   2.029   2.358   9.631  0.6072  0.3127 -0.0359
 4658SOL    HW125436   2.003   2.271   9.599  2.8665 -0.0252 -0.9446
 4658SOL    HW225437   1.974   2.369   9.709 -1.0745  0.7033 -1.2788
 4659SOL     OW25438   0.660   0.116   9.524 -0.5569 -0.1660 -0.1365
 4659SOL    HW125439   0.586   0.156   9.568  2.6476  2.7060  2.6497
 4659SOL    HW225440   0.732   0.176   9.543  0.3522 -0.7527 -1.6579
 4660SOL     OW25441   4.693   3.805   4.851 -0.1538 -0.2828  0.2163
 4660SOL    HW125442   4.613   3.812   4.798  0.3828  1.6383 -0.3198
 4660SOL    HW225443   4.656   3.783   4.936 -1.6641 -0.2374 -0.4229
 4661SOL     OW25444   4.230   2.605   6.766 -0.0853 -0.2840 -0.0276
 4661SOL    HW125445   4.275   2.677   6.811 -1.0922 -0.1852  0.8343
 4661SOL    HW225446   4.142   2.641   6.754  0.2118  0.0654 -1.1512
 4662SOL     OW25447   0.573   3.140  17.435  0.2173  0.4497 -0.4257
 4662SOL    HW125448   0.567   3.086  17.356  0.0990  0.7544 -0.6230
 4662SOL    HW225449   0.531   3.086  17.502  1.6671  0.4636  0.4952
 4663SOL     OW25450   4.656   3.417   9.403  0.2331  0.3129  0.0592
 4663SOL    HW125451   4.640   3.503   9.364  0.2769 -0.3362 -1.4199
 4663SOL    HW225452   4.639   3.369   9.321  1.5008 -1.7189  0.9934
 4664SOL     OW25453   3.256   2.561   4.717 -0.2395 -0.4189 -0.0460
 4664SOL    HW125454   3.237   2.593   4.629 -0.6512 -1.7794 -0.4550
 4664SOL    HW225455   3.223   2.631   4.774 -1.3073  0.1617 -1.3850
 4665SOL     OW25456   0.880   1.540   9.635 -0.0558 -0.0315  0.2933
 4665SOL    HW125457   0.949   1.604   9.615 -0.5789  1.0377  1.8331
 4665SOL    HW225458   0.910   1.495   9.714 -0.0798 -2.9532 -1.4009
 4666SOL     OW25459   1.336   0.155   8.933 -0.5011  0.3974 -0.3643
 4666SOL    HW125460   1.410   0.185   8.881 -0.3461  1.6231  0.5556
 4666SOL    HW225461   1.377   0.164   9.020 -1.4637  0.3832  0.0943
 4667SOL     OW25462   1.599   3.952   7.564  0.5827  0.1942 -0.3482
 4667SOL    HW125463   1.643   4.013   7.623  0.1932 -0.3956  0.5746
 4667SOL    HW225464   1.611   3.870   7.614 -2.1458  0.2995  0.4854
 4668SOL     OW25465   2.009   4.032   1.104  0.0440  0.5559 -0.5158
 4668SOL    HW125466   2.095   4.007   1.070 -0.3556 -1.8063  0.2717
 4668SOL    HW225467   2.033   4.076   1.185  1.1982 -2.6735  0.8750
 4669SOL     OW25468   0.702   3.952  14.808 -0.1066 -0.7064  0.1317
 4669SOL    HW125469   0.797   3.939  14.812  0.0913  0.6274 -0.4362
 4669SOL    HW225470   0.681   3.900  14.886 -1.4360  0.0673  0.2872
 4670SOL     OW25471   3.906   3.242   5.057  0.2050  0.0596 -0.5318
 4670SOL    HW125472   3.856   3.184   5.000 -1.1629  0.9975 -0.2780
 4670SOL    HW225473   3.986   3.192   5.072 -0.0517 -0.4706 -0.9194
 4671SOL     OW25474   0.326   2.674   8.060 -0.1013 -0.3547  0.2824
 4671SOL    HW125475   0.322   2.755   8.110 -0.6539 -0.0904 -0.1836
 4671SOL    HW225476   0.236   2.641   8.054  0.0312 -1.1937  3.1304
 4672SOL     OW25477   1.110   2.481   0.480 -0.1294  0.0617  0.2805
 4672SOL    HW125478   1.045   2.497   0.412 -1.0592  0.5268  1.2747
 4672SOL    HW225479   1.112   2.570   0.514 -1.9400  0.2936 -0.2381
 4673SOL     OW25480   2.091   4.290  14.191 -0.1464 -0.5579  0.1585
 4673SOL    HW125481   2.133   4.375  14.184 -1.8808  0.3839  1.3256
 4673SOL    HW225482   2.085   4.274  14.097 -2.5451  0.4417  0.1497
 4674SOL     OW25483   2.442   0.743   2.648 -0.0841 -0.0395 -0.0530
 4674SOL    HW125484   2.446   0.683   2.723 -0.5703 -2.6556 -2.1050
 4674SOL    HW225485   2.407   0.823   2.686 -4.9205 -1.1106 -2.3346
 4675SOL     OW25486   1.802   3.479   4.987 -0.1885 -0.0260 -0.4143
 4675SOL    HW125487   1.885   3.489   4.940 -0.3828  2.6295 -0.1724
 4675SOL    HW225488   1.797   3.563   5.032 -0.6351  0.3848 -1.2382
 4676SOL     OW25489   0.114   4.226   7.031 -0.0523 -0.3621 -0.1582
 4676SOL    HW125490   0.021   4.206   7.021 -0.5303 -0.1893  3.9639
 4676SOL    HW225491   0.134   4.222   6.937 -0.7225  4.5795 -0.5102
 4677SOL     OW25492   0.144   4.317   7.533 -0.3395 -0.2957 -0.1372
 4677SOL    HW125493   0.196   4.387   7.495 -1.4464  0.4501 -0.2692
 4677SOL    HW225494   0.096   4.353   7.607  2.0932  0.0688  1.2293
 4678SOL     OW25495   3.362   1.645   0.267 -0.1396 -0.5527 -0.3680
 4678SOL    HW125496   3.389   1.576   0.207  1.6646  1.0608 -1.4340
 4678SOL    HW225497   3.298   1.608   0.327  0.8324 -0.4994  0.7019
 4679SOL     OW25498   3.390   3.667   3.227  0.2764 -0.2835  0.5548
 4679SOL    HW125499   3.396   3.576   3.256  0.3627 -1.8656 -4.4308
 4679SOL    HW225500   3.407   3.667   3.133 -1.2371  0.0447  0.2744
 4680SOL     OW25501   1.724   3.663  16.027 -0.1718 -0.2203 -0.1205
 4680SOL    HW125502   1.760   3.591  15.975 -0.8918 -1.0265  0.4952
 4680SOL    HW225503   1.786   3.648  16.099 -0.3069 -1.2310 -0.2151
 4681SOL     OW25504   1.255   2.411   4.551  0.1759  0.6311 -0.5280
 4681SOL    HW125505   1.310   2.369   4.618 -1.5799  0.2407  0.6609
 4681SOL    HW225506   1.280   2.356   4.477 -1.2340 -1.7699  0.7416
 4682SOL     OW25507   1.566   0.658   7.288 -0.4017  0.1376 -0.2101
 4682SOL    HW125508   1.578   0.620   7.201 -2.0583  0.5295 -0.6221
 4682SOL    HW225509   1.566   0.748   7.256  0.2022  0.0087 -0.5789
 4683SOL     OW25510   1.073   1.956  13.063 -0.3629 -0.0594  0.2625
 4683SOL    HW125511   1.061   2.026  13.129 -0.0635  0.1571  0.0842
 4683SOL    HW225512   1.048   2.000  12.982 -0.5705  1.2842  1.0435
 4684SOL     OW25513   4.118   1.771   7.512  0.0393  0.7074  0.4642
 4684SOL    HW125514   4.098   1.678   7.523  0.1065  0.6988  0.5128
 4684SOL    HW225515   4.035   1.805   7.480  0.4967  0.4959 -0.9333
 4685SOL     OW25516   2.359   0.891  10.290  0.7056  0.2389  0.2175
 4685SOL    HW125517   2.305   0.834  10.235 -1.9669  0.4226  2.6142
 4685SOL    HW225518   2.314   0.876  10.373  0.1711  2.6807  0.3754
 4686SOL     OW25519   4.204   0.010   9.168 -0.4108 -0.0911 -0.0858
 4686SOL    HW125520   4.283   0.054   9.137 -1.4245  1.3588 -0.6619
 4686SOL    HW225521   4.142   0.042   9.102 -0.6659  0.9950  0.6920
 4687SOL     OW25522   1.852   2.320   1.797 -0.0155  0.3436 -0.5872
 4687SOL    HW125523   1.826   2.400   1.751  0.2620  1.8768  1.9266
 4687SOL    HW225524   1.937   2.347   1.830  0.0304  0.5799 -0.8994
 4688SOL     OW25525   3.545   2.610  11.862 -0.2223  0.6839  0.2833
 4688SOL    HW125526   3.564   2.567  11.779 -1.9664  0.0625  0.2100
 4688SOL    HW225527   3.547   2.699  11.828 -0.9212  0.8548  0.7006
 4689SOL     OW25528   1.018   1.248   8.619 -0.1551  0.3339  0.0760
 4689SOL    HW125529   0.937   1.202   8.639 -1.5463  2.3917 -0.8315
 4689SOL    HW225530   1.069   1.209   8.689 -2.4967 -1.0619  0.9999
 4690SOL     OW25531   1.910   3.026  16.354  0.0157 -0.5243  0.7089
 4690SOL    HW125532   1.954   3.104  16.320 -0.5542  0.5727  2.4915
 4690SOL    HW225533   1.900   2.977  16.273 -2.8642  0.4241  0.4534
 4691SOL     OW25534   4.492   1.632   9.144 -0.2106 -0.5220 -0.6703
 4691SOL    HW125535   4.398   1.626   9.165  0.3007  0.5468  1.9841
 4691SOL    HW225536   4.516   1.719   9.177 -1.2890 -0.5938  0.3378
 4692SOL     OW25537   3.567   2.091  11.826  0.0746 -0.2134  0.1704
 4692SOL    HW125538   3.609   2.088  11.740 -0.0312  0.9047  0.0830
 4692SOL    HW225539   3.646   2.075  11.878  1.1066  1.0035 -1.0317
 4693SOL     OW25540   3.754   3.589   6.796  0.4128 -0.1723 -0.4838
 4693SOL    HW125541   3.841   3.595   6.835  1.3627  1.8440 -2.9337
 4693SOL    HW225542   3.739   3.496   6.813 -1.4015  0.4001  1.1289
 4694SOL     OW25543   0.672   0.948   4.055 -0.6059  0.2527 -0.5862
 4694SOL    HW125544   0.678   0.897   3.974 -1.2519 -2.3073  0.9817
 4694SOL    HW225545   0.765   0.953   4.074 -0.6638 -2.6419  0.4666
 4695SOL     OW25546   3.156   2.629   4.458 -0.7544  0.4223 -0.3775
 4695SOL    HW125547   3.246   2.643   4.428 -0.3982 -1.1951 -0.1055
 4695SOL    HW225548   3.109   2.696   4.409 -1.1226  0.3787 -0.0828
 4696SOL     OW25549   3.946   0.837  12.815  0.4495  0.4570  0.0534
 4696SOL    HW125550   3.919   0.863  12.727  1.3245 -1.2993 -0.7431
 4696SOL    HW225551   3.983   0.750  12.801  1.4835  0.6466  1.5895
 4697SOL     OW25552   3.999   0.033   1.727  0.5010  0.2127  0.1265
 4697SOL    HW125553   3.989   0.046   1.821  0.7320 -1.8150  0.4207
 4697SOL    HW225554   3.907   0.015   1.710  0.2207  1.3797  0.3833
 4698SOL     OW25555   2.454   0.025   8.265 -0.0587  0.0286 -0.1864
 4698SOL    HW125556   2.411   4.662   8.259 -0.1295  0.1836 -1.7686
 4698SOL    HW225557   2.521   0.010   8.198 -1.3122  1.1183 -1.6976
 4699SOL     OW25558   0.015   3.878  11.480  0.2182  1.0409 -0.6574
 4699SOL    HW125559   0.032   3.794  11.521 -0.0779  0.9558 -0.7099
 4699SOL    HW225560   4.699   3.844  11.398 -0.2486  0.9699 -0.4167
 4700SOL     OW25561   0.914   3.496   7.272  0.6817 -0.6099  0.1603
 4700SOL    HW125562   0.853   3.523   7.204  2.0779 -0.9760 -1.2352
 4700SOL    HW225563   0.874   3.413   7.299  3.5630 -2.5518 -1.4955
 4701SOL     OW25564   2.508   1.038   7.259 -0.0413 -0.5131 -0.1052
 4701SOL    HW125565   2.440   1.037   7.192 -0.3045  2.5212  0.1055
 4701SOL    HW225566   2.547   0.952   7.242  0.9131 -0.1578  0.2978
 4702SOL     OW25567   3.090   1.785   2.335  0.5443  0.6309  0.6523
 4702SOL    HW125568   2.995   1.783   2.345  0.6575  0.4739  1.6790
 4702SOL    HW225569   3.110   1.709   2.281 -0.1595 -0.7301  2.3348
 4703SOL     OW25570   1.740   1.850  15.787 -0.1287  0.5007  0.5793
 4703SOL    HW125571   1.808   1.791  15.754  0.5104 -0.9173  4.3606
 4703SOL    HW225572   1.660   1.829  15.738 -1.0017  3.3954  0.7715
 4704SOL     OW25573   0.070   0.737   4.869  0.4200 -0.2958  0.1310
 4704SOL    HW125574   0.014   0.800   4.915  1.2139 -0.4040  1.2215
 4704SOL    HW225575   0.156   0.758   4.904  0.6570  1.4913 -1.5484
 4705SOL     OW25576   4.451   0.658   2.311  0.1621 -0.0104  0.0141
 4705SOL    HW125577   4.480   0.731   2.256  1.1349 -0.3653  0.0663
 4705SOL    HW225578   4.473   0.588   2.250  0.8744 -0.6128  0.9672
 4706SOL     OW25579   0.086   1.868  14.654 -0.2056  0.3294 -0.4728
 4706SOL    HW125580   0.164   1.817  14.677  0.3882  2.1522  1.5352
 4706SOL    HW225581   0.024   1.835  14.718 -0.3626  1.1819 -0.1855
 4707SOL     OW25582   2.698   0.293   7.084  0.0222  0.3076  0.0826
 4707SOL    HW125583   2.655   0.336   7.010 -1.3834  1.7982  1.7709
 4707SOL    HW225584   2.789   0.306   7.058 -0.2902  1.9230 -0.1875
 4708SOL     OW25585   0.765   2.245   8.462 -0.0625 -0.0896  0.2936
 4708SOL    HW125586   0.719   2.327   8.479  0.8217  0.4689 -0.0080
 4708SOL    HW225587   0.852   2.273   8.491  0.5129 -2.1063  0.5036
 4709SOL     OW25588   4.175   3.848   5.455  0.2143  0.5128 -1.0668
 4709SOL    HW125589   4.094   3.797   5.467  0.0374  1.3955  1.4294
 4709SOL    HW225590   4.238   3.777   5.470  0.8956  1.8651  2.4131
 4710SOL     OW25591   2.659   4.456  12.977  0.8311  0.0583 -0.1148
 4710SOL    HW125592   2.639   4.406  13.056  2.0431 -0.6322 -0.2426
 4710SOL    HW225593   2.746   4.417  12.965  0.4803 -0.2979 -1.4412
 4711SOL     OW25594   3.348   2.217   1.002 -0.1412 -0.4436  0.0617
 4711SOL    HW125595   3.415   2.152   1.024 -0.1588 -0.0445  1.2875
 4711SOL    HW225596   3.349   2.270   1.081 -0.8778 -0.9094  0.3912
 4712SOL     OW25597   4.451   2.807   9.005 -0.1066  0.4148 -0.5635
 4712SOL    HW125598   4.361   2.816   9.037  0.5701 -0.0052  1.4443
 4712SOL    HW225599   4.449   2.717   8.974 -0.9176  0.9165 -1.9884
 4713SOL     OW25600   0.504   1.485   5.170 -0.1713  0.2177 -0.2515
 4713SOL    HW125601   0.556   1.430   5.111 -0.2238 -1.1117  0.9527
 4713SOL    HW225602   0.451   1.418   5.215  0.6513  0.7592  1.4951
 4714SOL     OW25603   3.493   4.018   2.500 -0.3046 -0.0282  0.0221
 4714SOL    HW125604   3.581   4.041   2.468 -1.0103  3.5698  0.6072
 4714SOL    HW225605   3.474   3.947   2.439 -0.2742  1.2235 -1.4497
 4715SOL     OW25606   0.932   0.370   9.295 -0.0545  0.3647 -0.0815
 4715SOL    HW125607   0.843   0.373   9.260  0.0502  0.4524 -0.3444
 4715SOL    HW225608   0.964   0.320   9.219 -1.1182 -0.2366 -0.1400
 4716SOL     OW25609   0.543   3.273   3.113 -0.6475 -0.5491 -0.4336
 4716SOL    HW125610   0.516   3.190   3.074  2.0000 -1.0337 -1.2073
 4716SOL    HW225611   0.635   3.253   3.127 -0.4247  0.8991  0.2238
 4717SOL     OW25612   3.071   1.695   5.705  0.6376  0.0698 -0.3587
 4717SOL    HW125613   3.105   1.634   5.771 -3.7114 -0.2140  1.6400
 4717SOL    HW225614   2.980   1.682   5.732  0.6107  1.0299 -0.0002
 4718SOL     OW25615   3.747   3.317   1.260  0.8023 -0.2729  0.3110
 4718SOL    HW125616   3.736   3.232   1.218 -1.0214 -0.0923  0.4097
 4718SOL    HW225617   3.791   3.286   1.339 -2.9277  0.3555  2.6234
 4719SOL     OW25618   2.919   0.541   1.732  0.3627 -0.5989 -0.2650
 4719SOL    HW125619   2.859   0.512   1.663 -1.1943 -0.3462  1.0001
 4719SOL    HW225620   2.913   0.468   1.794 -1.9412  0.2917  0.5429
 4720SOL     OW25621   2.965   2.877  17.460  0.2209 -0.4431 -0.1482
 4720SOL    HW125622   2.988   2.791  17.423 -3.1961 -0.7001 -1.6879
 4720SOL    HW225623   2.903   2.907  17.394  0.7488 -0.6922 -0.7572
 4721SOL     OW25624   2.670   0.868   4.160 -0.3655 -0.1075  0.8716
 4721SOL    HW125625   2.652   0.812   4.235  1.2302 -0.6137  0.8751
 4721SOL    HW225626   2.651   0.950   4.206 -1.1375  0.7401 -0.9519
 4722SOL     OW25627   2.519   3.767  12.435 -0.3573 -0.1912  0.0720
 4722SOL    HW125628   2.470   3.773  12.353  2.4858  0.9808 -1.5499
 4722SOL    HW225629   2.541   3.860  12.445  0.1111 -0.1429 -1.4299
 4723SOL     OW25630   0.030   2.622   8.052 -0.3198  0.1545  0.3140
 4723SOL    HW125631   4.702   2.578   8.121  2.6015  1.7095  3.4096
 4723SOL    HW225632   0.020   2.565   7.976 -3.4558  2.8659 -1.2902
 4724SOL     OW25633   2.997   0.658   3.250  0.3439 -0.8370 -0.1507
 4724SOL    HW125634   3.042   0.607   3.183 -0.7590 -2.4282  0.3404
 4724SOL    HW225635   2.931   0.593   3.273 -1.2013  1.1562  1.0326
 4725SOL     OW25636   1.581   3.477   7.227  0.4320  0.1855  0.2057
 4725SOL    HW125637   1.562   3.564   7.191 -0.8156  0.2890  1.1005
 4725SOL    HW225638   1.599   3.427   7.147 -0.0649  0.4023 -0.0456
 4726SOL     OW25639   4.405   4.174   3.816  0.2565  0.0316 -0.8879
 4726SOL    HW125640   4.453   4.131   3.887  1.2147  0.2071 -1.4199
 4726SOL    HW225641   4.470   4.243   3.802 -0.7405  1.4632  1.5988
 4727SOL     OW25642   1.658   4.669  17.292  0.0276  0.0341  0.3251
 4727SOL    HW125643   1.645   4.574  17.292 -2.0181  0.3035  0.6414
 4727SOL    HW225644   1.749   4.677  17.263 -0.6425 -1.6754 -2.2450
 4728SOL     OW25645   1.174   3.759   4.333 -0.2587  0.0826  0.2816
 4728SOL    HW125646   1.169   3.706   4.254 -0.9546 -0.2927  0.5716
 4728SOL    HW225647   1.161   3.841   4.285 -2.7623 -1.3636 -1.5053
 4729SOL     OW25648   1.655   0.933  13.381  0.0930  0.0802  0.3300
 4729SOL    HW125649   1.725   0.890  13.429  2.7432  0.7356 -2.9718
 4729SOL    HW225650   1.688   0.921  13.292 -1.1806  0.4379 -0.1893
 4730SOL     OW25651   1.490   3.250  11.678 -0.1807  0.0372 -0.3091
 4730SOL    HW125652   1.514   3.240  11.771 -1.1628  1.5923  0.1067
 4730SOL    HW225653   1.439   3.330  11.688 -0.2591 -0.1770  1.0478
 4731SOL     OW25654   3.026   0.939   3.181 -0.1501  0.1285 -0.1899
 4731SOL    HW125655   3.121   0.939   3.174 -0.2120 -1.0103 -1.1107
 4731SOL    HW225656   3.016   0.856   3.228 -1.9323 -0.2236 -1.1638
 4732SOL     OW25657   0.660   1.733   3.490 -0.4632  0.2158 -0.2600
 4732SOL    HW125658   0.675   1.645   3.455  1.6517  1.2837 -2.0467
 4732SOL    HW225659   0.710   1.785   3.427  0.4437  0.1627  0.4131
 4733SOL     OW25660   0.911   3.315  17.661 -0.4588 -0.3760 -0.2130
 4733SOL    HW125661   0.859   3.247  17.620  0.9435 -0.3821 -1.9934
 4733SOL    HW225662   0.833   3.367  17.682 -0.8953 -0.6519 -1.1682
 4734SOL     OW25663   0.968   2.692  16.790 -0.3089  0.0951 -0.3899
 4734SOL    HW125664   1.058   2.724  16.781  0.1180 -0.8532  0.4854
 4734SOL    HW225665   0.953   2.692  16.696 -2.4009 -0.5140 -0.0426
 4735SOL     OW25666   1.757   4.154   2.027  0.5027  0.2716  0.5072
 4735SOL    HW125667   1.716   4.089   2.084  0.2721  0.1874  0.2457
 4735SOL    HW225668   1.676   4.184   1.985 -0.3548 -0.9457  1.3168
 4736SOL     OW25669   1.786   0.118   5.385 -0.2793 -0.2555  0.0565
 4736SOL    HW125670   1.738   0.201   5.383 -1.0458 -0.7580 -1.7483
 4736SOL    HW225671   1.765   0.087   5.297  1.4534  0.7856 -0.7191
 4737SOL     OW25672   0.928   0.914  16.111  0.3782 -0.1534 -0.5064
 4737SOL    HW125673   0.975   0.991  16.144 -2.1121  1.0243  0.2791
 4737SOL    HW225674   0.993   0.852  16.143  1.0697  0.3863 -0.8631
 4738SOL     OW25675   4.317   0.626  15.538 -0.1076  0.7839 -0.5203
 4738SOL    HW125676   4.229   0.646  15.506 -1.0751 -1.2133  0.9125
 4738SOL    HW225677   4.305   0.543  15.583 -0.4632  1.8135  1.2933
 4739SOL     OW25678   2.506   4.693  11.832  0.1371 -0.0015 -0.4313
 4739SOL    HW125679   2.534   4.617  11.885  1.1188  0.3996 -0.3867
 4739SOL    HW225680   2.473   4.647  11.755 -3.0975  0.9178  0.3944
 4740SOL     OW25681   2.801   3.022  10.776  0.2026 -0.3794 -0.2050
 4740SOL    HW125682   2.852   2.945  10.798  0.9796  0.2405  0.1864
 4740SOL    HW225683   2.811   3.042  10.683  1.6545 -3.2703 -0.6551
 4741SOL     OW25684   0.462   0.582  15.483  0.1760 -0.1077  0.0739
 4741SOL    HW125685   0.496   0.493  15.476  1.4262  0.4898 -1.4464
 4741SOL    HW225686   0.430   0.588  15.573  0.9626  2.4559  0.1964
 4742SOL     OW25687   4.179   3.018   2.822  0.1358 -0.0693 -0.6684
 4742SOL    HW125688   4.109   2.957   2.799  0.7261 -0.6938 -0.7952
 4742SOL    HW225689   4.223   3.034   2.739 -2.2930  0.6506 -1.8128
 4743SOL     OW25690   1.267   3.970  15.932 -0.3826  0.7574  0.1122
 4743SOL    HW125691   1.235   3.960  15.842 -0.5625 -0.5629  0.3318
 4743SOL    HW225692   1.361   3.955  15.921 -0.3040 -0.1648  2.1939
 4744SOL     OW25693   3.985   0.541   2.739 -0.1120  0.0523  0.3145
 4744SOL    HW125694   3.930   0.587   2.802 -1.0373 -2.6714  1.4949
 4744SOL    HW225695   3.993   0.610   2.673  0.9423 -0.4733 -0.1080
 4745SOL     OW25696   1.385   3.405   8.830  0.2576 -0.3416  0.2730
 4745SOL    HW125697   1.391   3.482   8.886  1.3710 -0.5058  0.3872
 4745SOL    HW225698   1.465   3.357   8.854 -0.9859 -2.8934 -0.6959
 4746SOL     OW25699   3.532   0.977  11.102 -0.3599  0.3105 -0.8152
 4746SOL    HW125700   3.495   0.955  11.187  1.5325  0.0067 -0.0743
 4746SOL    HW225701   3.583   1.051  11.136  2.6941 -1.6738 -1.0721
 4747SOL     OW25702   3.436   4.202   3.864  0.3324 -0.3678 -0.9502
 4747SOL    HW125703   3.417   4.280   3.812  1.7244 -0.1201 -1.0703
 4747SOL    HW225704   3.343   4.181   3.858  0.0815  0.7504 -0.8649
 4748SOL     OW25705   1.186   2.513   6.063  0.1112 -0.3362  0.2857
 4748SOL    HW125706   1.262   2.498   6.007  0.3626 -1.4370  0.9225
 4748SOL    HW225707   1.215   2.484   6.149 -0.1273  0.0554  0.4922
 4749SOL     OW25708   2.060   0.764  11.102 -0.0041 -0.1006 -0.0955
 4749SOL    HW125709   2.021   0.679  11.078 -3.3254  1.7358 -1.2223
 4749SOL    HW225710   2.003   0.826  11.056  0.4178 -0.5174 -1.1739
 4750SOL     OW25711   1.239   2.916  10.508  0.3740  0.3181  0.0991
 4750SOL    HW125712   1.242   2.860  10.586 -1.2798 -2.0745 -1.5273
 4750SOL    HW225713   1.143   2.913  10.501  0.4004  0.3075 -0.2468
 4751SOL     OW25714   1.123   2.855   5.013  0.4344  0.0708  0.1160
 4751SOL    HW125715   1.048   2.907   5.040  0.7292  0.9040 -0.6993
 4751SOL    HW225716   1.115   2.872   4.919 -1.5187 -2.0571 -0.1068
 4752SOL     OW25717   0.666   1.793   6.468  0.5373  0.1708  0.6390
 4752SOL    HW125718   0.754   1.762   6.490 -0.1199 -0.9002  1.7509
 4752SOL    HW225719   0.633   1.809   6.556  1.0371  1.2325  0.6249
 4753SOL     OW25720   1.155   4.702   9.224 -0.0246 -0.3556 -0.6273
 4753SOL    HW125721   1.209   4.651   9.163  0.6826  1.6915 -1.7089
 4753SOL    HW225722   1.151   0.067   9.183 -0.7323  0.0328  0.2740
 4754SOL     OW25723   0.500   2.593   0.122 -0.0229 -0.0802  0.3205
 4754SOL    HW125724   0.529   2.534   0.191  2.9252 -1.2790 -1.9350
 4754SOL    HW225725   0.451   2.531   0.067  1.0418  0.1759 -0.8926
 4755SOL     OW25726   0.041   1.520   9.998 -0.9221 -0.2209  0.0604
 4755SOL    HW125727   4.721   1.605   9.983 -0.6717 -0.4767 -1.9781
 4755SOL    HW225728   4.717   1.496  10.079 -1.4972  0.1755 -0.1429
 4756SOL     OW25729   3.235   3.009   7.400  0.3753 -0.3835 -0.7788
 4756SOL    HW125730   3.331   3.012   7.393  0.5150  2.4118  2.5862
 4756SOL    HW225731   3.210   3.002   7.308 -2.1061  1.6316 -0.2339
 4757SOL     OW25732   0.104   3.642   7.641  0.8612 -0.5306  0.4926
 4757SOL    HW125733   0.056   3.569   7.678 -0.4104  0.0713  0.0355
 4757SOL    HW225734   0.076   3.628   7.550 -2.3462  2.3495  1.0277
 4758SOL     OW25735   0.803   0.128   3.508  0.1416  0.0468 -0.2324
 4758SOL    HW125736   0.761   0.174   3.435  0.3384  0.9206  0.2032
 4758SOL    HW225737   0.733   0.094   3.564  0.6588 -2.2224 -0.9812
 4759SOL     OW25738   0.401   1.087   6.520  0.6471  0.5790  0.0457
 4759SOL    HW125739   0.467   1.117   6.457 -1.5649  0.4345 -2.3393
 4759SOL    HW225740   0.429   1.136   6.597  0.9862 -1.9204  1.5083
 4760SOL     OW25741   2.429   4.256   5.879 -0.3859 -0.1981 -0.2447
 4760SOL    HW125742   2.457   4.312   5.807 -0.0241 -0.1962 -0.1029
 4760SOL    HW225743   2.334   4.261   5.872 -0.3820 -0.7832 -0.8208
 4761SOL     OW25744   3.256   3.959   1.302 -0.0674 -0.4225  0.3273
 4761SOL    HW125745   3.176   3.918   1.335 -0.4005  1.1451  1.4844
 4761SOL    HW225746   3.223   3.998   1.221  2.2492  0.1079 -0.3399
 4762SOL     OW25747   3.717   3.136   9.026 -1.0327  0.1939  0.6954
 4762SOL    HW125748   3.736   3.142   9.119 -1.7170 -1.0406  0.9047
 4762SOL    HW225749   3.632   3.092   9.034  0.6044 -3.0019  0.2456
 4763SOL     OW25750   4.047   2.108   6.872  0.0855  0.1750 -0.3548
 4763SOL    HW125751   3.967   2.106   6.926 -1.1941 -1.1194 -2.2823
 4763SOL    HW225752   4.054   2.201   6.851 -1.5361  0.5074  0.5821
 4764SOL     OW25753   0.047   0.801   5.287 -0.1581 -0.1478  0.2780
 4764SOL    HW125754   0.064   0.721   5.338  0.9308 -0.7880 -1.1216
 4764SOL    HW225755   4.685   0.830   5.326 -0.1799  1.5728 -1.0766
 4765SOL     OW25756   1.775   2.345   2.517  0.4645  0.3489  0.5168
 4765SOL    HW125757   1.771   2.412   2.585 -0.6901 -2.0014  2.7590
 4765SOL    HW225758   1.683   2.319   2.514  0.4433  0.1899  2.9356
 4766SOL     OW25759   4.002   1.916   8.524 -0.0907  0.6941  0.0207
 4766SOL    HW125760   3.994   2.007   8.550  0.4157  1.0844 -1.1603
 4766SOL    HW225761   3.915   1.875   8.525 -0.0176  0.5192 -0.3806
 4767SOL     OW25762   3.402   2.444   2.156  0.1636 -0.9348  0.0018
 4767SOL    HW125763   3.414   2.409   2.067  1.9112  0.7670 -0.4456
 4767SOL    HW225764   3.428   2.370   2.211 -1.1603 -1.1090  0.3999
 4768SOL     OW25765   0.023   1.754   8.972 -0.1013 -0.0192  0.3651
 4768SOL    HW125766   0.026   1.660   8.989  0.3640  0.0901  0.8931
 4768SOL    HW225767   0.110   1.781   9.001 -0.0618  0.1044  0.1251
 4769SOL     OW25768   0.895   4.255  10.603  0.0249 -0.0026 -0.4883
 4769SOL    HW125769   0.869   4.295  10.686 -1.7549 -0.3821 -0.8620
 4769SOL    HW225770   0.960   4.198  10.644 -1.8327 -1.7404  0.0614
 4770SOL     OW25771   3.536   2.320   3.939  0.0567  0.1805 -0.3321
 4770SOL    HW125772   3.474   2.384   3.905 -2.4570 -1.4033  1.3258
 4770SOL    HW225773   3.578   2.369   4.010 -1.2283  1.4663 -0.4534
 4771SOL     OW25774   3.752   1.553   8.916 -0.3190  0.1890 -0.1182
 4771SOL    HW125775   3.745   1.648   8.928  1.0289  0.2906 -0.1197
 4771SOL    HW225776   3.836   1.526   8.878  0.5579  1.6750  0.7716
 4772SOL     OW25777   1.309   0.350   9.790  0.1231  0.3921  0.1086
 4772SOL    HW125778   1.222   0.313   9.775  1.6615 -2.5931 -1.5423
 4772SOL    HW225779   1.345   0.323   9.706  0.6736  0.9176  0.1751
 4773SOL     OW25780   0.007   2.794  11.853  0.2083  1.1000 -0.3195
 4773SOL    HW125781   4.693   2.833  11.773  0.4535  0.6122 -0.6671
 4773SOL    HW225782   0.047   2.713  11.821  0.2201  0.0240  2.4283
 4774SOL     OW25783   2.595   3.465  10.184 -0.5674  0.3114 -0.4271
 4774SOL    HW125784   2.574   3.371  10.185 -2.5195  0.7500  0.7726
 4774SOL    HW225785   2.637   3.458  10.270 -1.3392  2.1258  0.0949
 4775SOL     OW25786   0.983   0.134   8.632  0.4244 -0.4870  0.5954
 4775SOL    HW125787   0.907   0.179   8.669  1.3116  0.5434  1.2006
 4775SOL    HW225788   0.939   0.087   8.561  0.3210  1.0157 -0.3454
 4776SOL     OW25789   0.930   0.483   4.634  0.1540  0.4528 -0.8537
 4776SOL    HW125790   0.867   0.553   4.618  1.5843  1.7942 -0.6369
 4776SOL    HW225791   0.898   0.415   4.574  1.0265 -0.1665 -0.6218
 4777SOL     OW25792   1.900   4.494   5.328 -0.0484  0.0804 -0.1318
 4777SOL    HW125793   1.895   4.484   5.423 -3.4812  1.0012 -0.2321
 4777SOL    HW225794   1.832   4.438   5.291  0.1865  1.2279 -2.3144
 4778SOL     OW25795   0.563   3.650   8.318  0.2206 -0.8732 -0.1517
 4778SOL    HW125796   0.479   3.681   8.352  1.0166  0.0218  0.9973
 4778SOL    HW225797   0.621   3.723   8.338  0.6232 -0.6005 -2.3088
 4779SOL     OW25798   0.279   0.599   3.629 -0.0710  0.3557  0.1001
 4779SOL    HW125799   0.279   0.567   3.539 -1.2076  1.5475 -0.3229
 4779SOL    HW225800   0.289   0.525   3.688  1.0533  1.6481  1.5392
 4780SOL     OW25801   1.425   2.484   5.109  0.0329  0.4338  0.1759
 4780SOL    HW125802   1.493   2.530   5.060 -0.1942 -1.8523 -2.2781
 4780SOL    HW225803   1.364   2.557   5.126 -0.7631 -0.1791 -0.0432
 4781SOL     OW25804   2.912   1.864   7.846  0.0605  0.3907  0.4181
 4781SOL    HW125805   2.839   1.822   7.800  0.8339  1.0244 -1.4076
 4781SOL    HW225806   2.876   1.953   7.842 -1.5557 -0.4106 -3.5240
 4782SOL     OW25807   0.349   4.430  10.824 -0.2547 -0.2692  0.1466
 4782SOL    HW125808   0.405   4.372  10.876 -1.9416 -2.0110  0.0092
 4782SOL    HW225809   0.319   4.377  10.750 -1.0362 -0.0118  0.2812
 4783SOL     OW25810   0.262   0.743   7.701 -0.3736 -0.1936 -0.3617
 4783SOL    HW125811   0.212   0.755   7.620 -0.5849 -0.1589 -0.2259
 4783SOL    HW225812   0.242   0.653   7.727  1.4220 -0.3322  0.4499
 4784SOL     OW25813   3.344   1.360   8.729 -0.3707  0.0045  0.5752
 4784SOL    HW125814   3.435   1.375   8.702 -0.8567  0.0774 -1.0001
 4784SOL    HW225815   3.346   1.398   8.817  0.2929  1.5167 -0.0920
 4785SOL     OW25816   4.550   3.120   9.951  0.2897  0.2064 -0.1030
 4785SOL    HW125817   4.491   3.151  10.019  0.2276  1.6949 -0.8115
 4785SOL    HW225818   4.507   3.162   9.876  0.8883  3.5238  1.3727
 4786SOL     OW25819   1.563   3.075   5.050  0.5628  0.0135 -0.4863
 4786SOL    HW125820   1.615   3.127   4.988 -3.1629  0.1622 -3.4918
 4786SOL    HW225821   1.557   2.997   4.996  0.5418  0.0335 -0.5129
 4787SOL     OW25822   4.197   0.616  10.207 -0.0603 -0.3403 -0.3936
 4787SOL    HW125823   4.282   0.580  10.233  0.4831 -1.1984 -3.3388
 4787SOL    HW225824   4.209   0.709  10.190  1.6586 -0.2056  1.6006
 4788SOL     OW25825   0.079   0.181  11.240 -0.4330 -0.5705 -0.2306
 4788SOL    HW125826   0.100   0.259  11.189  1.1024 -0.3121  0.8032
 4788SOL    HW225827   0.139   0.184  11.314  1.1417  1.9501 -1.6101
 4789SOL     OW25828   0.687   3.498   4.586 -0.3426  0.1100 -0.0670
 4789SOL    HW125829   0.605   3.488   4.634  1.0811 -1.8202  1.9682
 4789SOL    HW225830   0.664   3.445   4.510 -0.5479 -0.1133  0.1482
 4790SOL     OW25831   3.987   3.675  17.456  0.3735  0.0692 -0.2177
 4790SOL    HW125832   4.080   3.656  17.443  0.4572 -0.7037  1.5682
 4790SOL    HW225833   3.957   3.665  17.365 -0.8900  1.5176  0.0366
 4791SOL     OW25834   3.460   1.123   4.546 -0.5541  0.6723  0.3347
 4791SOL    HW125835   3.544   1.168   4.550  0.1022 -0.5342  0.3040
 4791SOL    HW225836   3.384   1.178   4.563 -1.5325 -0.7069  0.4029
 4792SOL     OW25837   1.035   3.837   2.299 -0.1663  0.0999  0.5543
 4792SOL    HW125838   1.066   3.749   2.320  2.7519  1.1488  0.6310
 4792SOL    HW225839   0.998   3.882   2.375 -0.5082  0.6654  0.0588
 4793SOL     OW25840   3.173   4.033   2.654 -0.0178  0.1219  0.3517
 4793SOL    HW125841   3.239   4.070   2.713  1.3252 -0.7412 -0.6136
 4793SOL    HW225842   3.149   4.113   2.607 -1.6068  0.4960  1.7884
 4794SOL     OW25843   2.579   2.232   9.910  0.6034 -0.6935  0.3840
 4794SOL    HW125844   2.648   2.289   9.943  0.2719 -1.0197  1.6419
 4794SOL    HW225845   2.545   2.202   9.994 -1.4939  2.9876  0.8722
 4795SOL     OW25846   0.200   3.410   5.906  0.0887  0.1085 -0.5551
 4795SOL    HW125847   0.220   3.466   5.981  0.5717 -1.1145  0.2188
 4795SOL    HW225848   0.162   3.329   5.939  1.0599 -0.5783 -1.1560
 4796SOL     OW25849   2.130   1.432   3.553  0.0830 -0.2728  0.5558
 4796SOL    HW125850   2.142   1.342   3.583  0.4889 -0.7739 -1.1510
 4796SOL    HW225851   2.062   1.439   3.486  1.3417  0.6798 -0.6330
 4797SOL     OW25852   3.339   4.396  14.413  0.0240  0.7985  0.5264
 4797SOL    HW125853   3.388   4.456  14.357  1.7833 -1.8448 -0.7287
 4797SOL    HW225854   3.310   4.335  14.345  0.1147  0.1290  1.0903
 4798SOL     OW25855   3.345   2.916   5.969  0.2462  0.3997 -1.1160
 4798SOL    HW125856   3.264   2.887   5.928 -1.1464  0.2435  1.7712
 4798SOL    HW225857   3.382   2.841   6.015  0.7880  1.2527 -0.1758
 4799SOL     OW25858   1.551   1.796   2.205 -0.1646  0.1400  0.2627
 4799SOL    HW125859   1.619   1.731   2.224 -0.2420 -0.0788 -0.2090
 4799SOL    HW225860   1.553   1.790   2.110 -1.4839  1.0041  0.1842
 4800SOL     OW25861   1.386   0.294   7.549 -0.9373  0.1827  0.0153
 4800SOL    HW125862   1.469   0.268   7.509 -1.6024 -1.7662 -0.1020
 4800SOL    HW225863   1.347   0.349   7.481  0.8418  1.1116 -0.2480
 4801SOL     OW25864   3.792   1.324   3.800  0.3627  0.4341 -0.1598
 4801SOL    HW125865   3.789   1.265   3.876  0.4060 -0.5839 -0.9496
 4801SOL    HW225866   3.699   1.341   3.785  0.2141  0.2700  0.5478
 4802SOL     OW25867   1.346   0.386  10.812  0.0235 -0.4823  0.3776
 4802SOL    HW125868   1.269   0.443  10.822 -0.7853 -2.1059  3.3161
 4802SOL    HW225869   1.403   0.402  10.887  2.1386 -3.0072 -0.6872
 4803SOL     OW25870   1.513   2.832   5.538 -0.3017 -0.6957  0.1082
 4803SOL    HW125871   1.469   2.824   5.453  1.9619  1.0272 -1.2105
 4803SOL    HW225872   1.537   2.925   5.536  1.5906 -1.1848  0.5652
 4804SOL     OW25873   1.731   3.869   4.794 -0.0583  0.0315 -0.2816
 4804SOL    HW125874   1.778   3.904   4.869 -2.1393 -0.3954  1.2222
 4804SOL    HW225875   1.661   3.813   4.828  1.4037 -1.4395  0.3245
 4805SOL     OW25876   4.174   3.364  12.539 -0.0797  0.0708  0.2549
 4805SOL    HW125877   4.085   3.392  12.518 -0.2608 -1.1006 -0.5575
 4805SOL    HW225878   4.202   3.349  12.449 -1.5861  0.8012 -0.3169
 4806SOL     OW25879   1.194   0.396   9.356 -0.3979 -0.6403 -0.0620
 4806SOL    HW125880   1.215   0.416   9.265  0.8597  2.0440  0.8221
 4806SOL    HW225881   1.105   0.363   9.346  0.0879 -1.6851 -0.9675
 4807SOL     OW25882   3.079   2.950   7.177  0.1694 -0.4961 -0.1682
 4807SOL    HW125883   2.991   2.925   7.206  0.1628  0.4399  0.6465
 4807SOL    HW225884   3.057   3.027   7.125  1.3898 -0.2549 -0.3222
 4808SOL     OW25885   0.683   2.958  14.280 -0.1292  0.2500  0.5190
 4808SOL    HW125886   0.765   2.928  14.319  1.9435  1.8135 -2.5941
 4808SOL    HW225887   0.713   3.046  14.258 -1.9232  1.2265  2.0098
 4809SOL     OW25888   0.056   4.719   1.752  0.7322 -0.2834 -0.4081
 4809SOL    HW125889   0.047   0.011   1.847  0.4398  0.2516 -0.5110
 4809SOL    HW225890   4.703   4.662   1.732  0.1451 -1.0830  3.8577
 4810SOL     OW25891   2.206   4.704   4.932  0.7732 -0.5795  0.1521
 4810SOL    HW125892   2.188   4.710   4.838  2.1601 -1.5405 -0.1750
 4810SOL    HW225893   2.144   4.642   4.971 -1.1337  1.5770  0.5639
 4811SOL     OW25894   3.328   3.616   6.957  0.0309  0.0941 -0.0318
 4811SOL    HW125895   3.351   3.568   6.878  0.4426 -0.5600  0.4879
 4811SOL    HW225896   3.379   3.569   7.023  1.9433  2.1765 -0.0213
 4812SOL     OW25897   3.096   3.622   0.790  0.4130  0.2260  0.3352
 4812SOL    HW125898   3.192   3.624   0.792  0.3691  2.3808  0.0471
 4812SOL    HW225899   3.079   3.636   0.883  1.3181 -0.3389  0.5885
 4813SOL     OW25900   3.601   1.290  15.287 -0.4118 -0.1590  0.2990
 4813SOL    HW125901   3.589   1.384  15.296 -2.3499 -0.5629  1.8786
 4813SOL    HW225902   3.697   1.283  15.289 -0.6114 -2.6976  1.5771
 4814SOL     OW25903   2.574   2.219   0.886 -0.4661 -0.0242  0.2947
 4814SOL    HW125904   2.554   2.165   0.810 -3.1105  1.8689 -0.3442
 4814SOL    HW225905   2.488   2.245   0.917 -1.1967 -1.3511 -0.6578
 4815SOL     OW25906   3.628   2.840   3.781  0.2046 -0.4601 -0.2586
 4815SOL    HW125907   3.696   2.904   3.801 -0.5318 -0.2940  1.7191
 4815SOL    HW225908   3.608   2.857   3.688  2.8505 -0.8682 -0.9066
 4816SOL     OW25909   3.708   0.781   6.223 -0.4831 -0.3339 -0.3781
 4816SOL    HW125910   3.622   0.823   6.233 -0.2455  0.4283 -1.5327
 4816SOL    HW225911   3.669   0.694   6.217 -0.5550 -0.2939 -0.5092
 4817SOL     OW25912   4.703   2.032   4.492  0.2651 -0.2147 -0.6083
 4817SOL    HW125913   4.672   1.947   4.526  0.1492  0.3732  0.7505
 4817SOL    HW225914   0.015   2.002   4.408 -0.3218 -0.8470 -0.6198
 4818SOL     OW25915   0.109   0.592   1.399 -0.8087 -0.1763 -0.4095
 4818SOL    HW125916   0.134   0.504   1.426 -0.5355 -0.0339 -0.1799
 4818SOL    HW225917   0.159   0.603   1.318 -0.1349  3.1724  0.4390
 4819SOL     OW25918   2.645   3.081   0.891 -0.1619  0.0482 -0.0113
 4819SOL    HW125919   2.566   3.130   0.911  0.1557  0.4062  0.3639
 4819SOL    HW225920   2.604   3.018   0.832 -2.6388  0.5872  1.1722
 4820SOL     OW25921   3.632   2.180   8.755 -0.1754  0.0323  0.3337
 4820SOL    HW125922   3.675   2.189   8.670 -2.2191  0.5554 -0.6563
 4820SOL    HW225923   3.565   2.248   8.763  1.4175  1.5404  1.0423
 4821SOL     OW25924   0.908   3.790   5.857 -0.2917  0.2265  0.4684
 4821SOL    HW125925   0.855   3.711   5.866 -0.6102  0.4750  0.7569
 4821SOL    HW225926   0.880   3.813   5.768  0.5094 -2.5966 -0.5420
 4822SOL     OW25927   2.544   2.257  15.936 -0.5652  0.1281 -0.1609
 4822SOL    HW125928   2.492   2.289  15.863  0.1078  1.3807 -0.0882
 4822SOL    HW225929   2.542   2.162  15.923  1.7690  0.0663 -0.1147
 4823SOL     OW25930   4.570   3.212   4.876 -0.0385  0.3268 -0.1434
 4823SOL    HW125931   4.649   3.208   4.823 -0.0545  0.7599 -0.2033
 4823SOL    HW225932   4.507   3.148   4.842 -1.8165  2.3972 -0.7487
 4824SOL     OW25933   0.354   4.322   5.542 -0.1647 -0.4944 -0.8819
 4824SOL    HW125934   0.378   4.414   5.532 -0.1187 -0.2935  1.1462
 4824SOL    HW225935   0.421   4.293   5.604  0.7120  1.1619 -1.0418
 4825SOL     OW25936   0.842   2.009   5.309  0.5214  0.6134  0.2110
 4825SOL    HW125937   0.883   2.081   5.261 -0.9503  0.3448 -1.4757
 4825SOL    HW225938   0.750   2.036   5.302  0.1987 -0.2493  1.0790
 4826SOL     OW25939   1.604   3.668   3.519  1.0983 -0.1222 -0.2271
 4826SOL    HW125940   1.698   3.659   3.506  1.1563  2.3874 -1.5420
 4826SOL    HW225941   1.597   3.758   3.550 -1.0575 -0.8540  1.4119
 4827SOL     OW25942   3.775   1.197  14.369 -0.7028 -0.2252 -0.3037
 4827SOL    HW125943   3.805   1.287  14.359 -0.7957 -0.3477 -1.6054
 4827SOL    HW225944   3.849   1.158  14.415 -0.8540 -0.0570  0.0810
 4828SOL     OW25945   0.415   2.162   1.066  0.0745  0.3577 -0.0727
 4828SOL    HW125946   0.486   2.110   1.105 -1.3354 -1.1480  0.5132
 4828SOL    HW225947   0.381   2.214   1.139  0.6659 -0.1849  0.5851
 4829SOL     OW25948   1.174   4.096   5.671 -0.7286 -0.0095  0.0014
 4829SOL    HW125949   1.101   4.158   5.678 -1.9797 -1.4512 -0.1986
 4829SOL    HW225950   1.138   4.025   5.619 -1.6217  0.5248 -0.1037
 4830SOL     OW25951   1.136   2.183  10.031  0.3702  0.1453  0.2648
 4830SOL    HW125952   1.086   2.188   9.949 -0.0911  0.5487  0.5726
 4830SOL    HW225953   1.208   2.244  10.021  1.3705 -0.7853  1.8038
 4831SOL     OW25954   4.632   1.530  11.138  0.3448 -0.0615 -0.3392
 4831SOL    HW125955   4.689   1.604  11.116  0.5064 -0.0352  0.1652
 4831SOL    HW225956   4.664   1.452  11.093 -0.2883 -0.3451 -0.3047
 4832SOL     OW25957   3.455   0.964   1.421  0.5235 -0.3432 -0.0400
 4832SOL    HW125958   3.499   1.029   1.366  1.9415 -1.1132  0.2147
 4832SOL    HW225959   3.530   0.913   1.450  1.0558  0.7395  0.5037
 4833SOL     OW25960   2.215   0.345   8.518  0.0468  0.1199 -0.0953
 4833SOL    HW125961   2.205   0.250   8.508  0.3243  0.1005 -0.1834
 4833SOL    HW225962   2.264   0.353   8.599 -1.6508  0.4247  0.8931
 4834SOL     OW25963   0.887   0.333   4.401  0.1319  0.3400 -0.5613
 4834SOL    HW125964   0.933   0.284   4.333  2.0114  0.9503  0.2698
 4834SOL    HW225965   0.836   0.395   4.350  1.1561 -0.4391 -2.5112
 4835SOL     OW25966   2.110   1.400   0.655  0.3817 -0.1007  0.2030
 4835SOL    HW125967   2.106   1.307   0.678 -0.6983 -0.1189 -0.0718
 4835SOL    HW225968   2.126   1.437   0.742  0.6228 -1.1349  0.5925
 4836SOL     OW25969   2.711   3.535  16.436  0.1856 -0.2274  0.0964
 4836SOL    HW125970   2.677   3.596  16.502 -0.8235 -2.8558  2.0231
 4836SOL    HW225971   2.792   3.494  16.467 -1.0132 -1.0988  2.0765
 4837SOL     OW25972   3.748   1.329  10.977 -0.2612  0.0843  0.0220
 4837SOL    HW125973   3.838   1.330  10.946 -0.6864 -1.1246 -1.2989
 4837SOL    HW225974   3.708   1.405  10.935  0.5162  0.7119  0.4430
 4838SOL     OW25975   0.888   2.299  12.752 -0.7878 -0.1577 -0.0362
 4838SOL    HW125976   0.808   2.324  12.797 -0.8105  0.6391 -0.5290
 4838SOL    HW225977   0.923   2.385  12.728 -1.4431 -0.0821 -0.7097
 4839SOL     OW25978   4.078   4.146   8.920 -0.3004  0.3115 -0.6893
 4839SOL    HW125979   4.126   4.225   8.893 -0.0610  0.5203  0.3543
 4839SOL    HW225980   4.002   4.186   8.962 -0.5757  1.2447 -2.0611
 4840SOL     OW25981   2.724   2.255   1.800  0.0480  0.4912  0.4674
 4840SOL    HW125982   2.697   2.310   1.726  1.0105  1.2580  0.6883
 4840SOL    HW225983   2.642   2.211   1.821 -0.4202  1.2650  0.2506
 4841SOL     OW25984   0.039   3.842  13.359  0.6615 -0.0043 -0.0061
 4841SOL    HW125985   0.076   3.894  13.430  2.0976 -2.7848  1.2785
 4841SOL    HW225986   4.687   3.798  13.403 -1.4713  0.7506 -2.7997
 4842SOL     OW25987   3.993   2.150  16.162 -0.3646 -0.0936 -0.2944
 4842SOL    HW125988   4.041   2.126  16.241 -1.0587 -2.2034 -0.5120
 4842SOL    HW225989   3.991   2.243  16.184  0.7711  0.2069 -1.4215
 4843SOL     OW25990   1.073   0.562   1.513  0.1842 -0.0936  0.0360
 4843SOL    HW125991   1.111   0.643   1.478 -0.4715  1.6194  3.3131
 4843SOL    HW225992   1.017   0.524   1.445  1.3531 -0.8016 -0.5408
 4844SOL     OW25993   3.069   0.752   6.144 -0.4571 -0.3156  0.3630
 4844SOL    HW125994   3.165   0.755   6.138 -0.3882 -0.9228  1.1594
 4844SOL    HW225995   3.058   0.667   6.187 -1.0810 -0.4846 -0.1257
 4845SOL     OW25996   3.860   3.304   4.767  0.3916  0.6086 -0.1464
 4845SOL    HW125997   3.858   3.368   4.838  2.2468 -0.6364  1.0228
 4845SOL    HW225998   3.772   3.282   4.738  0.8932  0.4391 -1.5388
 4846SOL     OW25999   3.219   3.664   8.460 -0.5342 -0.1552 -0.3583
 4846SOL    HW126000   3.253   3.667   8.371 -0.7314  4.8061 -0.2504
 4846SOL    HW226001   3.297   3.683   8.511 -1.4247  2.0390  0.1976
 4847SOL     OW26002   3.378   4.692   6.763  0.1124  0.1162  0.1364
 4847SOL    HW126003   3.382   0.006   6.674 -2.4875 -0.4475 -0.1893
 4847SOL    HW226004   3.471   4.681   6.785  0.9142  0.1354 -3.1918
 4848SOL     OW26005   1.967   0.867   5.159  0.1125  0.5801  0.5226
 4848SOL    HW126006   1.980   0.803   5.229  0.1241  0.4724  0.4208
 4848SOL    HW226007   1.873   0.880   5.168  0.0966  0.6311  0.2952
 4849SOL     OW26008   4.126   0.304   6.647  0.0293 -0.0947  0.0336
 4849SOL    HW126009   4.083   0.370   6.593 -0.5129 -0.0079  0.5689
 4849SOL    HW226010   4.055   0.265   6.698 -0.3274 -1.4513 -1.4900
 4850SOL     OW26011   1.142   3.758   8.380  0.2482 -0.3864  0.0791
 4850SOL    HW126012   1.099   3.695   8.438  0.0324  0.6972  1.0805
 4850SOL    HW226013   1.226   3.763   8.424  0.1365  3.1260 -0.0936
 4851SOL     OW26014   3.618   4.547   7.213  0.3578  0.1878 -0.1706
 4851SOL    HW126015   3.627   4.502   7.129  0.0775  1.0643 -0.6658
 4851SOL    HW226016   3.711   4.550   7.235  0.5081 -0.7813 -0.6705
 4852SOL     OW26017   1.179   4.519   0.623  0.6731  0.5537 -0.2227
 4852SOL    HW126018   1.190   4.597   0.569 -0.1495  1.4405  0.8817
 4852SOL    HW226019   1.172   4.561   0.709  1.2434 -1.6970  0.9143
 4853SOL     OW26020   4.522   4.104   9.889 -0.2518 -0.2034 -0.1814
 4853SOL    HW126021   4.439   4.058   9.880 -0.5079  0.0076  1.1247
 4853SOL    HW226022   4.544   4.094   9.982 -1.4919 -1.6058 -0.0394
 4854SOL     OW26023   0.699   4.381   0.952  0.3015 -0.2799 -0.0022
 4854SOL    HW126024   0.735   4.366   1.039  1.8826 -2.5760 -1.0508
 4854SOL    HW226025   0.626   4.319   0.954 -0.8064  1.1020  2.2745
 4855SOL     OW26026   4.353   3.576   2.290 -0.4046 -0.3973 -0.2853
 4855SOL    HW126027   4.324   3.666   2.310 -1.2245 -0.8635  0.6231
 4855SOL    HW226028   4.336   3.572   2.196  0.2688 -1.4224 -0.3585
 4856SOL     OW26029   1.036   1.992  12.249 -0.4585 -0.4398 -0.6210
 4856SOL    HW126030   1.038   1.975  12.343 -1.8095 -0.7698 -0.6501
 4856SOL    HW226031   1.064   1.904  12.224  0.2751 -0.1029 -0.9834
 4857SOL     OW26032   1.468   0.203   0.695  0.4821 -0.1638  0.1893
 4857SOL    HW126033   1.529   0.227   0.765 -0.0342  1.4292  0.0901
 4857SOL    HW226034   1.530   0.226   0.625  1.0855  2.5957  1.6210
 4858SOL     OW26035   2.188   1.024  16.281 -0.3181 -0.3599 -0.1920
 4858SOL    HW126036   2.098   1.056  16.283 -0.2986 -0.2664 -0.8111
 4858SOL    HW226037   2.198   1.022  16.186 -0.6678 -1.9297 -0.1965
 4859SOL     OW26038   3.998   1.672  13.910  0.5097  0.1775  0.1358
 4859SOL    HW126039   4.062   1.601  13.901 -0.8941 -1.0898  0.0615
 4859SOL    HW226040   4.012   1.718  13.993 -0.9329 -0.3260  0.6552
 4860SOL     OW26041   0.671   0.620   3.987 -0.2562 -0.2903 -0.0080
 4860SOL    HW126042   0.689   0.647   3.897 -0.5476  0.4472  0.1508
 4860SOL    HW226043   0.581   0.588   3.982 -0.1339 -0.6688  0.2121
 4861SOL     OW26044   1.602   0.172   6.892 -0.5592  0.1697 -0.3120
 4861SOL    HW126045   1.538   0.206   6.954  0.2288  0.3114  0.4280
 4861SOL    HW226046   1.672   0.188   6.955 -0.4116  1.1965 -0.7474
 4862SOL     OW26047   1.046   1.488   6.185 -0.7924  0.4870 -0.3402
 4862SOL    HW126048   1.140   1.490   6.166 -0.5470  1.0858  0.9054
 4862SOL    HW226049   1.014   1.418   6.128  1.9272 -2.1378  1.3910
 4863SOL     OW26050   1.650   3.651  11.222 -0.1413 -0.0263 -0.1666
 4863SOL    HW126051   1.622   3.631  11.132  0.5609 -1.7034  0.0011
 4863SOL    HW226052   1.637   3.566  11.263 -1.3450  1.3998  2.4014
 4864SOL     OW26053   0.886   3.308   7.848  0.1328 -0.5008 -0.2501
 4864SOL    HW126054   0.979   3.325   7.862 -0.3441  2.4074 -0.6560
 4864SOL    HW226055   0.860   3.257   7.924  0.6721 -1.7651 -0.9036
 4865SOL     OW26056   1.589   2.652   1.293  0.2035  0.6826  0.0049
 4865SOL    HW126057   1.575   2.644   1.199  1.1371  1.8715 -0.2253
 4865SOL    HW226058   1.648   2.726   1.304 -2.0565  2.2020  2.1068
 4866SOL     OW26059   3.979   2.464   4.608 -0.3525 -0.2690  0.0491
 4866SOL    HW126060   3.946   2.485   4.521  0.4835 -0.4326 -0.3110
 4866SOL    HW226061   3.982   2.368   4.607  1.5817 -0.1728 -2.2461
 4867SOL     OW26062   1.554   0.876  15.501 -0.5732  0.0538 -0.3420
 4867SOL    HW126063   1.530   0.933  15.428 -0.2522  1.6415  0.7954
 4867SOL    HW226064   1.553   0.938  15.573 -0.2468 -0.3354 -0.0012
 4868SOL     OW26065   3.832   4.067   1.188 -0.8740 -0.3147  0.2098
 4868SOL    HW126066   3.750   4.029   1.158  0.7147 -2.7069 -1.1003
 4868SOL    HW226067   3.838   4.044   1.281 -1.8044  2.2345  0.9165
 4869SOL     OW26068   2.120   0.256   4.577 -0.4261 -0.2973 -0.0665
 4869SOL    HW126069   2.151   0.167   4.560 -2.2300 -1.3513  2.1347
 4869SOL    HW226070   2.161   0.307   4.507 -0.8774 -2.2424 -1.7369
 4870SOL     OW26071   1.317   1.762   2.421  0.4042 -0.5831  0.2813
 4870SOL    HW126072   1.311   1.710   2.341  2.9854  2.4709 -1.8777
 4870SOL    HW226073   1.367   1.838   2.391 -1.6287  0.2170 -1.0865
 4871SOL     OW26074   1.747   0.406   8.915 -0.1456  0.0842 -0.3312
 4871SOL    HW126075   1.753   0.485   8.861 -0.4443  0.1993 -0.1939
 4871SOL    HW226076   1.837   0.377   8.926 -0.6909 -1.0212  1.1510
 4872SOL     OW26077   2.107   0.784  16.915  0.2218 -0.0082  0.2102
 4872SOL    HW126078   2.125   0.847  16.845 -0.8591  0.4235  0.3296
 4872SOL    HW226079   2.108   0.835  16.996 -0.1072 -1.9548  1.4356
 4873SOL     OW26080   1.251   1.211   4.944 -0.1195  0.4650 -0.1416
 4873SOL    HW126081   1.278   1.141   4.884 -2.7554 -0.9916  0.3481
 4873SOL    HW226082   1.167   1.175   4.974  1.3204  0.3680  3.6598
 4874SOL     OW26083   1.033   0.718   6.673  0.6196  0.0191 -0.2778
 4874SOL    HW126084   1.005   0.809   6.667  0.8218 -0.0354 -2.0698
 4874SOL    HW226085   1.125   0.723   6.646  0.6135 -0.8201 -0.4613
 4875SOL     OW26086   3.497   1.546   7.311 -0.2652 -0.5249 -0.0404
 4875SOL    HW126087   3.435   1.537   7.383 -1.7281 -0.1047 -1.2516
 4875SOL    HW226088   3.465   1.617   7.255  0.8299  0.7106  0.9003
 4876SOL     OW26089   1.322   3.624   3.157  0.8707 -0.1212 -0.1168
 4876SOL    HW126090   1.274   3.575   3.090  1.2269  1.3098 -1.4045
 4876SOL    HW226091   1.402   3.651   3.113  0.6657 -0.6837 -0.8404
 4877SOL     OW26092   2.603   1.981  17.319 -0.4321 -0.3523  0.6902
 4877SOL    HW126093   2.587   1.898  17.364  0.4897 -1.0958 -0.3310
 4877SOL    HW226094   2.680   2.010  17.367  1.8364 -0.1205 -3.0495
 4878SOL     OW26095   1.781   0.551   8.386 -0.5684  0.1491 -0.7863
 4878SOL    HW126096   1.723   0.589   8.452 -1.8160 -1.0882 -1.1694
 4878SOL    HW226097   1.855   0.531   8.443  0.8111  0.4200 -2.4778
 4879SOL     OW26098   1.019   0.056   8.147  0.7397  0.6240  0.3562
 4879SOL    HW126099   1.109   0.073   8.119  0.1185 -0.4035 -2.2551
 4879SOL    HW226100   1.037   0.063   8.241  0.9171 -2.3389  0.5286
 4880SOL     OW26101   3.540   1.953   8.913  0.0364  0.5969 -0.8596
 4880SOL    HW126102   3.497   1.968   8.996  2.3380  0.1734  0.4137
 4880SOL    HW226103   3.515   2.035   8.869 -0.9422  1.7446  1.8610
 4881SOL     OW26104   3.072   0.973   0.697 -0.0769  0.1146  0.4168
 4881SOL    HW126105   3.105   1.013   0.778 -1.2660  0.1213  0.9020
 4881SOL    HW226106   3.090   0.881   0.719  0.3039  0.0612 -0.1294
 4882SOL     OW26107   4.280   1.325   9.137 -0.2427 -0.3322  0.0920
 4882SOL    HW126108   4.253   1.255   9.196 -2.6094  1.8486  1.5694
 4882SOL    HW226109   4.369   1.295   9.119 -0.1402 -0.7432  1.3215
 4883SOL     OW26110   2.221   4.107  15.736  0.0355 -0.6364  0.2780
 4883SOL    HW126111   2.136   4.070  15.762 -1.5312  2.2911 -0.6076
 4883SOL    HW226112   2.199   4.141  15.649  3.3614 -0.0557 -0.3093
 4884SOL     OW26113   1.293   1.547   2.185  0.4798  0.4881  0.3569
 4884SOL    HW126114   1.269   1.480   2.122  1.1847  0.5088  0.0719
 4884SOL    HW226115   1.248   1.516   2.264  2.6129 -0.2744  1.2617
 4885SOL     OW26116   2.491   3.271   8.659  0.5327  0.1383 -0.6951
 4885SOL    HW126117   2.558   3.205   8.678  0.2734  0.7044  2.1574
 4885SOL    HW226118   2.532   3.304   8.579  1.2314  2.6656  0.7238
 4886SOL     OW26119   2.672   3.201   0.655  0.2219  0.2531 -0.2126
 4886SOL    HW126120   2.665   3.173   0.746  1.9645  0.0047 -0.1556
 4886SOL    HW226121   2.736   3.271   0.663  1.6277 -1.0842  0.0726
 4887SOL     OW26122   3.268   4.051   8.450  0.1581  0.3033 -0.0530
 4887SOL    HW126123   3.355   4.056   8.490  0.7797 -0.8417 -1.2735
 4887SOL    HW226124   3.302   4.016   8.368 -0.6926  0.9805 -0.6921
 4888SOL     OW26125   1.782   1.788   3.786  0.1648  0.3108 -0.3901
 4888SOL    HW126126   1.845   1.859   3.787  0.0077  0.4502 -0.3536
 4888SOL    HW226127   1.712   1.816   3.727 -0.0418  0.7109  0.0522
 4889SOL     OW26128   4.056   2.190   8.512  0.1742  0.3962 -0.0390
 4889SOL    HW126129   4.104   2.167   8.433 -1.9713 -0.8298 -0.9669
 4889SOL    HW226130   4.130   2.191   8.573 -0.2106 -1.2903  0.4478
 4890SOL     OW26131   0.685   3.489   2.069  0.0303  0.4720 -0.5223
 4890SOL    HW126132   0.752   3.456   2.128 -2.3964 -0.6621  1.5821
 4890SOL    HW226133   0.609   3.491   2.127  2.4315 -0.7462  2.6129
 4891SOL     OW26134   4.182   4.261   2.809  0.0886 -0.1389  0.4031
 4891SOL    HW126135   4.182   4.249   2.714 -1.0213 -0.1752  0.4102
 4891SOL    HW226136   4.180   4.357   2.811 -2.0191 -0.1249 -2.1799
 4892SOL     OW26137   1.026   2.207  17.519 -0.1861  0.7922  0.3289
 4892SOL    HW126138   1.084   2.231  17.447 -1.6310 -1.1540 -1.5029
 4892SOL    HW226139   0.959   2.272  17.499 -0.8335 -0.3259 -1.1493
 4893SOL     OW26140   3.855   3.810   4.358 -0.6005 -0.3175 -0.0742
 4893SOL    HW126141   3.795   3.778   4.425  0.7676 -2.9346 -0.0704
 4893SOL    HW226142   3.800   3.826   4.281 -0.4730 -0.8784 -0.2808
 4894SOL     OW26143   0.647   2.010  10.086 -0.0642  0.6220 -0.4500
 4894SOL    HW126144   0.739   2.013  10.112  0.1630 -1.6357 -0.9301
 4894SOL    HW226145   0.627   1.929  10.134 -0.0181  0.0749 -1.3514
 4895SOL     OW26146   3.839   2.177   6.200 -0.3652  0.4896  0.1133
 4895SOL    HW126147   3.869   2.252   6.251 -1.5436  0.8129  0.3440
 4895SOL    HW226148   3.827   2.102   6.259  0.3972  1.7598  1.8882
 4896SOL     OW26149   0.840   3.193   1.048  0.2289 -0.0853  0.2342
 4896SOL    HW126150   0.772   3.130   1.070  0.4777 -0.7078 -0.7554
 4896SOL    HW226151   0.882   3.192   1.134  1.0213 -0.7476 -0.1562
 4897SOL     OW26152   0.256   0.200   2.467 -0.6798 -0.1595  1.2982
 4897SOL    HW126153   0.222   0.235   2.550  0.9778  1.4611  1.2951
 4897SOL    HW226154   0.239   0.106   2.475 -2.4619  0.0078 -0.5799
 4898SOL     OW26155   0.725   3.449   9.092 -0.1292 -0.5442 -0.1296
 4898SOL    HW126156   0.695   3.485   9.176  1.4218  1.5862 -0.4792
 4898SOL    HW226157   0.648   3.409   9.052 -0.3223  0.9112 -1.2190
 4899SOL     OW26158   0.525   1.550  10.081  0.1525  0.3446 -0.5615
 4899SOL    HW126159   0.458   1.566  10.147 -0.9724  1.5074 -1.9694
 4899SOL    HW226160   0.612   1.553  10.121  0.0030 -0.8957 -0.1515
 4900SOL     OW26161   1.667   0.621   3.084 -0.2644  0.3757  0.1985
 4900SOL    HW126162   1.688   0.569   3.007  0.3983 -1.0977  1.3895
 4900SOL    HW226163   1.601   0.568   3.128 -0.4529  0.7182  0.3266
 4901SOL     OW26164   4.137   3.581   4.457  1.0068  0.3134 -0.0244
 4901SOL    HW126165   4.141   3.618   4.545 -0.7237  2.2042 -0.7460
 4901SOL    HW226166   4.230   3.559   4.449  1.5048  1.8053  1.8334
 4902SOL     OW26167   3.904   3.654   1.769  0.1954 -0.1713  0.0739
 4902SOL    HW126168   3.895   3.708   1.847 -0.2097  0.1822 -0.2142
 4902SOL    HW226169   3.971   3.705   1.722 -0.3176 -0.5931 -1.1288
 4903SOL     OW26170   3.144   1.889   5.538 -0.2388 -0.1643  0.5273
 4903SOL    HW126171   3.065   1.923   5.580  0.2725  0.3355  1.0744
 4903SOL    HW226172   3.148   1.799   5.571  1.1773 -0.1670  0.3443
 4904SOL     OW26173   3.442   0.572  15.650  0.6709  0.9935  0.4780
 4904SOL    HW126174   3.394   0.613  15.721  0.9068  1.1429  0.5525
 4904SOL    HW226175   3.524   0.549  15.695  0.7615  0.5233  0.0689
 4905SOL     OW26176   3.625   4.219  17.310  0.3128  0.5258 -0.2206
 4905SOL    HW126177   3.693   4.219  17.377 -0.1269 -0.0382  0.2196
 4905SOL    HW226178   3.596   4.310  17.320 -1.1556 -0.2452  2.3936
 4906SOL     OW26179   0.558   4.644   3.920 -0.2798 -0.6493 -0.9977
 4906SOL    HW126180   0.637   4.648   3.973 -2.3164 -1.6043  2.0602
 4906SOL    HW226181   0.529   4.555   3.943  1.9256 -1.0786  0.1141
 4907SOL     OW26182   1.438   2.849  11.658  0.1947 -0.3856 -0.1661
 4907SOL    HW126183   1.399   2.799  11.730  0.3236 -0.3878 -0.0980
 4907SOL    HW226184   1.375   2.921  11.655 -0.1431 -0.5621  2.1758
 4908SOL     OW26185   2.598   1.598   2.706  0.0053  0.6365  0.6278
 4908SOL    HW126186   2.527   1.644   2.751 -0.6062  0.8405 -0.5344
 4908SOL    HW226187   2.549   1.521   2.677  0.8997  0.0574  0.6414
 4909SOL     OW26188   3.812   4.131   7.594 -0.1442  0.6147 -0.1835
 4909SOL    HW126189   3.736   4.180   7.563 -0.8303 -1.3837 -1.6723
 4909SOL    HW226190   3.854   4.118   7.508 -2.5463 -1.9454 -0.9556
 4910SOL     OW26191   0.661   3.095   8.790  0.5351  0.0484 -0.5481
 4910SOL    HW126192   0.741   3.058   8.752 -0.4958 -1.8132 -0.9113
 4910SOL    HW226193   0.615   3.135   8.716 -1.4809  2.4952  2.0491
 4911SOL     OW26194   0.179   3.158   6.693  0.0356  0.2383 -0.0148
 4911SOL    HW126195   0.195   3.249   6.717 -1.6256  0.7234 -0.7592
 4911SOL    HW226196   0.212   3.165   6.603 -2.2823 -0.1655 -0.8840
 4912SOL     OW26197   2.377   4.025   8.545 -0.2516 -0.1523  0.5036
 4912SOL    HW126198   2.306   4.037   8.607 -0.6202  2.2939 -0.4049
 4912SOL    HW226199   2.442   3.985   8.602 -2.5233  0.3816  3.4407
 4913SOL     OW26200   1.634   4.607   1.945  0.2534  0.1523  0.0384
 4913SOL    HW126201   1.541   4.599   1.929 -0.4671 -0.1726  4.3263
 4913SOL    HW226202   1.654   4.535   2.005 -0.7494 -1.1757 -1.2585
 4914SOL     OW26203   3.817   2.709   7.876 -0.5817  0.4026  0.2933
 4914SOL    HW126204   3.874   2.736   7.947 -1.1349  3.3238 -0.3498
 4914SOL    HW226205   3.837   2.766   7.802 -4.0359  0.4270 -0.6358
 4915SOL     OW26206   1.742   3.712   4.362  0.2479  0.0824  0.5846
 4915SOL    HW126207   1.733   3.657   4.284 -0.5207 -1.9851  2.1296
 4915SOL    HW226208   1.678   3.781   4.348 -0.0068  0.0261  1.4534
 4916SOL     OW26209   1.132   0.667  13.814  0.1784  0.3534  0.2876
 4916SOL    HW126210   1.054   0.694  13.862  1.5859  0.1955  2.6765
 4916SOL    HW226211   1.100   0.646  13.727 -1.3698  1.0720  0.6939
 4917SOL     OW26212   0.200   2.495   0.254  0.3054 -0.6351 -1.1365
 4917SOL    HW126213   0.157   2.418   0.291 -1.8947 -0.3702 -3.1422
 4917SOL    HW226214   0.246   2.542   0.324  1.7624 -0.4161 -2.2429
 4918SOL     OW26215   1.383   2.928   4.167 -0.1349  0.0539 -0.6428
 4918SOL    HW126216   1.310   2.872   4.140 -0.9710  0.3680  1.0340
 4918SOL    HW226217   1.329   3.001   4.196  1.8918  2.1117 -2.0879
 4919SOL     OW26218   1.938   2.255   4.952 -0.1281 -0.0936 -0.3917
 4919SOL    HW126219   2.018   2.219   4.988 -0.1902 -0.8332 -1.0034
 4919SOL    HW226220   1.915   2.323   5.016 -0.1836 -0.6864  0.2114
 4920SOL     OW26221   4.458   1.959  11.584 -0.3634  0.4327  0.3347
 4920SOL    HW126222   4.375   1.986  11.545 -0.9181  1.1623  2.0471
 4920SOL    HW226223   4.463   1.870  11.549 -0.5693  0.2843  0.6801
 4921SOL     OW26224   2.503   0.986  12.578 -0.5041  0.1884 -0.0621
 4921SOL    HW126225   2.518   1.074  12.611 -0.4983  0.7961 -1.6873
 4921SOL    HW226226   2.584   0.955  12.536  0.9476  3.3284  0.4848
 4922SOL     OW26227   0.764   0.782   6.822  0.7700 -0.0735 -0.3912
 4922SOL    HW126228   0.746   0.695   6.786  0.2911 -1.1668  2.4224
 4922SOL    HW226229   0.769   0.765   6.917 -1.6301  1.5102  0.0030
 4923SOL     OW26230   4.068   3.998   4.365 -0.2163 -0.6367  0.8273
 4923SOL    HW126231   4.103   3.930   4.308 -0.9563  0.6204 -1.1354
 4923SOL    HW226232   3.985   3.952   4.378 -0.2482 -0.6867  0.4343
 4924SOL     OW26233   1.936   2.002   7.877 -0.6448  0.5161  0.9173
 4924SOL    HW126234   2.020   1.959   7.894 -1.4831 -1.4378  0.0774
 4924SOL    HW226235   1.930   1.969   7.787  0.5998  0.5484  0.8222
 4925SOL     OW26236   4.150   3.635  15.803  0.3322 -0.3036  0.1326
 4925SOL    HW126237   4.166   3.638  15.897 -2.0250 -3.2599  0.6237
 4925SOL    HW226238   4.129   3.726  15.784  0.9854 -0.8287 -3.1295
 4926SOL     OW26239   0.837   3.100  17.464  0.3215 -0.5532  0.1614
 4926SOL    HW126240   0.748   3.132  17.450  0.2070 -0.8358  0.2439
 4926SOL    HW226241   0.876   3.101  17.377  0.2216  4.1283  0.2064
 4927SOL     OW26242   3.852   2.152   2.453  0.7960 -0.0015 -0.4197
 4927SOL    HW126243   3.770   2.200   2.442  0.2057 -0.8935  0.0787
 4927SOL    HW226244   3.822   2.072   2.497 -0.0863 -0.2388 -1.4472
 4928SOL     OW26245   4.543   4.372  10.125  0.3798  0.0887  0.8114
 4928SOL    HW126246   4.472   4.393  10.186  1.0239 -0.0731  1.6188
 4928SOL    HW226247   4.579   4.288  10.155  0.2288 -0.4760 -0.6095
 4929SOL     OW26248   3.409   1.567   4.517  0.1872  0.1054 -0.6159
 4929SOL    HW126249   3.392   1.642   4.573  0.2571  0.2445 -0.7834
 4929SOL    HW226250   3.452   1.612   4.445  1.9432 -0.4727  0.0727
 4930SOL     OW26251   0.138   2.013   3.617  0.1290  0.1474  0.0195
 4930SOL    HW126252   0.113   1.999   3.526  0.5365 -0.3093 -0.0269
 4930SOL    HW226253   0.147   2.107   3.626 -0.9209  0.1327  1.1907
 4931SOL     OW26254   2.565   1.627   8.353  0.1677  0.2248  0.5467
 4931SOL    HW126255   2.624   1.618   8.428  1.7793 -0.1111 -0.7631
 4931SOL    HW226256   2.517   1.703   8.385  0.6011  0.9711 -0.5915
 4932SOL     OW26257   2.549   1.229   6.070 -0.1212 -0.5437 -0.8097
 4932SOL    HW126258   2.636   1.188   6.068  1.2168  2.2365  0.5471
 4932SOL    HW226259   2.565   1.309   6.019 -2.0848  1.3678  1.5569
 4933SOL     OW26260   2.906   2.626   3.280 -0.1481  0.0447  0.2646
 4933SOL    HW126261   2.910   2.594   3.190  0.5048  0.5111  0.1312
 4933SOL    HW226262   2.973   2.570   3.319 -0.8193  0.5683  2.1914
 4934SOL     OW26263   3.366   3.941   7.943  0.6120 -0.2227  0.3130
 4934SOL    HW126264   3.367   3.942   8.039  0.3450  1.2159  0.3052
 4934SOL    HW226265   3.309   3.865   7.933  1.1626 -0.5463 -0.3262
 4935SOL     OW26266   0.483   2.626   0.837 -0.0912 -0.1656  0.6961
 4935SOL    HW126267   0.426   2.553   0.811 -3.0929  1.2433  3.2686
 4935SOL    HW226268   0.416   2.692   0.819 -1.2426 -1.3971  0.4842
 4936SOL     OW26269   4.128   2.409  12.823 -0.1624  0.3260  0.5064
 4936SOL    HW126270   4.206   2.354  12.831 -0.9531 -0.8547  0.1105
 4936SOL    HW226271   4.165   2.494  12.798 -0.3010  0.6597  1.4675
 4937SOL     OW26272   2.563   3.938  15.460 -0.0714  0.0990 -0.1358
 4937SOL    HW126273   2.505   3.982  15.398 -0.7935  1.7452  1.7002
 4937SOL    HW226274   2.563   3.856  15.411 -2.1704  1.3055 -2.1655
 4938SOL     OW26275   3.510   4.051   6.756  0.3166 -0.3959  0.0288
 4938SOL    HW126276   3.568   3.977   6.767  0.0511 -0.8458 -1.5711
 4938SOL    HW226277   3.570   4.121   6.731 -1.3625  0.9458 -0.2681
 4939SOL     OW26278   3.666   1.041   1.233 -0.3980 -0.4082 -0.2068
 4939SOL    HW126279   3.739   0.987   1.264  0.2454  0.2584 -0.5543
 4939SOL    HW226280   3.675   1.036   1.138  1.6571  0.0838 -0.0394
 4940SOL     OW26281   1.904   4.273   7.794  0.3897  0.9610 -0.0839
 4940SOL    HW126282   1.880   4.345   7.854 -0.6820  0.9058 -0.4469
 4940SOL    HW226283   1.985   4.251   7.840 -0.3569 -0.0468  0.7517
 4941SOL     OW26284   2.131   2.978   0.391 -0.6119  0.0571  0.0717
 4941SOL    HW126285   2.083   2.947   0.315 -0.7769 -0.4119  0.3648
 4941SOL    HW226286   2.213   2.930   0.390 -0.9873 -0.6095  0.8674
 4942SOL     OW26287   2.187   3.700   6.521 -0.1188 -0.1152  0.4351
 4942SOL    HW126288   2.238   3.769   6.562 -3.6526  2.1185  1.1371
 4942SOL    HW226289   2.240   3.669   6.447 -2.3353  0.9434 -1.6309
 4943SOL     OW26290   3.259   2.556  13.853 -0.6356  0.2708 -0.5738
 4943SOL    HW126291   3.202   2.489  13.816 -0.4058 -0.0804 -0.2852
 4943SOL    HW226292   3.229   2.639  13.815  2.7238  1.5751 -0.4290
 4944SOL     OW26293   2.343   3.420  11.550  0.1832  0.3176  0.1067
 4944SOL    HW126294   2.300   3.354  11.606 -0.1771  0.0139 -0.5285
 4944SOL    HW226295   2.296   3.403  11.468  1.9464 -0.8660 -0.6626
 4945SOL     OW26296   0.271   4.406  16.210  0.4953 -1.0230 -0.1774
 4945SOL    HW126297   0.330   4.477  16.186  0.1015 -0.9655 -0.9878
 4945SOL    HW226298   0.247   4.419  16.302 -0.1027  0.6608 -0.5800
 4946SOL     OW26299   4.278   2.160   4.109 -0.6674  0.0256  0.3596
 4946SOL    HW126300   4.215   2.137   4.041  0.3711  1.0589 -0.9389
 4946SOL    HW226301   4.286   2.077   4.157 -2.2953 -1.4810 -1.9519
 4947SOL     OW26302   3.076   1.559   7.449  0.3065 -0.6469  0.4982
 4947SOL    HW126303   3.094   1.618   7.522 -0.8139 -0.8003  0.9099
 4947SOL    HW226304   3.101   1.606   7.370 -2.0370  1.3300  0.9456
 4948SOL     OW26305   1.573   1.446   8.599  0.4258  0.1676  0.6230
 4948SOL    HW126306   1.537   1.368   8.556 -1.1007  1.5182 -0.5723
 4948SOL    HW226307   1.500   1.505   8.618 -1.5273 -1.3319 -2.2813
 4949SOL     OW26308   0.084   3.755   7.195 -0.0414 -0.2660  0.5040
 4949SOL    HW126309   0.149   3.810   7.239  0.2227 -0.6420  0.5845
 4949SOL    HW226310   0.018   3.822   7.182  1.4011  1.2209  0.8001
 4950SOL     OW26311   0.036   1.917   4.049  0.0602 -0.2509 -0.0764
 4950SOL    HW126312   0.067   1.867   3.974  1.4104 -0.8850  0.9093
 4950SOL    HW226313   0.025   1.999   4.001  0.8756 -0.0224  0.1389
 4951SOL     OW26314   0.443   1.264   5.841  0.2717  0.1972 -0.6243
 4951SOL    HW126315   0.539   1.264   5.838  0.2279 -1.8777 -1.8315
 4951SOL    HW226316   0.439   1.295   5.932 -1.1564 -1.1237 -0.2584
 4952SOL     OW26317   0.875   0.447   8.555  0.4350 -0.2172 -0.3863
 4952SOL    HW126318   0.862   0.513   8.487  0.5749 -1.7682 -1.8957
 4952SOL    HW226319   0.839   0.366   8.520  0.7950 -0.1882 -0.8112
 4953SOL     OW26320   0.836   2.997  16.733  0.7748 -0.5192  0.6908
 4953SOL    HW126321   0.932   3.006  16.736  0.4377  2.5356  2.6351
 4953SOL    HW226322   0.810   3.009  16.824 -1.3517 -0.6231  0.0763
 4954SOL     OW26323   4.182   0.638  12.983  0.4422 -0.1432  0.0735
 4954SOL    HW126324   4.088   0.637  12.967 -0.0003  0.9296  2.6601
 4954SOL    HW226325   4.212   0.573  12.920  1.2289 -0.7682  1.1009
 4955SOL     OW26326   2.288   4.524   3.917 -0.3149  0.5311 -0.1729
 4955SOL    HW126327   2.263   4.466   3.845  1.6533 -1.9695  1.1633
 4955SOL    HW226328   2.325   4.594   3.863 -0.5338  1.4241  0.8344
 4956SOL     OW26329   2.342   4.142  15.425  0.0821  0.5869 -1.0357
 4956SOL    HW126330   2.395   4.108  15.353  0.4958  1.9147 -1.3474
 4956SOL    HW226331   2.400   4.210  15.457 -0.0328 -0.9675  2.4556
 4957SOL     OW26332   2.195   3.784   9.189  0.0931 -0.3539  0.4916
 4957SOL    HW126333   2.190   3.697   9.149  0.3912 -0.8918  1.6022
 4957SOL    HW226334   2.107   3.787   9.227 -0.0665 -0.7325  0.1522
 4958SOL     OW26335   0.195   2.251   5.171 -0.3827  0.0425 -0.1302
 4958SOL    HW126336   0.150   2.323   5.127  0.0952 -0.4655 -1.4329
 4958SOL    HW226337   0.164   2.176   5.120 -0.2997 -0.8883  1.1982
 4959SOL     OW26338   2.410   1.905   8.594  0.1663  0.3673  0.2349
 4959SOL    HW126339   2.346   1.834   8.598 -1.7612  2.1575  1.1077
 4959SOL    HW226340   2.419   1.910   8.499 -0.4331  3.3952  0.3083
 4960SOL     OW26341   3.469   2.395   4.430 -0.0253 -0.4544 -0.2119
 4960SOL    HW126342   3.496   2.483   4.406 -0.8819 -0.8376 -2.5842
 4960SOL    HW226343   3.551   2.348   4.413 -0.2125 -0.3091 -1.4840
 4961SOL     OW26344   2.839   2.499   7.691 -0.4026 -0.4865 -0.1953
 4961SOL    HW126345   2.857   2.585   7.730 -2.6813 -0.0124 -0.2119
 4961SOL    HW226346   2.907   2.494   7.624 -1.9795  1.8838 -1.9501
 4962SOL     OW26347   0.648   2.477   7.323 -0.3442 -0.0794 -0.0631
 4962SOL    HW126348   0.612   2.390   7.339  0.4089 -1.1900 -4.4268
 4962SOL    HW226349   0.581   2.522   7.272 -0.8061 -1.0748 -0.3372
 4963SOL     OW26350   0.956   3.901   6.371 -0.0693 -0.1121 -0.2650
 4963SOL    HW126351   0.878   3.851   6.397  0.4034  0.0020  1.3856
 4963SOL    HW226352   0.980   3.859   6.289  1.4340  1.9601 -0.8982
 4964SOL     OW26353   2.606   1.945  12.076 -0.7404 -0.1639 -0.0460
 4964SOL    HW126354   2.557   2.017  12.038  0.8577  0.1963 -1.4276
 4964SOL    HW226355   2.641   1.992  12.152 -0.0212 -1.4667  0.4349
 4965SOL     OW26356   2.074   0.755   7.455  0.0953 -0.5914 -0.4166
 4965SOL    HW126357   2.114   0.837   7.485 -0.3758 -1.6252  3.0648
 4965SOL    HW226358   2.153   0.704   7.437  0.3041 -0.3513 -0.1975
 4966SOL     OW26359   4.493   3.325   8.146 -0.2572  0.6456 -0.6370
 4966SOL    HW126360   4.524   3.404   8.190 -2.2033  2.6322 -2.7960
 4966SOL    HW226361   4.398   3.332   8.157 -0.2683  2.5067 -1.8444
 4967SOL     OW26362   0.816   1.038   7.886  0.7320  0.7557 -0.0535
 4967SOL    HW126363   0.881   1.001   7.825  1.5311  2.8604 -0.4727
 4967SOL    HW226364   0.868   1.062   7.962  2.9144 -0.5530 -1.1182
 4968SOL     OW26365   2.454   3.761   2.242  0.1734 -0.3379 -0.5063
 4968SOL    HW126366   2.375   3.718   2.208 -0.6341  0.7706 -0.0371
 4968SOL    HW226367   2.463   3.844   2.196  0.6063  0.2604  0.6753
 4969SOL     OW26368   1.780   2.241   0.301 -0.1813 -0.0371 -0.4220
 4969SOL    HW126369   1.791   2.268   0.210  1.4213  1.6038  0.2458
 4969SOL    HW226370   1.737   2.315   0.343  0.4490  0.4822 -0.6835
 4970SOL     OW26371   1.992   1.207   5.668  0.0414  0.2812  0.2604
 4970SOL    HW126372   2.015   1.285   5.617 -2.0051 -0.1886 -1.3800
 4970SOL    HW226373   1.912   1.233   5.713 -0.2278 -0.8976  0.4611
 4971SOL     OW26374   1.699   2.632   5.634 -0.0239 -0.3311 -0.0507
 4971SOL    HW126375   1.606   2.627   5.615  0.5726  0.9513 -3.3426
 4971SOL    HW226376   1.715   2.718   5.596  0.6556  0.1664  1.3684
 4972SOL     OW26377   0.733   3.755   4.568 -0.3207  0.0812 -0.5389
 4972SOL    HW126378   0.825   3.746   4.542  0.4541  0.4072  2.1180
 4972SOL    HW226379   0.713   3.662   4.577  0.9282 -0.0283  0.9988
 4973SOL     OW26380   4.582   1.406   3.282  0.6491  0.9217 -0.4708
 4973SOL    HW126381   4.676   1.420   3.274  0.6507  0.9985 -0.3167
 4973SOL    HW226382   4.560   1.382   3.192 -0.7558 -0.7132  0.3059
 4974SOL     OW26383   0.733   2.795   7.569  0.8394 -0.0029 -0.2297
 4974SOL    HW126384   0.664   2.730   7.560 -0.6244  1.4208  0.5563
 4974SOL    HW226385   0.791   2.754   7.633 -2.3123  1.4613  3.5901
 4975SOL     OW26386   3.899   1.704   0.521  0.3356  0.3050 -0.2448
 4975SOL    HW126387   3.841   1.693   0.597  0.5241 -1.0042 -0.2786
 4975SOL    HW226388   3.877   1.793   0.495 -1.2962  0.5107  1.7902
 4976SOL     OW26389   1.293   1.526   3.144  0.9170 -0.2901  0.8073
 4976SOL    HW126390   1.317   1.446   3.096  1.4358 -0.2761  1.0451
 4976SOL    HW226391   1.303   1.591   3.075  1.4627  0.8973  2.0241
 4977SOL     OW26392   1.684   1.557   4.167  0.2865 -0.0920 -0.3203
 4977SOL    HW126393   1.694   1.572   4.073  3.4505 -1.4404 -0.1895
 4977SOL    HW226394   1.775   1.560   4.194  0.9735 -1.7569 -2.4613
 4978SOL     OW26395   4.409   1.646   4.547  0.0240 -0.4454 -0.3635
 4978SOL    HW126396   4.373   1.564   4.581  1.0254 -1.8575 -2.7779
 4978SOL    HW226397   4.500   1.617   4.541  1.3205  3.5276 -0.4516
 4979SOL     OW26398   0.370   2.256   9.359  0.0680 -0.5863 -0.3401
 4979SOL    HW126399   0.321   2.323   9.312  2.5982  0.8711 -0.8843
 4979SOL    HW226400   0.299   2.218   9.411  1.2301 -0.9419  0.9824
 4980SOL     OW26401   0.186   2.215  12.975  0.1389 -0.1234 -0.0553
 4980SOL    HW126402   0.114   2.154  12.987 -1.4935  2.0527  1.2395
 4980SOL    HW226403   0.242   2.196  13.051 -0.9537 -2.9488  0.0467
 4981SOL     OW26404   0.778   0.209   8.816  0.0275  0.1512 -0.1718
 4981SOL    HW126405   0.705   0.228   8.875 -1.2208 -3.5783 -0.5325
 4981SOL    HW226406   0.761   0.115   8.826  1.6995 -0.0105  1.2498
 4982SOL     OW26407   1.293   0.069   3.433 -0.1559  0.6172  0.0438
 4982SOL    HW126408   1.332   0.016   3.502  0.7086  0.1441 -0.8118
 4982SOL    HW226409   1.217   0.013   3.417  0.9741 -0.4128 -1.7151
 4983SOL     OW26410   0.637   0.181   7.688  0.3608  0.0854 -0.0057
 4983SOL    HW126411   0.612   0.090   7.671  0.5564  0.6315 -3.2092
 4983SOL    HW226412   0.669   0.184   7.778 -0.8339  2.2415  0.3333
 4984SOL     OW26413   3.044   2.436   2.813  0.3513 -1.0065  0.1239
 4984SOL    HW126414   2.997   2.418   2.731 -0.3760 -0.0417  0.3311
 4984SOL    HW226415   3.114   2.371   2.812  0.9512 -0.3877  3.5660
 4985SOL     OW26416   4.297   1.475  16.383  0.0675  0.3032 -0.0871
 4985SOL    HW126417   4.365   1.445  16.323 -0.0068 -0.4343  0.1851
 4985SOL    HW226418   4.293   1.564  16.350  3.6274  0.3866 -0.1942
 4986SOL     OW26419   0.276   1.661   2.987 -0.1984  0.0212  0.1151
 4986SOL    HW126420   0.266   1.641   3.080  1.8983  1.7674  0.7039
 4986SOL    HW226421   0.333   1.736   2.999 -1.1469  0.8191 -0.3479
 4987SOL     OW26422   2.275   3.344   4.661  0.3968  0.1429  0.2223
 4987SOL    HW126423   2.346   3.280   4.664  2.1912  2.1408  0.2538
 4987SOL    HW226424   2.283   3.397   4.740  0.4449  1.7355 -0.8609
 4988SOL     OW26425   2.722   1.786  13.189 -0.4039 -0.0793 -0.2361
 4988SOL    HW126426   2.641   1.750  13.153 -0.7517  0.6986 -0.2173
 4988SOL    HW226427   2.785   1.754  13.125 -0.8814  0.3879 -0.9293
 4989SOL     OW26428   3.909   3.912   7.286  0.7180 -0.4173  0.6732
 4989SOL    HW126429   3.978   3.851   7.260  0.4551  0.2166 -1.5347
 4989SOL    HW226430   3.850   3.890   7.214 -0.6697  0.3367  1.5779
 4990SOL     OW26431   3.502   2.923  12.034 -0.3546 -0.2414 -0.7258
 4990SOL    HW126432   3.465   2.998  12.081  1.5192 -1.2999  2.4012
 4990SOL    HW226433   3.434   2.859  12.054 -0.2450  0.6716  2.5401
 4991SOL     OW26434   0.918   0.656   7.391 -0.1689  0.6396  0.2559
 4991SOL    HW126435   0.849   0.722   7.388  1.3334  2.1798 -0.0602
 4991SOL    HW226436   0.926   0.632   7.483 -4.6305  0.7976  0.6719
 4992SOL     OW26437   0.383   3.412   5.057  0.3276 -0.0722 -0.1278
 4992SOL    HW126438   0.289   3.431   5.048  0.8187  1.5777 -1.6732
 4992SOL    HW226439   0.383   3.318   5.075 -0.6111 -0.5271 -2.4416
 4993SOL     OW26440   3.971   0.249   8.086 -0.0630  0.1385 -0.6339
 4993SOL    HW126441   3.944   0.166   8.045  0.8904 -0.3909 -0.1969
 4993SOL    HW226442   4.063   0.253   8.062  0.6303 -1.0291  1.8587
 4994SOL     OW26443   4.515   0.398  15.610 -0.1654  0.4382 -0.2035
 4994SOL    HW126444   4.535   0.305  15.595 -1.4321  0.5685 -2.6936
 4994SOL    HW226445   4.602   0.431  15.634 -0.6371  0.6024  1.2965
 4995SOL     OW26446   4.616   1.695   7.801 -0.3633  0.0434 -0.0721
 4995SOL    HW126447   4.569   1.635   7.858 -1.0326 -0.5524 -1.2536
 4995SOL    HW226448   4.672   1.739   7.866 -1.2758  0.5022  0.3965
 4996SOL     OW26449   3.304   0.949   8.904  0.5617  0.1681  0.5502
 4996SOL    HW126450   3.355   0.970   8.825  0.1584  0.3674  0.3409
 4996SOL    HW226451   3.335   1.020   8.960  2.2742  0.3812 -0.6381
 4997SOL     OW26452   2.695   0.805   3.181 -0.2335  0.0387 -0.0860
 4997SOL    HW126453   2.618   0.814   3.125  1.4052  1.8172 -2.0394
 4997SOL    HW226454   2.747   0.747   3.126 -0.7601  0.8589 -1.4523
 4998SOL     OW26455   0.058   2.573   5.404 -0.4380  0.2594  0.2567
 4998SOL    HW126456   0.055   2.590   5.310 -0.9998 -0.4277  0.1446
 4998SOL    HW226457   0.015   2.646   5.448 -0.0492  1.1495 -0.8373
 4999SOL     OW26458   1.472   2.323   3.861 -0.0687 -0.1177  0.4946
 4999SOL    HW126459   1.445   2.233   3.840 -1.3745  0.7672 -1.5890
 4999SOL    HW226460   1.555   2.311   3.908  0.7532  2.2076 -0.3913
 5000SOL     OW26461   2.645   2.941   4.768  0.5449 -0.1798 -0.1116
 5000SOL    HW126462   2.644   2.846   4.779 -1.5112 -0.4806 -2.7960
 5000SOL    HW226463   2.737   2.965   4.760  0.3045  0.7081 -0.2533
 5001SOL     OW26464   3.532   2.528   5.149  0.5767  0.2718  0.0853
 5001SOL    HW126465   3.581   2.568   5.221 -1.1061  2.2420  0.1342
 5001SOL    HW226466   3.488   2.601   5.105  1.9836  0.8285 -0.3942
 5002SOL     OW26467   0.845   2.788  16.521  0.3239  0.2131  0.7715
 5002SOL    HW126468   0.837   2.862  16.581 -3.2691  0.0792  0.5113
 5002SOL    HW226469   0.823   2.816  16.432 -2.1154 -1.0779  0.9689
 5003SOL     OW26470   4.012   3.097   8.063  0.0215  0.6094  0.1948
 5003SOL    HW126471   3.931   3.148   8.063  0.3073  1.0644  0.1120
 5003SOL    HW226472   4.034   3.094   7.970 -0.2473 -0.9813  0.1782
 5004SOL     OW26473   2.968   3.379  10.965 -0.4022 -0.6467 -0.0579
 5004SOL    HW126474   2.928   3.384  10.879  1.2262 -1.5387 -0.8676
 5004SOL    HW226475   3.037   3.312  10.970 -1.2568 -1.5471 -0.2848
 5005SOL     OW26476   2.732   3.378   6.978 -0.1080 -0.2142 -0.0117
 5005SOL    HW126477   2.775   3.414   6.901  1.7177 -1.2118  0.5283
 5005SOL    HW226478   2.671   3.325   6.928 -1.0466  1.1824 -0.3429
 5006SOL     OW26479   2.035   3.581  17.035  0.1809 -0.0845 -0.0565
 5006SOL    HW126480   1.988   3.611  17.113  1.8160 -0.4867  1.0851
 5006SOL    HW226481   1.991   3.499  17.014 -1.2870  0.2505  1.7692
 5007SOL     OW26482   1.438   3.772   4.670 -0.1592 -0.0235 -0.5718
 5007SOL    HW126483   1.424   3.811   4.584  0.6336  0.8916 -0.2769
 5007SOL    HW226484   1.417   3.678   4.663  0.6861 -0.2632  0.1739
 5008SOL     OW26485   0.626   2.644   6.756  0.0270  0.0659  0.7628
 5008SOL    HW126486   0.683   2.654   6.833  1.5509 -2.1253 -0.0868
 5008SOL    HW226487   0.563   2.712   6.779  3.0777  2.6159  1.6236
 5009SOL     OW26488   0.152   0.347  10.862 -0.6655  0.4327 -0.5413
 5009SOL    HW126489   0.095   0.294  10.806 -0.2368 -1.8846  1.1949
 5009SOL    HW226490   0.238   0.319  10.829 -0.0552 -1.1699  2.4465
 5010SOL     OW26491   1.418   2.011   5.554  0.0005 -0.2505  0.0059
 5010SOL    HW126492   1.361   2.082   5.525  2.3344  1.5954 -0.0915
 5010SOL    HW226493   1.360   1.959   5.609 -0.0315 -1.1858 -0.9052
 5011SOL     OW26494   3.068   3.234  12.098  0.3067  0.3793 -0.3046
 5011SOL    HW126495   3.050   3.176  12.172  1.2389  2.8424  1.8250
 5011SOL    HW226496   3.137   3.292  12.128  0.6829  1.1727 -2.7129
 5012SOL     OW26497   1.623   3.118  11.419  0.0467  0.1443  0.0485
 5012SOL    HW126498   1.660   3.032  11.438 -0.6627 -0.1161  0.2637
 5012SOL    HW226499   1.704   3.158  11.387  0.5067 -1.3955 -0.7108
 5013SOL     OW26500   2.911   3.013   0.941 -0.2932 -0.3560 -0.3980
 5013SOL    HW126501   2.924   2.920   0.959  2.1287 -0.1765 -1.1793
 5013SOL    HW226502   2.817   3.021   0.926 -0.1140 -0.0641 -1.3060
 5014SOL     OW26503   1.313   0.808   5.354  0.7815  0.3590  0.0852
 5014SOL    HW126504   1.252   0.745   5.393 -0.1171  2.6570  2.3618
 5014SOL    HW226505   1.379   0.820   5.422 -0.3710  0.8881  1.0902
 5015SOL     OW26506   0.714   3.763   5.469  0.0787  0.7414  0.2845
 5015SOL    HW126507   0.799   3.797   5.443 -0.5018  1.4729 -0.6513
 5015SOL    HW226508   0.664   3.827   5.418  1.2879  0.4229 -1.2858
 5016SOL     OW26509   3.988   1.391   5.348  0.3180  0.5277 -0.5200
 5016SOL    HW126510   3.894   1.413   5.349  0.4217  0.9861 -0.6361
 5016SOL    HW226511   3.981   1.324   5.280 -2.5057 -2.0439  2.3012
 5017SOL     OW26512   0.398   0.504   8.140  0.0712  0.4242  0.4153
 5017SOL    HW126513   0.442   0.544   8.065  0.0816  0.6498  0.5428
 5017SOL    HW226514   0.458   0.429   8.146  1.6544  1.7947  1.5444
 5018SOL     OW26515   1.922   3.580   7.259 -0.4021 -0.2773  0.2229
 5018SOL    HW126516   1.896   3.586   7.168 -1.0350 -1.6878  0.3107
 5018SOL    HW226517   2.012   3.548   7.247 -0.7592 -1.2119  0.0319
 5019SOL     OW26518   4.112   2.396   3.882  0.4058  0.5658  0.4645
 5019SOL    HW126519   4.070   2.417   3.965 -0.6859 -0.6249  0.2077
 5019SOL    HW226520   4.171   2.326   3.910  0.4337 -0.0402 -1.0900
 5020SOL     OW26521   3.161   3.317   7.886  0.1400 -0.1202  0.0518
 5020SOL    HW126522   3.200   3.329   7.799  0.2913  2.2920  0.4580
 5020SOL    HW226523   3.221   3.253   7.925  1.7301  0.3213 -1.6668
 5021SOL     OW26524   3.035   3.610   5.120  0.4950  0.7737  0.1884
 5021SOL    HW126525   2.970   3.556   5.165  2.0263 -0.1768  1.2809
 5021SOL    HW226526   2.988   3.692   5.111 -1.2368 -0.4479 -1.9806
 5022SOL     OW26527   4.326   1.876  12.436 -0.1700  0.4482  0.2951
 5022SOL    HW126528   4.319   1.781  12.424  0.4868  0.2489  1.4321
 5022SOL    HW226529   4.407   1.878  12.385 -1.7449 -2.4413 -2.2968
 5023SOL     OW26530   2.087   2.450   9.399  0.1850 -0.1518 -0.2819
 5023SOL    HW126531   2.064   2.367   9.357 -0.9044  0.8290 -1.6337
 5023SOL    HW226532   2.081   2.426   9.491 -0.0599 -2.3666 -0.8957
 5024SOL     OW26533   0.249   0.837  16.692  0.7649 -0.0001 -0.0053
 5024SOL    HW126534   0.163   0.874  16.712  1.3995  2.1374 -1.2671
 5024SOL    HW226535   0.237   0.745  16.716 -1.9139  0.0759 -1.1461
 5025SOL     OW26536   0.748   4.234   6.502  0.2805  0.2468 -0.3621
 5025SOL    HW126537   0.803   4.172   6.455 -0.6932 -0.2881 -0.8077
 5025SOL    HW226538   0.809   4.279   6.560 -1.8654  1.9188  0.6060
 5026SOL     OW26539   3.180   1.160   7.891  0.2457 -0.1158 -0.0433
 5026SOL    HW126540   3.271   1.131   7.885  0.1708 -0.1142 -1.1235
 5026SOL    HW226541   3.141   1.133   7.808 -1.5332  1.7192  0.2197
 5027SOL     OW26542   3.165   1.588   8.438  0.4587 -0.3954  0.3211
 5027SOL    HW126543   3.169   1.640   8.519  0.1206 -1.3881  0.9701
 5027SOL    HW226544   3.253   1.551   8.442  0.9391  0.7761  0.8048
 5028SOL     OW26545   3.702   1.755   5.789  0.1380 -0.5378  0.0888
 5028SOL    HW126546   3.787   1.716   5.766  0.1607  0.6378 -1.8169
 5028SOL    HW226547   3.670   1.798   5.710 -1.9576  0.7091  1.6388
 5029SOL     OW26548   0.012   4.450   5.914  0.2091 -0.7015  0.2198
 5029SOL    HW126549   0.049   4.498   5.840 -1.4004  1.8517  1.0593
 5029SOL    HW226550   4.683   4.379   5.876  0.8415  0.6895 -3.2587
 5030SOL     OW26551   0.272   4.298  14.790  0.0104 -0.0586  0.1259
 5030SOL    HW126552   0.350   4.281  14.843 -0.1310 -1.3654 -0.0902
 5030SOL    HW226553   0.272   4.227  14.725 -3.1143  2.7671 -2.9517
 5031SOL     OW26554   2.127   3.845   4.117 -0.0780  0.2315  0.1450
 5031SOL    HW126555   2.144   3.887   4.201 -1.0168 -0.3495  0.6272
 5031SOL    HW226556   2.134   3.924   4.063  0.9897  0.5081  0.7077
 5032SOL     OW26557   1.466   4.306   2.871  0.1071 -0.3978  0.0757
 5032SOL    HW126558   1.519   4.322   2.949  1.8529 -0.2052 -1.1398
 5032SOL    HW226559   1.415   4.228   2.892  0.6724 -0.8264 -0.1515
 5033SOL     OW26560   4.212   0.165   7.981 -0.4003 -0.6708  0.1877
 5033SOL    HW126561   4.141   0.112   7.944 -0.9026  0.2480 -0.1516
 5033SOL    HW226562   4.233   0.114   8.059 -1.1909 -0.3124  0.6390
 5034SOL     OW26563   1.116   1.753   8.455 -0.1165  0.1067  0.2883
 5034SOL    HW126564   1.166   1.754   8.374 -0.2740  0.0922  0.1904
 5034SOL    HW226565   1.040   1.698   8.435  1.5106 -1.3743 -1.7478
 5035SOL     OW26566   2.810   4.251   4.910 -0.3199 -0.2073  0.1957
 5035SOL    HW126567   2.845   4.186   4.849 -0.1231 -1.2660  1.4292
 5035SOL    HW226568   2.805   4.195   4.988  1.9236  1.1371  1.2829
 5036SOL     OW26569   1.412   4.274   0.496  0.2808  0.1866  0.3619
 5036SOL    HW126570   1.349   4.325   0.548  0.2061  0.6259 -0.1575
 5036SOL    HW226571   1.439   4.337   0.430  1.0377 -0.2296  0.2830
 5037SOL     OW26572   3.779   2.542   8.742  0.1517 -0.1709 -0.5847
 5037SOL    HW126573   3.795   2.513   8.832  1.9295  1.0429 -0.5140
 5037SOL    HW226574   3.791   2.637   8.752 -2.6133  0.1499 -0.2179
 5038SOL     OW26575   1.908   3.792  15.488  0.1571 -0.3298  0.0324
 5038SOL    HW126576   1.983   3.851  15.494 -0.1750  0.1640 -0.8384
 5038SOL    HW226577   1.854   3.843  15.429  2.3615  0.3987 -1.3547
 5039SOL     OW26578   1.168   0.691   8.300  0.0128  1.0393  0.2146
 5039SOL    HW126579   1.077   0.671   8.321  0.1919  1.4725  1.4341
 5039SOL    HW226580   1.154   0.779   8.266  2.3277  0.8275 -1.3143
 5040SOL     OW26581   0.781   3.744   1.131  0.3640  0.3390 -0.0774
 5040SOL    HW126582   0.699   3.743   1.081  0.5734 -0.6149 -0.3955
 5040SOL    HW226583   0.826   3.660   1.121  1.3615  0.9670 -0.7865
 5041SOL     OW26584   2.721   4.624  15.989  0.0834 -0.4520 -0.1636
 5041SOL    HW126585   2.811   4.654  15.975 -1.0238  2.1209 -1.7261
 5041SOL    HW226586   2.679   4.646  15.906  2.5153  2.3201 -0.6519
 5042SOL     OW26587   3.039   1.008   7.494  0.3595 -0.4001 -0.6327
 5042SOL    HW126588   3.057   0.916   7.473 -0.3617 -0.6348 -0.2381
 5042SOL    HW226589   3.073   1.045   7.413  0.0898 -0.5497 -0.8151
 5043SOL     OW26590   1.522   0.501  17.315  0.2550  0.0941  0.1361
 5043SOL    HW126591   1.454   0.565  17.294  0.1441  0.8248  2.7406
 5043SOL    HW226592   1.571   0.503  17.233  1.3708  1.2603  0.8415
 5044SOL     OW26593   3.568   0.113  10.184  0.3774 -0.1415  0.6879
 5044SOL    HW126594   3.560   0.203  10.154  1.8109 -0.0159  0.6877
 5044SOL    HW226595   3.590   0.074  10.099  0.9638 -0.9497  1.2057
 5045SOL     OW26596   4.576   2.231  10.007  0.2821 -0.3524  0.0942
 5045SOL    HW126597   4.516   2.172  10.053 -0.4418 -1.1740 -1.9303
 5045SOL    HW226598   4.646   2.237  10.073  1.7279 -0.4376 -1.4377
 5046SOL     OW26599   1.680   4.216   1.734 -0.4649 -0.2080  0.3843
 5046SOL    HW126600   1.610   4.249   1.791 -0.7425  0.1196 -0.1436
 5046SOL    HW226601   1.627   4.199   1.656  1.3534  1.8252 -1.2860
 5047SOL     OW26602   2.930   3.168   7.002 -0.0615  0.5548  0.0941
 5047SOL    HW126603   2.881   3.128   6.930 -1.9690 -2.7235  3.2752
 5047SOL    HW226604   2.874   3.243   7.020 -0.5110  1.1488 -3.7897
 5048SOL     OW26605   0.074   2.417   4.004  0.3718  0.4523  0.3844
 5048SOL    HW126606   0.010   2.352   3.977  0.6717  0.4245 -0.2654
 5048SOL    HW226607   0.154   2.370   3.984  0.1518 -0.1568  0.9523
 5049SOL     OW26608   1.147   4.617   1.992 -0.1321  0.1058 -0.6029
 5049SOL    HW126609   1.147   4.655   2.080  1.5291  0.6992 -0.8606
 5049SOL    HW226610   1.115   4.687   1.936  0.1848  0.5515 -0.2235
 5050SOL     OW26611   3.896   2.412  16.785  0.0651  0.0969 -0.5152
 5050SOL    HW126612   3.831   2.377  16.846 -0.6202 -0.1240 -1.3816
 5050SOL    HW226613   3.924   2.491  16.833 -0.3536 -1.1606  1.8137
 5051SOL     OW26614   2.143   1.498  11.785 -0.0421 -0.3424  0.0961
 5051SOL    HW126615   2.099   1.415  11.767  0.4898 -0.7645  0.7255
 5051SOL    HW226616   2.063   1.549  11.795  0.2550 -0.0444  0.9163
 5052SOL     OW26617   3.911   4.479   6.979 -0.3528  0.5040 -0.2219
 5052SOL    HW126618   3.993   4.448   6.940 -0.4611  1.5050 -1.2676
 5052SOL    HW226619   3.872   4.395   7.004 -0.0954  0.6292  0.5924
 5053SOL     OW26620   1.129   3.284   4.945  0.0069  0.2703 -0.5255
 5053SOL    HW126621   1.087   3.282   4.859  1.9262  0.4421 -1.4642
 5053SOL    HW226622   1.087   3.356   4.992  1.1319 -1.4427  3.1012
 5054SOL     OW26623   2.035   2.664  11.383  0.3108  0.5359 -0.2989
 5054SOL    HW126624   2.096   2.592  11.395  0.2012  0.4305 -0.3719
 5054SOL    HW226625   1.959   2.630  11.431 -1.0352  1.4489 -1.7647
 5055SOL     OW26626   0.206   0.774   8.223  0.7291 -0.5572  0.3541
 5055SOL    HW126627   0.251   0.818   8.150 -2.1321 -1.8810 -2.2117
 5055SOL    HW226628   0.215   0.840   8.291 -0.4491 -0.9978  0.9392
 5056SOL     OW26629   3.723   0.115   4.393 -0.3124  0.5442  0.1324
 5056SOL    HW126630   3.757   0.148   4.310  1.2287 -4.5084 -1.2617
 5056SOL    HW226631   3.770   0.174   4.451  0.8348 -0.2338 -0.0041
 5057SOL     OW26632   2.646   0.875   3.682  0.1623  0.8451 -0.0221
 5057SOL    HW126633   2.731   0.844   3.651 -0.3822  1.4751 -2.1501
 5057SOL    HW226634   2.594   0.829   3.617 -0.6974  0.3419  1.0185
 5058SOL     OW26635   0.346   2.805   6.417  0.4522  0.2114  0.3639
 5058SOL    HW126636   0.375   2.717   6.392  1.3116  0.0372  1.9595
 5058SOL    HW226637   0.427   2.855   6.425 -1.1651  2.9963 -0.7976
 5059SOL     OW26638   1.959   3.740   2.938  0.6187  0.7703  0.5344
 5059SOL    HW126639   1.979   3.699   3.022 -1.2053  0.2349  0.7061
 5059SOL    HW226640   1.952   3.833   2.963  0.6982  0.3501  2.1556
 5060SOL     OW26641   2.405   3.369   2.496  0.3718 -0.0044  0.1936
 5060SOL    HW126642   2.472   3.424   2.537 -0.2739  1.6735 -0.9796
 5060SOL    HW226643   2.460   3.323   2.434  1.5219  0.0277  1.1909
 5061SOL     OW26644   3.096   3.495   8.622 -0.4247  0.3868 -0.0054
 5061SOL    HW126645   3.003   3.506   8.642 -0.5933 -0.9880 -0.0221
 5061SOL    HW226646   3.122   3.559   8.555  1.8731  1.5300  1.9812
 5062SOL     OW26647   3.119   1.669  16.035 -0.3886  0.0579  0.5336
 5062SOL    HW126648   3.185   1.637  16.097  0.1776  1.8038  0.8307
 5062SOL    HW226649   3.118   1.604  15.964  3.1517  2.8030 -2.0387
 5063SOL     OW26650   3.404   4.310   6.184 -0.5579 -0.4026  0.1614
 5063SOL    HW126651   3.412   4.228   6.134 -1.5216 -1.1320  1.2175
 5063SOL    HW226652   3.395   4.282   6.275 -1.7418  2.3349  0.8975
 5064SOL     OW26653   2.800   2.123   7.462 -0.1763 -0.0188 -0.6034
 5064SOL    HW126654   2.833   2.035   7.481 -0.8249 -0.5517 -1.9228
 5064SOL    HW226655   2.770   2.107   7.373 -1.2734 -2.3857  0.1870
 5065SOL     OW26656   1.635   3.275   6.191  0.3547  0.0045  0.8075
 5065SOL    HW126657   1.560   3.293   6.135  1.7719  0.6385 -0.8741
 5065SOL    HW226658   1.681   3.358   6.176 -2.3724  1.4324  0.4337
 5066SOL     OW26659   0.480   3.988   1.163 -0.2944  0.7207  0.2901
 5066SOL    HW126660   0.477   3.990   1.258 -0.7227 -3.4050  0.3404
 5066SOL    HW226661   0.517   3.901   1.149  0.2698  1.1920 -1.1663
 5067SOL     OW26662   2.145   1.293   3.262  0.6081  0.5741  0.0545
 5067SOL    HW126663   2.066   1.298   3.315  0.0753  1.7349 -0.8400
 5067SOL    HW226664   2.197   1.370   3.284 -2.6684  2.5150  0.9494
 5068SOL     OW26665   2.993   3.221   4.022 -1.2239 -0.4264  0.0954
 5068SOL    HW126666   2.925   3.203   4.088  0.0057 -0.9003  1.2281
 5068SOL    HW226667   2.962   3.307   3.993  1.3068  0.7807  1.0098
 5069SOL     OW26668   3.681   0.655   2.765 -0.1683  0.2940  0.7602
 5069SOL    HW126669   3.674   0.726   2.702  1.1099 -0.2574 -0.0037
 5069SOL    HW226670   3.735   0.691   2.836  1.2211  2.1789 -1.2364
 5070SOL     OW26671   2.629   0.155  11.619 -0.2452 -0.1355 -0.0700
 5070SOL    HW126672   2.718   0.119  11.617 -0.0343  0.3672  0.1166
 5070SOL    HW226673   2.588   0.120  11.541 -0.0331 -0.9634  0.1951
 5071SOL     OW26674   1.760   3.688   9.828  0.5232 -0.1398 -0.1241
 5071SOL    HW126675   1.706   3.718   9.902  0.0003 -1.4330  0.0207
 5071SOL    HW226676   1.747   3.593   9.837  1.3652 -0.3027 -0.6790
 5072SOL     OW26677   2.862   3.084   6.765  0.6007 -0.0812  0.8320
 5072SOL    HW126678   2.839   3.079   6.673 -0.2371 -1.4785  1.1141
 5072SOL    HW226679   2.950   3.046   6.764  1.0912  1.0141  2.1360
 5073SOL     OW26680   2.789   2.841  11.489 -0.0079 -0.2696 -1.2385
 5073SOL    HW126681   2.803   2.932  11.461  1.0360  0.0617  0.3498
 5073SOL    HW226682   2.883   2.823  11.483 -0.0252 -0.5312 -0.7138
 5074SOL     OW26683   0.085   2.473  13.622  0.2372 -0.2259  0.8560
 5074SOL    HW126684   0.174   2.491  13.592 -0.5780  2.0603 -0.2425
 5074SOL    HW226685   0.050   2.415  13.555  1.1099 -1.8096  1.7721
 5075SOL     OW26686   2.267   1.609  10.181 -0.1332 -0.4156 -0.1649
 5075SOL    HW126687   2.195   1.589  10.121  1.4198 -1.3124 -1.7167
 5075SOL    HW226688   2.337   1.622  10.117  0.6101  1.4650  1.0359
 5076SOL     OW26689   4.666   1.171  17.204  0.2737 -0.4416  0.3846
 5076SOL    HW126690   4.625   1.131  17.127  0.5507  0.2530 -0.1211
 5076SOL    HW226691   4.666   1.262  17.177 -0.8589 -0.6643 -0.3557
 5077SOL     OW26692   3.881   4.375   3.327 -0.3837 -0.3140  0.7297
 5077SOL    HW126693   3.840   4.325   3.256  1.1125 -0.0030 -0.3665
 5077SOL    HW226694   3.832   4.457   3.318  0.4729  0.1003 -0.2340
 5078SOL     OW26695   3.259   2.236   2.805  0.0878 -0.0882 -0.1203
 5078SOL    HW126696   3.209   2.155   2.807 -0.7900  0.4516 -0.0627
 5078SOL    HW226697   3.339   2.204   2.764 -0.8691  0.5307 -2.5178
 5079SOL     OW26698   1.871   1.628   2.516  0.1630 -0.1700 -0.0041
 5079SOL    HW126699   1.868   1.540   2.479 -3.6218  0.0052 -0.1430
 5079SOL    HW226700   1.801   1.634   2.582 -0.3365  2.2234 -0.7362
 5080SOL     OW26701   1.322   3.772  10.015 -0.3190  0.2441  0.0803
 5080SOL    HW126702   1.374   3.728   9.948  1.3471 -1.6754  2.6367
 5080SOL    HW226703   1.321   3.712  10.090 -0.1977  0.1522  0.0083
 5081SOL     OW26704   4.512   1.831   5.898 -0.1036 -0.1653 -0.3046
 5081SOL    HW126705   4.543   1.775   5.827  3.9097  2.9678 -1.0064
 5081SOL    HW226706   4.573   1.905   5.890 -1.6881  1.0579 -0.9827
 5082SOL     OW26707   2.250   3.718  15.557 -0.4860 -0.6875  0.1949
 5082SOL    HW126708   2.248   3.669  15.475 -1.8558  0.0967 -0.2505
 5082SOL    HW226709   2.225   3.805  15.526 -1.5555 -1.0183  0.1012
 5083SOL     OW26710   4.589   1.956   6.663 -0.4148  0.1982  0.0908
 5083SOL    HW126711   4.497   1.932   6.653 -0.0238 -0.7986 -1.1014
 5083SOL    HW226712   4.595   2.008   6.743 -1.8143  0.4581  0.0155
 5084SOL     OW26713   2.554   4.505   3.432  0.2586  0.0488 -0.9066
 5084SOL    HW126714   2.575   4.530   3.342  1.3519  1.6688 -0.2099
 5084SOL    HW226715   2.471   4.462   3.411 -0.4011  0.0188  1.8074
 5085SOL     OW26716   0.106   3.225   4.813 -0.0279  0.1239  0.3585
 5085SOL    HW126717   0.123   3.319   4.808 -1.1986  0.3550  0.6652
 5085SOL    HW226718   0.139   3.200   4.900  0.7418 -0.5753 -0.1446
 5086SOL     OW26719   1.232   0.424   9.092  0.1466  0.4177 -0.0394
 5086SOL    HW126720   1.234   0.506   9.043  0.5044  0.3156 -0.1940
 5086SOL    HW226721   1.325   0.403   9.092 -0.4080 -2.0908 -1.0930
 5087SOL     OW26722   1.333   1.719   1.961 -0.5970  0.0530 -0.0282
 5087SOL    HW126723   1.428   1.720   1.949 -1.0026  2.1702 -3.3117
 5087SOL    HW226724   1.328   1.677   2.047  1.5580 -0.6769 -0.2839
 5088SOL     OW26725   2.775   0.435  13.537 -0.0140 -0.2687 -0.9310
 5088SOL    HW126726   2.830   0.495  13.487  1.4114 -1.4453 -0.7781
 5088SOL    HW226727   2.786   0.471  13.625 -0.0048  0.3541 -1.1841
 5089SOL     OW26728   3.190   4.249  12.234  0.2699 -0.1917 -0.2438
 5089SOL    HW126729   3.141   4.244  12.316  2.0780 -1.9170  0.7455
 5089SOL    HW226730   3.269   4.293  12.266  2.5154 -3.7770 -0.8109
 5090SOL     OW26731   1.190   1.598   9.528 -0.2595 -0.2468  0.0068
 5090SOL    HW126732   1.112   1.650   9.546  0.4297  1.0204 -0.6846
 5090SOL    HW226733   1.212   1.578   9.619  1.5632 -0.5480 -0.5076
 5091SOL     OW26734   1.238   0.904  10.831 -0.0851  0.2822 -0.1693
 5091SOL    HW126735   1.255   0.932  10.741 -1.8976  1.1177 -0.2540
 5091SOL    HW226736   1.205   0.815  10.818  0.6638  0.1828 -1.4760
 5092SOL     OW26737   1.227   1.485   3.544  0.2310  0.1687 -0.2650
 5092SOL    HW126738   1.316   1.454   3.527  0.3693  0.3430  0.1469
 5092SOL    HW226739   1.251   1.553   3.607  0.9522  0.5564 -0.9657
 5093SOL     OW26740   0.268   1.585   3.531 -0.0052 -0.1161  0.0379
 5093SOL    HW126741   0.247   1.497   3.560 -0.9084  0.3854  0.8992
 5093SOL    HW226742   0.181   1.626   3.534 -0.7944 -1.7626 -0.7088
 5094SOL     OW26743   3.388   4.497  13.138 -0.3573  0.8271  0.1435
 5094SOL    HW126744   3.350   4.515  13.052 -1.9675  1.2996  0.9485
 5094SOL    HW226745   3.428   4.411  13.125 -1.5118  0.4585 -1.0028
 5095SOL     OW26746   3.403   1.024  15.337  0.2907 -0.4874  0.1541
 5095SOL    HW126747   3.383   1.057  15.425 -0.3739 -0.0467 -0.1648
 5095SOL    HW226748   3.329   0.969  15.312 -0.3039  0.1283  0.5341
 5096SOL     OW26749   1.157   0.044   5.666 -0.1359  0.0210 -0.7638
 5096SOL    HW126750   1.110   0.056   5.749  1.0087 -1.6926  0.1239
 5096SOL    HW226751   1.222   0.111   5.683  0.0480 -1.2956  3.6302
 5097SOL     OW26752   1.057   2.129   4.556 -0.1537 -0.5553 -0.3650
 5097SOL    HW126753   1.044   2.122   4.650 -0.0265 -0.0097 -0.3021
 5097SOL    HW226754   1.145   2.095   4.541 -1.1095 -2.9332 -0.4473
 5098SOL     OW26755   0.948   3.175   6.621  0.1914  0.0659  0.0530
 5098SOL    HW126756   0.971   3.091   6.581 -1.2334 -0.6426  0.7222
 5098SOL    HW226757   0.902   3.147   6.700 -1.5199  0.7525 -0.7155
 5099SOL     OW26758   3.820   3.370   8.812 -0.0902 -0.1110  0.2192
 5099SOL    HW126759   3.894   3.418   8.849  0.2795 -0.2724 -0.3107
 5099SOL    HW226760   3.748   3.393   8.870 -0.5348 -1.4390  0.1965
 5100SOL     OW26761   4.007   2.189   5.888 -0.0144  0.1300 -0.7377
 5100SOL    HW126762   3.931   2.160   5.939  0.7989  0.7496  0.8451
 5100SOL    HW226763   4.042   2.248   5.955 -0.9124 -0.8926  0.6588
 5101SOL     OW26764   3.084   1.769   7.643  0.0691 -0.3127 -0.3665
 5101SOL    HW126765   3.008   1.782   7.700 -0.1095  2.2240 -1.1938
 5101SOL    HW226766   3.103   1.861   7.623 -0.3404 -0.0680  0.3674
 5102SOL     OW26767   4.440   3.839  16.543 -0.1807 -0.5612 -1.4307
 5102SOL    HW126768   4.483   3.771  16.594  0.7982  1.4125  0.3809
 5102SOL    HW226769   4.518   3.884  16.511 -0.4473  1.4141  0.6421
 5103SOL     OW26770   4.522   1.792   6.202 -0.1443 -0.2471  0.4401
 5103SOL    HW126771   4.514   1.760   6.112 -0.7062 -2.3029  1.2408
 5103SOL    HW226772   4.598   1.848   6.186  0.0821 -0.8320 -0.5302
 5104SOL     OW26773   4.518   2.137   4.645 -0.4865 -0.2631 -0.7095
 5104SOL    HW126774   4.599   2.126   4.595  0.4671  0.3405  0.7006
 5104SOL    HW226775   4.468   2.058   4.624  0.4262 -1.1522  0.4867
 5105SOL     OW26776   3.201   3.140   1.011 -0.2643 -0.0777  0.2421
 5105SOL    HW126777   3.200   3.152   0.916 -4.8327  1.8543  0.5287
 5105SOL    HW226778   3.233   3.227   1.034  0.2155  0.0037 -0.7375
 5106SOL     OW26779   2.641   1.115   4.320 -0.3415 -0.2341  0.0382
 5106SOL    HW126780   2.725   1.118   4.367  0.2363 -0.3418 -0.9775
 5106SOL    HW226781   2.603   1.196   4.353 -0.3033 -0.3456  0.3541
 5107SOL     OW26782   2.805   2.951   2.787 -0.0324  0.1580  0.1145
 5107SOL    HW126783   2.762   2.932   2.871 -0.4016 -0.0468 -0.1245
 5107SOL    HW226784   2.832   2.863   2.764  1.0809  0.0410  1.8405
 5108SOL     OW26785   2.838   4.013  13.918 -0.0484 -0.0729  0.7197
 5108SOL    HW126786   2.876   3.931  13.952  1.8367  0.2717 -0.5549
 5108SOL    HW226787   2.752   3.979  13.896 -0.5284  1.2886  0.5197
 5109SOL     OW26788   3.110   2.273  15.485  0.2072 -0.2026  0.0878
 5109SOL    HW126789   3.017   2.253  15.493  0.7756 -1.9265  2.4713
 5109SOL    HW226790   3.137   2.279  15.577  2.8782 -4.3953 -0.3675
 5110SOL     OW26791   2.848   4.447   4.207  0.0646  0.3533  0.2406
 5110SOL    HW126792   2.824   4.370   4.155 -0.3449 -0.1886  1.2398
 5110SOL    HW226793   2.835   4.401   4.289 -2.0353 -1.2857 -1.0253
 5111SOL     OW26794   1.508   0.206   4.348 -0.0695  0.2742 -0.1053
 5111SOL    HW126795   1.570   0.250   4.407  0.3841  1.8415 -1.7531
 5111SOL    HW226796   1.529   0.252   4.267  0.5573 -0.7790 -0.5227
 5112SOL     OW26797   1.140   2.816   4.077  0.1113  0.1858 -0.0463
 5112SOL    HW126798   1.084   2.815   4.000 -1.1916 -2.2000  0.9198
 5112SOL    HW226799   1.077   2.837   4.146  0.9747 -0.5102  0.9608
 5113SOL     OW26800   4.154   1.904   5.277 -0.0997  0.1530 -0.2240
 5113SOL    HW126801   4.124   1.815   5.257 -1.7692  0.1558  2.2148
 5113SOL    HW226802   4.244   1.890   5.305 -0.1807  1.0747  0.4993
 5114SOL     OW26803   3.222   1.231   2.641 -0.3648 -0.2081 -0.0274
 5114SOL    HW126804   3.254   1.169   2.707 -1.0250 -1.8931 -1.3028
 5114SOL    HW226805   3.161   1.172   2.597 -1.0439 -0.2940  1.0161
 5115SOL     OW26806   4.640   0.049   1.350  0.1867  0.6063 -0.1763
 5115SOL    HW126807   4.616   0.050   1.257 -2.0041  2.2757  0.4360
 5115SOL    HW226808   0.012   0.027   1.346 -0.5199 -2.7790  2.2135
 5116SOL     OW26809   2.332   1.222  16.530  0.5007  0.4552 -0.1511
 5116SOL    HW126810   2.356   1.267  16.449  2.5366  0.4168  0.4130
 5116SOL    HW226811   2.281   1.146  16.502 -0.1042 -0.3173  3.0886
 5117SOL     OW26812   1.510   0.688  12.543  0.3625  0.1439 -0.9521
 5117SOL    HW126813   1.586   0.734  12.578 -1.4714  1.7986  0.7931
 5117SOL    HW226814   1.480   0.756  12.483  1.0416  1.4071  0.1629
 5118SOL     OW26815   4.482   2.695  16.111  0.1399 -0.2158  0.0769
 5118SOL    HW126816   4.460   2.613  16.067 -1.2386  1.2215 -1.8928
 5118SOL    HW226817   4.558   2.664  16.161 -0.0123 -0.3947  0.1972
 5119SOL     OW26818   2.732   3.482   2.771  0.2672  0.2918 -0.6465
 5119SOL    HW126819   2.736   3.519   2.859  0.0560 -1.3643  0.0601
 5119SOL    HW226820   2.695   3.397   2.796  0.3873  0.4671  0.1229
 5120SOL     OW26821   1.752   0.306   6.076  0.2697  0.0443 -0.5977
 5120SOL    HW126822   1.764   0.213   6.059 -0.7501 -0.1111 -0.4352
 5120SOL    HW226823   1.765   0.307   6.171 -1.2106  1.3039 -0.4134
 5121SOL     OW26824   0.108   0.507   8.816 -0.0243 -0.1885 -0.2464
 5121SOL    HW126825   0.106   0.464   8.731  0.5688 -0.0400 -0.3337
 5121SOL    HW226826   0.018   0.482   8.836  0.3732 -0.6011  1.0148
 5122SOL     OW26827   2.740   0.587   4.573 -0.8363 -0.3073 -0.0351
 5122SOL    HW126828   2.785   0.521   4.626  0.3525  2.4447  2.3427
 5122SOL    HW226829   2.754   0.675   4.608 -0.2639 -0.2238 -0.4798
 5123SOL     OW26830   2.364   2.302   8.279 -0.2884 -0.2770 -0.2403
 5123SOL    HW126831   2.364   2.280   8.372  4.1261  1.5801  0.2128
 5123SOL    HW226832   2.289   2.253   8.247  1.3754 -2.3632 -0.9487
 5124SOL     OW26833   3.618   2.551   2.926  0.1005 -0.1445  0.1059
 5124SOL    HW126834   3.639   2.618   2.991 -1.3073 -0.2237  0.6301
 5124SOL    HW226835   3.540   2.507   2.959 -1.5338  1.4207 -1.7515
 5125SOL     OW26836   0.502   1.806   7.651  0.1481  0.0890  0.4493
 5125SOL    HW126837   0.479   1.730   7.597  0.4357  0.6528 -0.4731
 5125SOL    HW226838   0.429   1.829   7.708 -0.4060  2.2639 -1.1186
 5126SOL     OW26839   0.561   1.464   6.667  0.4491 -0.2485  0.1166
 5126SOL    HW126840   0.517   1.539   6.705  2.7908  0.4410  1.5090
 5126SOL    HW226841   0.486   1.405   6.665 -0.3376  0.8086 -0.9194
 5127SOL     OW26842   4.402   2.430  10.801 -0.5051 -0.0725  0.2503
 5127SOL    HW126843   4.416   2.523  10.784  1.0941  0.0327  2.1640
 5127SOL    HW226844   4.436   2.397  10.718  0.0376  0.0553  0.4274
 5128SOL     OW26845   0.879   1.620   6.969 -0.5369  0.3267  0.1052
 5128SOL    HW126846   0.804   1.576   7.010 -0.2460  0.8606  1.2130
 5128SOL    HW226847   0.841   1.702   6.940 -3.2466 -0.1040  2.3608
 5129SOL     OW26848   4.700   3.768  11.210 -0.3670 -0.1997 -0.4056
 5129SOL    HW126849   0.017   3.680  11.214 -2.3151 -1.2010 -3.9495
 5129SOL    HW226850   0.050   3.831  11.213 -1.0877  0.7131 -2.7061
 5130SOL     OW26851   0.150   1.936  15.208 -0.4881  0.7056 -0.0922
 5130SOL    HW126852   0.066   1.972  15.180  0.0726  1.7361 -0.4693
 5130SOL    HW226853   0.111   1.854  15.237 -0.9718  1.7729  2.3096
 5131SOL     OW26854   4.051   3.963   0.456  0.0415 -0.5210 -0.3445
 5131SOL    HW126855   4.013   4.046   0.427  3.5367  1.2501  0.1086
 5131SOL    HW226856   4.037   3.911   0.377 -0.4697 -0.3324 -0.3782
 5132SOL     OW26857   3.279   1.494   5.354 -0.6628  0.1065  0.0640
 5132SOL    HW126858   3.264   1.579   5.314  1.3557 -0.4657 -1.8896
 5132SOL    HW226859   3.212   1.486   5.422 -1.8362  0.9456 -0.9912
 5133SOL     OW26860   3.105   1.022   6.337 -0.7543  0.6671  1.0367
 5133SOL    HW126861   3.198   1.001   6.348 -1.4232 -2.7728  0.2279
 5133SOL    HW226862   3.072   0.945   6.383  1.7736 -0.6204  0.7197
 5134SOL     OW26863   2.914   2.596   6.582  0.0159 -0.4536  0.4097
 5134SOL    HW126864   2.839   2.537   6.593  1.4600 -2.3489  0.0814
 5134SOL    HW226865   2.877   2.669   6.631 -1.1746 -0.4110 -0.5445
 5135SOL     OW26866   1.263   3.761   7.028  0.4645 -1.0020  0.0496
 5135SOL    HW126867   1.219   3.749   7.112 -0.3896  0.1132 -0.2316
 5135SOL    HW226868   1.344   3.714   7.044  1.0229 -0.4308 -1.0817
 5136SOL     OW26869   3.138   1.285   6.332 -0.9388  0.4482 -0.7182
 5136SOL    HW126870   3.168   1.322   6.249 -1.7244  1.5653 -0.5022
 5136SOL    HW226871   3.101   1.200   6.308  0.8256 -0.5902  0.2955
 5137SOL     OW26872   2.335   1.134   5.536  0.2778 -0.0715  0.5344
 5137SOL    HW126873   2.266   1.082   5.495  0.7531 -1.2678  1.2878
 5137SOL    HW226874   2.376   1.175   5.459  1.2979 -0.8570  0.6697
 5138SOL     OW26875   3.188   3.464   1.407  0.4424 -0.2136 -0.3441
 5138SOL    HW126876   3.198   3.468   1.312  2.9631 -1.4187 -0.1490
 5138SOL    HW226877   3.233   3.541   1.442 -1.1813  0.8656 -0.6354
 5139SOL     OW26878   2.013   3.986   5.961  0.3489 -0.0420 -0.0365
 5139SOL    HW126879   1.989   4.063   6.012  1.4965  0.7118 -0.6363
 5139SOL    HW226880   2.030   3.921   6.029  1.0204 -1.1433 -1.2541
 5140SOL     OW26881   4.192   4.451   8.064  0.9269 -0.6419 -0.2392
 5140SOL    HW126882   4.159   4.529   8.020 -0.1060 -0.8483  0.1551
 5140SOL    HW226883   4.193   4.386   7.993 -1.1795 -0.2130 -0.6658
 5141SOL     OW26884   1.892   2.205   4.674  0.2068 -0.0108  0.4971
 5141SOL    HW126885   1.897   2.245   4.761 -0.0896  0.0299  0.4955
 5141SOL    HW226886   1.797   2.202   4.659  0.8355  2.1967 -3.7902
 5142SOL     OW26887   2.931   3.303  13.855  0.2978  0.2271 -0.4381
 5142SOL    HW126888   2.865   3.355  13.900  2.2541  3.1995 -0.9471
 5142SOL    HW226889   2.885   3.224  13.830  0.8728 -0.1807 -0.2186
 5143SOL     OW26890   2.023   0.781  10.793  0.3188 -0.2091  0.4700
 5143SOL    HW126891   1.963   0.742  10.856 -1.8121  0.1840 -1.3111
 5143SOL    HW226892   1.998   0.748  10.707 -0.4797  0.7373  0.3349
 5144SOL     OW26893   3.898   3.461  10.106 -0.1827  0.3525  0.1556
 5144SOL    HW126894   3.948   3.464  10.024  0.8672 -1.4322  0.7414
 5144SOL    HW226895   3.948   3.404  10.165  0.4568  1.8510  1.0530
 5145SOL     OW26896   1.076   1.121  16.243  0.3610 -0.4051 -0.2489
 5145SOL    HW126897   1.021   1.199  16.239 -0.0468 -0.7755 -1.6430
 5145SOL    HW226898   1.042   1.082  16.324 -1.5147 -0.6708 -1.1815
 5146SOL     OW26899   2.434   3.945   4.737 -0.2933  0.4357 -0.1430
 5146SOL    HW126900   2.341   3.925   4.724 -0.3950  0.2847  0.8227
 5146SOL    HW226901   2.479   3.861   4.742  3.2130  2.3385  0.3855
 5147SOL     OW26902   2.357   2.598   7.134  0.0462  0.2305  0.1619
 5147SOL    HW126903   2.391   2.536   7.199 -0.9998 -0.9089 -0.3792
 5147SOL    HW226904   2.316   2.539   7.070  2.1905 -0.2585 -0.7622
 5148SOL     OW26905   1.546   3.692   1.264 -0.2340 -0.1270 -0.3030
 5148SOL    HW126906   1.486   3.677   1.190 -1.0728 -0.4102  0.4407
 5148SOL    HW226907   1.534   3.785   1.280 -0.2660 -0.4694  1.5920
 5149SOL     OW26908   2.280   3.974   7.206  0.5676 -0.0033 -0.3223
 5149SOL    HW126909   2.362   3.965   7.253  1.3053  0.2666 -1.5751
 5149SOL    HW226910   2.227   3.922   7.267 -0.2332  3.6498  2.0948
 5150SOL     OW26911   1.223   4.006   1.385  0.2922  0.4931  0.0275
 5150SOL    HW126912   1.193   3.940   1.322  2.2337  0.5354 -0.9595
 5150SOL    HW226913   1.196   4.088   1.343  0.7823  1.0572  0.8264
 5151SOL     OW26914   3.831   0.197   4.149 -0.3942  0.2310 -0.4319
 5151SOL    HW126915   3.879   0.127   4.106  0.0367  0.1382  0.2014
 5151SOL    HW226916   3.888   0.271   4.129  1.1309 -1.0845 -0.9227
 5152SOL     OW26917   3.987   0.688   3.487  0.1801  0.2526 -0.2997
 5152SOL    HW126918   4.059   0.737   3.446 -0.7419 -0.2802 -2.5813
 5152SOL    HW226919   4.036   0.614   3.524 -2.4827 -0.3019  2.1046
 5153SOL     OW26920   1.569   1.700   6.639 -0.1679 -0.4245  0.7342
 5153SOL    HW126921   1.616   1.637   6.694  1.7966 -0.2782 -0.7920
 5153SOL    HW226922   1.517   1.640   6.586  1.6788 -1.3573 -0.0184
 5154SOL     OW26923   2.144   1.863   6.711  0.9386  0.1945 -0.0795
 5154SOL    HW126924   2.150   1.804   6.786 -1.1513 -0.5395 -0.4862
 5154SOL    HW226925   2.057   1.838   6.680  0.0836  2.8238  0.1682
 5155SOL     OW26926   0.256   3.493  15.707  0.0293  0.2260  0.3437
 5155SOL    HW126927   0.348   3.471  15.719  0.2444 -0.3319 -2.2119
 5155SOL    HW226928   0.234   3.411  15.663  0.9207 -0.1134  0.5330
 5156SOL     OW26929   1.104   1.601   3.353 -0.0324 -0.0227 -0.5744
 5156SOL    HW126930   1.149   1.587   3.270 -0.6023 -2.8574 -0.4162
 5156SOL    HW226931   1.159   1.553   3.415  0.5809 -0.8014 -1.7382
 5157SOL     OW26932   0.835   3.703   1.435  0.5595  0.3779  0.0080
 5157SOL    HW126933   0.795   3.621   1.464 -0.8592  1.2307  0.5267
 5157SOL    HW226934   0.795   3.712   1.349  1.7101 -0.7650 -0.6351
 5158SOL     OW26935   2.825   0.523   4.290 -0.1628  0.3746 -0.3424
 5158SOL    HW126936   2.906   0.575   4.289 -0.3591  0.6929  0.3230
 5158SOL    HW226937   2.793   0.541   4.379 -1.5295  2.9775 -1.3549
 5159SOL     OW26938   2.905   1.646  12.240  0.3476  0.2766 -0.0560
 5159SOL    HW126939   2.885   1.737  12.263  0.5816  0.0263  1.1800
 5159SOL    HW226940   2.855   1.604  12.311 -1.1323  1.7155 -0.2426
 5160SOL     OW26941   0.931   0.345  12.524  0.0944 -0.3403 -0.1977
 5160SOL    HW126942   0.985   0.310  12.452  1.8483  0.3479  0.7783
 5160SOL    HW226943   0.966   0.315  12.607 -1.5601 -3.5192 -0.6805
 5161SOL     OW26944   1.137   3.275   8.764 -0.3931 -0.3631  0.4120
 5161SOL    HW126945   1.217   3.309   8.804  0.0860  0.8343 -1.5379
 5161SOL    HW226946   1.079   3.259   8.838 -2.6558  1.0248 -1.0549
 5162SOL     OW26947   4.711   1.440   5.066 -0.0142 -0.0852 -0.0475
 5162SOL    HW126948   0.044   1.369   5.033  0.8075  0.5123  0.0401
 5162SOL    HW226949   4.622   1.404   5.064 -0.5774  1.4826 -1.9683
 5163SOL     OW26950   3.759   4.348   0.957 -0.1730  0.5477  0.2249
 5163SOL    HW126951   3.799   4.317   0.875 -2.1441  0.6229 -0.7794
 5163SOL    HW226952   3.672   4.379   0.928 -1.0072 -1.3538  0.7074
 5164SOL     OW26953   2.620   1.254   3.071  0.1882  1.0282  0.3802
 5164SOL    HW126954   2.582   1.192   3.134 -1.2392  1.0562 -0.4393
 5164SOL    HW226955   2.585   1.200   2.999 -0.4435  1.2797  0.5010
 5165SOL     OW26956   0.524   3.037   3.292 -0.4491 -0.4035 -0.1055
 5165SOL    HW126957   0.537   3.027   3.198 -0.8035  1.1143 -0.3180
 5165SOL    HW226958   0.510   2.947   3.318  1.3358 -0.1828  1.6742
 5166SOL     OW26959   4.461   1.891   3.925  0.0799 -0.2426  0.1737
 5166SOL    HW126960   4.540   1.887   3.872 -0.7719  0.6189 -1.1535
 5166SOL    HW226961   4.400   1.931   3.863 -0.1934 -1.7008 -0.4901
 5167SOL     OW26962   2.659   4.665   4.438 -0.0434  0.2539 -0.3824
 5167SOL    HW126963   2.752   4.642   4.440 -1.0098 -3.3564  2.4110
 5167SOL    HW226964   2.677   0.037   4.440 -2.5641  0.6937  0.7000
 5168SOL     OW26965   0.803   0.489   5.738 -0.0278  0.4872 -0.0383
 5168SOL    HW126966   0.712   0.518   5.745 -0.1127  0.1102  0.5157
 5168SOL    HW226967   0.804   0.420   5.805  0.9041  0.0360 -0.5183
 5169SOL     OW26968   2.782   3.880   2.452 -0.1589  0.2394 -0.0197
 5169SOL    HW126969   2.828   3.873   2.536 -0.3572  1.4391  0.1829
 5169SOL    HW226970   2.795   3.789   2.425  1.2576  0.9792 -1.8660
 5170SOL     OW26971   2.926   1.725   8.624 -0.4183  1.1752  0.2152
 5170SOL    HW126972   2.872   1.766   8.556  0.7788  1.4398 -0.5730
 5170SOL    HW226973   2.859   1.667   8.661 -0.8326  0.8376 -1.0551
 5171SOL     OW26974   0.511   3.489   3.281 -0.5313 -0.1477 -0.2230
 5171SOL    HW126975   0.507   3.570   3.231  1.0809  0.0207 -0.0523
 5171SOL    HW226976   0.522   3.421   3.214  2.4857  1.8755 -1.7753
 5172SOL     OW26977   1.370   0.248  16.756 -0.6515 -0.2373  0.3559
 5172SOL    HW126978   1.275   0.238  16.757 -0.6029 -0.7147  0.1745
 5172SOL    HW226979   1.394   0.335  16.788 -1.0034 -0.7481  2.0154
 5173SOL     OW26980   1.454   2.951   8.254 -0.3011 -0.2747  0.1891
 5173SOL    HW126981   1.449   2.900   8.335 -1.8522  2.6888  1.9507
 5173SOL    HW226982   1.460   3.040   8.288  1.4795 -1.2125  2.3185
 5174SOL     OW26983   1.120   4.484   4.677  0.7946 -0.4803 -0.1714
 5174SOL    HW126984   1.074   4.446   4.752 -0.1942  0.5903 -0.2365
 5174SOL    HW226985   1.046   4.491   4.617 -1.3559 -0.9625  2.3884
 5175SOL     OW26986   1.270   0.497   6.334 -0.0796  0.1469  0.3602
 5175SOL    HW126987   1.244   0.569   6.275 -0.8930 -0.3520  0.1108
 5175SOL    HW226988   1.346   0.539   6.373 -2.8829  1.5467  4.2931
 5176SOL     OW26989   0.552   3.430  17.438  0.8068 -0.0871  0.2873
 5176SOL    HW126990   0.592   3.439  17.524  0.6753 -0.5366  0.3926
 5176SOL    HW226991   0.556   3.336  17.426  0.7591 -0.1072  0.4262
 5177SOL     OW26992   2.049   2.757   6.752  0.0523  0.1082  0.2069
 5177SOL    HW126993   1.972   2.813   6.753  0.0808  0.1696 -0.8605
 5177SOL    HW226994   2.102   2.791   6.824 -0.5351 -0.6884  1.0296
 5178SOL     OW26995   2.342   2.029  15.048 -0.0513  0.0024  0.5536
 5178SOL    HW126996   2.391   1.966  15.102  1.0824  0.8117  0.4641
 5178SOL    HW226997   2.280   1.969  15.008  0.6344 -0.2544 -0.1175
 5179SOL     OW26998   1.624   1.962   3.657 -0.5952  0.3005 -0.0753
 5179SOL    HW126999   1.612   1.957   3.562 -2.2509 -0.7103  0.1965
 5179SOL    HW227000   1.687   2.034   3.665 -0.6386  0.5844 -2.2014
 5180SOL     OW27001   2.907   2.140  10.940 -0.4336 -0.5871 -0.1095
 5180SOL    HW127002   2.942   2.227  10.922 -1.7763  0.0399  0.2600
 5180SOL    HW227003   2.978   2.083  10.913  0.4243  0.7634 -0.7210
 5181SOL     OW27004   3.850   1.314   6.717 -0.3975 -0.4375  0.0428
 5181SOL    HW127005   3.934   1.361   6.719 -0.1957 -0.8147  0.7077
 5181SOL    HW227006   3.853   1.241   6.780  0.5620  0.2490  0.8010
 5182SOL     OW27007   4.608   4.083   1.892  0.3469 -0.4760  0.4587
 5182SOL    HW127008   4.589   4.140   1.967 -0.0823 -0.1451  0.1021
 5182SOL    HW227009   4.676   4.136   1.851 -1.8227  1.2700 -0.9319
 5183SOL     OW27010   2.241   2.719   7.850 -0.3457 -0.6503 -0.3410
 5183SOL    HW127011   2.206   2.806   7.871 -0.2031 -0.3699 -1.2754
 5183SOL    HW227012   2.175   2.673   7.902  0.3319 -0.6789  0.4998
 5184SOL     OW27013   1.156   2.464   1.027 -0.0916  0.2728 -0.5280
 5184SOL    HW127014   1.154   2.370   1.013  2.6213 -0.0204  1.0841
 5184SOL    HW227015   1.064   2.493   1.024 -0.1667 -0.2382 -3.3495
 5185SOL     OW27016   4.508   1.974  12.728  0.1421  0.1097  0.0343
 5185SOL    HW127017   4.568   1.974  12.653  1.7042  1.9611  1.2721
 5185SOL    HW227018   4.510   2.067  12.751 -0.4684 -0.6802  3.2615
 5186SOL     OW27019   1.082   2.725   7.937  0.2273  0.6992  0.5275
 5186SOL    HW127020   1.048   2.750   8.022 -1.3560  1.3773 -0.3070
 5186SOL    HW227021   1.011   2.679   7.891  1.5746 -1.7647  0.8693
 5187SOL     OW27022   2.393   3.892   6.163 -0.3251 -0.0499 -0.1499
 5187SOL    HW127023   2.444   3.839   6.224  1.2882  1.3143 -0.3008
 5187SOL    HW227024   2.311   3.844   6.168  0.0019 -0.6383 -0.4816
 5188SOL     OW27025   3.018   4.627   5.246  0.5197  0.2886  0.2931
 5188SOL    HW127026   2.968   4.685   5.190 -1.3073 -0.1666  1.4604
 5188SOL    HW227027   3.105   4.666   5.233  0.4746 -0.0240 -0.8668
 5189SOL     OW27028   0.552   1.757  13.659 -0.3655  0.6585  0.4145
 5189SOL    HW127029   0.646   1.760  13.642 -0.3842 -0.4496  0.1101
 5189SOL    HW227030   0.529   1.683  13.603 -2.3517 -1.2512  3.6988
 5190SOL     OW27031   3.349   4.147   9.117  0.6247 -0.1133  0.0503
 5190SOL    HW127032   3.290   4.143   9.193 -2.7184 -0.1175 -2.5759
 5190SOL    HW227033   3.344   4.242   9.102  0.4171  0.2347  2.2297
 5191SOL     OW27034   3.268   2.936   2.288 -0.0521  0.0962 -0.0965
 5191SOL    HW127035   3.250   2.846   2.263 -0.4668  0.1596 -0.0281
 5191SOL    HW227036   3.341   2.960   2.232  0.0920  2.7838  1.2292
 5192SOL     OW27037   3.137   0.949   3.901  0.2538 -0.0922  0.0436
 5192SOL    HW127038   3.111   0.974   3.990  0.4169 -0.7139  0.2690
 5192SOL    HW227039   3.051   0.935   3.863  0.6709  0.1748 -0.9878
 5193SOL     OW27040   0.712   3.865   8.383  0.1245  0.2395 -0.6570
 5193SOL    HW127041   0.754   3.843   8.299 -0.0297  0.9539 -0.9234
 5193SOL    HW227042   0.740   3.956   8.392  3.1485 -0.4692 -3.0801
 5194SOL     OW27043   1.686   1.194  16.256  0.0882 -0.1190 -0.0065
 5194SOL    HW127044   1.610   1.136  16.269  1.5295 -2.3243 -1.5712
 5194SOL    HW227045   1.646   1.256  16.196  0.5933  1.7048  1.5456
 5195SOL     OW27046   1.921   1.706  10.506  0.2501 -0.0748  0.1515
 5195SOL    HW127047   1.939   1.663  10.423  0.4945  0.5596 -0.1236
 5195SOL    HW227048   1.955   1.641  10.567  0.4438 -0.2130 -0.1069
 5196SOL     OW27049   1.482   4.324   9.877  0.6481  0.2067 -0.6419
 5196SOL    HW127050   1.456   4.394   9.936 -0.9717  0.1568 -1.3064
 5196SOL    HW227051   1.516   4.261   9.939 -0.1766 -1.7552 -2.1866
 5197SOL     OW27052   3.939   0.180   9.979  0.9315  0.0835  0.4288
 5197SOL    HW127053   3.969   0.263  10.015 -0.2324 -0.5806  2.9647
 5197SOL    HW227054   3.967   0.187   9.888 -1.8287 -1.6402 -0.5588
 5198SOL     OW27055   2.731   2.802  16.755  0.3138 -0.2283  0.2666
 5198SOL    HW127056   2.759   2.783  16.844 -2.5266  0.5787  1.3392
 5198SOL    HW227057   2.774   2.883  16.728  0.7703  0.4203  2.9821
 5199SOL     OW27058   2.974   3.629   6.416  0.4537 -0.2192 -0.4343
 5199SOL    HW127059   2.989   3.642   6.510 -0.4310 -1.9233 -0.0671
 5199SOL    HW227060   2.946   3.717   6.390 -0.6272 -1.2182 -2.5783
 5200SOL     OW27061   1.134   1.645   3.898 -0.3372  0.0748 -0.7049
 5200SOL    HW127062   1.112   1.688   3.816  1.9747  3.2039  0.3146
 5200SOL    HW227063   1.124   1.553   3.874 -2.6298 -0.3529  1.9290
 5201SOL     OW27064   3.253   1.457  10.862  0.3503  0.3594 -0.1508
 5201SOL    HW127065   3.258   1.367  10.895 -1.1691  1.8784  4.3167
 5201SOL    HW227066   3.189   1.497  10.921  1.8006 -0.9190  2.3076
 5202SOL     OW27067   4.299   2.026   6.965  0.1269  0.0265  0.2515
 5202SOL    HW127068   4.216   2.043   6.921  0.8849 -2.3379 -2.0623
 5202SOL    HW227069   4.271   1.985   7.047 -0.3531 -0.3794 -0.1177
 5203SOL     OW27070   4.696   0.112   4.012  0.0660  0.4000 -0.2885
 5203SOL    HW127071   0.043   0.055   4.046 -0.1070 -0.3555 -1.1919
 5203SOL    HW227072   0.020   0.152   3.938 -0.4714 -0.0628 -0.8685
 5204SOL     OW27073   1.409   1.592  12.763  0.6458  0.3278 -0.0395
 5204SOL    HW127074   1.349   1.630  12.827 -0.3077 -1.1601 -0.0576
 5204SOL    HW227075   1.348   1.527  12.729 -0.9013  1.9397 -0.3188
 5205SOL     OW27076   1.514   1.084   2.779 -0.3400 -0.1107  0.2740
 5205SOL    HW127077   1.490   0.995   2.806  2.5630 -1.1485 -0.6139
 5205SOL    HW227078   1.567   1.108   2.855 -2.6161 -1.3378  2.2746
 5206SOL     OW27079   4.387   1.914   4.610  0.1108  0.0034  0.0534
 5206SOL    HW127080   4.394   1.821   4.589  0.7145 -0.0274  0.4277
 5206SOL    HW227081   4.300   1.920   4.649 -0.8448 -0.6430 -1.9400
 5207SOL     OW27082   3.262   2.870  11.775  0.4996 -0.2983 -0.1707
 5207SOL    HW127083   3.251   2.944  11.835 -1.5972 -2.0263  1.5685
 5207SOL    HW227084   3.175   2.831  11.782  0.2278  0.7285  2.4029
 5208SOL     OW27085   1.868   3.454   1.544 -0.2605  0.7113  0.8687
 5208SOL    HW127086   1.900   3.479   1.631  1.1551 -0.4536  0.6886
 5208SOL    HW227087   1.928   3.382   1.525  1.8585  2.2740  1.6597
 5209SOL     OW27088   1.424   3.260   7.679  0.5290  0.5316 -0.1393
 5209SOL    HW127089   1.466   3.178   7.652 -3.0074 -1.3809  0.1412
 5209SOL    HW227090   1.335   3.224   7.678  1.1040 -0.9068 -0.4432
 5210SOL     OW27091   4.378   4.644   1.402 -0.5263  0.0575  0.0122
 5210SOL    HW127092   4.468   4.675   1.411 -0.0572 -2.1979  3.0779
 5210SOL    HW227093   4.385   4.552   1.427  0.2900 -0.0947 -0.7839
 5211SOL     OW27094   0.614   3.763   3.209  0.0408  0.2353 -0.3487
 5211SOL    HW127095   0.534   3.785   3.163 -0.5964 -1.2746  0.0107
 5211SOL    HW227096   0.598   3.803   3.295 -0.4717 -0.2708 -0.2095
 5212SOL     OW27097   2.712   0.368   4.115 -0.2485  0.0016  0.4738
 5212SOL    HW127098   2.755   0.433   4.170 -0.1378 -0.1536  0.5727
 5212SOL    HW227099   2.725   0.398   4.025 -1.8870 -0.1301  0.1851
 5213SOL     OW27100   2.851   2.309   3.693 -0.3702  0.0401  1.1342
 5213SOL    HW127101   2.784   2.373   3.715  2.6602  2.0078  4.6328
 5213SOL    HW227102   2.931   2.360   3.708  0.1480 -0.1357 -1.0284
 5214SOL     OW27103   4.290   2.918   8.273  0.2329  0.3128 -0.4677
 5214SOL    HW127104   4.358   2.905   8.339 -0.5960  1.7118  0.6838
 5214SOL    HW227105   4.349   2.936   8.200 -0.7071  1.5099 -0.9283
 5215SOL     OW27106   1.922   0.038  11.580 -0.3880 -0.7594  0.2645
 5215SOL    HW127107   1.932   4.666  11.561 -1.2945 -0.6102 -0.9434
 5215SOL    HW227108   1.900   0.058  11.489 -0.4276 -0.7715  0.2712
 5216SOL     OW27109   2.013   1.004   6.789  0.4663  0.1289  0.4945
 5216SOL    HW127110   2.052   0.961   6.714  1.4857 -1.6337  2.0410
 5216SOL    HW227111   2.083   1.065   6.813 -1.1898  2.1063  0.3336
 5217SOL     OW27112   2.281   0.498  15.464 -0.2232 -0.0107  0.2114
 5217SOL    HW127113   2.365   0.535  15.438  0.5091 -1.5003  0.5015
 5217SOL    HW227114   2.302   0.466  15.551  0.7581  0.9573  0.3287
 5218SOL     OW27115   4.471   3.276   6.690  0.1319 -0.5464  0.1486
 5218SOL    HW127116   4.510   3.348   6.738 -1.1293 -1.2918  2.2642
 5218SOL    HW227117   4.386   3.266   6.732  0.0031  3.0427  0.6630
 5219SOL     OW27118   2.138   3.518   5.911  0.5728  0.0639  0.5350
 5219SOL    HW127119   2.118   3.603   5.872  0.3500  0.2432  1.0413
 5219SOL    HW227120   2.090   3.517   5.994 -2.6840  2.8215 -1.3071
 5220SOL     OW27121   3.143   1.682   6.670  0.4921 -0.3237  0.4616
 5220SOL    HW127122   3.148   1.587   6.665  2.2870 -0.3294  2.2204
 5220SOL    HW227123   3.130   1.714   6.581 -0.9137 -0.3059  0.6824
 5221SOL     OW27124   3.318   3.201   5.709  0.1673  0.0094  0.5944
 5221SOL    HW127125   3.267   3.215   5.629 -1.4834  0.4856  1.7286
 5221SOL    HW227126   3.403   3.177   5.673  0.7286  1.0755  1.2167
 5222SOL     OW27127   1.832   3.723   2.261  0.3202 -0.1995 -0.2250
 5222SOL    HW127128   1.894   3.792   2.238  1.2008 -0.3049  1.8176
 5222SOL    HW227129   1.807   3.752   2.348 -0.9761 -2.0316  0.0142
 5223SOL     OW27130   4.480   2.449  17.563  0.1099  0.3068  0.3326
 5223SOL    HW127131   4.491   2.537  17.525 -1.4363  1.5971  2.9095
 5223SOL    HW227132   4.429   2.412  17.491  1.2748  0.3228 -0.4965
 5224SOL     OW27133   1.533   3.247   7.036 -0.1680 -0.5337  0.3144
 5224SOL    HW127134   1.512   3.190   6.962 -0.7758 -0.2974  0.3025
 5224SOL    HW227135   1.607   3.202   7.077  1.0589  0.1895 -1.1016
 5225SOL     OW27136   0.326   2.513  10.902 -0.0766  0.2584  0.4002
 5225SOL    HW127137   0.375   2.434  10.881 -0.0053  0.9000 -1.8532
 5225SOL    HW227138   0.271   2.479  10.972  0.1151  0.7157  0.7680
 5226SOL     OW27139   1.668   0.815   6.605 -0.1974 -0.6409  0.4090
 5226SOL    HW127140   1.644   0.906   6.624  0.7846 -0.8695  2.7493
 5226SOL    HW227141   1.742   0.834   6.548  0.7505 -0.0895  1.8386
 5227SOL     OW27142   3.906   2.445   3.682 -0.1346 -0.3945 -0.5234
 5227SOL    HW127143   3.982   2.452   3.740 -1.0416  0.6785  0.5428
 5227SOL    HW227144   3.848   2.386   3.730 -1.9810  1.3263 -0.6389
 5228SOL     OW27145   1.325   2.317   6.895 -0.2849  0.3875 -0.8706
 5228SOL    HW127146   1.238   2.350   6.919 -0.1383  2.0540 -2.6447
 5228SOL    HW227147   1.372   2.389   6.937  0.3219  0.7293 -2.1244
 5229SOL     OW27148   2.777   3.950   5.352  0.2497  0.1404  0.5744
 5229SOL    HW127149   2.721   4.000   5.411 -1.2544 -0.4032 -0.3700
 5229SOL    HW227150   2.839   3.908   5.411  0.1989  2.2911  2.1462
 5230SOL     OW27151   0.292   3.415   6.242  0.2821 -0.1760  0.1482
 5230SOL    HW127152   0.353   3.488   6.255 -0.9462  0.8660  0.0350
 5230SOL    HW227153   0.237   3.450   6.172  1.5824 -0.3437 -0.9665
 5231SOL     OW27154   2.005   1.015   2.377  0.1804  0.1036 -0.0637
 5231SOL    HW127155   2.069   0.972   2.433  1.1624  2.3057  0.5042
 5231SOL    HW227156   2.042   1.103   2.382  3.8990 -1.4971  0.3886
 5232SOL     OW27157   0.444   1.345   4.825 -0.7915  0.1125 -0.2388
 5232SOL    HW127158   0.357   1.316   4.854 -0.8678 -1.6721 -2.2770
 5232SOL    HW227159   0.465   1.291   4.749 -0.4818 -0.1956  0.0648
 5233SOL     OW27160   3.832   1.538  14.127 -0.1924  0.4786 -0.3973
 5233SOL    HW127161   3.870   1.554  14.041 -0.5045  1.8034 -0.2826
 5233SOL    HW227162   3.792   1.451  14.124  1.2275 -0.2391  1.0553
 5234SOL     OW27163   0.223   3.382   5.644  0.0682  0.0724  0.8526
 5234SOL    HW127164   0.162   3.449   5.614 -1.2048 -1.2041  0.6188
 5234SOL    HW227165   0.228   3.414   5.734  3.1557  0.6408  0.4815
 5235SOL     OW27166   0.241   0.040   6.058  0.4786  0.3954 -0.4453
 5235SOL    HW127167   0.223   4.712   5.979  0.9960 -0.0126 -0.3055
 5235SOL    HW227168   0.175   0.109   6.050  0.1278  0.0031 -0.9215
 5236SOL     OW27169   1.494   1.045  13.556 -0.2518 -0.0045 -0.9218
 5236SOL    HW127170   1.485   1.135  13.523  3.5446  0.7065 -0.1140
 5236SOL    HW227171   1.544   1.004  13.485  0.5953 -1.6079  0.6106
 5237SOL     OW27172   4.716   4.448   8.853  0.7058 -0.1091 -0.1823
 5237SOL    HW127173   0.041   4.461   8.936 -1.8567 -0.7581  1.3609
 5237SOL    HW227174   0.006   4.356   8.829  1.1744 -0.1496  0.1929
 5238SOL     OW27175   1.186   2.920  17.600 -0.3512  0.2597  0.1283
 5238SOL    HW127176   1.171   2.962  17.685  0.2570  0.5989  0.0658
 5238SOL    HW227177   1.113   2.859  17.605  0.8381 -1.0921  0.9744
 5239SOL     OW27178   4.233   4.524  16.855  0.5307  0.6589  0.2750
 5239SOL    HW127179   4.235   4.441  16.808  0.8285  0.7843  0.0672
 5239SOL    HW227180   4.179   4.508  16.933  0.8411 -1.9611 -0.0310
 5240SOL     OW27181   1.959   3.768   3.713  0.7446  0.0067  0.4209
 5240SOL    HW127182   1.907   3.804   3.786 -1.1786 -0.2973 -0.7882
 5240SOL    HW227183   2.047   3.780   3.749  0.9199  1.4880 -0.4955
 5241SOL     OW27184   1.974   4.174  16.042  0.4677 -0.2055 -0.1148
 5241SOL    HW127185   2.032   4.103  16.012  0.1373  0.0705 -1.3834
 5241SOL    HW227186   2.012   4.198  16.127 -1.1006  0.2062  0.4649
 5242SOL     OW27187   3.644   3.323   4.472 -0.5516 -0.2924  0.3651
 5242SOL    HW127188   3.659   3.273   4.552 -1.0061  0.3033  0.8243
 5242SOL    HW227189   3.622   3.404   4.519 -0.8806  0.0585 -0.3933
 5243SOL     OW27190   3.467   3.262   7.996 -0.2337  0.4510 -0.2895
 5243SOL    HW127191   3.518   3.280   7.917 -1.2936  0.0580 -1.0639
 5243SOL    HW227192   3.468   3.347   8.040 -0.3282  0.5524 -0.4838
 5244SOL     OW27193   3.704   3.378   5.702  0.1643 -0.0032 -0.2347
 5244SOL    HW127194   3.673   3.396   5.613 -0.9261  0.0741  0.1601
 5244SOL    HW227195   3.623   3.363   5.750 -0.3442 -0.0535 -1.1072
 5245SOL     OW27196   4.210   2.516   7.836 -0.1354  0.2077  0.8119
 5245SOL    HW127197   4.296   2.482   7.812 -0.6585  0.3240 -1.1914
 5245SOL    HW227198   4.244   2.594   7.880 -0.6239  0.9897 -0.2032
 5246SOL     OW27199   3.083   1.420   0.273 -0.4563 -0.2684 -1.0164
 5246SOL    HW127200   3.083   1.348   0.210  0.4832 -1.3367  0.1863
 5246SOL    HW227201   3.039   1.487   0.221 -1.4213  1.7196  2.3618
 5247SOL     OW27202   2.888   4.463   4.758  0.2041 -0.1504 -0.2901
 5247SOL    HW127203   2.846   4.403   4.820  0.2668 -0.8064 -0.8795
 5247SOL    HW227204   2.812   4.521   4.748 -1.8077 -2.9182 -1.3314
 5248SOL     OW27205   0.376   4.359  15.282 -0.2914 -0.1493  0.7372
 5248SOL    HW127206   0.470   4.380  15.290 -0.0781 -0.5734 -0.6453
 5248SOL    HW227207   0.377   4.264  15.291  0.5230 -0.2904 -0.9279
 5249SOL     OW27208   3.905   4.175   6.717 -0.3841  0.0486  0.0020
 5249SOL    HW127209   3.944   4.146   6.800 -0.4959  0.5602  0.2360
 5249SOL    HW227210   3.972   4.224   6.670  1.3379  0.5266  2.9338
 5250SOL     OW27211   4.396   3.635   3.971  0.0291  0.3324 -0.0642
 5250SOL    HW127212   4.340   3.704   3.935 -1.9431 -1.1497  0.1449
 5250SOL    HW227213   4.470   3.633   3.910 -0.9219 -0.9159 -1.1659
 5251SOL     OW27214   4.351   4.608   0.490 -0.3419  0.4119  0.1192
 5251SOL    HW127215   4.398   4.591   0.571  0.9485  1.5817 -0.3812
 5251SOL    HW227216   4.349   4.704   0.485  0.5695  0.4646  0.8764
 5252SOL     OW27217   4.068   2.135   3.130  0.0882  0.0748 -0.1817
 5252SOL    HW127218   4.143   2.086   3.163 -0.0826 -1.2072 -1.6600
 5252SOL    HW227219   4.013   2.056   3.133  0.2630 -0.0516 -0.3167
 5253SOL     OW27220   1.702   0.808   6.008 -0.5215  0.0279  0.7192
 5253SOL    HW127221   1.757   0.882   5.985 -1.9606  1.1439  0.9126
 5253SOL    HW227222   1.768   0.761   6.058  0.6930  0.2210 -0.7129
 5254SOL     OW27223   2.542   0.179   5.605  0.4048 -0.1114 -0.6532
 5254SOL    HW127224   2.593   0.258   5.624 -0.1685  0.2882 -0.7793
 5254SOL    HW227225   2.454   0.214   5.611  0.3956 -0.4542  1.1484
 5255SOL     OW27226   2.046   1.527   8.832  0.4608 -0.0166 -0.0449
 5255SOL    HW127227   1.983   1.569   8.890  1.5616 -0.6500  1.6252
 5255SOL    HW227228   1.986   1.470   8.785  0.0347  0.3921  0.0061
 5256SOL     OW27229   4.045   1.633   9.353 -0.0866 -0.1417  0.3992
 5256SOL    HW127230   4.037   1.678   9.437 -0.3777 -0.1869  0.3960
 5256SOL    HW227231   4.113   1.575   9.385 -0.5115 -0.3286  0.9694
 5257SOL     OW27232   0.171   1.115   8.731 -0.2453 -0.0542 -0.4291
 5257SOL    HW127233   0.241   1.120   8.667 -0.0809  1.8303 -0.0921
 5257SOL    HW227234   0.146   1.207   8.734 -0.1288 -0.0046 -1.0746
 5258SOL     OW27235   4.114   3.275  15.378 -0.2345  0.2952 -0.1116
 5258SOL    HW127236   4.185   3.255  15.438 -0.8689  1.4591  1.0246
 5258SOL    HW227237   4.076   3.350  15.424 -0.5735  0.0636 -0.0155
 5259SOL     OW27238   0.126   4.448  12.626 -0.0602 -0.1168  0.6669
 5259SOL    HW127239   0.175   4.377  12.667  1.2964 -0.2693 -1.1688
 5259SOL    HW227240   0.186   4.470  12.554 -0.9634 -0.5013 -0.1977
 5260SOL     OW27241   3.604   2.233  14.491 -0.4242 -0.0881 -0.4846
 5260SOL    HW127242   3.661   2.257  14.418  0.9786  2.0840  1.3310
 5260SOL    HW227243   3.586   2.140  14.479 -0.5235 -0.1804  0.4060
 5261SOL     OW27244   1.494   0.419   8.324 -0.1409  0.1202  0.2325
 5261SOL    HW127245   1.514   0.410   8.231 -0.5587  0.2830  0.1281
 5261SOL    HW227246   1.583   0.432   8.357  0.2257  0.3953 -0.8922
 5262SOL     OW27247   0.582   2.222   6.577  0.2134  0.1193  0.0135
 5262SOL    HW127248   0.531   2.143   6.596 -0.3752 -0.0557 -2.2631
 5262SOL    HW227249   0.605   2.199   6.487 -1.6989  1.2887 -0.7797
 5263SOL     OW27250   4.493   2.234  12.806 -0.1380 -0.3378  0.3607
 5263SOL    HW127251   4.493   2.300  12.737  2.1302  0.5838  1.2466
 5263SOL    HW227252   4.422   2.262  12.865  0.0846 -0.4814  0.7005
 5264SOL     OW27253   0.099   3.161   5.978  0.1599 -0.5568 -0.3742
 5264SOL    HW127254   0.019   3.109   5.977 -0.1943 -0.0383  0.5792
 5264SOL    HW227255   0.117   3.189   6.068  2.4767  0.2467 -1.0841
 5265SOL     OW27256   1.351   0.328   6.125 -0.1670 -0.6123 -0.5109
 5265SOL    HW127257   1.399   0.276   6.190  0.5225  0.1749 -0.3986
 5265SOL    HW227258   1.301   0.385   6.183 -0.7116  0.0721 -1.6446
 5266SOL     OW27259   3.128   3.785   0.510 -0.5977 -0.1712 -0.4609
 5266SOL    HW127260   3.165   3.817   0.593 -0.2946 -3.4660  0.6539
 5266SOL    HW227261   3.200   3.734   0.473  0.3799 -0.5329  1.9514
 5267SOL     OW27262   3.341   3.491   1.699  0.6330  0.1867  0.5713
 5267SOL    HW127263   3.360   3.529   1.784 -2.5149  0.5766  1.1129
 5267SOL    HW227264   3.405   3.541   1.649 -1.2743  1.4230 -0.6526
 5268SOL     OW27265   4.133   3.378   7.896  0.3470 -0.4219  0.0510
 5268SOL    HW127266   4.105   3.294   7.859 -1.3717 -0.0963  0.6092
 5268SOL    HW227267   4.226   3.370   7.876  0.3796 -0.4630  0.2228
 5269SOL     OW27268   0.700   0.330   5.992  0.2364 -0.0896  0.1175
 5269SOL    HW127269   0.678   0.266   6.060  1.7893 -2.8034 -1.9375
 5269SOL    HW227270   0.615   0.313   5.951 -0.5987  2.0678  0.9756
 5270SOL     OW27271   0.582   0.075   8.076 -0.1524  0.0907  0.7071
 5270SOL    HW127272   0.593   0.152   8.131 -2.2103  0.1526  1.0518
 5270SOL    HW227273   0.526   0.111   8.007  1.6286 -0.3973 -0.9917
 5271SOL     OW27274   2.396   2.870   3.279 -0.0039 -0.3744 -0.1075
 5271SOL    HW127275   2.444   2.844   3.201  0.9980  1.2249 -0.0405
 5271SOL    HW227276   2.422   2.796   3.333  1.6483  1.3100  1.4234
 5272SOL     OW27277   0.609   2.885   6.412 -0.1047 -0.0343 -0.5956
 5272SOL    HW127278   0.593   2.862   6.320  1.6119  1.7840 -1.3283
 5272SOL    HW227279   0.626   2.979   6.412  0.7024 -0.1827 -1.6248
 5273SOL     OW27280   0.600   2.822  10.036  0.6966 -0.2692 -0.1502
 5273SOL    HW127281   0.543   2.858  10.104  0.6223 -0.2161 -0.2393
 5273SOL    HW227282   0.551   2.837   9.955  3.2442 -1.2785 -1.8692
 5274SOL     OW27283   0.321   2.235  10.094  0.1829  0.3821  0.3441
 5274SOL    HW127284   0.280   2.178  10.159 -2.3001  0.7847 -0.8626
 5274SOL    HW227285   0.398   2.252  10.148  1.1712  0.3748 -1.0615
 5275SOL     OW27286   4.273   3.084   6.150 -0.1787 -0.3799  0.0505
 5275SOL    HW127287   4.275   3.099   6.244 -1.5642  2.0117 -0.2931
 5275SOL    HW227288   4.366   3.094   6.131 -0.3750 -0.8566 -1.1786
 5276SOL     OW27289   0.839   3.245   0.589  0.3986 -0.3112  0.0712
 5276SOL    HW127290   0.789   3.167   0.614  0.4099 -0.8724 -1.6205
 5276SOL    HW227291   0.798   3.324   0.624 -1.7360 -1.5608  0.3652
 5277SOL     OW27292   4.720   4.521  10.405  0.5648 -0.0138 -0.0970
 5277SOL    HW127293   4.721   4.576  10.484  2.6067 -0.4791  0.2123
 5277SOL    HW227294   4.673   4.440  10.425  0.4832  0.1336  0.3022
 5278SOL     OW27295   1.213   2.227  10.483 -0.8221  0.0356  0.0315
 5278SOL    HW127296   1.144   2.278  10.441  0.4447 -0.9537 -3.2789
 5278SOL    HW227297   1.283   2.289  10.461 -1.6498 -0.2699 -3.4202
 5279SOL     OW27298   2.701   0.129   1.704 -0.2390 -0.4280 -0.7019
 5279SOL    HW127299   2.795   0.134   1.719 -0.8217  0.0754  2.8845
 5279SOL    HW227300   2.671   0.076   1.778  0.9318 -3.1609 -2.1509
 5280SOL     OW27301   2.828   3.780   5.013  0.4675 -0.3045  0.3606
 5280SOL    HW127302   2.825   3.874   5.031  0.7751  0.2328 -2.4474
 5280SOL    HW227303   2.868   3.779   4.926  2.4507 -1.4136  1.2775
 5281SOL     OW27304   4.375   0.671   5.308  0.1425  0.0722  0.2768
 5281SOL    HW127305   4.334   0.734   5.368 -0.6596 -1.0900  0.9439
 5281SOL    HW227306   4.409   0.735   5.245 -0.9222  0.4482  0.0942
 5282SOL     OW27307   3.831   3.888   8.587 -0.1065 -0.5012  0.3305
 5282SOL    HW127308   3.743   3.893   8.624 -0.4465 -0.5789 -0.4712
 5282SOL    HW227309   3.863   3.978   8.583  0.2823 -0.7237 -1.3267
 5283SOL     OW27310   0.229   0.467   4.933 -0.7795  0.2327 -0.0810
 5283SOL    HW127311   0.295   0.462   5.002 -1.3974  1.1482  0.5787
 5283SOL    HW227312   0.284   0.457   4.855 -0.0681 -1.6963  0.6734
 5284SOL     OW27313   2.442   4.245   2.489 -0.3379  0.0729 -0.5860
 5284SOL    HW127314   2.514   4.196   2.449 -0.8876  0.7174 -2.4002
 5284SOL    HW227315   2.370   4.214   2.434 -1.4568 -0.0905  0.9752
 5285SOL     OW27316   1.163   1.105   7.137 -0.1734  0.2850  0.1921
 5285SOL    HW127317   1.151   1.179   7.078  0.3039 -0.6619 -1.0861
 5285SOL    HW227318   1.071   1.077   7.146 -0.2888  0.2737 -1.0713
 5286SOL     OW27319   4.199   3.658   0.514  0.6463  0.1522  0.0754
 5286SOL    HW127320   4.269   3.695   0.568  2.2547 -0.7402 -1.3594
 5286SOL    HW227321   4.221   3.699   0.430 -0.3328 -0.6802 -0.6002
 5287SOL     OW27322   3.562   0.617   2.258  0.1509  0.0528 -0.1127
 5287SOL    HW127323   3.498   0.555   2.293  1.0949 -0.1921  1.1508
 5287SOL    HW227324   3.551   0.698   2.308 -2.3451  1.6162 -3.1581
 5288SOL     OW27325   0.076   1.818  14.340  0.2816  0.3335 -0.3971
 5288SOL    HW127326   0.076   1.914  14.346 -0.3112  0.3779 -1.0015
 5288SOL    HW227327   0.065   1.788  14.430 -1.0046  0.9902 -0.3286
 5289SOL     OW27328   4.553   0.150   8.706  0.1095  0.1891 -0.0598
 5289SOL    HW127329   4.460   0.151   8.683  0.2799  0.8392 -0.7357
 5289SOL    HW227330   4.544   0.066   8.750 -0.6758  0.4131  0.1981
 5290SOL     OW27331   0.256   2.832   2.614  0.0938  0.4983  0.1857
 5290SOL    HW127332   0.296   2.843   2.528 -0.3008 -0.8026 -0.1640
 5290SOL    HW227333   0.163   2.839   2.591 -0.0342  0.7713  0.7826
 5291SOL     OW27334   3.168   2.202   9.171  0.0358  0.6824 -0.3267
 5291SOL    HW127335   3.116   2.132   9.210  2.0826  0.4753  2.0280
 5291SOL    HW227336   3.187   2.171   9.082  0.1989 -1.4198  0.4498
 5292SOL     OW27337   0.390   3.271   9.610  0.0826 -0.6848  0.4787
 5292SOL    HW127338   0.360   3.300   9.696 -2.0584  2.1144 -1.2028
 5292SOL    HW227339   0.317   3.295   9.553  0.8244 -1.7107 -0.9052
 5293SOL     OW27340   3.633   2.756   3.096  0.3579 -0.8420 -0.1901
 5293SOL    HW127341   3.726   2.750   3.118  0.5866  0.2549 -0.8566
 5293SOL    HW227342   3.635   2.804   3.013  1.4417 -1.0672 -0.2899
 5294SOL     OW27343   3.664   4.217   5.132 -0.6264 -0.2922 -0.1483
 5294SOL    HW127344   3.642   4.124   5.127  3.7206 -1.2021 -2.1427
 5294SOL    HW227345   3.578   4.249   5.161 -0.6329  0.4860 -1.0603
 5295SOL     OW27346   3.857   2.919   6.353 -0.3770 -0.3976  0.5175
 5295SOL    HW127347   3.871   2.941   6.261  1.1124 -2.3072  0.2677
 5295SOL    HW227348   3.946   2.888   6.372 -0.2506  0.0830  0.6947
 5296SOL     OW27349   2.389   3.721  10.783 -0.0418 -0.4576  0.6206
 5296SOL    HW127350   2.415   3.754  10.868 -2.1594 -1.0575  1.4999
 5296SOL    HW227351   2.464   3.663  10.768 -0.7917 -1.4358  0.6524
 5297SOL     OW27352   0.470   2.138   3.052  0.1061  0.6738  0.5822
 5297SOL    HW127353   0.411   2.146   2.977  1.5489 -1.6752 -0.7825
 5297SOL    HW227354   0.549   2.159   3.002 -1.0500 -0.9365 -1.8962
 5298SOL     OW27355   3.515   0.700   5.809  0.4233  0.1128 -0.6962
 5298SOL    HW127356   3.550   0.616   5.779 -1.1594 -1.4367  1.8047
 5298SOL    HW227357   3.423   0.672   5.812  0.5086  0.0405  1.6085
 5299SOL     OW27358   1.144   0.081   2.214 -0.2700  0.2719 -0.3963
 5299SOL    HW127359   1.228   0.037   2.205 -1.6537 -2.3637 -0.3781
 5299SOL    HW227360   1.140   0.143   2.287  0.1997 -1.0385  0.7385
 5300SOL     OW27361   1.574   0.690   8.025  0.5084  0.1202 -0.7145
 5300SOL    HW127362   1.623   0.738   7.958  1.0910  0.2481 -0.1912
 5300SOL    HW227363   1.504   0.754   8.039  0.4192  0.1217 -1.1491
 5301SOL     OW27364   2.596   1.704   3.092  0.2084 -0.0768  0.5478
 5301SOL    HW127365   2.591   1.693   3.187  2.2903  2.1918  0.9117
 5301SOL    HW227366   2.649   1.624   3.087  0.5084  0.0978  0.9672
 5302SOL     OW27367   0.079   1.258  16.533 -0.1932 -0.2135 -0.0789
 5302SOL    HW127368   4.721   1.310  16.527 -0.5305 -1.0824 -2.9776
 5302SOL    HW227369   0.107   1.282  16.621 -0.8326 -1.3800  0.4482
 5303SOL     OW27370   4.520   4.618   8.811  0.1106 -0.3100  0.5756
 5303SOL    HW127371   4.583   4.546   8.815  0.2021 -0.1400  2.2552
 5303SOL    HW227372   4.439   4.572   8.834 -0.7320  1.0315  0.3212
 5304SOL     OW27373   1.489   3.594   0.358 -0.0556 -0.3212  0.2663
 5304SOL    HW127374   1.467   3.668   0.301 -2.0727  1.2788  3.1333
 5304SOL    HW227375   1.476   3.525   0.294 -3.9576  1.3855 -0.8288
 5305SOL     OW27376   3.646   4.662  13.225 -0.5037 -0.3948 -0.5507
 5305SOL    HW127377   3.564   4.669  13.175 -2.3358  0.7159  2.6601
 5305SOL    HW227378   3.694   4.610  13.160 -0.5096  1.7904 -2.3257
 5306SOL     OW27379   3.125   4.097   4.788 -0.2077 -0.2155 -0.6106
 5306SOL    HW127380   3.166   4.031   4.732  0.7727 -0.3301  0.2344
 5306SOL    HW227381   3.114   4.051   4.872 -0.7521  0.5180 -0.2833
 5307SOL     OW27382   2.421   3.768  12.179  0.0334  0.0352  0.1880
 5307SOL    HW127383   2.418   3.854  12.137 -2.6133 -0.7853 -1.3311
 5307SOL    HW227384   2.430   3.715  12.100 -3.2513 -0.2887  0.0385
 5308SOL     OW27385   1.142   2.970  13.132  0.3926 -0.1906  0.2424
 5308SOL    HW127386   1.097   3.014  13.204 -1.2619 -2.0407  0.3421
 5308SOL    HW227387   1.107   2.883  13.153 -1.4341  0.1695 -1.3382
 5309SOL     OW27388   2.421   1.145  10.901 -0.5143  0.2305  0.1977
 5309SOL    HW127389   2.413   1.220  10.843 -1.8493 -1.3239 -1.6520
 5309SOL    HW227390   2.337   1.098  10.893  0.3212 -1.4147  0.9852
 5310SOL     OW27391   3.508   3.146  10.331  0.6834  0.2283 -1.3642
 5310SOL    HW127392   3.484   3.239  10.327  1.2976  0.4595  0.0511
 5310SOL    HW227393   3.599   3.148  10.304  1.4475  1.2448  1.2513
 5311SOL     OW27394   4.104   4.168  12.500  0.2876  0.1918 -0.2392
 5311SOL    HW127395   4.088   4.075  12.509  0.8708 -0.1797 -2.9850
 5311SOL    HW227396   4.140   4.195  12.585 -1.2776  0.4357  0.3421
 5312SOL     OW27397   2.719   4.572   5.066 -0.0619  0.0923 -0.4535
 5312SOL    HW127398   2.761   4.657   5.078 -0.0162 -0.3688  2.6165
 5312SOL    HW227399   2.672   4.575   4.982  0.3341 -3.6663 -0.7955
 5313SOL     OW27400   1.537   3.147   5.604  0.7501  0.1390  0.0528
 5313SOL    HW127401   1.602   3.167   5.671 -0.2347 -0.4236  1.1632
 5313SOL    HW227402   1.556   3.219   5.544  3.5695 -0.3076  0.4155
 5314SOL     OW27403   2.667   1.614   4.815  0.7087 -0.0795 -0.1090
 5314SOL    HW127404   2.727   1.601   4.742  1.5012  0.0294  0.5220
 5314SOL    HW227405   2.588   1.653   4.777  2.8793  3.3368 -1.1421
 5315SOL     OW27406   1.639   0.671  10.528  0.0278 -0.0716  0.3889
 5315SOL    HW127407   1.545   0.661  10.542 -0.3024  0.4050 -1.5511
 5315SOL    HW227408   1.663   0.587  10.568 -0.0918  0.5512  1.7732
 5316SOL     OW27409   2.419   2.718   6.384  0.2060  0.2318  0.3390
 5316SOL    HW127410   2.481   2.779   6.344 -0.0676 -0.5656 -1.2688
 5316SOL    HW227411   2.437   2.639   6.334  2.1060  0.0107  1.3850
 5317SOL     OW27412   3.569   4.705   6.396 -0.0466 -0.8160 -0.1658
 5317SOL    HW127413   3.495   4.645   6.406 -0.7121  0.6228  3.5751
 5317SOL    HW227414   3.529   0.065   6.366 -1.5994 -1.1689  0.9725
 5318SOL     OW27415   3.930   2.964  13.732  0.3488  0.1659  0.7501
 5318SOL    HW127416   3.966   3.020  13.663 -0.4201 -0.1392  0.1017
 5318SOL    HW227417   3.985   2.886  13.739  1.8933  1.3409  1.7322
 5319SOL     OW27418   4.041   2.987   8.751  0.4698 -0.0849 -0.7521
 5319SOL    HW127419   4.042   3.009   8.658 -0.7133  0.0872 -0.7144
 5319SOL    HW227420   3.952   3.009   8.778  1.6138  1.0648  2.1063
 5320SOL     OW27421   3.946   2.655  16.880 -0.2797  0.1230 -0.3714
 5320SOL    HW127422   3.918   2.737  16.839  1.0572  0.6884 -0.1377
 5320SOL    HW227423   4.041   2.659  16.891 -0.3297 -1.5521  0.6089
 5321SOL     OW27424   2.987   2.071  15.723 -0.2013  0.3035  0.1053
 5321SOL    HW127425   2.994   2.059  15.628 -1.8813  1.0941 -0.1044
 5321SOL    HW227426   2.999   2.164  15.743  3.0418  0.3526 -2.0171
 5322SOL     OW27427   2.785   4.088   1.688 -0.0969  0.3921 -0.1333
 5322SOL    HW127428   2.700   4.132   1.685 -0.2431  0.1497  0.5245
 5322SOL    HW227429   2.756   3.999   1.707  0.5054  0.2842  0.2837
 5323SOL     OW27430   2.591   3.806   0.882 -0.0687  0.0880 -0.5936
 5323SOL    HW127431   2.515   3.849   0.844 -0.0578  0.6406  0.0100
 5323SOL    HW227432   2.604   3.726   0.830 -1.3309 -0.1753 -0.4959
 5324SOL     OW27433   1.800   0.554  11.884  0.1220  0.2777 -0.0157
 5324SOL    HW127434   1.713   0.546  11.844 -1.2325  1.7009  2.6706
 5324SOL    HW227435   1.784   0.528  11.975  1.6487 -1.6567 -0.2997
 5325SOL     OW27436   2.714   2.093   5.554  0.1165  0.2178  0.2224
 5325SOL    HW127437   2.637   2.044   5.526  0.4013  0.3333 -0.7745
 5325SOL    HW227438   2.714   2.166   5.492  1.5875  0.5711  0.6340
 5326SOL     OW27439   0.446   2.990   9.221  0.0693 -0.1510 -0.2639
 5326SOL    HW127440   0.514   3.051   9.247 -0.5337  0.1399  0.6233
 5326SOL    HW227441   0.462   2.986   9.126 -0.0898  0.8139 -0.3313
 5327SOL     OW27442   2.909   0.898   7.924 -0.2603  0.1983  0.2776
 5327SOL    HW127443   2.848   0.824   7.930 -0.2513  0.0398 -1.6353
 5327SOL    HW227444   2.848   0.971   7.914 -0.4675  0.0960  0.8136
 5328SOL     OW27445   0.196   0.186  13.704 -0.3582  0.4963  0.1890
 5328SOL    HW127446   0.119   0.223  13.661 -0.7788  0.6453  1.0697
 5328SOL    HW227447   0.267   0.217  13.647 -1.0553 -0.4522 -1.1622
 5329SOL     OW27448   1.547   3.802   5.148  0.0740  0.2130 -0.1199
 5329SOL    HW127449   1.636   3.833   5.166 -0.3576  0.6551  1.3162
 5329SOL    HW227450   1.553   3.772   5.058 -0.6128 -0.7863  0.1703
 5330SOL     OW27451   0.270   4.405   8.141 -0.5347  0.2819 -0.2541
 5330SOL    HW127452   0.350   4.457   8.154 -0.1024 -0.3176 -0.5326
 5330SOL    HW227453   0.205   4.475   8.153 -2.8026 -1.8398 -0.2480
 5331SOL     OW27454   0.643   3.893   6.448  0.0064 -0.2731 -0.3815
 5331SOL    HW127455   0.626   3.919   6.357  0.4745  2.1477  0.2273
 5331SOL    HW227456   0.589   3.956   6.494 -1.6632 -1.8938 -0.1309
 5332SOL     OW27457   4.419   2.507   4.506  0.0086 -0.4807  0.8454
 5332SOL    HW127458   4.372   2.427   4.532 -2.3757  0.7675  0.4092
 5332SOL    HW227459   4.433   2.491   4.412  0.8109  3.2505  0.3393
 5333SOL     OW27460   2.344   1.719   5.934 -1.0331  0.1652 -0.0367
 5333SOL    HW127461   2.370   1.628   5.951  0.4341  0.6399  0.2176
 5333SOL    HW227462   2.249   1.715   5.945 -1.0197 -0.0540  0.0129
 5334SOL     OW27463   1.699   0.520  12.140 -0.3879 -0.2061  0.0123
 5334SOL    HW127464   1.620   0.466  12.132  0.0733 -1.0457  1.1409
 5334SOL    HW227465   1.654   0.603  12.154 -0.1463 -0.6742  3.3786
 5335SOL     OW27466   4.597   3.165  17.306 -0.2417 -0.1942  0.7612
 5335SOL    HW127467   4.556   3.146  17.222  1.3439 -0.5465  0.0619
 5335SOL    HW227468   4.637   3.251  17.292  0.4146 -0.4637  0.9941
 5336SOL     OW27469   2.504   3.326   9.729  0.1401 -0.4625 -0.0387
 5336SOL    HW127470   2.561   3.337   9.805  0.9754 -0.3044 -0.6885
 5336SOL    HW227471   2.424   3.308   9.778 -0.4244 -1.4251 -1.2929
 5337SOL     OW27472   2.584   0.621   1.529 -0.0872 -0.2280  0.2313
 5337SOL    HW127473   2.605   0.533   1.563  0.1085 -0.5301 -0.6762
 5337SOL    HW227474   2.674   0.631   1.497  0.4109 -0.3414  1.6052
 5338SOL     OW27475   3.092   3.639   7.086  0.4282 -0.2590  0.9108
 5338SOL    HW127476   3.180   3.627   7.051  0.2695  0.6180  0.2064
 5338SOL    HW227477   3.090   3.627   7.181  1.6333  1.3719  1.1509
 5339SOL     OW27478   0.419   4.136  10.213 -0.1086 -0.4138 -0.3067
 5339SOL    HW127479   0.459   4.064  10.261  1.1915  1.1509  0.9782
 5339SOL    HW227480   0.403   4.083  10.135  1.5596 -3.0076  1.1209
 5340SOL     OW27481   1.225   4.512   7.718 -0.1238  0.3715 -0.1093
 5340SOL    HW127482   1.223   4.492   7.812 -2.4790 -1.6426 -0.6106
 5340SOL    HW227483   1.195   4.429   7.682 -1.9514  0.9186  0.1592
 5341SOL     OW27484   2.184   1.895   9.155  0.9576 -0.0746  0.4803
 5341SOL    HW127485   2.205   1.887   9.062 -0.5313 -0.9596  0.2240
 5341SOL    HW227486   2.215   1.984   9.171 -0.9048  0.7404 -0.5263
 5342SOL     OW27487   4.023   0.745   2.521 -0.6554  0.6803 -0.3176
 5342SOL    HW127488   4.079   0.796   2.463 -0.4930  0.1490 -0.6371
 5342SOL    HW227489   4.017   0.798   2.600  1.6783  1.8021 -0.8966
 5343SOL     OW27490   2.441   0.350  14.929 -0.5665 -0.4342  0.4351
 5343SOL    HW127491   2.388   0.335  14.851  1.1627 -0.3644 -0.7349
 5343SOL    HW227492   2.501   0.276  14.926  1.5535  1.2889  0.4443
 5344SOL     OW27493   4.680   4.716   7.304  0.4940  0.0609 -0.1692
 5344SOL    HW127494   4.694   4.720   7.399  0.7726 -1.8727 -0.1425
 5344SOL    HW227495   4.705   4.626   7.284  1.6886  0.3757 -0.0945
 5345SOL     OW27496   0.845   2.415   0.616 -0.1015 -0.3835 -0.3019
 5345SOL    HW127497   0.846   2.402   0.711 -0.0825  2.0687  0.0423
 5345SOL    HW227498   0.894   2.496   0.602  0.7612 -0.9048 -0.3555
 5346SOL     OW27499   1.952   0.498   0.468 -0.1320 -0.4062  0.0432
 5346SOL    HW127500   1.873   0.486   0.415 -0.0828  0.4809 -0.2442
 5346SOL    HW227501   1.910   0.508   0.553  3.5389 -1.8568  1.9869
 5347SOL     OW27502   3.210   0.744  13.877  0.2260 -0.5186 -0.7276
 5347SOL    HW127503   3.251   0.706  13.955 -2.2400 -0.6627  0.4837
 5347SOL    HW227504   3.216   0.838  13.894 -0.0893 -0.8707  1.4088
 5348SOL     OW27505   3.454   4.158   1.740 -0.4212  0.4586  0.0990
 5348SOL    HW127506   3.528   4.177   1.798  0.8823 -0.8575 -1.1193
 5348SOL    HW227507   3.392   4.228   1.759 -1.1120  0.4589 -2.1064
 5349SOL     OW27508   3.084   4.181   5.924  0.1562  0.2912 -0.6399
 5349SOL    HW127509   3.108   4.273   5.937 -0.2733  0.2553  0.4092
 5349SOL    HW227510   3.124   4.165   5.839  2.8033 -0.8259  0.8183
 5350SOL     OW27511   1.318   4.089  12.579  0.1834  0.1247  0.3293
 5350SOL    HW127512   1.311   4.008  12.630  0.5431  0.2955  0.6512
 5350SOL    HW227513   1.256   4.149  12.621  2.4360  2.6532  0.0170
 5351SOL     OW27514   2.698   3.522   3.787  0.5534  0.0073  0.2215
 5351SOL    HW127515   2.702   3.611   3.822  0.2744  0.1550 -0.1277
 5351SOL    HW227516   2.634   3.488   3.851 -1.8431  1.1866 -1.5535
 5352SOL     OW27517   1.164   2.310   2.349 -0.0492  0.4342 -0.6250
 5352SOL    HW127518   1.257   2.314   2.325 -0.3498 -1.2011 -1.9987
 5352SOL    HW227519   1.136   2.392   2.308 -3.7689  0.0597  1.2019
 5353SOL     OW27520   4.268   4.481   3.491 -0.3824 -0.6235  0.0754
 5353SOL    HW127521   4.298   4.428   3.417 -0.3703  0.3670 -0.6314
 5353SOL    HW227522   4.186   4.437   3.510 -0.6180  0.1388  0.8575
 5354SOL     OW27523   2.194   1.870   3.917 -0.7843  0.2880 -0.2014
 5354SOL    HW127524   2.100   1.854   3.906 -0.7270 -1.3212  1.5596
 5354SOL    HW227525   2.231   1.783   3.931 -1.0345  0.5396  2.0809
 5355SOL     OW27526   0.190   2.842  10.047 -0.8341  0.0740  0.2206
 5355SOL    HW127527   0.246   2.844  10.125 -1.3215  1.4398  0.5352
 5355SOL    HW227528   0.172   2.935  10.032  3.3999  0.4008 -2.9169
 5356SOL     OW27529   4.631   1.363  11.916  0.2036  0.1497 -0.6560
 5356SOL    HW127530   4.556   1.417  11.890 -0.8629 -1.5694 -1.0875
 5356SOL    HW227531   4.620   1.282  11.866 -2.7825 -0.3120  0.7841
 5357SOL     OW27532   2.894   2.403  12.222  0.4697  0.6526  0.0819
 5357SOL    HW127533   2.890   2.427  12.314  1.0016  0.5021  0.1459
 5357SOL    HW227534   2.864   2.487  12.188 -0.4833  1.3680  2.7177
 5358SOL     OW27535   3.545   0.209   2.342 -0.5563  0.1696  0.3916
 5358SOL    HW127536   3.482   0.259   2.290 -1.7908  1.5445  3.2421
 5358SOL    HW227537   3.501   0.124   2.347  0.6545 -0.5729 -1.2641
 5359SOL     OW27538   4.296   2.546   0.064 -0.2914  0.1569 -0.3476
 5359SOL    HW127539   4.235   2.479   0.095  0.7934 -0.1446  1.1128
 5359SOL    HW227540   4.349   2.506  17.684 -0.7958  0.5144 -0.9483
 5360SOL     OW27541   3.958   4.534   4.341 -1.3345 -0.1790  0.0671
 5360SOL    HW127542   4.042   4.560   4.379 -1.0022 -2.3449  0.8142
 5360SOL    HW227543   3.959   4.438   4.341  1.7869 -0.1637 -0.0517
 5361SOL     OW27544   2.597   2.854   7.351  0.0186  0.0627  0.3634
 5361SOL    HW127545   2.648   2.786   7.395  0.2766 -1.0779 -1.7270
 5361SOL    HW227546   2.624   2.929   7.405  1.0076 -0.8473  1.1402
 5362SOL     OW27547   0.506   3.193   8.552  0.0795 -0.2615 -0.1318
 5362SOL    HW127548   0.549   3.164   8.472 -2.1746 -1.6377 -0.8415
 5362SOL    HW227549   0.427   3.139   8.554 -0.8912  1.0108 -5.0679
 5363SOL     OW27550   0.636   1.089   5.314  0.2157  0.8819  0.0785
 5363SOL    HW127551   0.591   1.067   5.233 -1.6068  2.9221  0.5444
 5363SOL    HW227552   0.730   1.082   5.294 -0.0596  0.6054 -1.1230
 5364SOL     OW27553   0.868   3.095  10.174 -0.2109  0.0635  0.1866
 5364SOL    HW127554   0.783   3.108  10.217 -1.5714 -0.1618 -2.4620
 5364SOL    HW227555   0.860   3.149  10.095  2.1935 -1.2848 -0.9797
 5365SOL     OW27556   1.416   4.171   6.679  0.3725 -0.5038 -0.4681
 5365SOL    HW127557   1.503   4.203   6.654  0.3463  0.0925  0.2087
 5365SOL    HW227558   1.385   4.251   6.720  2.1256  0.1408 -0.3972
 5366SOL     OW27559   2.292   4.120   4.003  0.1434 -0.2467 -0.4573
 5366SOL    HW127560   2.311   4.117   3.910  1.1369  0.8021 -0.2913
 5366SOL    HW227561   2.229   4.192   4.004  0.6332  0.1980 -1.8106
 5367SOL     OW27562   3.974   1.186  13.995 -0.1010 -0.6073  0.1033
 5367SOL    HW127563   3.886   1.221  13.982 -0.2302 -0.2087  2.1130
 5367SOL    HW227564   3.966   1.094  13.970  0.6907 -0.3618 -1.0624
 5368SOL     OW27565   3.469   3.689   8.667 -0.2660 -0.1862 -0.1287
 5368SOL    HW127566   3.400   3.729   8.719  0.6402  0.6651  0.4268
 5368SOL    HW227567   3.546   3.698   8.724 -0.3078 -1.2662  0.0870
 5369SOL     OW27568   2.636   1.752   9.093  0.1413 -0.1243  0.7406
 5369SOL    HW127569   2.632   1.839   9.132  0.1977 -0.0556  0.5885
 5369SOL    HW227570   2.730   1.743   9.080 -0.1488 -0.8841 -0.7806
 5370SOL     OW27571   4.476   4.654   5.984 -0.3746 -0.0228 -0.1279
 5370SOL    HW127572   4.416   4.584   5.961  0.5819 -1.6286  2.1891
 5370SOL    HW227573   4.559   4.618   5.953 -0.3373 -0.5922  0.6167
 5371SOL     OW27574   1.724   3.194   4.843  0.6023 -0.3625  0.0370
 5371SOL    HW127575   1.816   3.219   4.856  0.2785  0.7424  0.1530
 5371SOL    HW227576   1.733   3.161   4.753  1.1498 -0.5593  0.1629
 5372SOL     OW27577   4.567   3.554   6.411 -0.6133  0.1483 -0.0333
 5372SOL    HW127578   4.571   3.579   6.504 -0.4661 -1.9620  0.5313
 5372SOL    HW227579   4.572   3.640   6.371 -1.4472  0.9801  1.6642
 5373SOL     OW27580   0.961   0.238   7.162  0.1769  0.5224  0.6799
 5373SOL    HW127581   0.918   0.324   7.159  0.4378  0.6423  0.3966
 5373SOL    HW227582   0.939   0.205   7.249 -1.9665  3.1508  1.1326
 5374SOL     OW27583   2.406   2.089   2.913  0.1352 -0.3042  0.0751
 5374SOL    HW127584   2.380   2.074   2.822 -0.0969 -3.1662  0.5889
 5374SOL    HW227585   2.347   2.161   2.932 -1.4297 -1.6257  0.1523
 5375SOL     OW27586   2.686   2.366   5.472 -0.2651  0.0940 -0.1592
 5375SOL    HW127587   2.663   2.358   5.564 -1.5033  2.1064 -0.3016
 5375SOL    HW227588   2.757   2.430   5.483  0.0179 -0.3213  0.4403
 5376SOL     OW27589   3.632   4.053   4.457 -0.0643  0.5396 -0.6660
 5376SOL    HW127590   3.708   4.008   4.493  0.5689  2.6487  0.6290
 5376SOL    HW227591   3.664   4.143   4.462  1.8322 -0.1950  0.2975
 5377SOL     OW27592   1.170   0.067   0.522  0.3422 -0.5099 -0.4751
 5377SOL    HW127593   1.246   0.091   0.469  0.0331 -0.4891 -0.9172
 5377SOL    HW227594   1.138   0.146   0.565 -1.0817  0.8607 -4.0106
 5378SOL     OW27595   3.125   0.909   4.431 -0.4054 -0.2655 -0.6222
 5378SOL    HW127596   3.212   0.918   4.392 -0.6221 -1.0896 -1.2867
 5378SOL    HW227597   3.161   0.884   4.516 -2.4951 -0.0152  0.3359
 5379SOL     OW27598   1.901   4.289   4.534 -0.5856 -0.3028 -1.1350
 5379SOL    HW127599   1.987   4.317   4.566 -1.4945  1.4460 -0.2322
 5379SOL    HW227600   1.849   4.354   4.580  0.0521 -1.2644  0.9835
 5380SOL     OW27601   3.703   3.284  10.083  0.6554  0.3532 -0.3018
 5380SOL    HW127602   3.760   3.208  10.088  1.6015  0.9511 -1.8298
 5380SOL    HW227603   3.764   3.358  10.080 -0.2373  1.0874 -0.4160
 5381SOL     OW27604   2.020   3.087  10.300 -0.2897 -0.2636 -0.6701
 5381SOL    HW127605   1.951   3.032  10.337  2.0051 -2.0869  0.8536
 5381SOL    HW227606   2.100   3.047  10.333  0.8893  0.4595 -2.6488
 5382SOL     OW27607   1.373   1.588  15.113 -0.5691  0.6554  0.4813
 5382SOL    HW127608   1.303   1.638  15.071 -0.1867 -0.6133 -1.6417
 5382SOL    HW227609   1.376   1.513  15.055  0.4248  0.7960  0.3430
 5383SOL     OW27610   1.787   1.839   4.143  0.3109  0.5951  0.0018
 5383SOL    HW127611   1.798   1.881   4.058 -0.9020  1.2116  0.1625
 5383SOL    HW227612   1.694   1.834   4.162 -0.0950 -0.0370 -2.2434
 5384SOL     OW27613   1.399   3.775   8.451  0.2937 -0.6659  0.1767
 5384SOL    HW127614   1.411   3.856   8.500 -1.0009  0.6514 -1.6823
 5384SOL    HW227615   1.482   3.729   8.460  0.8103  0.3368  0.4413
 5385SOL     OW27616   1.857   1.250  12.462  0.6021 -0.3809 -0.4924
 5385SOL    HW127617   1.919   1.219  12.397  0.3431  1.0517 -1.4204
 5385SOL    HW227618   1.815   1.173  12.500 -0.3662 -0.3474 -1.5114
 5386SOL     OW27619   3.927   3.033   2.548  0.0787  0.3304  1.0307
 5386SOL    HW127620   3.896   3.109   2.596 -1.2661  1.0095 -0.9173
 5386SOL    HW227621   4.015   3.065   2.531 -0.6102  1.1061 -1.0980
 5387SOL     OW27622   2.273   1.380  14.246  1.1633 -0.0649 -0.4573
 5387SOL    HW127623   2.304   1.342  14.164  0.5869  0.2202 -0.8088
 5387SOL    HW227624   2.321   1.461  14.262  0.5146  0.6155 -1.9789
 5388SOL     OW27625   0.675   0.841   7.984  0.3722 -0.1829 -0.3292
 5388SOL    HW127626   0.710   0.922   7.949 -0.8665  0.8331  0.7782
 5388SOL    HW227627   0.640   0.787   7.913  1.3356  1.7803 -2.2522
 5389SOL     OW27628   0.869   3.731   3.583  0.2061  0.1922 -0.3430
 5389SOL    HW127629   0.916   3.805   3.544 -0.2757  1.5072  1.5910
 5389SOL    HW227630   0.910   3.705   3.665  1.0223  3.4398  0.2916
 5390SOL     OW27631   1.653   4.084   2.464  0.2179  0.5618 -0.4854
 5390SOL    HW127632   1.675   4.062   2.555 -2.4508 -0.1572 -0.0202
 5390SOL    HW227633   1.650   4.178   2.483  0.7158  0.0937  2.0286
 5391SOL     OW27634   4.636   1.058   5.616  0.2038 -0.4337 -0.3298
 5391SOL    HW127635   4.681   1.062   5.700  0.0947 -1.3034 -0.2235
 5391SOL    HW227636   4.561   1.114   5.636 -0.8715 -1.7835 -0.5251
 5392SOL     OW27637   1.334   4.218   2.258  0.4345 -0.1898  0.4886
 5392SOL    HW127638   1.344   4.147   2.195 -2.9216  1.3310 -1.7738
 5392SOL    HW227639   1.272   4.175   2.317 -0.7133 -1.0182 -1.3350
 5393SOL     OW27640   1.027   2.577   2.368  0.0144  0.6927  0.2132
 5393SOL    HW127641   0.955   2.630   2.401 -0.1518  0.5624  0.0534
 5393SOL    HW227642   1.057   2.628   2.293 -3.0767  0.8305 -0.8910
 5394SOL     OW27643   2.314   1.463   7.637 -0.1106 -0.2910  0.5575
 5394SOL    HW127644   2.245   1.421   7.585 -0.7519  0.7482  0.5703
 5394SOL    HW227645   2.382   1.397   7.622 -0.2670  0.0591 -1.7393
 5395SOL     OW27646   4.667   2.459   6.173 -0.2731 -0.3489  0.8570
 5395SOL    HW127647   4.596   2.395   6.162 -0.2051 -0.4814  1.1883
 5395SOL    HW227648   4.637   2.535   6.123 -0.3747 -1.4048 -0.7032
 5396SOL     OW27649   0.789   2.368   6.607 -0.0100  0.2876 -0.2989
 5396SOL    HW127650   0.789   2.384   6.702 -0.9004  1.6773 -0.5416
 5396SOL    HW227651   0.703   2.326   6.595  0.5559 -0.9012 -0.1558
 5397SOL     OW27652   4.404   1.230   5.600 -0.3133 -0.0526 -0.1264
 5397SOL    HW127653   4.374   1.283   5.526  0.4354 -0.9794 -1.1049
 5397SOL    HW227654   4.406   1.304   5.660  1.5004  0.8093 -1.2157
 5398SOL     OW27655   1.752   2.645  13.553 -0.5788 -0.3436 -0.4776
 5398SOL    HW127656   1.738   2.700  13.630  0.5991 -2.7035  1.4414
 5398SOL    HW227657   1.843   2.618  13.564 -0.6320 -1.0649 -1.7955
 5399SOL     OW27658   3.186   4.382   9.451 -0.1651  0.0963 -0.2801
 5399SOL    HW127659   3.230   4.423   9.526  0.3433 -1.9619  0.5487
 5399SOL    HW227660   3.226   4.295   9.462  0.5260  0.1106 -2.6794
 5400SOL     OW27661   1.394   2.850  17.346 -0.1597  0.5937 -0.1882
 5400SOL    HW127662   1.316   2.814  17.304  0.3468  0.8578 -1.3402
 5400SOL    HW227663   1.359   2.937  17.363  0.8443  0.9904 -0.1389
 5401SOL     OW27664   3.953   0.729   4.372 -0.3089  0.1767  0.4863
 5401SOL    HW127665   4.020   0.780   4.328 -0.0999 -0.8582 -0.3968
 5401SOL    HW227666   3.914   0.686   4.296  0.5074 -0.5011  0.4532
 5402SOL     OW27667   3.812   2.594   1.989  0.0731 -0.1614  0.1461
 5402SOL    HW127668   3.786   2.567   2.077 -0.3059  0.0515  0.0990
 5402SOL    HW227669   3.726   2.586   1.948 -0.8589 -1.4677  2.3681
 5403SOL     OW27670   0.229   0.315  14.622 -0.2517 -0.1857  0.4050
 5403SOL    HW127671   0.279   0.293  14.700  0.0793 -0.4954  0.1010
 5403SOL    HW227672   0.265   0.401  14.604  0.8044 -0.4087  1.4495
 5404SOL     OW27673   2.906   2.434   5.164  0.2392  0.0943  0.6336
 5404SOL    HW127674   2.879   2.348   5.196 -0.0995  0.6617  1.8510
 5404SOL    HW227675   2.949   2.465   5.243  1.5409  1.4348 -0.6079
 5405SOL     OW27676   0.139   0.459   4.122 -0.4883 -0.4316 -0.0547
 5405SOL    HW127677   0.210   0.413   4.167  0.5339 -1.0243 -2.3216
 5405SOL    HW227678   0.066   0.405   4.151 -0.2749  0.4078  2.0633
 5406SOL     OW27679   4.017   4.564   2.790 -0.0075 -0.4345  0.0311
 5406SOL    HW127680   3.950   4.577   2.858  0.2330 -0.6920  0.3199
 5406SOL    HW227681   4.069   4.644   2.790  0.1070 -0.5197 -1.4985
 5407SOL     OW27682   4.557   3.974  12.908  0.4610 -0.2187 -0.4567
 5407SOL    HW127683   4.594   3.890  12.882  2.9604  0.1309  2.0067
 5407SOL    HW227684   4.641   4.016  12.888  0.2881  0.0168 -0.6946
 5408SOL     OW27685   0.882   3.705   2.635 -0.4925 -0.2478 -0.1657
 5408SOL    HW127686   0.846   3.712   2.723  1.2185 -3.9963  0.8033
 5408SOL    HW227687   0.859   3.789   2.594 -4.6320 -2.4530 -2.3475
 5409SOL     OW27688   1.146   4.527   8.658 -0.2603  0.1912  0.5845
 5409SOL    HW127689   1.158   4.612   8.700  1.5115  0.2980 -0.1484
 5409SOL    HW227690   1.146   4.473   8.738 -1.9412 -1.3323 -0.4400
 5410SOL     OW27691   0.433   2.631   7.182  0.0406 -0.3832  0.3734
 5410SOL    HW127692   0.396   2.650   7.096 -0.1084 -1.6083  0.1665
 5410SOL    HW227693   0.463   2.718   7.210 -0.0766  0.0363 -0.7918
 5411SOL     OW27694   2.058   2.187  11.392  0.0161  0.1233  0.0077
 5411SOL    HW127695   1.985   2.153  11.444  1.4164  0.3391  2.1345
 5411SOL    HW227696   2.075   2.272  11.433  1.9611 -0.4423  0.3555
 5412SOL     OW27697   2.061   2.322   9.102 -0.3105  0.0519  0.3262
 5412SOL    HW127698   2.054   2.276   9.018  0.4448 -2.3559  1.5645
 5412SOL    HW227699   1.974   2.308   9.139 -0.8325 -0.2118 -0.9826
 5413SOL     OW27700   2.968   3.705  16.934  0.1052  0.3631  0.4087
 5413SOL    HW127701   2.914   3.681  17.008  0.5546 -5.4999 -1.1578
 5413SOL    HW227702   3.056   3.694  16.971  1.1452 -0.6239 -2.2864
 5414SOL     OW27703   2.822   2.924   5.498 -0.2495  0.4162 -0.4785
 5414SOL    HW127704   2.784   2.962   5.578  2.0443 -2.4590  1.9697
 5414SOL    HW227705   2.739   2.924   5.451 -1.4526  1.4716  1.6381
 5415SOL     OW27706   1.458   4.473   1.371  0.1519 -0.1428 -0.2869
 5415SOL    HW127707   1.479   4.566   1.368 -0.9769  0.2021  1.9433
 5415SOL    HW227708   1.393   4.479   1.301  1.9051  3.4478 -1.5388
 5416SOL     OW27709   0.019   3.822   6.438 -0.4164  0.0539 -0.0271
 5416SOL    HW127710   0.101   3.774   6.447 -0.4683 -0.4105 -1.9801
 5416SOL    HW227711   0.027   3.847   6.345 -0.0746  0.9188  0.2335
 5417SOL     OW27712   4.276   1.742   5.772 -0.0572  0.4041 -0.0320
 5417SOL    HW127713   4.209   1.810   5.764  0.5249  0.7269 -2.1227
 5417SOL    HW227714   4.350   1.788   5.810 -0.1859 -0.1472  0.8905
 5418SOL     OW27715   2.230   2.307  11.128 -0.3936  0.1840  0.3245
 5418SOL    HW127716   2.219   2.375  11.194 -1.3499  0.6780 -0.3493
 5418SOL    HW227717   2.322   2.285  11.143 -0.1222  1.7028  0.8783
 5419SOL     OW27718   0.938   1.093   4.919 -0.7264 -0.6517  0.6497
 5419SOL    HW127719   0.949   1.005   4.883  1.6208  0.1520 -0.5781
 5419SOL    HW227720   0.890   1.126   4.843 -0.9093 -0.0243  1.0416
 5420SOL     OW27721   4.037   1.699   2.858  0.2284 -0.5845  0.3046
 5420SOL    HW127722   4.127   1.708   2.826  0.1452  1.0431  0.5341
 5420SOL    HW227723   4.009   1.658   2.776  1.4436 -1.6097  0.3996
 5421SOL     OW27724   0.465   2.795   5.766 -0.0508  0.1670 -0.3911
 5421SOL    HW127725   0.448   2.858   5.696  1.8367 -0.5222 -1.4474
 5421SOL    HW227726   0.438   2.838   5.848  1.4957  0.4377 -0.0203
 5422SOL     OW27727   2.462   3.738  13.361  0.5877 -0.3744 -0.1499
 5422SOL    HW127728   2.462   3.699  13.448 -0.2914 -2.5854 -1.1510
 5422SOL    HW227729   2.424   3.669  13.307 -0.3907  0.2366 -0.2395
 5423SOL     OW27730   3.229   0.307   3.753  0.1493  0.1276  0.2458
 5423SOL    HW127731   3.164   0.336   3.816  1.0974  1.4024  0.6351
 5423SOL    HW227732   3.190   0.221   3.741  2.3256 -1.0537  1.5860
 5424SOL     OW27733   1.062   4.081   7.278 -0.0968 -0.5260 -0.2742
 5424SOL    HW127734   1.063   4.176   7.290 -0.9744 -0.6730  0.9606
 5424SOL    HW227735   1.007   4.083   7.200  0.1136 -1.9718 -0.4629
 5425SOL     OW27736   1.858   1.757   8.696 -0.0269 -0.1516 -0.2389
 5425SOL    HW127737   1.844   1.666   8.724  0.9564 -0.0570  0.5730
 5425SOL    HW227738   1.870   1.740   8.603  1.7751 -0.9815  0.1492
 5426SOL     OW27739   3.530   1.280   2.803  0.1961  0.2746 -0.2245
 5426SOL    HW127740   3.445   1.256   2.840  0.6466 -0.3481  0.4209
 5426SOL    HW227741   3.568   1.192   2.802 -1.6633 -0.4956 -1.3298
 5427SOL     OW27742   0.118   0.662  10.024 -0.8385  0.5292  0.1279
 5427SOL    HW127743   0.187   0.643   9.960 -0.8984  0.3585  0.1143
 5427SOL    HW227744   0.058   0.590  10.005 -1.7211  0.5949  2.6432
 5428SOL     OW27745   3.180   3.932   7.253  0.0228  0.0434 -0.3474
 5428SOL    HW127746   3.088   3.925   7.276  0.5671  2.5455  2.6420
 5428SOL    HW227747   3.184   3.922   7.158  2.3651 -1.2794 -0.1246
 5429SOL     OW27748   1.720   0.137   2.981 -0.4913 -0.2475 -0.4376
 5429SOL    HW127749   1.629   0.126   3.009  0.1216  0.3882  1.8016
 5429SOL    HW227750   1.747   0.047   2.964  1.2338  0.1738  0.0811
 5430SOL     OW27751   1.956   2.174   4.366 -0.9930  0.0142 -0.4112
 5430SOL    HW127752   2.015   2.108   4.331  1.1212  1.7999 -0.2076
 5430SOL    HW227753   1.996   2.255   4.334  0.9168  0.3047  2.7174
 5431SOL     OW27754   3.266   4.463  13.958 -0.1166  0.1051  0.1244
 5431SOL    HW127755   3.328   4.533  13.981 -1.4779  0.9404  1.2483
 5431SOL    HW227756   3.221   4.505  13.885  1.8337  0.9832 -0.5776
 5432SOL     OW27757   3.311   4.701   7.625 -0.4255 -0.0798 -0.0925
 5432SOL    HW127758   3.269   4.701   7.539  1.3853  2.3360 -0.9854
 5432SOL    HW227759   3.398   4.686   7.590  0.4038  1.4546  1.3058
 5433SOL     OW27760   4.596   0.806   8.872  0.0176 -0.5592  0.6636
 5433SOL    HW127761   4.643   0.889   8.881 -1.5371  0.3721  0.3545
 5433SOL    HW227762   4.530   0.804   8.941 -0.0738 -1.4726  0.5455
 5434SOL     OW27763   2.572   2.080  14.233 -0.1758 -0.9060 -0.7192
 5434SOL    HW127764   2.651   2.117  14.272 -1.9933 -0.9602  2.9944
 5434SOL    HW227765   2.534   2.155  14.186  0.7909  0.7353  1.1141
 5435SOL     OW27766   3.523   2.362   4.954  0.4770 -0.2719 -0.0890
 5435SOL    HW127767   3.433   2.340   4.930 -0.3891  2.7659  0.3758
 5435SOL    HW227768   3.515   2.428   5.023  0.0214 -0.1291 -0.2732
 5436SOL     OW27769   3.828   3.428  11.058 -0.3653  0.5564  0.1021
 5436SOL    HW127770   3.818   3.333  11.049 -0.9454  0.8787 -2.6264
 5436SOL    HW227771   3.855   3.443  11.149  0.4242  0.2515 -0.0795
 5437SOL     OW27772   3.465   1.203   1.896  0.2122 -0.2957 -0.1450
 5437SOL    HW127773   3.516   1.122   1.896  0.1406 -0.3411  1.6931
 5437SOL    HW227774   3.511   1.244   1.823  1.2185  0.6657  1.0110
 5438SOL     OW27775   1.574   4.339   8.865  0.0612 -0.7287  0.4762
 5438SOL    HW127776   1.565   4.335   8.960  1.0462 -0.6836  0.5732
 5438SOL    HW227777   1.664   4.370   8.856 -0.4879  0.9292  0.8302
 5439SOL     OW27778   1.593   0.675   4.813  0.4268  0.0282  0.0412
 5439SOL    HW127779   1.605   0.730   4.890 -0.3085 -2.3728  1.8914
 5439SOL    HW227780   1.506   0.650   4.843  1.0445 -0.4894  1.4601
 5440SOL     OW27781   3.802   2.533  11.909 -0.4037  0.4140  0.8658
 5440SOL    HW127782   3.714   2.571  11.915  0.3658  2.0930  1.8198
 5440SOL    HW227783   3.781   2.441  11.899  1.1798  0.1545  0.0619
 5441SOL     OW27784   0.789   4.613   6.519  0.3230  0.1309 -0.0397
 5441SOL    HW127785   0.772   4.626   6.612  2.3944  1.0902  0.1945
 5441SOL    HW227786   0.701   4.595   6.485  0.1376  0.9998 -0.0087
 5442SOL     OW27787   0.911   1.777   0.954  0.1277 -0.4871  0.0404
 5442SOL    HW127788   0.913   1.681   0.944 -0.8810 -0.4006 -1.0183
 5442SOL    HW227789   0.978   1.796   0.888  0.4639 -0.5903  0.3543
 5443SOL     OW27790   0.585   4.502  15.033  0.6243  0.5227  0.5424
 5443SOL    HW127791   0.560   4.565  15.101 -2.6625  0.0038 -0.2031
 5443SOL    HW227792   0.652   4.451  15.077  0.9625  1.2738  0.9027
 5444SOL     OW27793   1.608   0.195   7.468 -0.4834 -0.2042  0.1527
 5444SOL    HW127794   1.647   0.158   7.547 -0.4864  0.6959  0.5703
 5444SOL    HW227795   1.685   0.209   7.414  0.1226  0.5016  1.2134
 5445SOL     OW27796   2.246   1.058   5.101  0.3369 -0.0639 -0.0599
 5445SOL    HW127797   2.333   1.089   5.075  0.4663 -0.4120 -0.0488
 5445SOL    HW227798   2.190   1.113   5.047 -1.5686  0.4288  2.3935
 5446SOL     OW27799   0.207   1.248  14.292  0.0624  0.0206 -0.1479
 5446SOL    HW127800   0.120   1.244  14.250  0.0635 -1.6055  0.0301
 5446SOL    HW227801   0.176   1.266  14.381  1.6747  1.4066  0.1309
 5447SOL     OW27802   3.398   3.157  12.148  0.0750  0.2128 -0.3035
 5447SOL    HW127803   3.378   3.212  12.072  0.0755  0.3170 -0.2284
 5447SOL    HW227804   3.351   3.212  12.211 -1.1993 -0.6115 -0.5194
 5448SOL     OW27805   3.398   1.285   9.252 -0.4227 -0.0044 -0.2969
 5448SOL    HW127806   3.373   1.246   9.335 -0.4721  2.5482  0.9087
 5448SOL    HW227807   3.442   1.366   9.280 -2.4452  2.1953 -3.3962
 5449SOL     OW27808   1.487   3.626   8.183 -0.3470  0.4484  0.2651
 5449SOL    HW127809   1.540   3.694   8.224  1.4821 -1.3575  0.8897
 5449SOL    HW227810   1.464   3.670   8.101  0.7322  0.3883 -0.0752
 5450SOL     OW27811   1.808   1.872   6.472 -0.0167 -0.1593  0.3273
 5450SOL    HW127812   1.841   1.833   6.554 -0.9750  0.2507  0.9113
 5450SOL    HW227813   1.854   1.956   6.468  0.4459 -0.4921 -1.3782
 5451SOL     OW27814   0.890   0.068   7.384 -0.3833  0.0959 -0.1359
 5451SOL    HW127815   0.904   0.131   7.454  2.2611 -0.8309  0.1817
 5451SOL    HW227816   0.928   4.712   7.426 -1.3662  1.4889  3.2701
 5452SOL     OW27817   1.899   0.728   6.172  0.2408  0.4497 -0.2883
 5452SOL    HW127818   1.925   0.674   6.246 -0.8991  0.0343 -0.1879
 5452SOL    HW227819   1.976   0.783   6.156  1.7665 -1.7702 -0.6141
 5453SOL     OW27820   0.333   0.372  15.269  0.0038  0.0641  0.4146
 5453SOL    HW127821   0.342   0.467  15.274  0.3784 -0.0028  1.0104
 5453SOL    HW227822   0.416   0.338  15.236  1.1636  1.3662  1.9541
 5454SOL     OW27823   3.291   0.869   3.108  0.2116  0.0909 -0.0243
 5454SOL    HW127824   3.373   0.852   3.063 -0.3986 -3.3910  0.1621
 5454SOL    HW227825   3.296   0.821   3.191 -0.5960 -1.3429 -0.7975
 5455SOL     OW27826   3.622   0.484  10.283 -0.1756  0.4868 -0.2355
 5455SOL    HW127827   3.656   0.423  10.349 -0.0069  2.6845  1.6939
 5455SOL    HW227828   3.601   0.559  10.338  1.1124 -0.1772  1.1609
 5456SOL     OW27829   4.264   2.421   5.426  0.0355  0.1873 -0.1840
 5456SOL    HW127830   4.314   2.502   5.442  1.0878 -0.0343 -2.3914
 5456SOL    HW227831   4.219   2.431   5.342 -0.6195  0.2786  0.1788
 5457SOL     OW27832   4.706   3.079   9.564  0.5336 -0.5633  0.3830
 5457SOL    HW127833   0.025   3.074   9.477 -0.9058 -2.1716 -0.1826
 5457SOL    HW227834   4.618   3.115   9.557  0.7590  0.0812  0.8615
 5458SOL     OW27835   0.645   0.717   6.471  0.1723 -0.2458 -0.4627
 5458SOL    HW127836   0.714   0.762   6.421  0.4227 -2.6905 -2.3764
 5458SOL    HW227837   0.692   0.687   6.549 -2.0839 -0.5506  0.7626
 5459SOL     OW27838   1.202   3.000   2.117 -0.5811 -0.1538 -0.0111
 5459SOL    HW127839   1.183   2.983   2.025  1.2196  2.6755 -0.9149
 5459SOL    HW227840   1.169   3.089   2.128 -1.5720 -0.5267  0.0750
 5460SOL     OW27841   0.237   2.107   4.824  0.0279 -0.3530  0.0033
 5460SOL    HW127842   0.189   2.088   4.905 -2.7853 -0.5349 -1.7173
 5460SOL    HW227843   0.171   2.160   4.780 -1.0733 -0.8376  1.0662
 5461SOL     OW27844   0.915   0.789   6.010 -0.0991 -0.5675 -0.1322
 5461SOL    HW127845   0.888   0.779   5.919  0.8496  0.5101 -0.5344
 5461SOL    HW227846   0.877   0.705   6.035 -0.0463 -0.5726 -0.0679
 5462SOL     OW27847   3.100   1.952   6.087 -0.0568  0.5415 -0.0984
 5462SOL    HW127848   3.166   2.019   6.105  0.4738 -0.0705  0.2260
 5462SOL    HW227849   3.143   1.868   6.104  0.4701  1.3289  2.4004
 5463SOL     OW27850   2.394   2.440   6.299  0.0330  0.4892  0.2039
 5463SOL    HW127851   2.344   2.426   6.379  0.5776  0.0170  0.4590
 5463SOL    HW227852   2.480   2.425   6.338  0.1133 -1.9297 -0.8838
 5464SOL     OW27853   1.554   3.897   4.239  0.1599  0.2546 -0.3193
 5464SOL    HW127854   1.505   3.879   4.159  1.3605 -1.4110 -0.6694
 5464SOL    HW227855   1.496   3.882   4.314  1.1363 -1.9405 -0.0087
 5465SOL     OW27856   1.519   4.569   8.710  0.1385  0.4738  0.2291
 5465SOL    HW127857   1.535   4.603   8.798 -2.3069 -0.1940  0.9303
 5465SOL    HW227858   1.528   4.475   8.721 -1.5076  0.1625 -0.9457
 5466SOL     OW27859   3.476   3.168   2.317  0.0571 -0.0958 -0.0407
 5466SOL    HW127860   3.508   3.079   2.305 -1.2100 -0.2552 -2.1846
 5466SOL    HW227861   3.410   3.190   2.251 -0.9352 -1.6771  0.4483
 5467SOL     OW27862   0.036   0.954   7.095 -0.5131  0.1153  0.2929
 5467SOL    HW127863   4.707   1.006   7.158 -0.5354  1.6699 -1.0030
 5467SOL    HW227864   4.698   0.883   7.072 -0.3713  0.3106 -0.6692
 5468SOL     OW27865   0.003   0.803   3.439 -0.0818  0.4806 -0.0080
 5468SOL    HW127866   4.637   0.763   3.436  0.0868  0.1396 -0.2945
 5468SOL    HW227867   0.058   0.734   3.403 -0.4706 -0.8961  2.0468
 5469SOL     OW27868   4.057   0.144   3.789 -0.0773  0.0397 -0.4717
 5469SOL    HW127869   4.016   0.059   3.805 -0.9536  0.6351  0.3753
 5469SOL    HW227870   3.989   0.205   3.817  2.1813  1.8087  1.0860
 5470SOL     OW27871   1.469   4.316  12.445  0.1294  0.2526  0.4231
 5470SOL    HW127872   1.433   4.237  12.485  0.4490 -0.1881 -0.1667
 5470SOL    HW227873   1.514   4.280  12.369  0.2758  0.3450  0.4651
 5471SOL     OW27874   3.793   0.253   3.219  0.2611 -0.1083  0.6099
 5471SOL    HW127875   3.840   0.326   3.258 -1.7224  0.7339  1.4505
 5471SOL    HW227876   3.808   0.182   3.281  0.5240  0.8059  1.5833
 5472SOL     OW27877   0.106   3.275   4.206 -0.1076  0.0940 -0.0378
 5472SOL    HW127878   0.169   3.224   4.257  1.0473 -1.3798 -2.9063
 5472SOL    HW227879   0.171   3.315   4.148 -2.8494 -0.3873 -3.4372
 5473SOL     OW27880   1.084   0.266   7.765 -0.1931  0.4698  0.1900
 5473SOL    HW127881   1.159   0.219   7.727  1.2367  2.4947  0.5015
 5473SOL    HW227882   1.024   0.195   7.790  0.9675 -0.2317  1.0163
 5474SOL     OW27883   1.663   3.267   7.394 -0.1720 -0.2026  0.3456
 5474SOL    HW127884   1.667   3.336   7.327  2.5968  0.1348  0.8594
 5474SOL    HW227885   1.577   3.286   7.431  0.0660  1.0663  0.2475
 5475SOL     OW27886   3.476   2.570  14.539  0.3745 -0.0845  0.6415
 5475SOL    HW127887   3.424   2.651  14.542  1.8371  0.8822  0.0908
 5475SOL    HW227888   3.566   2.602  14.528  0.7568 -1.8181 -1.3526
 5476SOL     OW27889   3.131   3.509   3.797 -0.3311  0.0291 -0.0581
 5476SOL    HW127890   3.077   3.461   3.734  0.3999 -1.3937  0.3956
 5476SOL    HW227891   3.215   3.464   3.788 -0.1998  0.4172 -0.8037
 5477SOL     OW27892   3.493   4.505   0.977  0.0950  0.0204  0.1860
 5477SOL    HW127893   3.526   4.558   1.050 -2.8216 -0.7115  2.0617
 5477SOL    HW227894   3.540   4.542   0.902  0.9487  0.9089  1.1525
 5478SOL     OW27895   4.210   1.591   9.147 -0.3533  0.1170  0.0348
 5478SOL    HW127896   4.116   1.594   9.167 -0.0284 -1.0923  1.6853
 5478SOL    HW227897   4.222   1.497   9.134 -1.7865  0.2858 -2.4725
 5479SOL     OW27898   4.113   1.867   9.217  0.4262 -0.2594  0.2510
 5479SOL    HW127899   4.076   1.784   9.247 -0.0334  0.2416  1.0651
 5479SOL    HW227900   4.189   1.864   9.276  0.5392  0.3546  0.1424
 5480SOL     OW27901   4.307   0.622   9.102 -0.3808  0.3828 -0.0110
 5480SOL    HW127902   4.332   0.715   9.098  0.6729  0.0952 -0.2400
 5480SOL    HW227903   4.268   0.617   9.015 -0.3051 -1.5473  0.0778
 5481SOL     OW27904   4.292   0.262   7.685 -0.4331 -0.4318  0.1004
 5481SOL    HW127905   4.236   0.194   7.724 -0.2886 -0.7853 -0.3067
 5481SOL    HW227906   4.343   0.207   7.626 -1.8182 -0.1687 -1.3321
 5482SOL     OW27907   4.591   3.597   3.756 -0.1562 -0.2410 -0.3525
 5482SOL    HW127908   4.624   3.686   3.746  1.8466 -1.0576 -0.8297
 5482SOL    HW227909   4.647   3.541   3.703 -2.3588 -2.5250 -0.2819
 5483SOL     OW27910   2.587   0.311   7.737 -0.1369 -0.6663 -0.4733
 5483SOL    HW127911   2.516   0.374   7.728  0.3936  0.1219  0.7406
 5483SOL    HW227912   2.633   0.313   7.653 -1.6033  0.6795 -1.2243
 5484SOL     OW27913   2.080   4.098   3.655  0.1581 -0.0180  0.2269
 5484SOL    HW127914   2.072   4.126   3.747 -1.0128 -0.5101  0.2778
 5484SOL    HW227915   2.069   4.004   3.667  1.0563 -0.3541 -1.5610
 5485SOL     OW27916   3.684   3.134   6.532 -0.3847  0.4639 -0.3162
 5485SOL    HW127917   3.666   3.129   6.626  0.5971  0.1224 -0.1492
 5485SOL    HW227918   3.732   3.054   6.510  1.6730  1.0845  1.8691
 5486SOL     OW27919   1.793   2.783   3.277  0.1505  0.0019 -0.0772
 5486SOL    HW127920   1.741   2.809   3.200  0.5040 -0.1659 -0.3696
 5486SOL    HW227921   1.799   2.688   3.269  1.8631  0.0804  0.4216
 5487SOL     OW27922   2.764   1.730  12.909  0.5083  0.0174  0.2586
 5487SOL    HW127923   2.725   1.767  12.829 -2.0603 -1.7997  0.6540
 5487SOL    HW227924   2.833   1.795  12.921  0.9221 -0.0645 -1.5868
 5488SOL     OW27925   3.607   3.341   7.773 -0.1686  0.2045  0.1359
 5488SOL    HW127926   3.550   3.412   7.745 -1.7607 -0.6736  1.1187
 5488SOL    HW227927   3.692   3.384   7.769  0.3427 -0.6976  1.4080
 5489SOL     OW27928   1.063   0.641   5.224  0.1069  0.4004  0.0227
 5489SOL    HW127929   0.979   0.676   5.196 -0.2834 -0.3601  0.2399
 5489SOL    HW227930   1.119   0.705   5.181 -1.9297  2.1100 -0.0805
 5490SOL     OW27931   3.544   2.878   2.621 -0.0718  0.1849 -0.2783
 5490SOL    HW127932   3.527   2.785   2.604  0.5551 -0.1005  0.6455
 5490SOL    HW227933   3.542   2.917   2.533  1.4033  1.3185  0.1888
 5491SOL     OW27934   2.392   2.588   5.930  0.8137 -0.2022  0.5113
 5491SOL    HW127935   2.353   2.507   5.896  0.7408  1.4645 -3.3887
 5491SOL    HW227936   2.466   2.546   5.973  0.3406 -0.2031  1.3226
 5492SOL     OW27937   1.055   1.281   0.215 -0.5660  0.4243  0.3322
 5492SOL    HW127938   1.118   1.351   0.228  0.5287 -0.5366  0.2080
 5492SOL    HW227939   1.037   1.242   0.300  1.5647  0.4139  0.7846
 5493SOL     OW27940   4.504   3.799  15.615  0.7271 -0.4254  0.1776
 5493SOL    HW127941   4.589   3.754  15.615 -0.4338 -2.6266  0.1806
 5493SOL    HW227942   4.448   3.739  15.567 -1.0299  1.2020  0.1837
 5494SOL     OW27943   1.401   0.185   5.083 -0.7431  0.0325 -0.0886
 5494SOL    HW127944   1.347   0.115   5.047 -1.5526 -0.0168  1.2069
 5494SOL    HW227945   1.410   0.254   5.017 -0.0052 -0.4656 -0.5035
 5495SOL     OW27946   2.845   3.888   5.778  0.0314 -0.5858 -0.2234
 5495SOL    HW127947   2.787   3.823   5.816 -2.4892  1.8084  0.0550
 5495SOL    HW227948   2.797   3.968   5.797 -1.5472 -1.2928 -1.2174
 5496SOL     OW27949   2.604   2.692   2.825  0.5801 -0.4778 -0.0335
 5496SOL    HW127950   2.562   2.776   2.807  2.1658  0.2107 -0.4872
 5496SOL    HW227951   2.613   2.649   2.740  1.0795 -0.1455 -0.1433
 5497SOL     OW27952   3.738   2.281   7.307 -0.4208 -0.2828  0.0460
 5497SOL    HW127953   3.828   2.298   7.278 -0.7302  1.4247  0.1048
 5497SOL    HW227954   3.685   2.304   7.230 -1.8132 -1.1381  0.7534
 5498SOL     OW27955   2.281   1.638   0.578  0.8326 -0.2924  0.4906
 5498SOL    HW127956   2.273   1.570   0.645  1.9232  1.3072  2.2488
 5498SOL    HW227957   2.348   1.594   0.525 -1.4281 -1.3142 -1.5135
 5499SOL     OW27958   0.077   1.449   4.201  0.3072 -0.0133 -0.2496
 5499SOL    HW127959   0.049   1.463   4.111 -0.0778  1.3162  0.0760
 5499SOL    HW227960   0.137   1.523   4.204  1.5634 -1.0334 -0.0086
 5500SOL     OW27961   3.239   3.747  17.418  0.1448  0.1205  0.5900
 5500SOL    HW127962   3.226   3.803  17.494 -1.0240  0.0168  0.4701
 5500SOL    HW227963   3.286   3.797  17.352 -1.2949 -1.8192 -1.9376
 5501SOL     OW27964   0.999   2.312   8.585 -0.1703  0.1928 -0.5950
 5501SOL    HW127965   1.053   2.268   8.520 -2.0022 -3.4797  0.3614
 5501SOL    HW227966   1.048   2.283   8.662 -0.7897  2.0925  0.5096
 5502SOL     OW27967   3.585   1.784   2.823 -0.1430  0.5928 -0.1313
 5502SOL    HW127968   3.668   1.821   2.854 -0.1403  1.2757 -0.9629
 5502SOL    HW227969   3.608   1.691   2.816  1.3936  0.7260  3.1553
 5503SOL     OW27970   1.646   4.692   8.268  0.1664  0.5355 -0.2909
 5503SOL    HW127971   1.633   4.717   8.359  2.8586 -0.6508  0.4187
 5503SOL    HW227972   1.717   0.026   8.235 -0.4604  1.0896 -0.6997
 5504SOL     OW27973   2.737   0.908  17.491 -0.0143  0.2883 -0.0050
 5504SOL    HW127974   2.796   0.840  17.525  0.1081 -1.0134 -2.8079
 5504SOL    HW227975   2.654   0.860  17.495  0.2650 -0.1732  0.3172
 5505SOL     OW27976   1.894   0.140   5.033 -0.0784  1.0151  0.2665
 5505SOL    HW127977   1.889   0.088   4.952 -2.9404 -1.0598  1.7872
 5505SOL    HW227978   1.809   0.119   5.073 -1.2171  2.8763 -1.1252
 5506SOL     OW27979   0.952   2.232   8.048 -0.5263 -0.0335  0.2586
 5506SOL    HW127980   0.954   2.196   8.137 -0.1415 -0.7182 -0.0252
 5506SOL    HW227981   0.960   2.325   8.067  1.4906  0.4953 -3.1385
 5507SOL     OW27982   1.097   0.155   6.939 -0.0014 -0.3378  0.2013
 5507SOL    HW127983   1.122   0.225   6.878 -2.7235  1.6487  1.3466
 5507SOL    HW227984   1.089   0.200   7.023 -1.5107 -1.4775  0.6657
 5508SOL     OW27985   3.481   0.374   3.863  0.6344  0.1367 -0.2442
 5508SOL    HW127986   3.505   0.294   3.909 -0.1743  0.4617  0.7426
 5508SOL    HW227987   3.386   0.385   3.871  0.9850  3.2679 -0.2115
 5509SOL     OW27988   0.320   2.890  15.359  0.0813  0.0420 -0.3844
 5509SOL    HW127989   0.286   2.911  15.446 -1.2293  0.2919 -0.9550
 5509SOL    HW227990   0.410   2.919  15.371  0.6587 -1.6335 -0.6564
 5510SOL     OW27991   0.614   2.020   1.182 -0.2330  0.0286  0.4596
 5510SOL    HW127992   0.691   1.967   1.201 -1.7719 -2.4823 -0.2989
 5510SOL    HW227993   0.551   1.947   1.178  0.0115 -0.1743  0.3341
 5511SOL     OW27994   0.743   2.017   4.782 -0.4916  0.0257 -0.1442
 5511SOL    HW127995   0.747   1.937   4.834 -3.5156 -0.7888 -1.2201
 5511SOL    HW227996   0.655   2.050   4.799 -0.5828 -1.1511  1.6898
 5512SOL     OW27997   3.388   1.631  10.695  0.4366 -0.7327 -0.1885
 5512SOL    HW127998   3.443   1.562  10.657  0.0879  0.8226 -3.4612
 5512SOL    HW227999   3.336   1.570  10.748  1.5151 -2.1522 -0.7412
 5513SOL     OW28000   1.413   2.664   8.166 -0.2197 -0.0174 -0.6213
 5513SOL    HW128001   1.427   2.752   8.130 -0.3596  0.3797  0.3150
 5513SOL    HW228002   1.379   2.620   8.088  0.2312 -0.9071 -0.3005
 5514SOL     OW28003   0.558   2.713   9.666 -0.1748 -0.0802  0.5504
 5514SOL    HW128004   0.474   2.693   9.707 -0.8531  0.0982 -0.7510
 5514SOL    HW228005   0.532   2.736   9.577 -0.0717  0.3169  0.6265
 5515SOL     OW28006   4.480   3.159   8.937 -0.8126  0.1735 -0.2988
 5515SOL    HW128007   4.450   3.178   8.848 -0.4101 -1.7258 -0.8373
 5515SOL    HW228008   4.396   3.130   8.972 -1.7233  3.4450  0.1987
 5516SOL     OW28009   2.359   4.453   6.147 -0.2486 -0.2235  0.1500
 5516SOL    HW128010   2.349   4.358   6.141  1.2988 -0.2691 -1.7444
 5516SOL    HW228011   2.287   4.477   6.206 -0.1149  0.2643  0.1143
 5517SOL     OW28012   4.512   4.346   1.167 -0.2713  0.1156 -0.0995
 5517SOL    HW128013   4.499   4.266   1.115  1.1911 -0.4671  0.4370
 5517SOL    HW228014   4.607   4.347   1.159 -0.2480 -1.0250  0.0362
 5518SOL     OW28015   0.621   1.295  11.632  0.0548 -0.2373 -0.2276
 5518SOL    HW128016   0.599   1.206  11.657  1.1966 -0.7777 -1.1399
 5518SOL    HW228017   0.627   1.283  11.538 -0.8660 -3.6047  0.1406
 5519SOL     OW28018   2.730   1.154  13.503  0.6231 -0.5361 -0.6609
 5519SOL    HW128019   2.682   1.237  13.501 -1.7622 -1.8791  0.5441
 5519SOL    HW228020   2.821   1.177  13.488  0.6598 -0.4957 -0.3573
 5520SOL     OW28021   4.120   2.319   1.300  0.1213  0.0663 -0.4934
 5520SOL    HW128022   4.212   2.346   1.291 -1.3164  4.9798 -0.3538
 5520SOL    HW228023   4.078   2.394   1.343 -1.5282  0.3830 -2.6784
 5521SOL     OW28024   0.660   2.461  16.791 -0.0886 -0.2600 -0.4392
 5521SOL    HW128025   0.679   2.548  16.825  0.2005 -0.2192 -0.7041
 5521SOL    HW228026   0.680   2.470  16.698  0.0885 -1.7630 -0.5488
 5522SOL     OW28027   2.408   2.830  15.481 -0.1269  0.4691  0.2462
 5522SOL    HW128028   2.340   2.824  15.414 -1.5397  0.4392  1.6784
 5522SOL    HW228029   2.388   2.916  15.517 -2.4223 -0.3643  0.9608
 5523SOL     OW28030   3.336   0.410  17.407  0.0126  0.1163  0.2892
 5523SOL    HW128031   3.414   0.386  17.458 -0.3630  1.2880  1.4088
 5523SOL    HW228032   3.321   0.325  17.365  0.3595 -0.2480  0.8848
 5524SOL     OW28033   1.950   2.151   5.689  0.4182  0.1216  0.2384
 5524SOL    HW128034   1.956   2.089   5.617 -0.5858 -1.2590  1.3572
 5524SOL    HW228035   1.901   2.219   5.644  0.3518  0.1756  0.3919
 5525SOL     OW28036   1.069   3.754   1.555  0.3961 -0.4052 -0.8476
 5525SOL    HW128037   1.120   3.803   1.491  0.3592  0.6158 -0.0897
 5525SOL    HW228038   0.989   3.746   1.503 -0.8331 -0.1170  0.9823
 5526SOL     OW28039   2.874   0.480   6.734 -0.1506 -0.7529  0.1048
 5526SOL    HW128040   2.814   0.553   6.748 -1.3164 -1.7866  0.4600
 5526SOL    HW228041   2.817   0.419   6.688  0.9828 -0.7369 -1.3094
 5527SOL     OW28042   0.786   2.664   4.386  0.3124  0.3881  0.0800
 5527SOL    HW128043   0.755   2.576   4.408  1.3179  0.4915  1.8695
 5527SOL    HW228044   0.800   2.659   4.291  2.1012 -1.8507  0.4735
 5528SOL     OW28045   4.232   4.628   1.164  0.4530 -0.1352 -0.2857
 5528SOL    HW128046   4.183   4.709   1.154 -1.4582 -1.0742  1.5184
 5528SOL    HW228047   4.291   4.645   1.238 -1.0565  0.1058  0.8604
 5529SOL     OW28048   3.230   2.133  16.859 -0.4880  0.2272 -0.8518
 5529SOL    HW128049   3.135   2.139  16.854 -0.3586  1.7312 -1.2377
 5529SOL    HW228050   3.247   2.205  16.799  2.9545 -0.7703 -1.0663
 5530SOL     OW28051   2.763   3.156   1.172  0.0283 -0.4847 -0.3251
 5530SOL    HW128052   2.728   3.125   1.088  1.0773 -1.1408 -0.5157
 5530SOL    HW228053   2.684   3.136   1.223  0.4709 -2.4437 -0.4060
 5531SOL     OW28054   2.194   0.794   4.198  0.0872  0.0311  0.5251
 5531SOL    HW128055   2.159   0.773   4.285  3.0682  0.4440  1.8499
 5531SOL    HW228056   2.282   0.755   4.202  0.3558  0.4423 -1.4192
 5532SOL     OW28057   1.921   2.193   2.962 -0.0878 -0.0719  0.1015
 5532SOL    HW128058   1.953   2.275   2.925 -0.6203 -0.2338 -0.7312
 5532SOL    HW228059   1.945   2.133   2.892 -1.2598 -1.9157  1.2878
 5533SOL     OW28060   1.366   4.572   1.855  0.7091  0.1822 -0.1601
 5533SOL    HW128061   1.281   4.582   1.899 -0.2106  0.6668 -2.0072
 5533SOL    HW228062   1.349   4.613   1.770  2.6936  1.3092 -0.0074
 5534SOL     OW28063   1.576   4.363  11.807  0.0887  0.5290 -0.0236
 5534SOL    HW128064   1.633   4.287  11.796  1.1339  1.5157 -1.4231
 5534SOL    HW228065   1.616   4.411  11.879 -3.1404  2.3018  0.5473
 5535SOL     OW28066   0.528   2.121   8.288 -0.2837  0.1900 -0.3080
 5535SOL    HW128067   0.498   2.207   8.257  1.1571  0.4974 -0.8424
 5535SOL    HW228068   0.605   2.156   8.333 -0.4330 -0.4433  0.4309
 5536SOL     OW28069   4.073   2.112   3.894 -0.4144 -0.2616  0.3333
 5536SOL    HW128070   4.134   2.066   3.837 -0.0472  0.7428 -0.0690
 5536SOL    HW228071   4.016   2.143   3.824 -3.3813 -1.8490  2.0218
 5537SOL     OW28072   0.257   3.134   8.300  0.1832 -0.1699  0.2604
 5537SOL    HW128073   0.265   3.226   8.323  1.2369 -0.0178 -0.7609
 5537SOL    HW228074   0.274   3.085   8.381  0.4853  0.8121  0.7839
 5538SOL     OW28075   3.087   2.957   4.017 -0.5573 -0.1508  0.4080
 5538SOL    HW128076   3.047   3.044   4.018  1.6405  0.8451 -1.6320
 5538SOL    HW228077   3.149   2.961   3.945 -0.4396  0.6504  0.5623
 5539SOL     OW28078   2.822   0.452   0.189  0.1417  0.0898  0.0356
 5539SOL    HW128079   2.741   0.503   0.186  0.7102  0.9429 -0.7307
 5539SOL    HW228080   2.855   0.473   0.276  1.2262  0.0952 -0.3718
 5540SOL     OW28081   4.622   4.327   3.846  0.2489  0.1250 -0.8081
 5540SOL    HW128082   4.613   4.415   3.884 -0.4079  0.4108 -1.6267
 5540SOL    HW228083   4.655   4.270   3.915 -0.2401 -1.7043 -2.0761
 5541SOL     OW28084   0.391   1.913   7.386  0.0461  0.3061 -0.0728
 5541SOL    HW128085   0.473   1.935   7.431 -0.8052  3.3048 -0.0016
 5541SOL    HW228086   0.415   1.897   7.295  0.5887  1.1478 -0.0793
 5542SOL     OW28087   0.425   3.943   9.731  0.5242  0.6683 -0.2098
 5542SOL    HW128088   0.485   3.870   9.713 -1.1465 -0.7776  0.0672
 5542SOL    HW228089   0.419   3.983   9.644 -0.5270 -1.5046 -1.1358
 5543SOL     OW28090   1.913   1.642   0.194 -0.0758  0.4418 -0.0201
 5543SOL    HW128091   1.910   1.547   0.192 -0.1638  0.4463 -0.1102
 5543SOL    HW228092   2.006   1.653   0.217  0.1549  0.2616 -0.8619
 5544SOL     OW28093   0.545   0.551   5.667 -0.3632 -0.2749  0.0733
 5544SOL    HW128094   0.541   0.485   5.598  0.1998  0.6524 -0.8428
 5544SOL    HW228095   0.480   0.515   5.728 -0.7732 -0.4583 -0.4776
 5545SOL     OW28096   2.549   3.203   6.419 -0.4036  0.1009  0.3131
 5545SOL    HW128097   2.503   3.188   6.501 -0.7790  0.0145  0.0894
 5545SOL    HW228098   2.611   3.268   6.450 -1.4104  0.8078  0.8561
 5546SOL     OW28099   3.043   1.310   2.924 -0.6387  0.5420 -0.1894
 5546SOL    HW128100   2.987   1.355   2.861 -1.3588 -1.1472 -0.7534
 5546SOL    HW228101   3.097   1.253   2.869 -0.0734  0.8129  0.0806
 5547SOL     OW28102   2.740   4.070   2.836 -0.1378 -0.6824 -0.4999
 5547SOL    HW128103   2.776   4.131   2.900  1.5468  0.1114 -2.1812
 5547SOL    HW228104   2.669   4.112   2.787 -0.4126 -1.4212 -0.7398
 5548SOL     OW28105   0.444   0.261  10.817  0.0950  0.4393  0.2629
 5548SOL    HW128106   0.527   0.229  10.783 -0.2916 -0.1586 -0.1051
 5548SOL    HW228107   0.446   0.356  10.803 -0.9553  0.2336 -1.2527
 5549SOL     OW28108   4.162   2.383   1.685 -0.1514  0.2387 -0.2213
 5549SOL    HW128109   4.211   2.465   1.687  0.3982 -0.1027  0.3093
 5549SOL    HW228110   4.094   2.413   1.625  0.1867  1.3220 -0.0523
 5550SOL     OW28111   3.049   2.524   9.132  0.0572  0.9735 -0.1567
 5550SOL    HW128112   2.954   2.539   9.134  0.1851  1.8584 -1.0888
 5550SOL    HW228113   3.046   2.428   9.139  2.5813  0.8340 -0.8432
 5551SOL     OW28114   3.243   1.193  11.200 -0.5546 -0.1517 -0.0804
 5551SOL    HW128115   3.202   1.271  11.236 -1.5053 -0.5930 -0.2240
 5551SOL    HW228116   3.168   1.140  11.175 -1.1518 -0.0023  1.3527
 5552SOL     OW28117   1.070   2.763  16.265  0.1344 -0.1703  0.2133
 5552SOL    HW128118   1.119   2.750  16.183  1.4965 -0.4589  1.0683
 5552SOL    HW228119   1.134   2.811  16.318  0.3459 -0.8082  0.5329
 5553SOL     OW28120   4.354   0.776   1.213  0.2548 -0.1851  0.6658
 5553SOL    HW128121   4.431   0.724   1.187 -0.3814 -1.6179  1.6494
 5553SOL    HW228122   4.393   0.854   1.251  1.8520 -0.9058  0.5322
 5554SOL     OW28123   3.366   0.474   6.368  0.4297 -0.5280 -0.0757
 5554SOL    HW128124   3.295   0.494   6.430  1.6752  0.7067  0.9471
 5554SOL    HW228125   3.311   0.452   6.293 -1.2113 -1.0557  1.2533
 5555SOL     OW28126   2.447   3.125   2.744 -0.1290 -0.1794  0.6792
 5555SOL    HW128127   2.417   3.074   2.669 -0.1364  1.1109 -0.1953
 5555SOL    HW228128   2.539   3.142   2.724 -0.1269  0.6675  1.3996
 5556SOL     OW28129   3.644   3.362   1.720 -0.5714 -0.1611 -0.0915
 5556SOL    HW128130   3.610   3.442   1.679  0.4586  1.2285  1.7211
 5556SOL    HW228131   3.581   3.293   1.700 -0.5758  0.4856 -2.2963
 5557SOL     OW28132   0.105   2.010   8.707  0.7328 -0.4734 -0.3969
 5557SOL    HW128133   0.155   1.931   8.728 -2.0660 -1.9222  0.8142
 5557SOL    HW228134   0.029   1.994   8.763 -0.3996 -1.8482 -2.3217
 5558SOL     OW28135   0.496   4.271   5.294  0.4328 -0.7435 -0.5041
 5558SOL    HW128136   0.440   4.341   5.260  0.9868  0.1235  0.3907
 5558SOL    HW228137   0.428   4.225   5.343 -0.1058  0.7062  0.0953
 5559SOL     OW28138   1.281   0.141   1.124  0.4261 -0.3248  0.5210
 5559SOL    HW128139   1.271   0.236   1.121  0.7833 -0.3733 -2.4441
 5559SOL    HW228140   1.308   0.121   1.034 -3.7134  0.7736 -0.9303
 5560SOL     OW28141   3.372   0.899   7.486 -0.2765  0.5964  0.3570
 5560SOL    HW128142   3.333   0.813   7.498 -1.0054  1.1420  1.9178
 5560SOL    HW228143   3.357   0.938   7.572  1.9761  0.7304  0.6925
 5561SOL     OW28144   1.602   0.002  10.279 -0.0600 -0.4347  0.0055
 5561SOL    HW128145   1.548   4.671  10.220 -1.7544  1.0925  0.1828
 5561SOL    HW228146   1.648   4.657  10.329  3.4227  0.5630 -1.8226
 5562SOL     OW28147   0.154   2.695  16.490  0.9543 -0.6083  0.3149
 5562SOL    HW128148   0.101   2.619  16.511 -1.2309  0.8652  0.1142
 5562SOL    HW228149   0.203   2.705  16.572  3.3466 -2.2583 -0.9043
 5563SOL     OW28150   0.113   2.384  10.478  0.2861 -0.2210 -0.6777
 5563SOL    HW128151   0.187   2.369  10.419  0.6486  0.0365 -0.2911
 5563SOL    HW228152   0.151   2.448  10.539  0.6882 -0.7376 -0.3906
 5564SOL     OW28153   0.514   2.698   9.148  0.6158 -0.1612 -0.2905
 5564SOL    HW128154   0.421   2.701   9.128  0.8918 -1.0699 -1.7385
 5564SOL    HW228155   0.546   2.665   9.064 -0.7165 -1.2711 -0.3682
 5565SOL     OW28156   0.406   3.383   4.513  0.6806  0.4235 -0.7200
 5565SOL    HW128157   0.412   3.423   4.426 -1.8065  0.8095 -0.6978
 5565SOL    HW228158   0.409   3.291   4.490  0.3849  0.0584  0.7287
 5566SOL     OW28159   3.720   0.051   1.772  0.4709 -0.0114  0.2295
 5566SOL    HW128160   3.675   4.693   1.745  0.2539  0.1345  0.1579
 5566SOL    HW228161   3.663   0.096   1.834 -0.0226 -2.2485  1.3914
 5567SOL     OW28162   3.466   4.584  14.235  0.0280 -0.3079  0.0965
 5567SOL    HW128163   3.552   4.555  14.265  0.1979  0.5646  0.4550
 5567SOL    HW228164   3.475   4.595  14.141 -1.8815 -0.8874 -0.1505
 5568SOL     OW28165   1.985   0.472   7.396  0.0596  0.6553 -0.3341
 5568SOL    HW128166   2.079   0.460   7.407  0.3929 -0.8735 -4.7538
 5568SOL    HW228167   1.985   0.563   7.424  0.3457  0.2917  0.8419
 5569SOL     OW28168   3.697   0.280   8.225 -0.0549  0.1627 -0.1245
 5569SOL    HW128169   3.768   0.345   8.226 -0.7429  0.9494 -2.4178
 5569SOL    HW228170   3.624   0.320   8.273 -0.2783  0.8178 -1.0064
 5570SOL     OW28171   4.080   2.796   1.501  0.5422 -0.3326  0.3901
 5570SOL    HW128172   4.063   2.860   1.569 -1.5128 -0.1560 -0.2658
 5570SOL    HW228173   4.056   2.855   1.430  1.5235  0.9872  1.1722
 5571SOL     OW28174   1.792   3.211   3.037  0.3160 -0.0152  0.2389
 5571SOL    HW128175   1.817   3.286   2.983 -1.0008  0.6585  0.5653
 5571SOL    HW228176   1.779   3.237   3.128 -0.8471 -0.8954  0.3150
 5572SOL     OW28177   3.313   2.484   7.005 -0.1316 -0.4419  0.1613
 5572SOL    HW128178   3.239   2.466   6.947  0.8287  0.4118 -1.2919
 5572SOL    HW228179   3.348   2.395   7.007  0.0933 -0.3707 -0.8917
 5573SOL     OW28180   4.550   1.390  17.084 -0.3164 -0.0067 -0.3321
 5573SOL    HW128181   4.495   1.347  17.019  0.3386  0.2259 -1.0423
 5573SOL    HW228182   4.485   1.438  17.135  1.3463 -0.4576  2.2212
 5574SOL     OW28183   0.601   0.866   4.509  0.5431  0.3644  0.0426
 5574SOL    HW128184   0.523   0.885   4.563  0.1051 -0.5636 -0.2631
 5574SOL    HW228185   0.562   0.848   4.423  1.8659  0.7655 -0.6306
 5575SOL     OW28186   0.784   4.257  15.001  0.0691  0.0666 -0.2819
 5575SOL    HW128187   0.831   4.292  14.924  0.5640  1.7418  0.7826
 5575SOL    HW228188   0.829   4.173  15.012 -0.2632 -0.2206 -1.0797
 5576SOL     OW28189   0.073   2.148   6.433 -0.2132  0.2304  0.1196
 5576SOL    HW128190   0.117   2.202   6.498 -1.4632  0.4111  0.7895
 5576SOL    HW228191   4.709   2.130   6.470 -0.6416  1.4430 -0.2946
 5577SOL     OW28192   2.519   2.119   1.859  0.3147  0.3246 -0.3298
 5577SOL    HW128193   2.481   2.063   1.926  0.8945 -0.5782 -0.7523
 5577SOL    HW228194   2.509   2.062   1.783  1.2479  0.2132 -0.3601
 5578SOL     OW28195   3.353   0.061   3.338 -0.0443  0.6529 -0.5484
 5578SOL    HW128196   3.322   4.703   3.382 -2.8605  1.8431 -0.3780
 5578SOL    HW228197   3.353   0.122   3.411  0.3441  0.6032 -0.5055
 5579SOL     OW28198   1.541   3.751   7.101  0.1179 -0.2005  0.0861
 5579SOL    HW128199   1.635   3.754   7.081  0.0077  0.1708 -0.3694
 5579SOL    HW228200   1.542   3.815   7.171 -2.1845 -1.5384  1.3442
 5580SOL     OW28201   0.528   3.037  17.182  0.0205  0.2687 -0.2189
 5580SOL    HW128202   0.592   2.966  17.185 -0.5818 -0.2433  0.4140
 5580SOL    HW228203   0.446   2.994  17.159  0.1729 -0.4312  0.5646
 5581SOL     OW28204   0.677   1.699   7.243 -0.5411  0.0205 -0.7950
 5581SOL    HW128205   0.661   1.767   7.178 -0.8484  1.4021  0.7041
 5581SOL    HW228206   0.756   1.733   7.285  0.0596 -2.1287 -0.2041
 5582SOL     OW28207   0.835   4.616   5.789 -0.2091  0.5075  0.2142
 5582SOL    HW128208   0.904   4.553   5.806 -0.1489  0.5818  0.2453
 5582SOL    HW228209   0.872   4.697   5.823  1.6492  0.5152 -1.8253
 5583SOL     OW28210   3.711   0.638   8.365 -0.2321 -0.1427  0.8324
 5583SOL    HW128211   3.650   0.571   8.397 -1.0004 -0.2837 -0.9326
 5583SOL    HW228212   3.661   0.717   8.382  0.2239  0.4566 -0.5808
 5584SOL     OW28213   4.140   1.714   8.786  0.3988 -0.3453 -0.1227
 5584SOL    HW128214   4.160   1.789   8.730 -0.1991 -0.0106  0.1109
 5584SOL    HW228215   4.133   1.762   8.868 -1.4426  2.0809 -1.7077
 5585SOL     OW28216   2.472   1.040  13.199  0.1434 -0.1628  0.5381
 5585SOL    HW128217   2.528   0.999  13.265  2.5224 -0.2462 -1.5124
 5585SOL    HW228218   2.512   1.015  13.115  0.6120  0.3749  0.5978
 5586SOL     OW28219   1.385   0.125  15.286 -0.7780 -0.0264 -0.1097
 5586SOL    HW128220   1.305   0.091  15.326  0.2755 -2.1217  0.2640
 5586SOL    HW228221   1.415   0.057  15.225 -0.7035  0.3565 -0.4963
 5587SOL     OW28222   3.168   0.927  12.913  0.7687 -0.1128  0.0146
 5587SOL    HW128223   3.090   0.944  12.966 -0.4585 -2.0726 -1.1572
 5587SOL    HW228224   3.232   0.893  12.975  1.6249 -0.5270 -1.1118
 5588SOL     OW28225   3.454   0.103   3.061  0.2261 -0.0800 -0.0497
 5588SOL    HW128226   3.436   0.090   3.154 -1.2438  0.7408 -0.2184
 5588SOL    HW228227   3.492   0.191   3.060  1.3285 -0.5470  0.7874
 5589SOL     OW28228   4.307   1.391  13.335 -0.3751 -0.5579  0.2280
 5589SOL    HW128229   4.388   1.411  13.382 -0.9188  0.9804  0.5241
 5589SOL    HW228230   4.332   1.321  13.275  3.8503  0.8003  0.3671
 5590SOL     OW28231   4.215   3.621   2.631  0.4594  0.2690 -0.4035
 5590SOL    HW128232   4.304   3.590   2.644  0.7351  1.9564  1.8322
 5590SOL    HW228233   4.168   3.540   2.652 -1.3244  1.9051  2.0045
 5591SOL     OW28234   2.923   2.288  16.979 -0.3839  0.1643  0.7237
 5591SOL    HW128235   2.955   2.270  16.891 -3.4143  1.5019 -0.6693
 5591SOL    HW228236   2.911   2.382  16.964 -0.7671  0.2066  1.3110
 5592SOL     OW28237   2.011   2.065   6.377  0.3452 -0.1025 -0.1093
 5592SOL    HW128238   2.102   2.044   6.396  0.3314  0.5253  0.6529
 5592SOL    HW228239   1.989   2.142   6.429  1.7129  1.2133 -1.4913
 5593SOL     OW28240   1.700   3.172   4.572 -0.3020 -0.1122  0.4210
 5593SOL    HW128241   1.705   3.263   4.544 -1.8942  0.1534  1.0155
 5593SOL    HW228242   1.619   3.152   4.525 -0.4082  0.6962  0.2680
 5594SOL     OW28243   0.400   0.376   3.808 -0.2626  0.0432  0.4382
 5594SOL    HW128244   0.389   0.296   3.859 -3.1053 -1.3266 -2.2943
 5594SOL    HW228245   0.406   0.342   3.718  3.2188  0.1336  0.6498
 5595SOL     OW28246   0.972   4.275  17.628  0.0627  0.1574  0.2240
 5595SOL    HW128247   1.046   4.260  17.688 -0.3602  1.6207  1.1073
 5595SOL    HW228248   0.919   4.339  17.676  0.4514 -0.3274  1.3135
 5596SOL     OW28249   4.127   0.373  13.797  0.3430 -0.3481 -0.1964
 5596SOL    HW128250   4.196   0.436  13.774 -1.0107  2.1550  2.6133
 5596SOL    HW228251   4.104   0.412  13.881  0.4086  0.2802 -0.4702
 5597SOL     OW28252   3.560   4.574   1.707 -0.5316 -0.2682 -0.2662
 5597SOL    HW128253   3.617   4.497   1.707  0.5529  0.5176  1.1430
 5597SOL    HW228254   3.472   4.540   1.723  0.6420 -1.9930  2.5137
 5598SOL     OW28255   2.957   0.062   1.793  0.0745  0.4629 -0.0789
 5598SOL    HW128256   3.049   0.071   1.817  0.5587 -0.3018 -1.6169
 5598SOL    HW228257   2.925   4.719   1.855  0.7538  0.1360 -0.0686
 5599SOL     OW28258   1.476   2.201   5.145  0.0298 -0.1498  0.1129
 5599SOL    HW128259   1.387   2.164   5.141  0.2139 -0.5786 -0.0783
 5599SOL    HW228260   1.451   2.285   5.108 -2.3347 -1.6972 -1.8225
 5600SOL     OW28261   1.892   2.642  11.020  0.3094 -0.2494  0.1719
 5600SOL    HW128262   1.918   2.569  11.076  0.4093  0.2655  0.7934
 5600SOL    HW228263   1.964   2.645  10.957  0.0881  3.2911  0.0887
 5601SOL     OW28264   4.537   1.955   4.221  0.0983 -0.1321  0.0656
 5601SOL    HW128265   4.447   1.925   4.227 -0.2252  0.3145 -2.4735
 5601SOL    HW228266   4.565   1.910   4.141  1.2678  1.2138 -0.2880
 5602SOL     OW28267   0.920   2.496   1.184  0.3707 -0.2104  0.8100
 5602SOL    HW128268   0.842   2.465   1.139  0.4631 -0.0445  0.5356
 5602SOL    HW228269   0.957   2.412   1.212 -0.2030 -0.8199 -0.2871
 5603SOL     OW28270   4.465   4.509  16.579 -0.1586 -0.2191  0.3680
 5603SOL    HW128271   4.534   4.561  16.537  0.7458 -1.4827  0.2807
 5603SOL    HW228272   4.467   4.552  16.665  0.6504 -1.5909  1.0429
 5604SOL     OW28273   3.467   1.518   8.443 -0.2387 -0.4540 -0.0778
 5604SOL    HW128274   3.560   1.507   8.424  0.2517 -1.1247  2.6941
 5604SOL    HW228275   3.460   1.470   8.526 -0.7430 -1.5796 -0.7652
 5605SOL     OW28276   1.482   0.290   2.762 -0.3610  0.2733 -0.7103
 5605SOL    HW128277   1.433   0.208   2.767 -0.7707  0.5684  0.1410
 5605SOL    HW228278   1.419   0.347   2.717  1.0091  1.2546 -1.4095
 5606SOL     OW28279   2.506   4.500   3.716 -0.2054  0.0951 -0.2290
 5606SOL    HW128280   2.451   4.577   3.731  1.6651  1.3659  0.0259
 5606SOL    HW228281   2.524   4.504   3.622  1.8510 -0.3721  0.1608
 5607SOL     OW28282   1.154   0.225   4.674 -0.0498 -0.0037 -0.5529
 5607SOL    HW128283   1.173   0.242   4.582  0.7369 -0.6767 -0.5198
 5607SOL    HW228284   1.226   0.168   4.704 -0.1395  0.0733 -0.1820
 5608SOL     OW28285   2.401   1.995   5.884  0.5167  0.0431  0.1240
 5608SOL    HW128286   2.377   1.904   5.904  0.5550 -0.3312 -1.5817
 5608SOL    HW228287   2.316   2.033   5.905 -0.4745 -1.7720 -0.5985
 5609SOL     OW28288   2.301   2.248   4.788 -0.2356 -0.2110  0.0103
 5609SOL    HW128289   2.331   2.286   4.705  0.6044  0.0935  0.4510
 5609SOL    HW228290   2.256   2.171   4.752  0.8143 -0.2484 -1.2682
 5610SOL     OW28291   2.286   2.278  11.776  0.2024 -0.9223  0.0193
 5610SOL    HW128292   2.328   2.292  11.691 -1.4041 -2.8126 -1.0893
 5610SOL    HW228293   2.195   2.283  11.747  1.0645  0.2152 -2.5163
 5611SOL     OW28294   1.609   4.630   8.964  0.2672 -0.6504 -0.2689
 5611SOL    HW128295   1.698   4.626   8.998  0.9747  2.8939 -1.7408
 5611SOL    HW228296   1.602   0.003   8.950 -2.1200 -0.6506  1.0130
 5612SOL     OW28297   0.337   0.209   9.209  0.4868  0.0995 -1.0570
 5612SOL    HW128298   0.412   0.161   9.244  0.0705  0.7650  0.7558
 5612SOL    HW228299   0.374   0.249   9.130  1.6452  1.1423  0.0079
 5613SOL     OW28300   4.123   2.210  15.052 -0.0007  0.1636 -0.4130
 5613SOL    HW128301   4.076   2.204  14.968  2.2188 -1.5660 -1.5376
 5613SOL    HW228302   4.099   2.125  15.090 -0.5118  1.1844  1.5503
 5614SOL     OW28303   0.659   2.607   8.917  0.3688  0.2653 -0.0602
 5614SOL    HW128304   0.703   2.522   8.913 -0.5627 -0.1381 -1.4509
 5614SOL    HW228305   0.729   2.662   8.882  0.5721  0.8677  1.2856
 5615SOL     OW28306   4.339   2.010   2.108  0.2076  0.0215 -0.5753
 5615SOL    HW128307   4.264   2.069   2.104 -1.8724 -2.7394 -1.7426
 5615SOL    HW228308   4.319   1.953   2.182  1.6305 -0.3735 -0.4875
 5616SOL     OW28309   3.061   0.644   4.296  0.3418 -0.1259  0.4351
 5616SOL    HW128310   3.054   0.737   4.319  1.3215  0.7263 -2.7930
 5616SOL    HW228311   3.150   0.640   4.263 -0.1917  0.8893 -1.0947
 5617SOL     OW28312   0.346   1.279   6.114  0.2196  0.3634 -0.4598
 5617SOL    HW128313   0.300   1.363   6.115  1.9665  1.3288 -1.4742
 5617SOL    HW228314   0.295   1.218   6.167  1.7824  0.2089  0.8722
 5618SOL     OW28315   4.333   2.890   5.946 -0.6441 -0.4360 -0.0574
 5618SOL    HW128316   4.302   2.953   6.010  0.2673 -0.2428  0.1921
 5618SOL    HW228317   4.249   2.876   5.902 -0.4168  0.2953 -0.7189
 5619SOL     OW28318   4.498   3.487  14.511 -0.9877 -0.2061 -0.2799
 5619SOL    HW128319   4.453   3.403  14.504 -0.2446 -0.7013  1.0254
 5619SOL    HW228320   4.496   3.522  14.422  0.9824  1.3467  0.2932
 5620SOL     OW28321   1.940   0.482   7.092  0.5876  0.3378 -0.1264
 5620SOL    HW128322   1.886   0.429   7.033  1.3896 -0.0406 -0.5342
 5620SOL    HW228323   1.909   0.467   7.181 -1.9279  0.8569 -0.9289
 5621SOL     OW28324   1.942   1.366   0.239  0.3946 -0.0187 -0.4403
 5621SOL    HW128325   2.023   1.329   0.205  0.8014 -0.0964  0.6141
 5621SOL    HW228326   1.950   1.372   0.334  0.0316  1.7550 -0.5148
 5622SOL     OW28327   0.086   2.046   1.971 -0.0737 -0.2863  0.0381
 5622SOL    HW128328   0.143   1.990   1.919 -0.3618 -2.3429  1.8986
 5622SOL    HW228329   0.034   2.093   1.906 -1.7849  0.8278  2.2092
 5623SOL     OW28330   0.085   0.546  12.807 -0.7712  0.5000 -0.5418
 5623SOL    HW128331   0.166   0.584  12.841 -1.3285  0.1173  1.2153
 5623SOL    HW228332   0.019   0.577  12.869  0.4017 -1.8428  1.8671
 5624SOL     OW28333   4.065   1.327   2.351 -0.0296 -0.5420 -0.2707
 5624SOL    HW128334   4.145   1.282   2.380 -1.1696 -2.4293 -0.0421
 5624SOL    HW228335   4.090   1.419   2.355 -0.4388 -0.4570  0.2397
 5625SOL     OW28336   3.330   4.543   5.935  0.3984  0.3093  0.2416
 5625SOL    HW128337   3.396   4.607   5.963 -1.8590  1.4260  3.0414
 5625SOL    HW228338   3.384   4.491   5.875  0.8725  0.6475  0.3691
 5626SOL     OW28339   2.929   0.076   0.114 -0.3139 -0.3350 -0.4049
 5626SOL    HW128340   2.917   4.705   0.093  1.9230 -0.6875 -0.1482
 5626SOL    HW228341   2.860   0.087   0.180 -1.0573  1.7007 -1.5078
 5627SOL     OW28342   0.339   1.414   5.565 -0.5427 -0.1616 -0.4678
 5627SOL    HW128343   0.282   1.376   5.631 -1.1139 -1.6082 -1.7953
 5627SOL    HW228344   0.382   1.331   5.544 -3.0312 -1.3106 -0.9858
 5628SOL     OW28345   1.117   3.832   1.196  0.0081  0.4178 -0.6931
 5628SOL    HW128346   1.161   3.851   1.114  1.4154 -0.8001 -0.2257
 5628SOL    HW228347   1.024   3.831   1.175  0.1380 -0.0862 -1.2479
 5629SOL     OW28348   2.646   1.446  12.338 -0.0928  0.1872 -0.4689
 5629SOL    HW128349   2.562   1.428  12.381 -0.8485  0.5061 -1.8256
 5629SOL    HW228350   2.663   1.535  12.368  1.8970 -0.4019  0.1843
 5630SOL     OW28351   1.778   1.863  14.658 -0.9964  0.1794 -0.3842
 5630SOL    HW128352   1.721   1.812  14.716  0.7956  1.7997  2.7873
 5630SOL    HW228353   1.818   1.927  14.717  1.6828  0.5724 -2.5882
 5631SOL     OW28354   0.633   2.001  14.694 -0.0100  0.3254  0.3370
 5631SOL    HW128355   0.645   2.079  14.748  1.1550  0.5295 -0.2320
 5631SOL    HW228356   0.719   1.979  14.659  0.2324  0.7868  0.6409
 5632SOL     OW28357   4.347   1.466  11.123 -0.1104 -0.2713  0.4517
 5632SOL    HW128358   4.437   1.500  11.131  0.3902 -1.1995 -1.2485
 5632SOL    HW228359   4.343   1.457  11.028 -1.5424  0.1769  0.4756
 5633SOL     OW28360   2.140   2.928   3.752  0.0837  0.2739 -0.0925
 5633SOL    HW128361   2.166   2.949   3.662  1.5611 -1.6836 -0.1224
 5633SOL    HW228362   2.180   3.006   3.790 -1.3914  0.4013  1.1961
 5634SOL     OW28363   2.294   2.629   9.396  0.2591 -0.0330 -0.0576
 5634SOL    HW128364   2.287   2.594   9.484  0.5731  0.0698  0.0081
 5634SOL    HW228365   2.240   2.566   9.349 -0.8918  1.0790 -0.2298
 5635SOL     OW28366   4.614   2.570  13.783 -0.1341 -1.0141  0.3405
 5635SOL    HW128367   4.678   2.524  13.730  0.1313 -2.0271  1.5265
 5635SOL    HW228368   4.534   2.517  13.775 -0.5723 -0.2757 -0.1224
 5636SOL     OW28369   4.478   1.016   3.224  0.0438  0.0070 -0.4661
 5636SOL    HW128370   4.561   1.045   3.185 -0.1624 -1.7359 -2.1994
 5636SOL    HW228371   4.410   1.070   3.185 -1.0486 -0.7242  0.4282
 5637SOL     OW28372   2.587   2.466   8.755  0.3300 -0.0886 -0.0895
 5637SOL    HW128373   2.517   2.415   8.796  0.2035  1.6562  1.8295
 5637SOL    HW228374   2.568   2.446   8.663 -0.9388  0.8266 -0.0284
 5638SOL     OW28375   3.960   4.325  16.205  0.6437  0.3603  0.0860
 5638SOL    HW128376   3.927   4.235  16.208  1.8537 -0.0953 -0.3853
 5638SOL    HW228377   3.884   4.380  16.226  0.6238  1.3270 -2.5369
 5639SOL     OW28378   0.183   3.105   3.095  0.4883 -0.3765 -0.0869
 5639SOL    HW128379   0.278   3.095   3.099  0.5706  0.5664  0.3014
 5639SOL    HW228380   0.141   3.022   3.117 -0.1939  0.2900  1.1219
 5640SOL     OW28381   2.049   3.546   1.733 -0.3806  0.0189 -0.2345
 5640SOL    HW128382   2.123   3.485   1.739 -1.2242 -0.8706  1.2768
 5640SOL    HW228383   2.020   3.545   1.824 -0.8598  1.9931 -0.3513
 5641SOL     OW28384   3.110   0.370  13.905  0.6980  0.2432 -0.3742
 5641SOL    HW128385   3.121   0.329  13.991 -1.4968 -0.1888 -0.2870
 5641SOL    HW228386   3.059   0.450  13.919  1.0031  0.4931 -0.6860
 5642SOL     OW28387   0.624   0.987   6.115 -0.0075 -0.4623  0.6561
 5642SOL    HW128388   0.570   1.021   6.186  0.8645  0.7493  0.7253
 5642SOL    HW228389   0.615   1.058   6.052 -0.3691 -0.6191  0.5288
 5643SOL     OW28390   3.722   4.584   8.454  0.0750  0.0220 -0.3900
 5643SOL    HW128391   3.689   4.508   8.502 -0.6272 -0.2200 -1.2425
 5643SOL    HW228392   3.707   4.570   8.360 -1.9172  1.2019 -0.2362
 5644SOL     OW28393   1.521   2.560   3.754  0.2039  0.6617 -0.4603
 5644SOL    HW128394   1.492   2.477   3.792  0.5052  1.3180  1.1944
 5644SOL    HW228395   1.482   2.622   3.816 -1.3380  0.3657 -1.1179
 5645SOL     OW28396   0.037   3.272  15.803  0.1880 -0.2214 -0.0736
 5645SOL    HW128397   0.012   3.322  15.725 -0.6800  0.6905  0.7876
 5645SOL    HW228398   0.129   3.265  15.777  0.0524  1.0144 -0.8888
 5646SOL     OW28399   3.482   2.648   7.364 -0.4830  0.0132  0.4522
 5646SOL    HW128400   3.525   2.604   7.291 -0.4840 -2.8127  2.1255
 5646SOL    HW228401   3.520   2.596   7.435 -1.0983  2.2450  2.4193
 5647SOL     OW28402   0.958   1.617   9.280  0.1563  0.2772 -0.0835
 5647SOL    HW128403   1.047   1.601   9.312 -0.0668  1.2694  1.0595
 5647SOL    HW228404   0.952   1.539   9.225 -1.4575 -0.0952  0.6128
 5648SOL     OW28405   1.081   2.515  15.922 -0.3380 -0.3085 -0.0597
 5648SOL    HW128406   1.058   2.546  15.835 -1.8322  2.0252  1.1802
 5648SOL    HW228407   0.992   2.490  15.944 -0.5483 -0.8107 -1.5083
 5649SOL     OW28408   0.515   3.680  10.206 -0.3536  0.0501 -0.4484
 5649SOL    HW128409   0.593   3.665  10.261  0.2271 -0.4338 -1.4108
 5649SOL    HW228410   0.532   3.773  10.189  0.7304  0.1126  0.9580
 5650SOL     OW28411   3.028   2.295   5.497  0.3106  0.4550  0.5959
 5650SOL    HW128412   3.048   2.222   5.439 -3.5805 -1.1076  1.2042
 5650SOL    HW228413   3.066   2.369   5.450 -0.2705  1.5002  1.7689
 5651SOL     OW28414   1.934   2.590  12.450  0.0995 -0.0319  0.3972
 5651SOL    HW128415   1.944   2.495  12.449 -1.6302 -0.2003 -1.0177
 5651SOL    HW228416   2.018   2.615  12.488  0.7920 -2.5971  0.5555
 5652SOL     OW28417   1.507   3.244   3.051 -0.1276 -0.1846 -0.2747
 5652SOL    HW128418   1.582   3.209   3.100  0.0421  0.6874  0.0895
 5652SOL    HW228419   1.511   3.338   3.071 -1.3021 -0.2586  0.2642
 5653SOL     OW28420   0.575   1.351   2.400  0.4455 -0.2254 -0.6260
 5653SOL    HW128421   0.631   1.275   2.413  0.7042 -0.0546 -0.7547
 5653SOL    HW228422   0.505   1.336   2.464  3.2074 -1.4447  2.1203
 5654SOL     OW28423   2.154   4.276  17.463 -0.0794 -0.5370  0.2259
 5654SOL    HW128424   2.228   4.290  17.523  0.1544 -0.9927  0.0514
 5654SOL    HW228425   2.122   4.194  17.501 -0.5063  0.1361  1.3456
 5655SOL     OW28426   2.217   2.289   2.928  1.0734  0.2066 -0.3406
 5655SOL    HW128427   2.213   2.349   3.003  0.0907 -1.2112  0.7509
 5655SOL    HW228428   2.156   2.336   2.871 -1.1025 -0.6268  1.2634
 5656SOL     OW28429   1.850   1.737   7.039  0.1092  0.1153  0.0917
 5656SOL    HW128430   1.819   1.648   7.055  1.8851 -0.7492 -1.2026
 5656SOL    HW228431   1.788   1.792   7.086 -0.7982 -1.1128  0.3322
 5657SOL     OW28432   3.502   4.244   1.481  0.0543 -0.2517  0.3045
 5657SOL    HW128433   3.496   4.221   1.574  1.4821  0.1751  0.5021
 5657SOL    HW228434   3.553   4.324   1.491  0.8641 -0.8198  0.7937
 5658SOL     OW28435   1.396   4.126   8.291  0.0487 -0.2155 -0.1711
 5658SOL    HW128436   1.346   4.059   8.244 -1.3663 -0.0735  1.1327
 5658SOL    HW228437   1.473   4.140   8.236  0.4275  0.4896  0.5357
 5659SOL     OW28438   3.799   4.303   5.747  0.3523 -0.5273 -0.4357
 5659SOL    HW128439   3.798   4.330   5.655 -0.8764  0.4376 -0.1324
 5659SOL    HW228440   3.706   4.308   5.767  0.5938 -1.1324  0.8386
 5660SOL     OW28441   3.448   3.154   7.200 -0.5737  0.0284  0.3955
 5660SOL    HW128442   3.389   3.147   7.125  0.4161 -1.2847 -0.2531
 5660SOL    HW228443   3.464   3.061   7.213 -0.5560 -0.0191  0.0258
 5661SOL     OW28444   2.013   1.944   3.590  0.6933 -0.4036 -0.1612
 5661SOL    HW128445   1.958   2.017   3.562 -2.0197 -2.1617  0.5954
 5661SOL    HW228446   1.954   1.874   3.561  2.4809 -1.3275 -1.5494
 5662SOL     OW28447   3.892   0.945   3.831  0.2334  0.4403 -0.5004
 5662SOL    HW128448   3.970   0.989   3.799  1.4402 -2.5748 -1.6526
 5662SOL    HW228449   3.874   0.904   3.746 -0.3604 -0.4274  0.0344
 5663SOL     OW28450   4.627   0.391   7.316  0.7699 -0.3253 -0.4327
 5663SOL    HW128451   4.714   0.424   7.336  0.0694  0.7341  0.8719
 5663SOL    HW228452   4.584   0.461   7.365  0.5992 -1.4015  0.9487
 5664SOL     OW28453   3.112   1.433   3.316 -0.1545 -0.1995  0.4069
 5664SOL    HW128454   3.155   1.481   3.245 -0.8791 -0.3199 -0.1154
 5664SOL    HW228455   3.060   1.373   3.262  1.6209 -0.5020 -0.9669
 5665SOL     OW28456   1.820   3.407  15.936 -0.7359  0.1298 -0.6639
 5665SOL    HW128457   1.839   3.344  16.006  1.8594  0.7789 -0.8131
 5665SOL    HW228458   1.905   3.441  15.910 -2.5501  3.2448 -2.4246
 5666SOL     OW28459   3.063   3.239   5.010  0.5953 -0.0455 -0.4750
 5666SOL    HW128460   3.144   3.202   5.046  0.1604 -2.1518 -1.6520
 5666SOL    HW228461   3.095   3.316   4.962 -3.3756  1.7096 -0.2964
 5667SOL     OW28462   4.103   4.275   9.839  0.0578  0.1815 -0.0692
 5667SOL    HW128463   4.161   4.303   9.910 -1.5493 -0.9814  1.7058
 5667SOL    HW228464   4.170   4.251   9.774 -1.2915 -1.6981 -0.7586
 5668SOL     OW28465   0.521   0.982   5.699 -0.1242 -0.3137 -0.3619
 5668SOL    HW128466   0.494   1.047   5.764 -0.9391 -1.6639  0.6467
 5668SOL    HW228467   0.548   0.905   5.749 -1.2987 -0.9733 -0.7451
 5669SOL     OW28468   1.025   1.678   5.914  0.4079 -0.1885 -0.2738
 5669SOL    HW128469   1.015   1.758   5.966  0.7502 -0.8286  0.7591
 5669SOL    HW228470   0.934   1.663   5.886  0.3802  0.1834 -0.3868
 5670SOL     OW28471   2.568   2.157  14.908  0.2837  0.0141  0.6102
 5670SOL    HW128472   2.490   2.123  14.952 -1.8030  1.8050 -1.7020
 5670SOL    HW228473   2.566   2.104  14.829  1.1327 -1.0742  1.3305
 5671SOL     OW28474   2.568   1.253  13.813  0.0287 -0.7863 -0.3539
 5671SOL    HW128475   2.589   1.326  13.755  1.2139 -0.8143  0.0361
 5671SOL    HW228476   2.472   1.254  13.810  0.0994  1.4382 -1.5793
 5672SOL     OW28477   0.223   1.327   6.464 -0.0134  0.0402  0.1514
 5672SOL    HW128478   0.178   1.411   6.475  0.9537  0.5500  0.1851
 5672SOL    HW228479   0.165   1.270   6.413  0.2834 -0.5739  0.5112
 5673SOL     OW28480   1.515   2.560   2.976  0.2482  0.0901 -0.3893
 5673SOL    HW128481   1.447   2.536   3.039  0.4929  0.8309  0.1528
 5673SOL    HW228482   1.488   2.511   2.899 -1.3026 -0.6416  0.6087
 5674SOL     OW28483   2.907   1.356  15.800  0.0100  0.2323  0.0631
 5674SOL    HW128484   2.976   1.407  15.758 -0.1645  0.2596 -0.1911
 5674SOL    HW228485   2.877   1.296  15.731 -0.0852 -1.1801  1.3317
 5675SOL     OW28486   1.982   3.902   7.758 -0.0446 -0.0295  0.0896
 5675SOL    HW128487   1.922   3.891   7.685  0.2878 -2.3146  0.1464
 5675SOL    HW228488   2.069   3.922   7.723 -0.3021 -0.8699 -1.0127
 5676SOL     OW28489   1.553   4.372   6.442 -1.1443 -0.0202 -0.5409
 5676SOL    HW128490   1.499   4.302   6.405  0.2209 -2.1852  1.5600
 5676SOL    HW228491   1.630   4.316   6.449 -1.2095 -0.2066 -1.2930
 5677SOL     OW28492   0.680   0.118   5.531 -0.2721  0.2535 -0.6144
 5677SOL    HW128493   0.762   0.074   5.512 -0.9364 -0.4162 -1.8967
 5677SOL    HW228494   0.701   0.119   5.624 -0.5627 -0.8842 -0.5413
 5678SOL     OW28495   3.833   2.997  16.231  0.3606  0.5001 -0.1779
 5678SOL    HW128496   3.903   2.935  16.211 -1.1903 -0.8493 -1.3591
 5678SOL    HW228497   3.770   2.964  16.167  3.2199  0.2598 -2.8900
 5679SOL     OW28498   0.870   1.929   4.487 -0.1619 -0.2022  0.3436
 5679SOL    HW128499   0.946   1.983   4.511  0.2152  0.0255 -1.4054
 5679SOL    HW228500   0.859   1.930   4.392  0.3714 -1.7713  0.2673
 5680SOL     OW28501   2.526   4.100   5.080 -0.5570  0.3056 -0.3606
 5680SOL    HW128502   2.495   4.148   5.004 -0.5721 -2.5597 -2.1718
 5680SOL    HW228503   2.478   4.139   5.154  1.8216  0.2114  1.2098
 5681SOL     OW28504   3.074   2.391   2.017 -0.0189 -0.6771  0.3506
 5681SOL    HW128505   3.046   2.434   2.098 -0.1872  1.4067 -0.7941
 5681SOL    HW228506   3.103   2.314   2.065  0.2232 -0.6889  0.1808
 5682SOL     OW28507   1.039   4.584   5.224 -0.7475 -0.7696  0.5379
 5682SOL    HW128508   1.048   4.643   5.299 -1.1717  0.3821 -0.3209
 5682SOL    HW228509   1.097   4.512   5.250 -0.7785 -1.5220 -1.5187
 5683SOL     OW28510   3.938   1.054   2.408 -0.1835  0.2387 -0.2759
 5683SOL    HW128511   4.020   1.037   2.363 -0.2820  0.4228 -0.5263
 5683SOL    HW228512   3.901   0.966   2.395 -0.3890  0.6010 -2.1282
 5684SOL     OW28513   2.319   4.361   6.543 -0.3356  0.3103  0.1171
 5684SOL    HW128514   2.404   4.319   6.537 -1.5469 -2.0314 -0.4904
 5684SOL    HW228515   2.272   4.309   6.608 -1.2457 -0.1018 -0.8727
 5685SOL     OW28516   4.344   1.504  12.943 -0.0611 -0.0559 -0.5550
 5685SOL    HW128517   4.342   1.465  12.856  1.1064  0.4542 -0.8085
 5685SOL    HW228518   4.390   1.581  12.911 -0.0599  0.3355  0.3967
 5686SOL     OW28519   3.727   2.182  11.601 -0.4627  0.5560 -0.4492
 5686SOL    HW128520   3.686   2.219  11.523 -2.3783 -1.0677 -0.1872
 5686SOL    HW228521   3.743   2.094  11.566  2.2685  1.1581 -0.7051
 5687SOL     OW28522   2.049   0.572  15.329  0.5820  0.1537 -0.0588
 5687SOL    HW128523   2.057   0.503  15.263 -2.0511  0.2631 -0.5074
 5687SOL    HW228524   2.119   0.543  15.388 -0.0367  1.1549  1.1747
 5688SOL     OW28525   1.533   4.436  15.875  0.2199 -0.7655  0.0642
 5688SOL    HW128526   1.539   4.528  15.848  0.7754 -0.0411  2.6660
 5688SOL    HW228527   1.623   4.423  15.903  0.1266 -1.9526 -0.2154
 5689SOL     OW28528   1.386   0.689   4.170 -0.5334  0.1776 -0.0562
 5689SOL    HW128529   1.445   0.664   4.098 -1.0468 -0.9572 -0.0817
 5689SOL    HW228530   1.452   0.678   4.238 -0.8316  1.2186  0.4035
 5690SOL     OW28531   0.350   0.704   5.230 -0.0966 -0.5611  0.4430
 5690SOL    HW128532   0.272   0.752   5.201 -2.2307 -3.2416  1.6927
 5690SOL    HW228533   0.346   0.732   5.322  0.5890  0.3699  0.1855
 5691SOL     OW28534   0.323   2.934   9.780  0.6394 -0.2840  1.0560
 5691SOL    HW128535   0.296   2.843   9.793  0.5305 -0.4019  0.0502
 5691SOL    HW228536   0.248   2.986   9.750  1.3046 -1.8677 -3.3350
 5692SOL     OW28537   3.376   2.041  14.991 -0.1805  0.0183 -0.0415
 5692SOL    HW128538   3.410   2.065  15.077  0.3587 -0.6886 -0.0610
 5692SOL    HW228539   3.288   2.080  14.990 -0.6067 -0.8985  2.6407
 5693SOL     OW28540   3.760   4.226   7.842  0.5657  0.8511  0.5316
 5693SOL    HW128541   3.765   4.160   7.773 -0.5294  1.0838  0.2285
 5693SOL    HW228542   3.676   4.264   7.817  0.6584  1.6035  1.3442
 5694SOL     OW28543   4.235   2.128  13.598 -0.3801 -0.3965  0.1016
 5694SOL    HW128544   4.220   2.216  13.564 -1.2764 -0.4708  0.3034
 5694SOL    HW228545   4.163   2.110  13.658 -2.1275 -0.9088 -2.1608
 5695SOL     OW28546   4.327   2.009   6.020 -0.5593  0.2027  0.4436
 5695SOL    HW128547   4.369   1.943   5.965 -0.3820  0.0805  0.7259
 5695SOL    HW228548   4.241   1.973   6.039 -0.3340 -1.0137 -0.8650
 5696SOL     OW28549   4.698   4.294  14.745  0.7393  0.2542 -0.4900
 5696SOL    HW128550   0.016   4.214  14.780  0.4702  0.1638 -0.3940
 5696SOL    HW228551   0.052   4.348  14.768 -0.3563  1.9011 -0.7546
 5697SOL     OW28552   4.209   3.157   0.564  0.4699  0.4026 -0.3075
 5697SOL    HW128553   4.227   3.240   0.519 -2.1504  0.4334 -1.3175
 5697SOL    HW228554   4.137   3.184   0.620  0.2933  0.4554 -0.5612
 5698SOL     OW28555   3.378   0.630   1.551 -0.1738 -0.6265  0.2763
 5698SOL    HW128556   3.442   0.583   1.605  0.8475  0.6072  0.1232
 5698SOL    HW228557   3.308   0.568   1.572 -0.2397 -0.7375 -0.2730
 5699SOL     OW28558   2.287   3.558  13.159 -0.3244 -0.3080 -0.4988
 5699SOL    HW128559   2.315   3.473  13.194  0.9938 -0.4647 -1.9044
 5699SOL    HW228560   2.290   3.535  13.066  0.3711 -1.7210 -0.1248
 5700SOL     OW28561   2.031   1.548   7.913 -0.1942  0.2684  0.5658
 5700SOL    HW128562   2.088   1.474   7.930 -0.4547 -0.4826 -1.7847
 5700SOL    HW228563   2.061   1.603   7.985  1.4959  1.6245 -1.1882
 5701SOL     OW28564   1.537   2.627  10.424 -0.0087 -0.2283  0.0947
 5701SOL    HW128565   1.627   2.643  10.398  0.0397 -1.0445 -0.2438
 5701SOL    HW228566   1.537   2.663  10.513  0.1529 -1.8859  0.7582
 5702SOL     OW28567   3.293   2.062   5.773 -0.4635  0.5410  0.2812
 5702SOL    HW128568   3.363   2.005   5.742 -1.4846  0.3681 -1.6735
 5702SOL    HW228569   3.215   2.029   5.729 -0.7683  1.4415  0.1445
 5703SOL     OW28570   1.482   3.827  17.658 -0.2805  0.3820  0.0278
 5703SOL    HW128571   1.533   3.900  17.622  0.4219  0.8905  2.0617
 5703SOL    HW228572   1.459   3.773  17.583 -1.3960 -2.0333  2.1087
 5704SOL     OW28573   3.508   1.879   3.555 -0.3345  0.0123 -0.4429
 5704SOL    HW128574   3.416   1.862   3.570 -0.4379  1.7050  0.9098
 5704SOL    HW228575   3.515   1.974   3.543 -1.5080  0.1727  0.2089
 5705SOL     OW28576   4.481   0.416   9.079  0.2124 -0.3042 -0.0946
 5705SOL    HW128577   4.444   0.500   9.106  0.8763  0.1122 -0.4719
 5705SOL    HW228578   4.411   0.395   9.018  1.8344  1.8300 -2.6649
 5706SOL     OW28579   0.807   2.953   4.404  0.2186 -0.2986  0.1946
 5706SOL    HW128580   0.795   2.859   4.399  0.1218 -0.2779  0.0475
 5706SOL    HW228581   0.893   2.954   4.447  0.5923 -0.0170 -0.5739
 5707SOL     OW28582   1.208   2.154   2.110  0.4287  0.6176  0.4931
 5707SOL    HW128583   1.207   2.127   2.202  0.2482  0.1665  0.3632
 5707SOL    HW228584   1.299   2.181   2.102  0.7815 -0.2433  1.5843
 5708SOL     OW28585   1.590   0.036   5.623  0.6537  0.3324  0.5269
 5708SOL    HW128586   1.641   0.007   5.699  2.1950 -0.9096 -0.9945
 5708SOL    HW228587   1.635   0.003   5.546  1.9266  0.4712  1.2172
 5709SOL     OW28588   3.682   1.169  11.198  0.3385 -0.4797 -0.1642
 5709SOL    HW128589   3.705   1.226  11.125 -1.3134  1.6901  0.9906
 5709SOL    HW228590   3.702   1.224  11.274  0.9213  0.0601 -0.7159
 5710SOL     OW28591   1.459   2.739   6.724 -0.4199  1.1320 -0.2009
 5710SOL    HW128592   1.479   2.667   6.782 -0.8863 -0.2527 -1.7633
 5710SOL    HW228593   1.533   2.746   6.664  0.5302  0.6802  0.9183
 5711SOL     OW28594   4.169   4.558   5.790 -0.1856 -0.5392  0.3090
 5711SOL    HW128595   4.194   4.617   5.719  0.0729 -1.6137 -0.4920
 5711SOL    HW228596   4.075   4.572   5.801 -0.3521 -1.7703  0.5354
 5712SOL     OW28597   3.410   0.819  16.795  0.4103 -0.1967  0.9043
 5712SOL    HW128598   3.452   0.738  16.766 -0.0623 -0.1600  0.1298
 5712SOL    HW228599   3.488   0.863  16.829  0.1925  1.4659 -0.7538
 5713SOL     OW28600   0.598   1.823   9.865 -0.3035  0.2736  0.9047
 5713SOL    HW128601   0.637   1.752   9.916  0.9110  2.1494  2.5218
 5713SOL    HW228602   0.612   1.902   9.915 -0.9314 -1.4136  3.7332
 5714SOL     OW28603   3.097   3.458   1.144  0.2147  0.2726 -0.2170
 5714SOL    HW128604   3.044   3.397   1.195  1.1334 -1.7478 -1.6767
 5714SOL    HW228605   3.031   3.528   1.144  1.1510  1.1618 -0.6485
 5715SOL     OW28606   1.941   4.475   6.649 -0.7256  0.0964 -0.4307
 5715SOL    HW128607   1.925   4.569   6.659 -1.0996 -0.0093 -0.0339
 5715SOL    HW228608   2.008   4.464   6.717 -0.5856  0.7755 -0.4605
 5716SOL     OW28609   4.179   2.560   3.491  0.0440  0.0304  0.5427
 5716SOL    HW128610   4.257   2.606   3.459  0.8819 -1.6842  0.1507
 5716SOL    HW228611   4.213   2.508   3.563 -0.1259 -0.0555  0.5613
 5717SOL     OW28612   1.534   0.557  11.818  0.0684 -0.4460  0.1920
 5717SOL    HW128613   1.530   0.523  11.729 -0.3865  0.2586 -0.0544
 5717SOL    HW228614   1.448   0.522  11.842  1.0477 -1.6305  1.9651
 5718SOL     OW28615   1.930   4.584   7.170  0.0583  0.1058  0.3153
 5718SOL    HW128616   1.926   4.544   7.257 -0.4613 -2.6384 -0.9651
 5718SOL    HW228617   1.883   4.524   7.114 -0.3448  0.2031  0.5521
 5719SOL     OW28618   4.115   0.035   2.519 -0.0231  0.0325 -0.1201
 5719SOL    HW128619   4.091   0.077   2.602  0.2704  1.3043 -0.6865
 5719SOL    HW228620   4.131   4.665   2.541  2.7392  0.8544  1.1705
 5720SOL     OW28621   4.166   3.075   5.721  0.2057  0.0251 -0.4300
 5720SOL    HW128622   4.169   2.982   5.746  0.1647  0.5121  1.3732
 5720SOL    HW228623   4.077   3.100   5.745  0.2298  1.8568 -2.2535
 5721SOL     OW28624   0.979   3.071  11.268  0.2569  0.1337 -0.1578
 5721SOL    HW128625   1.052   3.024  11.309 -0.3893  1.2452  2.2224
 5721SOL    HW228626   0.927   3.119  11.331 -1.2215 -2.3935  0.5584
 5722SOL     OW28627   2.731   2.282  11.941 -0.1881  0.1989  0.1260
 5722SOL    HW128628   2.649   2.232  11.939 -1.0435  1.4879  1.7963
 5722SOL    HW228629   2.731   2.318  12.030 -1.4891 -2.1766  1.0998
 5723SOL     OW28630   1.839   4.244   0.775 -0.1904 -0.2615  0.5816
 5723SOL    HW128631   1.769   4.200   0.822  0.4729 -0.3806  1.4487
 5723SOL    HW228632   1.876   4.281   0.855  0.5240  4.2509 -1.8396
 5724SOL     OW28633   3.651   3.895   8.272 -0.0865  0.1194 -0.6938
 5724SOL    HW128634   3.738   3.884   8.234  1.2028 -0.9527  2.5848
 5724SOL    HW228635   3.638   3.808   8.308 -2.3628  0.5470 -0.4963
 5725SOL     OW28636   1.281   4.219   2.530 -0.2987  0.3494  0.6070
 5725SOL    HW128637   1.276   4.126   2.510  1.3240  0.6012 -1.0464
 5725SOL    HW228638   1.376   4.232   2.527 -0.3665  0.7223  0.0503
 5726SOL     OW28639   3.405   1.460   8.976 -0.9600 -0.3438  0.2865
 5726SOL    HW128640   3.442   1.478   9.062 -2.9690  2.7846  0.5001
 5726SOL    HW228641   3.417   1.547   8.937  0.8951  0.0235  1.6692
 5727SOL     OW28642   0.410   1.109   7.895 -0.1606 -0.1245  0.0799
 5727SOL    HW128643   0.470   1.165   7.943  0.4567 -0.1395 -0.6696
 5727SOL    HW228644   0.454   1.109   7.810 -0.0059  1.4040  0.1625
 5728SOL     OW28645   4.367   0.884   9.035 -0.1280 -0.9039  0.4498
 5728SOL    HW128646   4.309   0.897   8.960 -2.1752 -1.4720  1.9261
 5728SOL    HW228647   4.320   0.922   9.110  1.7824 -0.4140  1.4028
 5729SOL     OW28648   4.045   2.315  16.565 -0.5430  0.0333  0.6173
 5729SOL    HW128649   3.986   2.240  16.555  0.6456 -0.6549 -1.1992
 5729SOL    HW228650   3.995   2.350  16.639 -0.9687  0.0777  0.3067
 5730SOL     OW28651   1.678   2.939   8.084  0.4359 -0.1907 -0.1691
 5730SOL    HW128652   1.617   2.904   8.149 -0.4622  0.0604 -0.8652
 5730SOL    HW228653   1.633   3.022   8.068 -1.8878 -1.0427  1.8070
 5731SOL     OW28654   4.354   1.205  12.122  0.7856 -0.4532 -0.0579
 5731SOL    HW128655   4.428   1.239  12.172 -1.1522  0.0648  2.4749
 5731SOL    HW228656   4.318   1.155  12.195 -1.6183 -0.2577 -1.0962
 5732SOL     OW28657   3.300   4.132   9.444  0.5987 -0.8262 -0.8252
 5732SOL    HW128658   3.230   4.077   9.409 -2.3137  0.9943  2.2270
 5732SOL    HW228659   3.341   4.083   9.516 -1.9469 -4.6070 -1.9588
 5733SOL     OW28660   0.519   3.359   6.954  0.3279  0.2251 -0.3289
 5733SOL    HW128661   0.599   3.389   6.911  1.4199 -0.0803  1.5115
 5733SOL    HW228662   0.489   3.443   6.989 -0.5388  0.0702 -0.6941
 5734SOL     OW28663   3.998   4.212   2.467 -0.1532 -0.4450 -0.3183
 5734SOL    HW128664   4.078   4.213   2.520 -0.7225  2.5681  0.5170
 5734SOL    HW228665   4.031   4.228   2.379  0.4213  1.2132  0.1833
 5735SOL     OW28666   1.400   0.425   7.274 -0.1790  0.2024  0.0386
 5735SOL    HW128667   1.491   0.454   7.281 -0.1019  0.1353 -0.7025
 5735SOL    HW228668   1.344   0.500   7.256  0.4129  0.6648  0.0994
 5736SOL     OW28669   4.657   0.527   3.945  0.1435 -0.2030 -0.1845
 5736SOL    HW128670   4.691   0.589   3.881  0.7404 -0.4275 -0.0940
 5736SOL    HW228671   4.716   0.454   3.927 -0.3007 -0.3954 -0.8374
 5737SOL     OW28672   4.516   4.115   5.154 -0.2664  0.2685 -0.6927
 5737SOL    HW128673   4.445   4.050   5.150 -1.1109  1.0731  1.2846
 5737SOL    HW228674   4.539   4.127   5.062 -0.9020  2.5709 -0.5518
 5738SOL     OW28675   2.046   1.284  15.586  0.1234 -0.0476 -0.7114
 5738SOL    HW128676   2.121   1.326  15.627 -1.4948  1.3698  0.8338
 5738SOL    HW228677   2.061   1.306  15.494  3.6602  3.1428  0.6562
 5739SOL     OW28678   4.097   3.424   5.860 -0.3665  0.3092  0.3946
 5739SOL    HW128679   4.052   3.366   5.799  1.4360 -1.8146  1.0657
 5739SOL    HW228680   4.069   3.388   5.944  1.5794 -0.5707  0.6839
 5740SOL     OW28681   2.616   1.987   9.815  0.5634  0.2122 -0.1567
 5740SOL    HW128682   2.610   2.065   9.869  1.5373  0.1750  0.0026
 5740SOL    HW228683   2.702   2.004   9.777  0.6727  0.0971  0.0407
 5741SOL     OW28684   0.573   4.359  10.437 -0.3437  0.2750 -0.1869
 5741SOL    HW128685   0.610   4.429  10.384  0.1244 -0.2263 -0.5087
 5741SOL    HW228686   0.489   4.395  10.467 -0.3964  0.7605 -0.9199
 5742SOL     OW28687   2.662   4.383   5.386 -0.2392 -0.5484 -0.1059
 5742SOL    HW128688   2.663   4.465   5.435 -3.8821  0.0597 -1.1082
 5742SOL    HW228689   2.749   4.378   5.347  1.2380 -1.9675  3.3080
 5743SOL     OW28690   1.341   0.944  14.776  0.2755  0.1658 -0.1462
 5743SOL    HW128691   1.341   0.945  14.681 -0.3069  1.6265 -0.1254
 5743SOL    HW228692   1.255   0.910  14.798 -0.0623  1.5244  0.6305
 5744SOL     OW28693   0.228   2.053   8.058 -0.0939 -0.7950  0.2114
 5744SOL    HW128694   0.318   2.057   8.024 -0.3432  0.4754 -0.3266
 5744SOL    HW228695   0.231   2.074   8.151  1.0493  0.0796 -0.0215
 5745SOL     OW28696   3.303   4.387   4.088 -0.4899 -0.6306  0.3067
 5745SOL    HW128697   3.324   4.329   4.015  0.7022 -0.5800  0.6040
 5745SOL    HW228698   3.295   4.335   4.167  0.3190 -0.9980  0.1527
 5746SOL     OW28699   1.732   2.695   5.253  0.3272  0.8250 -0.0319
 5746SOL    HW128700   1.650   2.741   5.234  0.5586  0.4998 -1.7966
 5746SOL    HW228701   1.761   2.748   5.328 -2.1553  2.1685 -0.0084
 5747SOL     OW28702   2.898   3.950   3.669  0.2161  0.1879 -0.2373
 5747SOL    HW128703   2.976   3.977   3.719  3.1400 -1.7705 -3.7423
 5747SOL    HW228704   2.910   3.858   3.647  4.1428  1.1008 -1.8654
 5748SOL     OW28705   1.969   1.133   0.490  0.2592 -0.5028 -0.3221
 5748SOL    HW128706   1.966   1.152   0.584  0.8445 -1.2430 -0.1547
 5748SOL    HW228707   2.059   1.166   0.483 -0.3429  1.0331 -0.6491
 5749SOL     OW28708   3.523   2.845   0.145 -0.1690  0.4735  0.5611
 5749SOL    HW128709   3.430   2.844   0.171 -0.3870  0.0487 -0.2372
 5749SOL    HW228710   3.533   2.940   0.145 -1.7282  0.6351 -0.8627
 5750SOL     OW28711   3.309   0.838   0.420  0.9864 -0.4829  0.0255
 5750SOL    HW128712   3.319   0.762   0.477 -1.0910 -1.4826 -0.9143
 5750SOL    HW228713   3.285   0.794   0.339  0.7410  0.4736 -0.4285
 5751SOL     OW28714   2.817   1.287   8.040 -0.5568 -0.1499 -0.4600
 5751SOL    HW128715   2.856   1.360   7.993  0.7903 -0.5631  0.0330
 5751SOL    HW228716   2.793   1.328   8.123  0.7110 -0.7176  0.1843
 5752SOL     OW28717   3.678   0.063   9.932 -0.3911 -0.0656 -0.3753
 5752SOL    HW128718   3.770   0.088   9.935 -0.1380 -1.2040  1.2592
 5752SOL    HW228719   3.655   0.119   9.858  1.1448  0.6169 -0.3450
 5753SOL     OW28720   0.364   0.926   4.647 -0.1787  0.0507  0.1103
 5753SOL    HW128721   0.369   0.844   4.697  0.6610  0.6386  0.9902
 5753SOL    HW228722   0.270   0.943   4.641  0.3628  3.4292  1.0709
 5754SOL     OW28723   4.100   4.312   6.565 -0.3003 -0.8524  0.1169
 5754SOL    HW128724   4.182   4.312   6.515 -1.7884  1.9804 -2.3164
 5754SOL    HW228725   4.050   4.379   6.518  0.3541 -0.9725 -0.7515
 5755SOL     OW28726   4.584   0.130  15.847  0.0269 -0.0075  0.0279
 5755SOL    HW128727   4.613   0.150  15.758 -0.1530 -0.5015 -0.1422
 5755SOL    HW228728   4.659   0.083  15.884  0.5052  0.4150 -0.3922
 5756SOL     OW28729   2.110   4.062  12.322 -0.8425 -0.1370  0.2537
 5756SOL    HW128730   2.103   3.999  12.250 -1.1825 -1.9451  1.8785
 5756SOL    HW228731   2.067   4.011  12.391 -0.4730 -1.9229 -0.8464
 5757SOL     OW28732   4.298   1.491   1.856  0.1778  0.1873 -0.3136
 5757SOL    HW128733   4.224   1.432   1.870  0.6511 -0.4022 -0.3288
 5757SOL    HW228734   4.360   1.425   1.827  1.9771  1.8765 -0.3224
 5758SOL     OW28735   0.618   3.579  15.495 -0.0009  0.0673  0.4748
 5758SOL    HW128736   0.561   3.547  15.565 -1.7815 -0.1148 -1.0466
 5758SOL    HW228737   0.561   3.555  15.422 -1.4601  0.6930  1.4094
 5759SOL     OW28738   0.141   0.584   6.320  0.3586  0.6633 -0.1367
 5759SOL    HW128739   0.200   0.636   6.374 -1.7085  1.0295  1.7182
 5759SOL    HW228740   0.135   0.630   6.237  1.0196  0.9804 -0.0109
 5760SOL     OW28741   3.880   1.161   0.014 -0.2081  0.7780  0.2281
 5760SOL    HW128742   3.907   1.242   0.057 -1.7806  1.1522  0.4966
 5760SOL    HW228743   3.818   1.134   0.082 -0.8833  1.6194 -0.0619
 5761SOL     OW28744   2.778   2.177   7.190 -0.4283 -0.4295  0.0542
 5761SOL    HW128745   2.823   2.258   7.165 -1.8275 -0.6753 -3.1736
 5761SOL    HW228746   2.716   2.167   7.118 -0.2469 -0.1734 -0.1383
 5762SOL     OW28747   2.591   1.274  16.699 -0.1124  0.1547  0.3008
 5762SOL    HW128748   2.560   1.225  16.623 -0.0816 -0.9815  1.0092
 5762SOL    HW228749   2.573   1.364  16.674  1.2529  0.0793 -0.9696
 5763SOL     OW28750   4.172   0.924   5.004  0.0008  0.1463 -0.9630
 5763SOL    HW128751   4.117   0.966   5.071  2.2176  0.4004  0.6898
 5763SOL    HW228752   4.095   0.897   4.954 -0.7013 -1.4776  0.9955
 5764SOL     OW28753   1.312   3.586   5.543 -0.2781 -0.6630  0.1412
 5764SOL    HW128754   1.348   3.553   5.625  0.6696 -2.5323 -1.0357
 5764SOL    HW228755   1.394   3.600   5.495  0.0063 -0.7451  0.6112
 5765SOL     OW28756   1.968   3.153   1.242 -0.1130 -0.1128  0.9100
 5765SOL    HW128757   1.985   3.186   1.330 -1.0807  0.8818  0.7249
 5765SOL    HW228758   2.014   3.069   1.238 -1.8942 -0.9780 -1.4331
 5766SOL     OW28759   4.630   1.991   8.882  0.1085  1.3207  0.5642
 5766SOL    HW128760   4.656   1.908   8.923  0.0066  0.8292 -0.3672
 5766SOL    HW228761   4.536   1.986   8.895  0.0141  1.1746 -0.1799
 5767SOL     OW28762   2.845   1.242  12.129  0.7888 -0.0088 -0.2098
 5767SOL    HW128763   2.779   1.210  12.068 -1.1657  0.2774  1.7802
 5767SOL    HW228764   2.825   1.336  12.133  1.7521  0.1147  1.5016
 5768SOL     OW28765   1.020   2.302   3.811 -0.0685  0.1538 -0.0875
 5768SOL    HW128766   0.963   2.233   3.847 -0.9132  0.7023 -0.3729
 5768SOL    HW228767   1.035   2.361   3.885 -1.0768 -2.4040  2.1545
 5769SOL     OW28768   2.314   0.678  12.815  0.7207 -0.2942  0.5423
 5769SOL    HW128769   2.383   0.617  12.839  2.0638  0.7367 -0.7493
 5769SOL    HW228770   2.310   0.728  12.897 -2.1039  2.9423 -1.5636
 5770SOL     OW28771   3.836   2.835  11.745 -0.5814 -0.2066 -0.0427
 5770SOL    HW128772   3.864   2.912  11.696  0.8440 -1.5607 -1.3569
 5770SOL    HW228773   3.742   2.844  11.758 -0.8861 -2.1414 -0.9634
 5771SOL     OW28774   0.916   1.691   6.366 -0.1031  0.9654 -0.0997
 5771SOL    HW128775   0.890   1.634   6.439  0.4116  1.2951  0.3424
 5771SOL    HW228776   0.918   1.632   6.291  1.8099  0.2041  0.5353
 5772SOL     OW28777   0.644   4.044  11.925  0.1271 -0.5177  0.5346
 5772SOL    HW128778   0.731   4.074  11.900  0.3096 -0.2245  1.5327
 5772SOL    HW228779   0.589   4.081  11.857  0.0853  0.4451  1.1025
 5773SOL     OW28780   3.339   0.605  11.417 -0.0849 -0.3788  0.1297
 5773SOL    HW128781   3.392   0.526  11.418  2.3104  1.2096 -1.3408
 5773SOL    HW228782   3.392   0.649  11.484 -0.7573 -1.6352  1.5012
 5774SOL     OW28783   1.594   4.083   8.062  0.3642  0.4438 -0.4276
 5774SOL    HW128784   1.653   4.083   7.987 -0.0423 -1.8367 -0.7432
 5774SOL    HW228785   1.573   3.992   8.081  0.8498  0.4558  0.1527
 5775SOL     OW28786   2.545   3.828  11.553  0.1693 -0.7498 -0.0534
 5775SOL    HW128787   2.454   3.805  11.532 -0.2631  1.0960 -0.2504
 5775SOL    HW228788   2.555   3.805  11.646  1.3374 -0.1760 -0.0370
 5776SOL     OW28789   3.462   2.395   8.820 -0.4903 -0.9744 -0.3157
 5776SOL    HW128790   3.388   2.338   8.801 -1.9193  0.5799  0.5586
 5776SOL    HW228791   3.435   2.479   8.783  0.9027 -0.8537 -1.0585
 5777SOL     OW28792   2.975   1.637   6.103 -0.0217  0.1605 -0.2296
 5777SOL    HW128793   3.018   1.651   6.187  0.2686 -3.2108  0.1756
 5777SOL    HW228794   2.889   1.600   6.122  0.0593  0.7616  1.3020
 5778SOL     OW28795   0.545   1.567   2.244  0.3673 -0.1796 -0.6567
 5778SOL    HW128796   0.449   1.576   2.245  0.2661 -1.4004  0.3205
 5778SOL    HW228797   0.560   1.482   2.286  3.1764  0.3343 -0.6148
 5779SOL     OW28798   1.530   0.149  13.149 -0.9335 -0.0225  0.6877
 5779SOL    HW128799   1.572   0.075  13.192  0.3023  1.6023  2.2309
 5779SOL    HW228800   1.451   0.112  13.107  0.3501 -1.0574 -0.8325
 5780SOL     OW28801   0.703   2.742  16.840 -0.5996  0.1428  0.6992
 5780SOL    HW128802   0.796   2.721  16.834 -0.7396 -0.4149  0.4979
 5780SOL    HW228803   0.694   2.807  16.770 -1.5557 -0.1669  0.5349
 5781SOL     OW28804   0.727   2.590   5.822 -0.0682  0.5701  0.4101
 5781SOL    HW128805   0.724   2.685   5.833  0.2522  0.6676 -0.3078
 5781SOL    HW228806   0.800   2.557   5.874 -1.6959  0.7342  2.8013
 5782SOL     OW28807   4.061   4.651   4.618 -0.2734  0.2322 -0.4494
 5782SOL    HW128808   4.136   4.674   4.562 -0.8840  2.0804 -0.5126
 5782SOL    HW228809   4.042   0.012   4.663  1.7894  1.0347 -1.0418
 5783SOL     OW28810   0.149   3.467   4.479  0.1168 -0.3103 -0.2686
 5783SOL    HW128811   0.131   3.418   4.399 -0.8711  0.1657 -0.3336
 5783SOL    HW228812   0.244   3.470   4.490  0.0217 -1.1696  0.6931
 5784SOL     OW28813   1.687   0.073  16.289  0.1280  0.0007  0.0737
 5784SOL    HW128814   1.704   4.701  16.279 -0.3800 -0.0238 -0.6055
 5784SOL    HW228815   1.745   0.105  16.358  2.0277 -0.9005 -1.0824
 5785SOL     OW28816   0.137   1.379   7.756 -0.1391  0.4334  0.2723
 5785SOL    HW128817   0.199   1.431   7.807 -0.1467 -1.4999  2.2324
 5785SOL    HW228818   0.106   1.319   7.824 -2.0841  1.1435  0.0160
 5786SOL     OW28819   4.518   1.997   5.128  0.0327 -0.0527 -0.4234
 5786SOL    HW128820   4.457   1.946   5.076 -1.4446 -1.5300  2.7421
 5786SOL    HW228821   4.493   1.978   5.219 -1.2684  0.8626 -0.5981
 5787SOL     OW28822   2.396   0.904   8.420  0.0865 -0.1104  0.4637
 5787SOL    HW128823   2.390   0.954   8.502 -0.7085  0.3431  0.1278
 5787SOL    HW228824   2.480   0.861   8.432 -2.3843 -5.0534  0.1378
 5788SOL     OW28825   1.132   3.083   1.852  0.2075  0.6237  0.2562
 5788SOL    HW128826   1.038   3.091   1.834  0.0314  1.1516  1.4125
 5788SOL    HW228827   1.163   3.082   1.761  0.8517 -0.2186  0.4894
 5789SOL     OW28828   2.578   2.851   0.747  0.0631  0.7603  0.3189
 5789SOL    HW128829   2.547   2.805   0.825 -0.0289  1.2583  0.5787
 5789SOL    HW228830   2.666   2.814   0.743 -0.4640 -0.7517  2.4706
 5790SOL     OW28831   2.804   3.572   5.618  0.5652 -0.4742 -0.0108
 5790SOL    HW128832   2.718   3.604   5.647  0.4045 -0.6787 -0.2626
 5790SOL    HW228833   2.835   3.651   5.573  3.0413 -0.6341  1.4127
 5791SOL     OW28834   3.885   4.364   5.064 -0.0622 -0.0575  0.7342
 5791SOL    HW128835   3.803   4.315   5.066  0.4198 -0.7990  2.4785
 5791SOL    HW228836   3.867   4.415   5.143 -0.5354 -0.8221  1.1208
 5792SOL     OW28837   2.868   3.027  16.810 -0.4454  0.1369 -0.3473
 5792SOL    HW128838   2.854   3.121  16.813 -0.1019  0.1920 -0.4604
 5792SOL    HW228839   2.922   3.009  16.733  0.0085  0.0269 -0.0088
 5793SOL     OW28840   4.057   4.558   1.526  0.1381 -1.2116 -0.2099
 5793SOL    HW128841   3.962   4.568   1.530  0.1998  0.1883 -2.3090
 5793SOL    HW228842   4.081   4.638   1.573  0.8074 -0.7515 -1.3319
 5794SOL     OW28843   2.701   4.385   2.284  0.0998 -0.2161  0.3432
 5794SOL    HW128844   2.612   4.380   2.250  0.4135 -2.5091 -0.1598
 5794SOL    HW228845   2.688   4.452   2.351  0.5773  0.0070  0.2161
 5795SOL     OW28846   3.047   2.721  11.894 -0.4079 -0.1412  0.2500
 5795SOL    HW128847   3.104   2.645  11.898  2.7413  2.0349 -3.3427
 5795SOL    HW228848   2.968   2.681  11.859  0.4130 -0.3393 -1.3814
 5796SOL     OW28849   2.221   1.751   3.331 -0.0091  0.4340  0.5361
 5796SOL    HW128850   2.211   1.821   3.266  3.8478  0.2281 -0.2891
 5796SOL    HW228851   2.247   1.807   3.404 -1.1900  0.4640  0.9255
 5797SOL     OW28852   0.398   1.503   7.146  0.1380 -0.5855  0.4926
 5797SOL    HW128853   0.451   1.429   7.117 -0.6429 -0.1164 -2.1689
 5797SOL    HW228854   0.308   1.473   7.154 -0.6949  1.3279 -1.4373
 5798SOL     OW28855   4.216   2.534   5.661  0.0798  0.1947 -0.1564
 5798SOL    HW128856   4.286   2.481   5.700  0.7056  0.7318 -0.5567
 5798SOL    HW228857   4.183   2.466   5.601  1.3997 -0.3287 -0.2857
 5799SOL     OW28858   0.959   0.995  16.705  0.3985 -0.4340  0.4224
 5799SOL    HW128859   0.866   0.992  16.727  0.2310 -2.0739 -0.5047
 5799SOL    HW228860   0.990   1.059  16.769 -1.5697  0.4541  0.4831
 5800SOL     OW28861   4.285   3.917   7.695  0.0981 -0.1729 -0.3140
 5800SOL    HW128862   4.212   3.857   7.711 -0.6261  0.9354  0.4937
 5800SOL    HW228863   4.350   3.863   7.741  2.3144  2.4413 -0.3568
 5801SOL     OW28864   3.119   0.645   5.498  0.3265  0.0999 -0.1680
 5801SOL    HW128865   3.115   0.643   5.402 -0.0458 -1.6097 -0.1152
 5801SOL    HW228866   3.093   0.737   5.506  0.0748 -0.1192  1.5697
 5802SOL     OW28867   4.025   2.512   1.487  0.1278 -0.3945 -0.5452
 5802SOL    HW128868   3.954   2.527   1.425  0.2220 -1.4126 -0.9075
 5802SOL    HW228869   4.049   2.601   1.512 -0.7083 -0.6629  1.2770
 5803SOL     OW28870   0.117   4.158   8.081 -0.3363 -0.1045 -0.0835
 5803SOL    HW128871   0.209   4.176   8.064 -0.5569  2.0222  0.8957
 5803SOL    HW228872   0.113   4.204   8.165  1.5204 -0.1348  0.0168
 5804SOL     OW28873   0.062   2.330   4.928  0.5563  0.1217  0.0737
 5804SOL    HW128874   0.109   2.349   4.847 -0.8034  0.7929 -0.5533
 5804SOL    HW228875   4.694   2.360   4.911  0.4464  1.3769  2.7729
 5805SOL     OW28876   0.157   1.087   7.669  0.1085 -0.2186  0.2830
 5805SOL    HW128877   0.165   1.113   7.760  2.0909  1.4619 -0.3634
 5805SOL    HW228878   0.116   1.169   7.640  0.0464 -0.3677 -0.0578
 5806SOL     OW28879   0.658   1.821  16.341 -0.1743 -0.1774 -0.1286
 5806SOL    HW128880   0.640   1.755  16.408 -1.4872 -0.0798 -0.3769
 5806SOL    HW228881   0.595   1.800  16.272  0.8867 -0.2881 -1.0708
 5807SOL     OW28882   3.551   1.047   6.579  0.3650  0.3589 -0.0071
 5807SOL    HW128883   3.603   0.977   6.540 -1.1842 -1.2631  0.8199
 5807SOL    HW228884   3.510   1.089   6.503 -1.5034 -0.7561  0.3752
 5808SOL     OW28885   1.832   2.869   5.435 -0.0588  1.4885  0.2319
 5808SOL    HW128886   1.852   2.937   5.500  1.3077  1.1964  0.1295
 5808SOL    HW228887   1.916   2.824   5.422 -1.7416 -1.6470  0.3019
 5809SOL     OW28888   3.084   0.434   2.745  0.0388 -0.0728  0.1753
 5809SOL    HW128889   3.153   0.385   2.701  1.1770 -0.0380  1.9208
 5809SOL    HW228890   3.037   0.360   2.784  0.0724  0.4407  1.1982
 5810SOL     OW28891   2.090   0.946  15.486 -0.7827  0.0199 -0.5404
 5810SOL    HW128892   2.015   0.902  15.445 -0.9502  1.4706 -1.7897
 5810SOL    HW228893   2.153   0.942  15.414 -0.4596 -1.1484 -0.1866
 5811SOL     OW28894   1.442   1.684   4.707 -0.1272 -0.9824 -0.2055
 5811SOL    HW128895   1.353   1.685   4.671 -0.4579  1.6850  0.6934
 5811SOL    HW228896   1.481   1.771   4.695 -1.2286 -0.8541 -2.7538
 5812SOL     OW28897   4.366   0.761   8.434 -0.3389 -0.2497 -0.0563
 5812SOL    HW128898   4.392   0.766   8.342  1.1912  0.0342  0.3971
 5812SOL    HW228899   4.449   0.731   8.470  0.8997  3.5236  0.2693
 5813SOL     OW28900   3.015   0.634  11.623 -0.1671  0.0787 -0.6614
 5813SOL    HW128901   3.047   0.672  11.704  2.9820 -0.3114 -1.7061
 5813SOL    HW228902   2.952   0.579  11.669 -0.8905  1.7886  0.3810
 5814SOL     OW28903   0.070   3.392  16.143 -0.1571 -0.4834 -0.2154
 5814SOL    HW128904   0.060   3.327  16.073  0.0378  1.9428 -2.5040
 5814SOL    HW228905   0.110   3.463  16.093 -1.6846  0.3481 -0.2747
 5815SOL     OW28906   4.235   1.749  14.817  0.3132  0.1558 -0.3459
 5815SOL    HW128907   4.222   1.824  14.876 -1.1706 -0.0356 -0.4290
 5815SOL    HW228908   4.273   1.686  14.878  1.8440 -0.0890 -1.5629
 5816SOL     OW28909   3.463   2.202   3.134  0.0674 -0.1308  0.4505
 5816SOL    HW128910   3.452   2.140   3.061  1.3223  1.9247 -1.4963
 5816SOL    HW228911   3.474   2.287   3.090  0.8783 -0.2040  0.5119
 5817SOL     OW28912   0.410   4.203   2.126 -0.2232 -0.4230 -0.0116
 5817SOL    HW128913   0.447   4.290   2.112 -0.6362 -0.8303 -3.6619
 5817SOL    HW228914   0.432   4.174   2.037 -1.3456 -1.3333  0.0033
 5818SOL     OW28915   3.932   0.268   9.359  0.6585  0.0054  0.2868
 5818SOL    HW128916   4.027   0.283   9.354  0.5518  1.0193  1.5516
 5818SOL    HW228917   3.900   0.327   9.291  1.1071 -0.3195 -0.2104
 5819SOL     OW28918   1.020   4.409   3.193  0.0214 -0.0829  0.6773
 5819SOL    HW128919   1.017   4.349   3.118  0.1165 -1.0769  1.4746
 5819SOL    HW228920   0.981   4.485   3.149  2.0245  0.7022  0.2538
 5820SOL     OW28921   2.118   4.577   1.433  0.5594 -0.0622  0.3472
 5820SOL    HW128922   2.160   4.653   1.392 -0.7976  0.1686 -0.6127
 5820SOL    HW228923   2.028   4.590   1.404  0.6624  0.6690  0.3557
 5821SOL     OW28924   4.609   2.855   4.288  0.1071 -0.2976 -0.5435
 5821SOL    HW128925   4.554   2.933   4.283 -1.3217 -1.3033 -0.4739
 5821SOL    HW228926   4.561   2.795   4.231  0.6907  0.1084 -1.4635
 5822SOL     OW28927   1.636   0.607   6.790 -0.0213 -0.5485 -0.2029
 5822SOL    HW128928   1.642   0.674   6.722 -1.6371 -0.8237 -0.5995
 5822SOL    HW228929   1.711   0.554   6.764  0.8740  0.2712  0.6746
 5823SOL     OW28930   0.584   1.254  11.349  1.1367  0.2537 -0.2570
 5823SOL    HW128931   0.497   1.277  11.315  0.5242 -1.8713 -0.1038
 5823SOL    HW228932   0.640   1.312  11.298  2.2525 -2.3571 -1.9994
 5824SOL     OW28933   2.098   3.128   7.200  0.4123 -0.1594  0.1480
 5824SOL    HW128934   2.063   3.207   7.159  0.8802  0.3687  0.7677
 5824SOL    HW228935   2.175   3.105   7.147 -0.3602  1.3051 -1.6087
 5825SOL     OW28936   0.860   3.792  10.507 -1.3494 -0.3473 -0.2543
 5825SOL    HW128937   0.844   3.841  10.427  0.8446 -1.3720 -1.3044
 5825SOL    HW228938   0.782   3.809  10.559  1.1806 -0.2972  3.5459
 5826SOL     OW28939   1.636   1.219  13.299  0.2119  0.3513  0.0523
 5826SOL    HW128940   1.672   1.135  13.328  2.1296  0.0723 -3.1180
 5826SOL    HW228941   1.689   1.235  13.221  1.1096 -0.6774  0.4479
 5827SOL     OW28942   4.317   2.867  11.335  0.2776  0.2340  0.2906
 5827SOL    HW128943   4.369   2.795  11.370  1.4128  0.5078 -0.8299
 5827SOL    HW228944   4.373   2.941  11.359  1.0739 -0.3914  0.3665
 5828SOL     OW28945   0.339   3.629  11.284  0.0652 -0.5017  0.1892
 5828SOL    HW128946   0.350   3.684  11.362 -1.1080  2.3387 -1.6268
 5828SOL    HW228947   0.255   3.586  11.300 -0.1254 -0.0082  0.5196
 5829SOL     OW28948   1.151   4.308   3.625 -0.1552  0.2099 -0.6804
 5829SOL    HW128949   1.163   4.341   3.714 -0.8080  0.7500 -0.7905
 5829SOL    HW228950   1.237   4.268   3.612 -1.2040 -2.2174 -0.1449
 5830SOL     OW28951   2.903   4.071   6.221 -0.1982 -0.0466  0.4427
 5830SOL    HW128952   2.995   4.071   6.193  0.4754  4.0175  2.5747
 5830SOL    HW228953   2.866   4.116   6.145  1.9203 -0.2120 -0.6970
 5831SOL     OW28954   4.383   4.640   4.623  0.4683 -0.4566  0.0835
 5831SOL    HW128955   4.400   4.664   4.714 -2.5265 -2.6921  1.2568
 5831SOL    HW228956   4.370   4.545   4.624 -1.1947 -0.2144  1.6598
 5832SOL     OW28957   0.238   0.376  15.975  0.6095  0.4255 -0.1705
 5832SOL    HW128958   0.327   0.411  15.975  0.1200  1.6637 -0.8603
 5832SOL    HW228959   0.241   0.333  16.060  0.4903  1.4466  0.3415
 5833SOL     OW28960   2.121   1.837  11.401 -0.1270  0.2770  0.6270
 5833SOL    HW128961   2.156   1.912  11.354 -2.2180  2.4459  2.5342
 5833SOL    HW228962   2.095   1.878  11.483 -1.0674  2.2005 -0.6367
 5834SOL     OW28963   0.031   4.591   3.667 -0.0967  0.3147 -0.3391
 5834SOL    HW128964   0.024   4.566   3.760 -1.5884 -1.7058 -0.9926
 5834SOL    HW228965   4.662   4.584   3.638  0.2141  0.0659 -1.2585
 5835SOL     OW28966   2.769   3.320   8.103  0.4715 -1.1173 -0.1965
 5835SOL    HW128967   2.809   3.308   8.189 -2.0045  0.2685  1.1523
 5835SOL    HW228968   2.787   3.234   8.067  0.5899  0.6075 -4.2414
 5836SOL     OW28969   2.309   2.911   2.554 -0.1155  0.3102 -0.1739
 5836SOL    HW128970   2.299   2.875   2.466  1.7232 -2.7084  0.8502
 5836SOL    HW228971   2.266   2.847   2.611 -0.6116  3.2374  2.7509
 5837SOL     OW28972   2.496   0.816   8.808  0.5536  0.0639 -0.1801
 5837SOL    HW128973   2.574   0.819   8.864  2.2532 -0.8695 -2.5128
 5837SOL    HW228974   2.449   0.893   8.841 -1.3115 -0.2447 -2.0967
 5838SOL     OW28975   3.737   4.347   1.690  0.3676 -0.4299 -0.2887
 5838SOL    HW128976   3.733   4.302   1.774  1.6078 -0.4393 -0.2392
 5838SOL    HW228977   3.827   4.333   1.661  0.7146  0.7728  0.2107
 5839SOL     OW28978   3.554   0.657   7.818  0.0044 -0.0576 -0.0636
 5839SOL    HW128979   3.636   0.707   7.818  0.1942 -0.3621  1.2318
 5839SOL    HW228980   3.526   0.679   7.906 -0.7913 -0.2308 -0.2797
 5840SOL     OW28981   0.364   1.105   3.646 -0.4277  0.2204 -0.4538
 5840SOL    HW128982   0.385   1.015   3.667 -0.4756  1.1814  3.5942
 5840SOL    HW228983   0.326   1.088   3.559 -1.8753  0.9575  0.0282
 5841SOL     OW28984   3.166   1.217   8.152  0.5678  0.3432 -0.1816
 5841SOL    HW128985   3.093   1.156   8.157 -0.6863  1.8314 -0.3792
 5841SOL    HW228986   3.183   1.199   8.060 -3.1310 -0.5216 -0.6614
 5842SOL     OW28987   2.979   1.282   4.504  0.1326 -0.4184 -0.2116
 5842SOL    HW128988   2.938   1.316   4.425 -0.9285  2.0647  1.4423
 5842SOL    HW228989   3.071   1.278   4.478  0.5664 -1.5151  1.4843
 5843SOL     OW28990   3.101   4.616   2.956  0.0126  0.0380  0.0086
 5843SOL    HW128991   3.118   4.522   2.963 -0.4324  0.0209  0.8345
 5843SOL    HW228992   3.065   4.637   3.042  1.2948  1.1035  0.2777
 5844SOL     OW28993   3.017   3.323   7.330  0.2835 -0.3845  0.4671
 5844SOL    HW128994   3.107   3.320   7.297  0.0827  2.9577 -0.3775
 5844SOL    HW228995   3.011   3.390   7.398  1.5592 -2.0221  2.2220
 5845SOL     OW28996   1.581   4.213   3.312  0.2274  0.0314 -0.1612
 5845SOL    HW128997   1.539   4.255   3.387  0.9585  1.4235 -0.5323
 5845SOL    HW228998   1.578   4.285   3.248  0.9712 -0.7666 -1.0878
 5846SOL     OW28999   2.500   2.216   0.101  0.1287 -0.3451 -0.0142
 5846SOL    HW129000   2.417   2.171   0.120  0.8249 -1.6722 -0.1503
 5846SOL    HW229001   2.560   2.166   0.156 -0.1507 -0.4648  0.1817
 5847SOL     OW29002   3.034   1.938  13.944 -0.6486  0.0606 -0.1038
 5847SOL    HW129003   3.057   1.902  13.858  0.3807 -0.4861  0.3968
 5847SOL    HW229004   3.083   1.873  13.994  1.5073  2.3918  0.8225
 5848SOL     OW29005   2.109   2.612   7.281 -0.5297  0.3894 -0.6362
 5848SOL    HW129006   2.203   2.604   7.299 -0.7521 -0.7352  0.0304
 5848SOL    HW229007   2.098   2.525   7.242  0.0224 -0.6333  1.4677
 5849SOL     OW29008   3.501   4.177   1.210 -0.3622 -0.2668 -0.2077
 5849SOL    HW129009   3.552   4.256   1.191 -1.5844  0.4218 -0.6321
 5849SOL    HW229010   3.531   4.169   1.300  0.5540  2.3430 -0.2639
 5850SOL     OW29011   3.186   3.069   3.187  0.1955 -0.4518 -0.1390
 5850SOL    HW129012   3.249   3.014   3.140  1.3109  1.8500 -1.3530
 5850SOL    HW229013   3.109   3.036   3.142  0.7330  0.7791 -1.9865
 5851SOL     OW29014   2.873   4.057   4.718  0.5627 -0.1883 -0.5618
 5851SOL    HW129015   2.872   3.962   4.731 -0.7589 -0.0389  0.4710
 5851SOL    HW229016   2.967   4.073   4.713  0.7238 -0.1338  2.5926
 5852SOL     OW29017   0.019   0.641  17.160  0.2622 -0.6459 -0.2875
 5852SOL    HW129018   4.700   0.697  17.227 -1.0105 -3.0754  0.9666
 5852SOL    HW229019   4.713   0.683  17.078  1.1769 -0.8423 -0.6950
 5853SOL     OW29020   2.932   2.285   2.602 -0.2028  0.3046 -0.0811
 5853SOL    HW129021   2.917   2.191   2.618  1.5042  0.1182  0.4234
 5853SOL    HW229022   3.011   2.287   2.548 -1.0781  1.0224 -1.3080
 5854SOL     OW29023   2.003   0.803  15.208 -0.3010 -0.7031 -0.3224
 5854SOL    HW129024   2.003   0.715  15.245 -0.0948 -1.9869 -3.4403
 5854SOL    HW229025   1.911   0.805  15.182 -0.0025  1.8430 -1.2449
 5855SOL     OW29026   1.409   2.867  15.336 -0.0384  0.3439  0.1605
 5855SOL    HW129027   1.380   2.894  15.423 -2.0307 -1.2823  0.0018
 5855SOL    HW229028   1.454   2.784  15.350  0.5008  0.5215 -0.5167
 5856SOL     OW29029   1.783   0.321   3.188  0.3035  0.0633 -0.2283
 5856SOL    HW129030   1.756   0.237   3.224 -2.0630  0.7865 -0.3057
 5856SOL    HW229031   1.759   0.307   3.097 -0.4823 -1.2530  0.1797
 5857SOL     OW29032   2.244   3.511   4.892 -0.2343  0.3300 -0.2395
 5857SOL    HW129033   2.167   3.562   4.917 -0.8472 -1.3985  1.3285
 5857SOL    HW229034   2.249   3.439   4.954  1.0933  2.0767  1.6856
 5858SOL     OW29035   4.325   2.690   6.126 -0.3258  0.1235 -0.4329
 5858SOL    HW129036   4.291   2.608   6.091 -0.4831  0.6629 -1.5587
 5858SOL    HW229037   4.322   2.740   6.044  1.7740 -0.2655 -0.7297
 5859SOL     OW29038   1.183   4.467   5.638  0.0715  0.2174 -0.0592
 5859SOL    HW129039   1.192   4.555   5.676  0.9129  0.2525 -0.3399
 5859SOL    HW229040   1.112   4.476   5.575  1.2445  2.1708 -1.0778
 5860SOL     OW29041   3.936   3.782   1.372  0.0034  0.3394 -0.2079
 5860SOL    HW129042   3.874   3.727   1.420 -0.7566  0.7814 -0.6921
 5860SOL    HW229043   4.004   3.809   1.434  0.9835  1.5527 -1.8300
 5861SOL     OW29044   3.881   3.470   7.573 -0.2266 -0.1843  0.1258
 5861SOL    HW129045   3.808   3.532   7.572 -0.8195 -0.8827 -0.1312
 5861SOL    HW229046   3.905   3.489   7.664  1.1526 -0.6383 -0.1551
 5862SOL     OW29047   3.145   0.642   8.097  0.7244  0.1835  0.5775
 5862SOL    HW129048   3.204   0.572   8.123  1.6271  1.8970  3.2032
 5862SOL    HW229049   3.092   0.654   8.176 -0.3650 -2.1305  0.1914
 5863SOL     OW29050   1.912   1.182   6.061 -0.4858 -0.1106  0.5455
 5863SOL    HW129051   1.998   1.165   6.023 -0.7174  0.9372 -0.4364
 5863SOL    HW229052   1.867   1.236   5.997 -0.6746  0.1763  0.9170
 5864SOL     OW29053   0.890   2.408  14.655 -0.1045  0.2369 -0.2819
 5864SOL    HW129054   0.971   2.384  14.700 -2.0346 -1.2343  2.3961
 5864SOL    HW229055   0.919   2.491  14.618  0.1807  1.3985  2.5320
 5865SOL     OW29056   4.641   0.280   4.540  0.0910 -0.1334  0.4015
 5865SOL    HW129057   4.670   0.300   4.629 -1.0070 -0.6786  0.8860
 5865SOL    HW229058   0.007   0.283   4.502 -0.2680 -0.7323 -0.4588
 5866SOL     OW29059   3.916   3.545   1.171  0.7984 -0.3277  0.1390
 5866SOL    HW129060   3.907   3.619   1.231  0.2017 -0.5133  0.2720
 5866SOL    HW229061   3.851   3.484   1.206 -0.0707 -0.7574 -2.2367
 5867SOL     OW29062   0.046   2.223   9.512 -0.0080 -1.1366  0.2425
 5867SOL    HW129063   0.134   2.234   9.549  1.2127 -2.7448 -2.1305
 5867SOL    HW229064   4.714   2.197   9.587  1.8499 -1.7953  1.3572
 5868SOL     OW29065   3.169   1.690   3.111 -0.0625  0.4671 -0.2657
 5868SOL    HW129066   3.221   1.769   3.095 -2.3101  1.5941 -1.9790
 5868SOL    HW229067   3.100   1.704   3.046  0.6260 -0.9879 -1.3188
 5869SOL     OW29068   2.316   0.011   7.603  0.0171 -0.1627 -0.2120
 5869SOL    HW129069   2.228   4.710   7.632  0.5525 -1.2988  0.5029
 5869SOL    HW229070   2.311   4.706   7.511 -0.5203 -0.8945  0.0350
 5870SOL     OW29071   3.223   3.456   8.857 -0.4241  0.9450  0.3798
 5870SOL    HW129072   3.234   3.551   8.869  2.9322  0.4730  0.8501
 5870SOL    HW229073   3.178   3.460   8.773 -0.8622  0.3456  0.5860
 5871SOL     OW29074   1.686   2.403  16.028 -0.5465  0.2788  0.2854
 5871SOL    HW129075   1.643   2.432  15.948 -0.8178 -0.6194  0.1112
 5871SOL    HW229076   1.617   2.359  16.077 -0.6718  0.3533  0.1733
 5872SOL     OW29077   1.491   3.521  10.113  0.1636 -0.3907 -0.4282
 5872SOL    HW129078   1.570   3.570  10.138  1.0873 -3.5309  2.8613
 5872SOL    HW229079   1.515   3.500  10.023 -1.2852 -1.6963 -0.4976
 5873SOL     OW29080   1.759   1.253  16.996  0.2583  0.5010 -0.0389
 5873SOL    HW129081   1.799   1.279  17.078  1.8916  1.8387 -1.2696
 5873SOL    HW229082   1.685   1.198  17.023  0.5049  0.6679  0.9738
 5874SOL     OW29083   3.045   2.260   7.400 -0.8828  0.2431 -0.1462
 5874SOL    HW129084   3.051   2.346   7.441 -1.9268 -0.9362  2.5033
 5874SOL    HW229085   2.954   2.237   7.419 -0.5119 -1.4911 -0.4429
 5875SOL     OW29086   3.952   3.469   0.919  0.0787 -0.2671 -0.0980
 5875SOL    HW129087   3.903   3.503   0.993  0.3530 -0.3086  0.1027
 5875SOL    HW229088   3.951   3.535   0.850 -3.6427 -1.6730 -1.3797
 5876SOL     OW29089   3.292   0.281   2.647 -0.0489 -0.4230 -0.1169
 5876SOL    HW129090   3.362   0.296   2.584  1.3533  0.3466  1.6262
 5876SOL    HW229091   3.329   0.295   2.735  1.7251  0.1269 -0.9539
 5877SOL     OW29092   3.027   2.839   8.055  0.5901 -0.3846  0.1555
 5877SOL    HW129093   3.122   2.834   8.041  0.3381 -1.6990 -1.0521
 5877SOL    HW229094   3.008   2.790   8.134 -0.5355  0.3468  0.3391
 5878SOL     OW29095   1.661   4.688   6.708 -0.2897  0.0700 -0.0628
 5878SOL    HW129096   1.727   4.704   6.641  0.2054 -0.6845  0.2415
 5878SOL    HW229097   1.675   0.031   6.777 -1.1506  2.0252 -1.7210
 5879SOL     OW29098   1.235   4.066  10.291 -0.4380 -0.3359 -0.7823
 5879SOL    HW129099   1.191   4.085  10.373  1.0381  1.4252 -0.4029
 5879SOL    HW229100   1.163   4.031  10.239 -0.6309  2.2632 -2.2945
 5880SOL     OW29101   3.683   1.436   4.438  0.0588  0.6062 -0.1220
 5880SOL    HW129102   3.638   1.497   4.497 -1.0314 -1.8663  1.6343
 5880SOL    HW229103   3.668   1.479   4.354 -1.1452  1.4704  0.5316
 5881SOL     OW29104   2.706   1.446   4.109  0.8848  0.0093  0.1641
 5881SOL    HW129105   2.669   1.533   4.093  0.4377  0.1396  1.8976
 5881SOL    HW229106   2.630   1.391   4.127 -0.3426  1.6365 -0.0195
 5882SOL     OW29107   0.811   2.103   5.834 -0.3497 -0.0958  0.3221
 5882SOL    HW129108   0.743   2.119   5.899 -1.2485 -2.0681 -0.1368
 5882SOL    HW229109   0.801   2.181   5.780  1.1332 -0.5766 -0.6526
 5883SOL     OW29110   1.318   2.972   3.818  0.6286 -0.7037  0.5433
 5883SOL    HW129111   1.270   3.036   3.870  0.7198 -0.8751  0.8338
 5883SOL    HW229112   1.410   2.997   3.824 -0.0192  1.4587  1.2264
 5884SOL     OW29113   2.187   0.801   4.914  0.3988 -0.1260 -0.7288
 5884SOL    HW129114   2.233   0.730   4.957 -2.2029 -1.4800 -0.2474
 5884SOL    HW229115   2.130   0.834   4.983  1.9711 -0.0112  0.5197
 5885SOL     OW29116   0.357   2.393   8.603  0.3079 -0.1767 -0.7686
 5885SOL    HW129117   0.439   2.378   8.556  1.3434  0.1102  0.9402
 5885SOL    HW229118   0.382   2.456   8.671 -1.6938 -0.1060 -0.0717
 5886SOL     OW29119   3.528   1.100  14.449  0.5064 -0.1140  0.2909
 5886SOL    HW129120   3.524   1.159  14.524  0.9599 -1.7667  1.6050
 5886SOL    HW229121   3.610   1.124  14.404 -0.2627  1.7307 -0.1179
 5887SOL     OW29122   2.963   0.704   5.894  0.4765  0.4070 -0.4789
 5887SOL    HW129123   3.007   0.710   5.979  1.4915 -2.3315 -0.7943
 5887SOL    HW229124   2.870   0.713   5.915  0.5450  1.2489 -0.5321
 5888SOL     OW29125   2.441   3.758   9.444  0.4431  0.0751 -0.1142
 5888SOL    HW129126   2.420   3.670   9.414 -2.7233  0.2073  1.7202
 5888SOL    HW229127   2.425   3.748   9.538 -1.6355  1.6148 -0.3175
 5889SOL     OW29128   2.638   2.437   7.157 -0.3197  0.2722 -0.4166
 5889SOL    HW129129   2.561   2.399   7.200  0.0065 -0.2304 -0.2730
 5889SOL    HW229130   2.656   2.365   7.097 -0.1455  0.2568 -0.3455
 5890SOL     OW29131   1.785   3.061   5.217 -0.3982 -0.3755 -0.7995
 5890SOL    HW129132   1.775   2.998   5.288  2.8317 -0.0438 -0.0328
 5890SOL    HW229133   1.706   3.033   5.170 -0.9631  1.5910 -1.0415
 5891SOL     OW29134   4.167   0.933   2.363  0.2262  0.2796  0.1995
 5891SOL    HW129135   4.167   0.891   2.277  0.8934  0.5865  0.0519
 5891SOL    HW229136   4.249   0.981   2.362 -1.1883  2.6331 -1.7953
 5892SOL     OW29137   3.802   3.111   8.764  0.0490 -0.3179 -0.3330
 5892SOL    HW129138   3.754   3.119   8.846 -0.3344  2.3015 -0.8047
 5892SOL    HW229139   3.830   3.203   8.766 -1.0093 -0.0033  0.1006
 5893SOL     OW29140   2.848   0.135   7.614 -0.0009 -0.3726  0.4184
 5893SOL    HW129141   2.896   0.090   7.684 -0.5662  1.5458  2.0178
 5893SOL    HW229142   2.768   0.082   7.615  0.5078 -1.1239  1.3856
 5894SOL     OW29143   3.492   2.639   2.490  0.4426  0.4856  0.0972
 5894SOL    HW129144   3.571   2.587   2.478  0.0032 -1.1882  4.2544
 5894SOL    HW229145   3.445   2.571   2.537 -0.4398  1.3902  0.5223
 5895SOL     OW29146   0.044   1.246   4.866  0.4824 -0.4497 -0.6152
 5895SOL    HW129147   0.028   1.308   4.794  0.6249  0.1119 -0.1631
 5895SOL    HW229148   0.044   1.166   4.814  0.7551  0.5332 -2.1526
 5896SOL     OW29149   1.241   1.349   6.976 -0.0644  0.3427 -0.1638
 5896SOL    HW129150   1.285   1.332   6.892 -1.6243 -3.0995 -0.2886
 5896SOL    HW229151   1.154   1.370   6.942 -0.2889 -0.6614 -0.2033
 5897SOL     OW29152   4.020   3.009   1.344 -0.1622 -0.0151  0.4112
 5897SOL    HW129153   3.978   3.066   1.407  0.0764  0.7709 -0.1459
 5897SOL    HW229154   3.976   3.040   1.265 -0.3192  1.6155  1.1390
 5898SOL     OW29155   1.915   1.669   5.665 -0.0824 -0.0564  0.4846
 5898SOL    HW129156   1.876   1.751   5.633  0.9762  0.2727  0.0179
 5898SOL    HW229157   1.990   1.644   5.610  1.4123  2.6230  1.2555
 5899SOL     OW29158   2.906   4.637  13.561  0.1087 -0.3031  0.6523
 5899SOL    HW129159   2.877   4.571  13.498 -0.3930  0.0883  0.4684
 5899SOL    HW229160   2.901   4.576  13.634  1.5928  0.5105  1.4472
 5900SOL     OW29161   3.378   2.888   3.100 -0.0874 -0.2750  0.5193
 5900SOL    HW129162   3.395   2.796   3.121 -0.7777 -0.6256 -0.4858
 5900SOL    HW229163   3.401   2.886   3.007  0.9391 -0.8869  0.7857
 5901SOL     OW29164   0.782   3.953   6.792  0.5401  0.3913  0.2239
 5901SOL    HW129165   0.764   4.045   6.813  0.8445  0.5620 -0.2719
 5901SOL    HW229166   0.877   3.954   6.784  0.5530  0.9504  0.4833
 5902SOL     OW29167   2.899   4.076   7.240  0.2813  0.6350  0.0009
 5902SOL    HW129168   2.903   4.005   7.176  0.9011  0.5128  0.1738
 5902SOL    HW229169   2.838   4.140   7.205 -1.5185 -0.8506  0.4109
 5903SOL     OW29170   2.215   2.309   7.877  0.2457  0.2914  0.2745
 5903SOL    HW129171   2.289   2.251   7.898 -0.2586 -0.0896  1.0126
 5903SOL    HW229172   2.244   2.323   7.787 -1.2464 -0.7182 -0.3550
 5904SOL     OW29173   0.631   0.496   7.868 -0.0820 -0.1638  0.0596
 5904SOL    HW129174   0.618   0.525   7.778  2.9970  2.9086  0.5904
 5904SOL    HW229175   0.706   0.549   7.896  0.5232 -1.3240  0.6286
 5905SOL     OW29176   1.380   2.333   5.822 -0.8708  0.8797  0.1469
 5905SOL    HW129177   1.385   2.426   5.846 -1.7544  1.3151 -1.3576
 5905SOL    HW229178   1.382   2.340   5.726  1.1894 -1.3096  0.0251
 5906SOL     OW29179   2.223   2.321  16.012  0.0100 -0.6759  0.5742
 5906SOL    HW129180   2.215   2.342  15.919  1.4708  0.7148  0.7687
 5906SOL    HW229181   2.133   2.294  16.034 -0.1786 -1.3974 -1.1369
 5907SOL     OW29182   2.462   0.285   4.187 -0.2962 -0.0689 -0.8837
 5907SOL    HW129183   2.448   0.258   4.097 -1.2563 -0.5837 -0.5838
 5907SOL    HW229184   2.553   0.311   4.174  0.4358 -3.6614 -2.9164
 5908SOL     OW29185   1.168   3.078  14.781 -0.5395  0.5648 -0.1872
 5908SOL    HW129186   1.110   3.081  14.857  0.2593 -1.4589  0.5239
 5908SOL    HW229187   1.165   2.986  14.754 -0.3347  0.7998 -1.0015
 5909SOL     OW29188   3.453   1.767  15.586  0.3075  0.5942  0.2515
 5909SOL    HW129189   3.469   1.818  15.507 -1.6845  1.8033  0.6303
 5909SOL    HW229190   3.417   1.840  15.637 -0.1142 -0.3448  1.3180
 5910SOL     OW29191   1.488   2.399   1.441 -0.9263 -0.2431  0.1463
 5910SOL    HW129192   1.457   2.480   1.402 -0.6685  0.5420  1.5991
 5910SOL    HW229193   1.528   2.432   1.522  2.1431  0.4010 -1.6129
 5911SOL     OW29194   2.081   4.542  17.083  0.2888  0.2538  0.2109
 5911SOL    HW129195   2.176   4.547  17.087  0.2676 -0.3743  1.3798
 5911SOL    HW229196   2.080   4.468  17.143 -0.3069 -0.0829 -0.2188
 5912SOL     OW29197   3.772   3.851   5.360  0.4784 -0.4546  0.0335
 5912SOL    HW129198   3.785   3.942   5.387 -0.3708  0.2722 -2.0138
 5912SOL    HW229199   3.694   3.832   5.413  0.7644 -1.3855  0.1136
 5913SOL     OW29200   1.379   2.434   1.718 -0.4361  0.1336  0.6417
 5913SOL    HW129201   1.289   2.418   1.747 -0.7961 -0.6521 -0.8769
 5913SOL    HW229202   1.394   2.528   1.724 -3.4249  0.6376  0.1523
 5914SOL     OW29203   1.711   0.252   3.675  0.1653  0.0784  0.7835
 5914SOL    HW129204   1.718   0.238   3.770  2.5241 -2.3783  0.2377
 5914SOL    HW229205   1.803   0.259   3.651  0.4982  0.4690  2.1421
 5915SOL     OW29206   0.187   4.347   6.514  0.4781 -0.1031 -0.2257
 5915SOL    HW129207   0.204   4.273   6.456  4.1741 -1.2962  2.3868
 5915SOL    HW229208   0.162   4.416   6.453 -1.2549  0.0208  0.6198
 5916SOL     OW29209   0.380   3.693   5.473  0.5398 -0.4999 -0.0417
 5916SOL    HW129210   0.366   3.781   5.508  0.6956 -1.0750  1.4481
 5916SOL    HW229211   0.360   3.713   5.381 -2.5321 -2.1300  0.2394
 5917SOL     OW29212   3.210   0.066  11.272  0.3359 -0.0856  0.0048
 5917SOL    HW129213   3.235   0.140  11.328  0.2226 -0.7255  0.9036
 5917SOL    HW229214   3.227   0.096  11.183  0.0479 -0.5297 -0.2008
 5918SOL     OW29215   0.250   2.488  15.360  0.0117  0.0158 -0.0774
 5918SOL    HW129216   0.157   2.479  15.345  0.1834 -0.9411 -0.5349
 5918SOL    HW229217   0.285   2.442  15.283  0.9013  0.0446  0.3043
 5919SOL     OW29218   4.393   1.615   5.539 -0.2187 -0.1916 -0.9200
 5919SOL    HW129219   4.482   1.622   5.576 -0.9225 -0.8922  0.9110
 5919SOL    HW229220   4.336   1.667   5.596 -0.4093  0.0127 -1.3016
 5920SOL     OW29221   2.451   1.913  14.450 -0.1747 -0.2938 -0.1373
 5920SOL    HW129222   2.400   1.993  14.465 -1.2037 -1.1536  0.9182
 5920SOL    HW229223   2.507   1.937  14.377 -0.3654  0.6042  0.0068
 5921SOL     OW29224   1.976   3.718   0.202  0.7523 -0.2657 -0.1475
 5921SOL    HW129225   2.013   3.660   0.135  1.4986  2.3936 -2.0468
 5921SOL    HW229226   1.986   3.799   0.152  4.1171 -0.3242  0.3967
 5922SOL     OW29227   3.778   1.106   5.835  0.0805  0.5343  0.8343
 5922SOL    HW129228   3.836   1.061   5.774 -1.1013 -0.4183  0.4268
 5922SOL    HW229229   3.742   1.024   5.868  2.4182 -0.6766  0.3901
 5923SOL     OW29230   0.667   1.845   9.599 -0.1632  0.3220  0.4125
 5923SOL    HW129231   0.628   1.931   9.583  2.6583  1.1085 -2.1819
 5923SOL    HW229232   0.635   1.826   9.687 -1.3108 -0.5464 -0.1872
 5924SOL     OW29233   2.869   1.985   1.539  0.1124 -0.3295 -0.1925
 5924SOL    HW129234   2.822   2.027   1.467  1.2628 -2.0170 -1.9212
 5924SOL    HW229235   2.872   1.894   1.509  0.3439 -1.1819  2.4201
 5925SOL     OW29236   2.408   0.376   4.816 -0.5899  0.6174 -0.1760
 5925SOL    HW129237   2.338   0.329   4.861  2.0414 -3.4515 -0.2994
 5925SOL    HW229238   2.353   0.439   4.770 -0.0566 -0.0461 -1.7209
 5926SOL     OW29239   4.283   1.380   5.421  0.4315 -0.4700  0.3194
 5926SOL    HW129240   4.189   1.388   5.406  0.6122  1.0845  0.0557
 5926SOL    HW229241   4.309   1.470   5.440  0.7659 -0.5645  0.3204
 5927SOL     OW29242   2.426   2.756   0.087 -0.2874  0.5678 -0.1531
 5927SOL    HW129243   2.509   2.709   0.100 -1.3353 -1.0931  0.5105
 5927SOL    HW229244   2.395   2.715   0.006 -0.7103  2.8511 -1.1442
 5928SOL     OW29245   0.565   3.126   5.228  0.1443 -0.2804  0.0302
 5928SOL    HW129246   0.611   3.141   5.146 -1.1890 -2.9704 -1.1991
 5928SOL    HW229247   0.625   3.089   5.293 -0.0840 -0.0181  0.3920
 5929SOL     OW29248   2.446   4.198   0.352  0.0234 -0.0523  0.5619
 5929SOL    HW129249   2.389   4.130   0.318  0.6381  0.5432 -1.6211
 5929SOL    HW229250   2.394   4.225   0.428 -0.2203  2.6116 -0.5489
 5930SOL     OW29251   1.774   2.446  13.019 -0.2790 -0.4743 -0.1264
 5930SOL    HW129252   1.851   2.435  13.074 -1.1232  1.5640  1.4145
 5930SOL    HW229253   1.785   2.537  12.992 -0.4262 -0.0952  1.0920
 5931SOL     OW29254   0.754   0.475   4.206  0.6074  0.4100 -0.2709
 5931SOL    HW129255   0.739   0.521   4.124 -0.2238  1.8170  0.6588
 5931SOL    HW229256   0.686   0.520   4.257  0.6174 -1.8624  1.7404
 5932SOL     OW29257   3.538   4.401   2.347 -0.3116  0.2311  0.3463
 5932SOL    HW129258   3.496   4.352   2.417 -0.1625 -0.5632 -0.1237
 5932SOL    HW229259   3.469   4.408   2.282  0.2918  0.9243 -0.2186
 5933SOL     OW29260   2.463   0.958   7.536 -0.3002 -1.0830  0.2465
 5933SOL    HW129261   2.553   0.939   7.563 -0.0654  2.4559  2.0215
 5933SOL    HW229262   2.469   0.988   7.446 -0.9905 -0.8305  0.2824
 5934SOL     OW29263   1.480   3.925  10.234  0.3174  0.0594  0.7675
 5934SOL    HW129264   1.386   3.942  10.236  0.2550  0.0109 -1.5118
 5934SOL    HW229265   1.491   3.897  10.325  0.4862 -1.3486  0.3210
 5935SOL     OW29266   1.095   0.529   5.736  0.3568 -0.4470  0.3803
 5935SOL    HW129267   0.999   0.532   5.737  0.2993 -1.9275  0.3914
 5935SOL    HW229268   1.110   0.443   5.776  0.8565 -0.4023  0.2820
 5936SOL     OW29269   0.886   0.493   5.462  0.0610 -0.0527 -0.3053
 5936SOL    HW129270   0.808   0.486   5.407 -0.2611 -2.7045  0.5184
 5936SOL    HW229271   0.854   0.468   5.548  0.2246  0.4228 -0.1053
 5937SOL     OW29272   0.098   2.203   7.014  0.7143 -0.4080 -0.2425
 5937SOL    HW129273   0.161   2.209   7.086  1.2151  2.3544 -0.9053
 5937SOL    HW229274   0.035   2.134   7.031  1.7146 -0.5842  2.8382
 5938SOL     OW29275   2.964   2.450   4.456 -0.5628 -0.1261  0.1828
 5938SOL    HW129276   2.948   2.407   4.540  1.7501  0.3010  0.8398
 5938SOL    HW229277   3.014   2.528   4.479  0.1274  0.3513 -2.8961
 5939SOL     OW29278   0.117   1.502   6.995  0.0947  0.2344  0.0077
 5939SOL    HW129279   0.180   1.432   7.006  0.7996  0.9944  0.7676
 5939SOL    HW229280   0.059   1.457   6.933 -0.4661 -1.2951  1.6373
 5940SOL     OW29281   2.825   4.522   2.799 -0.0574 -0.8367  0.4373
 5940SOL    HW129282   2.748   4.578   2.796 -0.1164 -0.9085  0.6579
 5940SOL    HW229283   2.832   4.498   2.891  2.5216  0.2413  0.5267
 5941SOL     OW29284   4.352   1.179  11.812  0.5837 -0.3628 -0.0622
 5941SOL    HW129285   4.438   1.182  11.770  0.8141  0.9137  0.5023
 5941SOL    HW229286   4.369   1.134  11.895  0.5350  1.1869  0.7852
 5942SOL     OW29287   2.743   2.038   6.859  0.1660 -0.3494 -0.3887
 5942SOL    HW129288   2.835   2.038   6.885 -0.1282 -0.0067  0.6474
 5942SOL    HW229289   2.749   2.109   6.795  0.9581  0.5761  0.7190
 5943SOL     OW29290   2.689   3.767   7.235  0.5976  0.1973  0.3063
 5943SOL    HW129291   2.747   3.809   7.173 -1.3513  0.0229 -1.6498
 5943SOL    HW229292   2.733   3.682   7.230 -1.1391 -0.6907 -0.0338
 5944SOL     OW29293   4.059   3.471   9.349 -0.5345  0.3006  0.6868
 5944SOL    HW129294   4.133   3.529   9.334  0.1728 -1.0683 -1.2388
 5944SOL    HW229295   4.078   3.406   9.281  0.6974 -0.2870  1.5938
 5945SOL     OW29296   1.159   3.493   2.982  0.0980 -0.6029  0.0809
 5945SOL    HW129297   1.108   3.434   3.037 -0.3264 -1.0271 -0.7586
 5945SOL    HW229298   1.199   3.439   2.913 -2.0063 -1.3795 -0.5367
 5946SOL     OW29299   4.182   4.379   5.263 -0.5796 -0.1438 -0.2302
 5946SOL    HW129300   4.255   4.439   5.246 -1.0396  0.6333  0.5879
 5946SOL    HW229301   4.129   4.418   5.332  2.0595  1.6022  0.8346
 5947SOL     OW29302   0.954   0.406  16.834 -0.1773 -0.4717 -0.3090
 5947SOL    HW129303   1.008   0.365  16.767  0.5234  2.6278 -1.6663
 5947SOL    HW229304   1.015   0.470  16.870  0.1513 -0.9032 -0.0990
 5948SOL     OW29305   2.201   2.546   5.112  0.0997  0.6652 -0.2114
 5948SOL    HW129306   2.164   2.530   5.025 -1.2684 -1.0249  0.6633
 5948SOL    HW229307   2.279   2.592   5.083 -1.0408  1.6644 -1.7444
 5949SOL     OW29308   2.451   4.183   7.775 -0.1049  0.1874 -0.5154
 5949SOL    HW129309   2.370   4.159   7.731 -0.9174  2.3143 -0.1628
 5949SOL    HW229310   2.449   4.135   7.857  0.0391  0.4558 -0.3543
 5950SOL     OW29311   3.886   2.808   9.077  0.0961 -0.1558  0.2418
 5950SOL    HW129312   3.874   2.820   8.983 -0.2741  0.9589  0.4269
 5950SOL    HW229313   3.798   2.817   9.114  0.4251  0.2621  0.9325
 5951SOL     OW29314   4.335   2.710   2.867 -0.4563 -0.2125  0.7465
 5951SOL    HW129315   4.260   2.691   2.811 -0.5255 -0.3595  0.8908
 5951SOL    HW229316   4.293   2.698   2.952  0.6198 -0.3138  1.2634
 5952SOL     OW29317   3.104   2.739   5.837  0.0391 -0.1593  0.6145
 5952SOL    HW129318   3.054   2.731   5.918 -0.9020  1.5785  0.2011
 5952SOL    HW229319   3.083   2.657   5.792 -0.8327  0.4361 -0.0628
 5953SOL     OW29320   3.043   3.034  12.310  0.5622 -0.2907 -0.0124
 5953SOL    HW129321   3.131   3.044  12.348  0.2185 -1.1861  1.0305
 5953SOL    HW229322   3.039   2.950  12.265  0.5841 -0.5518  0.4679
 5954SOL     OW29323   3.082   2.338  15.769  0.2164 -0.0688 -0.1266
 5954SOL    HW129324   3.009   2.400  15.766 -2.0055 -2.7686 -1.0928
 5954SOL    HW229325   3.145   2.397  15.811 -0.5081  1.6206 -1.3994
 5955SOL     OW29326   4.448   0.384   2.211 -0.0536 -0.3042  0.1590
 5955SOL    HW129327   4.358   0.403   2.239  0.0826 -0.2441  0.5481
 5955SOL    HW229328   4.442   0.347   2.123  2.3488  0.7807 -0.4700
 5956SOL     OW29329   3.597   3.190   4.705 -0.7706  0.2957 -0.4589
 5956SOL    HW129330   3.556   3.223   4.785  0.2196  0.2742  0.0607
 5956SOL    HW229331   3.565   3.100   4.708 -0.0137  0.0824  1.3609
 5957SOL     OW29332   4.613   2.492   9.556  0.2305 -0.3312 -0.7858
 5957SOL    HW129333   4.602   2.488   9.651  0.8972 -0.3915 -0.7134
 5957SOL    HW229334   4.705   2.473   9.537  0.2070  0.8980 -2.1149
 5958SOL     OW29335   1.539   3.411  16.770 -0.2806  0.5583  0.1924
 5958SOL    HW129336   1.555   3.453  16.855 -1.3878  0.7718  0.2905
 5958SOL    HW229337   1.623   3.411  16.724 -1.0670 -2.3160 -1.2007
 5959SOL     OW29338   1.111   0.127  11.770  0.1975 -0.0559  0.0280
 5959SOL    HW129339   1.050   0.091  11.705  0.9700  0.2867 -0.8936
 5959SOL    HW229340   1.043   0.142  11.836 -0.5337  1.4652 -1.0721
 5960SOL     OW29341   1.173   1.149   9.518 -0.0441 -0.1702 -0.3726
 5960SOL    HW129342   1.208   1.077   9.465 -0.5673  0.6451 -1.7997
 5960SOL    HW229343   1.114   1.193   9.457  0.3118 -1.0557 -1.3696
 5961SOL     OW29344   3.783   1.051   7.207  0.2878 -0.1610  0.4311
 5961SOL    HW129345   3.763   1.141   7.181  1.5743 -0.4942 -1.7100
 5961SOL    HW229346   3.791   1.059   7.302  1.1509 -1.2410  0.4602
 5962SOL     OW29347   4.509   1.881  14.985 -0.1602 -0.2899  0.3546
 5962SOL    HW129348   4.536   1.818  14.918  0.3638 -0.2366  0.5179
 5962SOL    HW229349   4.568   1.954  14.966  0.1171 -0.7550 -0.5941
 5963SOL     OW29350   2.296   1.697   1.085 -0.0367 -1.1147  0.5007
 5963SOL    HW129351   2.248   1.773   1.119  0.8120 -1.2492  1.9888
 5963SOL    HW229352   2.367   1.708   1.148  0.2308  0.5749 -0.1099
 5964SOL     OW29353   2.798   4.200   5.956 -0.7168  0.3210 -0.6469
 5964SOL    HW129354   2.784   4.280   5.907 -1.0621  0.3467 -0.5015
 5964SOL    HW229355   2.893   4.187   5.952 -0.7367  0.1816 -0.6778
 5965SOL     OW29356   3.284   1.141   5.145  0.2234  0.2534  0.0485
 5965SOL    HW129357   3.360   1.131   5.088 -1.4292  1.5693 -2.3651
 5965SOL    HW229358   3.272   1.235   5.134  0.5183  0.3099  0.2042
 5966SOL     OW29359   2.107   2.544   0.955 -0.2375 -0.4596 -0.4372
 5966SOL    HW129360   2.060   2.506   0.881  0.7871  0.2632 -1.4456
 5966SOL    HW229361   2.168   2.600   0.908 -0.6819  1.4341  1.2435
 5967SOL     OW29362   1.618   2.844  11.387  0.3517 -0.0476 -0.7476
 5967SOL    HW129363   1.673   2.770  11.414 -0.6793 -0.7423 -0.5719
 5967SOL    HW229364   1.550   2.850  11.454  0.3886  0.9589 -0.7964
 5968SOL     OW29365   1.557   1.421   7.732 -0.4241  0.2494 -0.0762
 5968SOL    HW129366   1.632   1.447   7.786 -1.6395  0.1622  1.6600
 5968SOL    HW229367   1.538   1.334   7.767  0.0507 -0.6560 -2.0643
 5969SOL     OW29368   4.363   3.959   6.784  0.8305 -0.4239 -0.0230
 5969SOL    HW129369   4.406   3.921   6.708 -0.6282 -1.3688 -0.3666
 5969SOL    HW229370   4.348   4.050   6.756  1.5663 -0.5706 -0.8880
 5970SOL     OW29371   2.510   3.567  15.902  0.1878 -0.7536  0.0444
 5970SOL    HW129372   2.573   3.588  15.971  2.6002 -0.6114 -2.1892
 5970SOL    HW229373   2.553   3.612  15.829 -1.8573  1.4533  0.2112
 5971SOL     OW29374   0.690   1.433  11.152  0.6585  0.4399  0.1170
 5971SOL    HW129375   0.685   1.368  11.082  2.0894  0.4148  0.0322
 5971SOL    HW229376   0.619   1.488  11.120 -0.2536 -0.6343  0.2673
 5972SOL     OW29377   3.414   3.654   4.937  0.0451 -0.5237 -0.3707
 5972SOL    HW129378   3.507   3.648   4.958  0.0814  3.5156  0.5473
 5972SOL    HW229379   3.412   3.673   4.843  2.0261  1.4996 -0.0130
 5973SOL     OW29380   4.031   4.273  15.196  0.6488  0.2973  0.2330
 5973SOL    HW129381   4.047   4.364  15.173 -2.9321  1.6262  3.0434
 5973SOL    HW229382   3.993   4.282  15.283  1.1147  0.3306  0.4383
 5974SOL     OW29383   4.617   2.511   0.115 -0.2627  0.4057 -0.6420
 5974SOL    HW129384   4.567   2.484   0.192  0.1144  1.3628 -0.0628
 5974SOL    HW229385   4.547   2.481   0.057  0.7869  0.1091 -1.7281
 5975SOL     OW29386   2.235   3.244   5.295 -0.3157 -0.2498  0.0130
 5975SOL    HW129387   2.143   3.230   5.271 -0.4077  1.6348 -0.7102
 5975SOL    HW229388   2.264   3.281   5.212  1.1833  0.5355  0.8943
 5976SOL     OW29389   4.426   3.090   4.286 -0.0121  0.5805 -0.1496
 5976SOL    HW129390   4.422   3.037   4.206  0.4173  0.9288 -0.4052
 5976SOL    HW229391   4.453   3.172   4.243 -0.1759  1.4861  1.4695
 5977SOL     OW29392   3.502   0.560   1.311 -0.3160  0.4379 -0.9272
 5977SOL    HW129393   3.581   0.529   1.355  0.5962  1.0901 -2.1118
 5977SOL    HW229394   3.460   0.621   1.371 -0.5997 -3.1079  2.4726
 5978SOL     OW29395   0.939   2.852   3.895 -0.4662  0.2057 -0.3698
 5978SOL    HW129396   0.868   2.893   3.845 -2.4541 -0.0314  2.2963
 5978SOL    HW229397   0.942   2.766   3.852 -0.1863 -0.0245  0.1161
 5979SOL     OW29398   1.316   2.174   1.453 -0.3202  0.2538  0.1427
 5979SOL    HW129399   1.390   2.234   1.441  1.1359 -1.1231  2.2898
 5979SOL    HW229400   1.347   2.121   1.526 -0.4376 -0.9014 -0.6365
 5980SOL     OW29401   2.010   3.933   8.549 -0.1235 -0.3398  0.2236
 5980SOL    HW129402   1.964   4.011   8.580 -1.8037  0.0972 -3.4138
 5980SOL    HW229403   2.097   3.933   8.591  0.1109 -2.1925 -0.2856
 5981SOL     OW29404   1.693   0.598  13.720 -0.2323  0.0497 -0.1455
 5981SOL    HW129405   1.713   0.641  13.637  0.8640  0.2156  0.2047
 5981SOL    HW229406   1.623   0.539  13.692 -1.4850  1.9843 -1.0685
 5982SOL     OW29407   3.493   0.342  10.552 -0.5833  0.2578  0.1059
 5982SOL    HW129408   3.567   0.348  10.612  0.4852 -2.8469 -0.9019
 5982SOL    HW229409   3.514   0.264  10.500  0.4749  2.2361 -2.4555
 5983SOL     OW29410   2.180   0.986  15.145 -0.4076 -0.0127 -0.5446
 5983SOL    HW129411   2.110   0.935  15.186 -0.8786  0.5986 -0.5889
 5983SOL    HW229412   2.205   0.919  15.081  1.2527  0.5325 -0.4512
 5984SOL     OW29413   2.007   3.589   3.218 -0.4414  0.3046 -0.3602
 5984SOL    HW129414   1.920   3.620   3.242 -0.6893 -1.9375  1.5882
 5984SOL    HW229415   2.060   3.613   3.295 -1.6305  0.4258  0.4133
 5985SOL     OW29416   1.014   1.782   3.641 -0.1384 -0.2521 -0.2305
 5985SOL    HW129417   1.018   1.757   3.549 -2.4785  1.5444 -0.8287
 5985SOL    HW229418   0.920   1.769   3.654  0.1701 -3.0071 -0.8421
 5986SOL     OW29419   4.378   0.621   2.005 -0.1474  0.4119 -0.5248
 5986SOL    HW129420   4.470   0.597   2.017  0.1033  1.9764  0.8135
 5986SOL    HW229421   4.369   0.653   1.916 -0.0332  1.2870 -0.2192
 5987SOL     OW29422   4.077   3.917   5.057  0.5088  0.0695 -0.0320
 5987SOL    HW129423   4.014   3.930   4.985  0.9702 -0.7677 -0.5939
 5987SOL    HW229424   4.081   3.998   5.106 -0.8427  0.0292  0.1538
 5988SOL     OW29425   3.891   0.511  11.640 -0.0513  0.0129  0.3534
 5988SOL    HW129426   3.855   0.461  11.567 -0.1112 -0.8196  0.9460
 5988SOL    HW229427   3.862   0.601  11.631 -1.1118 -0.3203  0.4611
 5989SOL     OW29428   3.851   3.497   4.324 -0.1341  0.3313  0.1747
 5989SOL    HW129429   3.776   3.531   4.274 -0.1709  1.0297  0.7055
 5989SOL    HW229430   3.804   3.434   4.379  0.4249 -0.8124 -0.6611
 5990SOL     OW29431   1.147   1.773   2.617 -0.2049 -0.0192 -0.3093
 5990SOL    HW129432   1.208   1.747   2.548  2.5458  1.4676  1.5607
 5990SOL    HW229433   1.118   1.855   2.577 -0.5810  0.9336  1.9595
 5991SOL     OW29434   0.148   2.943  16.658 -0.4256 -0.1928 -0.0365
 5991SOL    HW129435   0.152   3.023  16.604 -1.8379 -1.0049 -1.3697
 5991SOL    HW229436   0.056   2.952  16.683 -0.1410 -1.1901  1.3190
 5992SOL     OW29437   1.303   1.298   5.222 -0.2738  0.6000  0.2762
 5992SOL    HW129438   1.329   1.303   5.130  0.9893  1.3233  0.6741
 5992SOL    HW229439   1.208   1.282   5.225 -0.1071 -0.9149 -3.5282
 5993SOL     OW29440   2.421   1.662   9.951 -0.2346  0.1016 -0.4465
 5993SOL    HW129441   2.481   1.614   9.894  0.8392  1.4213 -0.4342
 5993SOL    HW229442   2.384   1.731   9.895  1.1432  0.9989 -0.2604
 5994SOL     OW29443   2.146   2.529  10.904 -0.3015  0.3041  0.1225
 5994SOL    HW129444   2.186   2.454  10.947 -0.2137 -1.1458 -2.5230
 5994SOL    HW229445   2.220   2.584  10.880  0.2289  0.6495  2.5413
 5995SOL     OW29446   4.693   1.110   2.209  0.4453 -0.3514  0.0954
 5995SOL    HW129447   4.654   1.098   2.295  0.5338  2.5066  0.5027
 5995SOL    HW229448   4.679   1.202   2.189 -3.1441 -0.4983  1.9051
 5996SOL     OW29449   1.272   3.067   5.601  0.2976 -0.2437 -0.2758
 5996SOL    HW129450   1.260   3.115   5.519 -2.8738 -1.2392 -0.3937
 5996SOL    HW229451   1.359   3.104   5.619  0.0653 -0.0600  0.4809
 5997SOL     OW29452   1.907   1.676   8.412 -0.2712  0.5937  0.4481
 5997SOL    HW129453   1.850   1.683   8.335 -0.6113  1.7625  0.7995
 5997SOL    HW229454   1.911   1.581   8.401  1.8261  0.5418  1.7401
 5998SOL     OW29455   1.322   3.343   9.280 -0.4101  0.3342 -0.2307
 5998SOL    HW129456   1.247   3.342   9.338 -0.5533  0.0237 -0.4173
 5998SOL    HW229457   1.294   3.309   9.195 -1.3903  0.7509 -0.0703
 5999SOL     OW29458   0.261   3.700  16.238  0.9154  0.1968  0.3612
 5999SOL    HW129459   0.251   3.654  16.155 -0.0090 -0.6108  0.9095
 5999SOL    HW229460   0.220   3.782  16.213  0.9256 -0.2667 -1.1546
 6000SOL     OW29461   3.261   3.887   7.009 -0.0834  0.2108  0.1740
 6000SOL    HW129462   3.228   3.918   6.925  1.4986 -0.3379 -0.6541
 6000SOL    HW229463   3.263   3.793   6.993  3.8290  0.7615 -2.6107
 6001SOL     OW29464   1.227   3.668   4.028  0.3683  0.2330  0.1751
 6001SOL    HW129465   1.165   3.718   3.975 -0.3404 -2.6038 -1.6789
 6001SOL    HW229466   1.239   3.588   3.978 -1.1512  0.5515 -0.6933
 6002SOL     OW29467   2.810   3.333  14.514  0.1818 -0.0485  0.5019
 6002SOL    HW129468   2.786   3.331  14.421  3.5414  0.2024 -0.3801
 6002SOL    HW229469   2.901   3.359  14.498 -0.2808  1.7131  0.6910
 6003SOL     OW29470   0.856   1.822  16.154 -0.3340  0.6092 -0.2126
 6003SOL    HW129471   0.791   1.794  16.217 -2.2133  2.7007 -1.2150
 6003SOL    HW229472   0.795   1.876  16.103  0.0746  0.2339 -1.1160
 6004SOL     OW29473   2.929   4.342  10.141 -0.3854 -0.1306 -0.1412
 6004SOL    HW129474   2.936   4.433  10.168  0.0037  0.1009 -1.0400
 6004SOL    HW229475   2.976   4.347  10.058  0.3624  1.1264  0.3477
 6005SOL     OW29476   0.247   1.747  13.410 -0.2515  0.2864  0.4904
 6005SOL    HW129477   0.170   1.749  13.353  0.2150 -1.4421 -0.2085
 6005SOL    HW229478   0.325   1.767  13.358  0.0327  0.2436  0.9044
 6006SOL     OW29479   3.785   2.648   3.572  0.4401  0.1707 -0.5504
 6006SOL    HW129480   3.730   2.677   3.645  0.5220 -0.5489 -0.2056
 6006SOL    HW229481   3.829   2.577   3.619 -0.7470 -0.4977 -0.4672
 6007SOL     OW29482   0.623   4.501   9.791 -0.1253 -0.2388 -0.2749
 6007SOL    HW129483   0.555   4.471   9.731 -0.9443 -0.8824  0.9785
 6007SOL    HW229484   0.561   4.523   9.861  2.6131  3.0517  1.1261
 6008SOL     OW29485   2.548   3.487  17.434  0.1286  0.4720 -0.2543
 6008SOL    HW129486   2.516   3.575  17.414  3.1750  1.9946  1.6475
 6008SOL    HW229487   2.633   3.490  17.391  0.9721 -2.0222  1.2316
 6009SOL     OW29488   2.209   4.608   2.457 -0.3119  0.1745  0.7045
 6009SOL    HW129489   2.222   4.595   2.363 -4.1057 -1.5667  0.4208
 6009SOL    HW229490   2.264   4.685   2.472 -1.2954  1.1362 -0.6138
 6010SOL     OW29491   1.184   2.319   0.724 -0.4887 -0.2284  0.4455
 6010SOL    HW129492   1.155   2.388   0.784 -0.3831 -0.4868  0.7935
 6010SOL    HW229493   1.147   2.241   0.766 -0.7394 -0.0199  0.6106
 6011SOL     OW29494   3.647   1.130   8.571  0.3491 -0.9046 -0.3117
 6011SOL    HW129495   3.690   1.185   8.506  1.3196 -0.6479  0.5464
 6011SOL    HW229496   3.645   1.186   8.648  1.5568 -1.8008  0.3720
 6012SOL     OW29497   1.399   2.884   6.434 -0.4172  0.1883 -0.0713
 6012SOL    HW129498   1.453   2.963   6.428  1.3667 -0.9542  0.9651
 6012SOL    HW229499   1.463   2.816   6.453  1.9710  1.8183 -2.2679
 6013SOL     OW29500   3.322   2.845   5.656 -0.2934 -0.2791 -0.6039
 6013SOL    HW129501   3.244   2.896   5.633  1.2778  0.9547 -3.2868
 6013SOL    HW229502   3.350   2.886   5.738 -1.6029 -1.7114  0.5531
 6014SOL     OW29503   1.062   2.355   6.926  0.2257 -0.1260 -0.3745
 6014SOL    HW129504   1.056   2.303   7.007 -1.1001  0.8864  0.1775
 6014SOL    HW229505   0.969   2.367   6.907  0.2903  0.9639  0.0111
 6015SOL     OW29506   4.132   0.314   7.193 -0.6764  0.0812  0.3625
 6015SOL    HW129507   4.074   0.329   7.117  1.5393  2.4082 -0.8760
 6015SOL    HW229508   4.116   0.221   7.205 -0.9397 -0.2029 -2.1701
 6016SOL     OW29509   2.714   4.119   2.095 -0.9268 -0.3726  0.3501
 6016SOL    HW129510   2.785   4.078   2.046 -1.7050 -1.2778 -0.0158
 6016SOL    HW229511   2.729   4.213   2.082  1.1638 -0.6773  0.6638
 6017SOL     OW29512   2.543   0.079   8.576 -0.1316 -0.4752  0.3571
 6017SOL    HW129513   2.591   0.135   8.514  2.4717 -2.4419  0.5976
 6017SOL    HW229514   2.560   0.118   8.662 -0.6227  0.2503  0.1316
 6018SOL     OW29515   4.694   2.096  14.936 -0.4191  0.6251  0.1025
 6018SOL    HW129516   4.656   2.180  14.962 -0.6376  0.7741 -0.7151
 6018SOL    HW229517   0.021   2.132  14.862  0.3520 -0.2484  0.1753
 6019SOL     OW29518   1.334   3.018   7.961 -0.2083 -0.0213 -0.2440
 6019SOL    HW129519   1.377   2.985   7.882 -1.2375  0.4915 -1.0094
 6019SOL    HW229520   1.404   3.063   8.009  0.5128 -1.8895  0.4657
 6020SOL     OW29521   4.568   2.355  13.157 -0.0701 -0.2930 -0.3797
 6020SOL    HW129522   4.574   2.319  13.245 -0.0072  0.4809 -0.0640
 6020SOL    HW229523   4.483   2.400  13.152  0.7963  1.2780 -0.8810
 6021SOL     OW29524   0.601   2.166   6.005 -0.1289  0.4745 -0.1649
 6021SOL    HW129525   0.542   2.196   6.075  0.7740 -3.3132  2.2069
 6021SOL    HW229526   0.574   2.074   6.007  1.5917 -0.0335 -0.4113
 6022SOL     OW29527   4.000   3.111  13.524  0.3532  0.1272  0.2628
 6022SOL    HW129528   4.064   3.181  13.510  1.2358 -0.6997  0.1520
 6022SOL    HW229529   3.994   3.071  13.437 -0.0225 -2.9086  1.6950
 6023SOL     OW29530   1.260   3.457   3.878  0.0331 -0.3839  0.0558
 6023SOL    HW129531   1.342   3.416   3.852  0.2499  1.2749 -1.8528
 6023SOL    HW229532   1.195   3.388   3.860  0.5923 -1.5134  2.3818
 6024SOL     OW29533   1.937   1.134   4.306  0.4244  0.1303  0.1473
 6024SOL    HW129534   1.862   1.075   4.304  0.1985  0.4234  0.0989
 6024SOL    HW229535   1.940   1.167   4.396  2.0360  1.1320 -0.2588
 6025SOL     OW29536   3.813   4.006   2.747  0.0180  0.2476 -0.6693
 6025SOL    HW129537   3.751   3.945   2.707  1.2621 -1.9297  0.7587
 6025SOL    HW229538   3.861   3.946   2.804  0.1567  0.0707 -0.9756
 6026SOL     OW29539   2.761   1.581  11.995  0.1638  0.0838 -0.0182
 6026SOL    HW129540   2.845   1.554  11.958  1.4921  1.7498  1.7828
 6026SOL    HW229541   2.793   1.614  12.079  0.3532 -1.6996  0.6154
 6027SOL     OW29542   0.056   0.710   3.759  0.2481 -0.3859  0.2517
 6027SOL    HW129543   0.130   0.683   3.704  1.9038  0.8175  1.8820
 6027SOL    HW229544   0.032   0.787   3.708  1.8847 -0.1610 -0.2026
 6028SOL     OW29545   1.602   4.066   2.775  0.4091 -0.1082  0.4321
 6028SOL    HW129546   1.520   4.063   2.825 -1.7781 -1.1804 -3.1997
 6028SOL    HW229547   1.640   3.979   2.785  4.3683  1.4637 -1.2288
 6029SOL     OW29548   4.313   1.071   8.073 -0.3355 -0.1497 -0.5177
 6029SOL    HW129549   4.319   1.047   8.166 -0.2233  0.3486 -0.3978
 6029SOL    HW229550   4.268   0.993   8.040  0.6596 -0.5182 -0.9989
 6030SOL     OW29551   0.300   4.505   5.926 -0.2746 -0.1811 -0.0593
 6030SOL    HW129552   0.385   4.549   5.937 -0.4887  0.2798 -0.2515
 6030SOL    HW229553   0.299   4.434   5.990 -0.6660 -0.6398 -0.5780
 6031SOL     OW29554   0.613   2.183  14.424 -0.0268  0.2622  0.1680
 6031SOL    HW129555   0.544   2.171  14.358  0.3026 -3.7859  0.5250
 6031SOL    HW229556   0.575   2.247  14.483  1.8238 -0.0662  1.7048
 6032SOL     OW29557   0.616   1.805   0.310 -0.4624  0.2219  0.6159
 6032SOL    HW129558   0.689   1.809   0.372 -0.6562  1.3163  0.7769
 6032SOL    HW229559   0.645   1.734   0.253 -2.6680 -0.1982  0.0283
 6033SOL     OW29560   1.912   0.586  13.882  0.0782 -0.3061 -0.3295
 6033SOL    HW129561   1.983   0.613  13.823 -0.5265 -1.8624 -1.7794
 6033SOL    HW229562   1.843   0.600  13.817  0.4099  2.1919 -0.1448
 6034SOL     OW29563   4.385   1.332  13.859  0.2814 -0.7549  0.6109
 6034SOL    HW129564   4.395   1.286  13.776  0.7847 -0.4585  0.5074
 6034SOL    HW229565   4.435   1.273  13.915 -0.9018 -3.2484 -0.9765
 6035SOL     OW29566   1.389   3.519  11.892  0.6103  0.0373 -0.1628
 6035SOL    HW129567   1.363   3.523  11.800  3.0691 -1.2260 -0.9219
 6035SOL    HW229568   1.465   3.576  11.885  1.3163 -0.8684  0.1440
 6036SOL     OW29569   0.473   3.623   6.266  0.2167 -0.3668  0.2017
 6036SOL    HW129570   0.538   3.678   6.224 -0.1128  1.1391  1.6500
 6036SOL    HW229571   0.477   3.653   6.357  0.1356  1.8655 -0.5487
 6037SOL     OW29572   3.338   2.906  16.003 -0.2225 -0.1518  0.1506
 6037SOL    HW129573   3.363   2.933  15.915  1.1253 -4.0335 -0.6495
 6037SOL    HW229574   3.243   2.907  15.988 -0.1346  1.9146 -0.2667
 6038SOL     OW29575   3.026   4.507   5.528  0.0907 -0.5832 -0.2465
 6038SOL    HW129576   3.093   4.562   5.567  0.3385 -1.2522  0.2797
 6038SOL    HW229577   3.029   4.527   5.434  2.2987  0.6624  0.0914
 6039SOL     OW29578   2.704   1.233  11.666 -0.8544 -0.2783  0.0648
 6039SOL    HW129579   2.773   1.208  11.604 -0.2717  1.0339  0.1747
 6039SOL    HW229580   2.724   1.327  11.671 -1.3584 -0.1494 -0.3907
 6040SOL     OW29581   3.205   1.899  10.941 -0.0084  0.4359  0.2425
 6040SOL    HW129582   3.166   1.972  10.989  0.8106 -0.7927  2.7751
 6040SOL    HW229583   3.215   1.933  10.852  1.5623 -0.7044 -0.0171
 6041SOL     OW29584   4.321   3.307  17.334 -0.2819 -0.1844  0.0143
 6041SOL    HW129585   4.406   3.350  17.347 -0.3716  0.4147 -1.4818
 6041SOL    HW229586   4.331   3.276  17.244  0.5437 -0.8551  0.3350
 6042SOL     OW29587   4.664   3.461  10.193 -0.3485 -0.2529 -0.5837
 6042SOL    HW129588   4.607   3.515  10.249  0.6124 -1.1864  1.3141
 6042SOL    HW229589   4.658   3.510  10.112  1.9488  0.8268 -0.1081
 6043SOL     OW29590   1.299   1.300   6.707 -0.2938  0.3181  0.5367
 6043SOL    HW129591   1.382   1.253   6.705 -0.1162  0.6029  1.1575
 6043SOL    HW229592   1.237   1.230   6.687 -0.1649  0.6070 -0.8465
 6044SOL     OW29593   2.031   2.632   2.231 -0.0663 -0.2645  0.5411
 6044SOL    HW129594   1.938   2.611   2.224 -0.3701  1.8388 -1.5853
 6044SOL    HW229595   2.044   2.652   2.139  1.3146 -1.0595  0.5635
 6045SOL     OW29596   0.171   0.414   8.018  0.7140  0.1437 -0.0396
 6045SOL    HW129597   0.187   0.437   7.926 -0.4165  1.6084  0.1245
 6045SOL    HW229598   0.240   0.458   8.068  0.1373  2.1390 -0.9811
 6046SOL     OW29599   0.468   0.295   9.625 -0.3909 -0.3010 -0.1291
 6046SOL    HW129600   0.432   0.329   9.707  1.0443  2.5402 -0.6920
 6046SOL    HW229601   0.395   0.240   9.596 -1.1264  1.4976 -1.6975
 6047SOL     OW29602   4.166   0.823  14.611  0.3771 -0.4825 -0.3493
 6047SOL    HW129603   4.254   0.803  14.642 -0.0529 -0.5545  0.8083
 6047SOL    HW229604   4.118   0.833  14.693  0.7636  1.6041 -0.3792
 6048SOL     OW29605   0.122   0.262   2.693 -0.4270 -0.3918 -0.7698
 6048SOL    HW129606   0.066   0.330   2.729  1.4622  0.4937  0.4784
 6048SOL    HW229607   0.065   0.190   2.722  0.1061 -0.3365  0.4216
 6049SOL     OW29608   0.626   1.781   8.020  0.3434 -0.2289 -0.1826
 6049SOL    HW129609   0.660   1.696   7.992 -2.2985 -1.4175  0.1958
 6049SOL    HW229610   0.691   1.803   8.086  2.6413 -2.0064 -1.8380
 6050SOL     OW29611   0.685   1.783   9.272 -0.2943  0.1045 -0.1370
 6050SOL    HW129612   0.630   1.859   9.291 -1.8940 -1.0434 -0.1548
 6050SOL    HW229613   0.625   1.709   9.262 -0.1643 -0.1795  1.1592
 6051SOL     OW29614   3.970   4.326  13.993  0.2615 -0.1977  0.0128
 6051SOL    HW129615   4.044   4.286  14.038  0.7584  2.0448  1.1727
 6051SOL    HW229616   3.959   4.273  13.913  2.2097 -0.0919 -0.3296
 6052SOL     OW29617   3.782   4.568   2.128  0.0902  0.2983  0.2021
 6052SOL    HW129618   3.687   4.579   2.122  0.4804  2.5045 -1.6669
 6052SOL    HW229619   3.785   4.570   2.224  1.0105  0.2547  0.1704
 6053SOL     OW29620   1.765   3.093   2.302  0.4548  0.0649 -0.2812
 6053SOL    HW129621   1.690   3.037   2.321 -0.1177  1.4897  1.7450
 6053SOL    HW229622   1.832   3.026   2.297  0.0803 -0.3717  0.5346
 6054SOL     OW29623   0.461   1.551   9.251  0.4533 -0.0743 -0.4045
 6054SOL    HW129624   0.522   1.536   9.323 -0.7158 -0.2003  0.5835
 6054SOL    HW229625   0.377   1.537   9.295  1.5190  0.5947  1.8633
 6055SOL     OW29626   2.613   1.748   1.543 -0.7043 -0.1227 -0.4606
 6055SOL    HW129627   2.707   1.738   1.535 -0.2316  2.4446  1.7935
 6055SOL    HW229628   2.603   1.724   1.635  0.9792 -2.0068 -0.7727
 6056SOL     OW29629   0.303   2.063   9.128  0.4996 -0.3023  0.4102
 6056SOL    HW129630   0.344   2.148   9.140 -0.8722  0.6110 -1.3493
 6056SOL    HW229631   0.219   2.085   9.168 -0.8522  0.7378 -2.9637
 6057SOL     OW29632   3.997   0.751   6.152  0.5877 -0.6027  0.5404
 6057SOL    HW129633   3.954   0.830   6.120  3.2492  0.5829 -0.1777
 6057SOL    HW229634   3.915   0.715   6.184  0.9538 -3.0990 -1.2976
 6058SOL     OW29635   0.287   1.214   9.471 -0.0356 -0.2493 -0.2394
 6058SOL    HW129636   0.270   1.120   9.480  1.7415 -0.4488  1.1369
 6058SOL    HW229637   0.343   1.238   9.545 -2.0843 -0.5193  1.3980
 6059SOL     OW29638   3.490   3.205   8.616 -0.7816  0.4141 -0.1368
 6059SOL    HW129639   3.425   3.243   8.557 -2.3255 -2.0488 -0.0577
 6059SOL    HW229640   3.459   3.237   8.700 -1.3768 -0.3556 -0.0577
 6060SOL     OW29641   1.880   4.035   6.637  0.5837 -0.5647 -0.2294
 6060SOL    HW129642   1.811   4.034   6.703  1.3148 -0.2267  0.5405
 6060SOL    HW229643   1.948   3.999   6.693 -0.4342 -0.9492  0.7547
 6061SOL     OW29644   3.998   0.567   5.149  0.3331  0.0209  0.1445
 6061SOL    HW129645   4.089   0.540   5.137  0.7048  1.6963 -0.8513
 6061SOL    HW229646   3.946   0.502   5.101  0.5625  0.2076 -0.3582
 6062SOL     OW29647   1.921   1.503   6.370  0.7239  0.0117 -0.2254
 6062SOL    HW129648   1.974   1.435   6.329  1.6360 -0.0339  1.0311
 6062SOL    HW229649   1.941   1.489   6.463 -2.5818  0.4108  0.5421
 6063SOL     OW29650   1.488   4.603   2.746 -0.0056  0.4362  0.0401
 6063SOL    HW129651   1.439   4.591   2.827  0.1659 -1.7228 -0.1862
 6063SOL    HW229652   1.417   4.614   2.683 -0.6491  1.2615  0.9188
 6064SOL     OW29653   3.827   3.012   4.455 -0.2345  0.0277  0.1850
 6064SOL    HW129654   3.764   2.986   4.388 -1.2354 -0.2755  1.2433
 6064SOL    HW229655   3.855   3.086   4.401 -0.8333 -0.7300 -1.1675
 6065SOL     OW29656   2.119   1.704   5.220  0.5474 -0.3709  0.4504
 6065SOL    HW129657   2.047   1.767   5.222  0.8981 -0.0198  1.7677
 6065SOL    HW229658   2.140   1.701   5.127  0.7178  0.2614  0.4673
 6066SOL     OW29659   1.895   2.250  15.826  0.3369 -0.0206 -0.2652
 6066SOL    HW129660   1.852   2.310  15.886 -0.0256 -0.0024 -0.5427
 6066SOL    HW229661   1.925   2.298  15.749  1.9822 -4.4620 -2.4340
 6067SOL     OW29662   1.346   0.247   4.069  0.1113  0.0095  0.5144
 6067SOL    HW129663   1.428   0.280   4.104  1.8037  0.1287 -3.5855
 6067SOL    HW229664   1.353   0.282   3.980 -0.8433 -3.1539 -0.8182
 6068SOL     OW29665   3.557   0.565   6.143 -0.3397  0.0435 -0.0673
 6068SOL    HW129666   3.595   0.518   6.068 -2.1851 -2.5907  0.6639
 6068SOL    HW229667   3.531   0.492   6.200 -0.1520 -0.4994 -0.6652
 6069SOL     OW29668   1.222   3.074   2.941  0.1598 -0.1764  0.1700
 6069SOL    HW129669   1.240   3.109   3.028 -2.8687 -1.0048  1.1107
 6069SOL    HW229670   1.136   3.110   2.924  1.0927  1.5759 -0.8328
 6070SOL     OW29671   3.109   2.032   7.583  0.1260 -0.1911 -0.4997
 6070SOL    HW129672   3.145   2.065   7.501 -0.2103  1.9369  0.2254
 6070SOL    HW229673   3.059   2.101   7.626 -0.4135 -0.0033 -1.4262
 6071SOL     OW29674   0.569   3.866  14.405  0.8439  0.2320 -0.4139
 6071SOL    HW129675   0.553   3.902  14.318 -0.0666  1.2385  0.1816
 6071SOL    HW229676   0.639   3.924  14.436  0.6981  1.2122 -1.9228
 6072SOL     OW29677   3.442   1.060   5.618  0.1781  0.2837  0.1213
 6072SOL    HW129678   3.528   1.101   5.623  0.4216 -0.1509 -0.4836
 6072SOL    HW229679   3.393   1.116   5.558  2.5228 -1.1802 -3.1708
 6073SOL     OW29680   1.641   1.232   6.372 -0.0565 -0.3143  0.2381
 6073SOL    HW129681   1.569   1.217   6.433  0.2133 -0.8683  0.4223
 6073SOL    HW229682   1.655   1.154   6.318  0.5907  1.1176 -1.6470
 6074SOL     OW29683   1.965   3.983   2.759 -0.0906  0.3590 -0.0296
 6074SOL    HW129684   2.030   4.049   2.785 -0.1289  0.5406 -0.4071
 6074SOL    HW229685   2.024   3.917   2.724 -1.8002 -1.6019  0.7409
 6075SOL     OW29686   2.318   0.869  16.454 -0.4328 -0.0366  0.8155
 6075SOL    HW129687   2.382   0.940  16.447  1.2165 -1.3669  2.2082
 6075SOL    HW229688   2.250   0.894  16.392  0.7561  1.0023 -0.0608
 6076SOL     OW29689   3.507   3.382  15.396  0.2250 -0.2062  0.6798
 6076SOL    HW129690   3.435   3.445  15.405  0.9566  0.6307  0.7703
 6076SOL    HW229691   3.462   3.322  15.336  0.6669  1.7654 -1.6516
 6077SOL     OW29692   0.258   3.611   6.078 -0.0021  0.3487  0.7401
 6077SOL    HW129693   0.283   3.681   6.139  1.5686 -0.0108  0.4989
 6077SOL    HW229694   0.310   3.639   6.003 -0.8571  1.7770  0.6740
 6078SOL     OW29695   4.014   3.512  14.689 -0.2332  0.2923 -0.1525
 6078SOL    HW129696   3.989   3.505  14.597 -0.8636 -2.0550  0.2032
 6078SOL    HW229697   4.083   3.579  14.685 -1.1034  0.9591 -3.3335
 6079SOL     OW29698   0.096   3.354   3.083  0.2573  0.1282 -0.2370
 6079SOL    HW129699   0.125   3.263   3.084  2.5605  0.8673  0.9692
 6079SOL    HW229700   0.064   3.372   2.995  4.3662  0.2408 -1.6988
 6080SOL     OW29701   0.679   0.259   8.461 -0.0181  0.2811  0.7041
 6080SOL    HW129702   0.593   0.223   8.438  0.0601  0.2412  0.4746
 6080SOL    HW229703   0.739   0.186   8.447 -0.0686  0.8257 -2.3967
 6081SOL     OW29704   0.281   1.602   8.251 -0.0337  0.0490 -0.4431
 6081SOL    HW129705   0.187   1.587   8.246  0.0003  0.1986 -1.5184
 6081SOL    HW229706   0.277   1.678   8.309 -0.2005 -0.7036  0.5377
 6082SOL     OW29707   2.100   1.269   7.074 -0.0005  0.1628  0.0677
 6082SOL    HW129708   2.165   1.318   7.124  1.1890 -0.8096 -0.5057
 6082SOL    HW229709   2.096   1.327   6.998  2.7172  2.1534  1.4577
 6083SOL     OW29710   3.276   0.950   8.334 -0.0047  0.2170  0.7321
 6083SOL    HW129711   3.194   0.935   8.287 -0.1523  1.0451  0.7227
 6083SOL    HW229712   3.246   1.016   8.397  0.0146  0.5298  0.4112
 6084SOL     OW29713   3.163   0.596   4.012  0.1539  0.0289 -0.2038
 6084SOL    HW129714   3.237   0.591   4.072 -0.9124 -0.9866  1.0139
 6084SOL    HW229715   3.138   0.505   4.025 -1.9550  0.5695 -0.3522
 6085SOL     OW29716   4.137   1.269  14.217  0.0588 -0.0088 -0.5342
 6085SOL    HW129717   4.195   1.204  14.257 -1.3226 -1.6413 -1.1505
 6085SOL    HW229718   4.094   1.218  14.148 -0.7022  1.3034 -1.0160
 6086SOL     OW29719   2.727   1.713   8.102  0.2234  0.2937 -0.1733
 6086SOL    HW129720   2.809   1.737   8.145 -0.2386  1.4264  0.0969
 6086SOL    HW229721   2.678   1.670   8.172 -0.8000 -0.2230 -1.2087
 6087SOL     OW29722   0.072   2.743   1.406 -0.4464 -0.1086  0.2175
 6087SOL    HW129723   4.701   2.749   1.381 -0.1583  1.4540 -0.4968
 6087SOL    HW229724   0.078   2.800   1.483 -1.7133 -0.3270  0.4881
 6088SOL     OW29725   2.077   3.834  16.970  0.1101  0.2245 -0.4066
 6088SOL    HW129726   2.053   3.742  16.981  1.4450  0.0993  1.4981
 6088SOL    HW229727   2.141   3.826  16.899  0.5876 -1.4231  0.2024
 6089SOL     OW29728   1.563   4.295   9.131  0.4090 -0.5681  1.1311
 6089SOL    HW129729   1.492   4.293   9.195 -0.1491 -0.9311  0.5059
 6089SOL    HW229730   1.633   4.259   9.186  0.0194 -0.4245  1.7157
 6090SOL     OW29731   0.344   0.730   5.974 -0.0638 -0.5360 -0.3639
 6090SOL    HW129732   0.429   0.772   5.964 -1.3982  2.1144 -0.5256
 6090SOL    HW229733   0.288   0.790   5.925  0.4193  0.2157  0.0057
 6091SOL     OW29734   4.480   4.646   3.602 -0.6125  0.7337 -0.4418
 6091SOL    HW129735   4.412   4.586   3.572 -0.6486  0.5512  0.0154
 6091SOL    HW229736   4.432   4.714   3.649  0.9292  2.6111 -1.5859
 6092SOL     OW29737   2.853   2.055   8.703 -0.2694  0.1898  0.2431
 6092SOL    HW129738   2.848   1.993   8.630 -0.9116  1.3617 -0.7108
 6092SOL    HW229739   2.762   2.051   8.732 -0.6118 -0.7479 -0.9710
 6093SOL     OW29740   0.695   4.215   3.181 -0.5405  0.2728  0.1110
 6093SOL    HW129741   0.762   4.247   3.121  3.2522 -2.4732  2.9521
 6093SOL    HW229742   0.688   4.289   3.241  0.3998  1.8771 -1.7588
 6094SOL     OW29743   1.868   2.481   6.010 -0.1731  0.2044  0.1745
 6094SOL    HW129744   1.811   2.404   6.008  1.4563 -1.0489  1.5465
 6094SOL    HW229745   1.884   2.484   5.916  0.6437  0.6168  0.3260
 6095SOL     OW29746   0.835   0.894   5.452 -0.1404  0.0662  0.3246
 6095SOL    HW129747   0.821   0.847   5.369  0.2809 -0.1721  0.3883
 6095SOL    HW229748   0.868   0.980   5.426  0.6924 -0.4673 -0.4115
 6096SOL     OW29749   3.231   3.520   5.300  0.0954  0.0205 -0.1923
 6096SOL    HW129750   3.309   3.515   5.245  0.7581  1.2354  0.6434
 6096SOL    HW229751   3.188   3.589   5.249 -1.1330  0.1602  1.0631
 6097SOL     OW29752   4.427   0.462   0.878 -0.0941 -0.2285  0.6218
 6097SOL    HW129753   4.364   0.414   0.931 -1.3963  1.0297  0.2128
 6097SOL    HW229754   4.374   0.475   0.799 -0.7387  1.3235  1.3094
 6098SOL     OW29755   0.167   3.811   7.995 -0.2633  0.2700 -1.0776
 6098SOL    HW129756   0.136   3.889   7.950 -0.3067  0.7790 -0.1658
 6098SOL    HW229757   0.230   3.770   7.936  0.1903  0.3326 -0.6445
 6099SOL     OW29758   3.232   2.941   3.797 -0.5369 -0.1571 -0.1013
 6099SOL    HW129759   3.288   2.872   3.762 -0.5035  0.4308 -1.2315
 6099SOL    HW229760   3.154   2.934   3.741  0.9005 -0.2261 -2.1233
 6100SOL     OW29761   0.215   4.221   6.763  0.2634 -0.2715 -0.3988
 6100SOL    HW129762   0.215   4.274   6.683  1.5262  1.4676  0.7746
 6100SOL    HW229763   0.127   4.182   6.757  1.4028 -2.6981 -1.3218
 6101SOL     OW29764   0.651   4.264   9.968  0.1313  0.1111 -0.2812
 6101SOL    HW129765   0.692   4.302   9.890 -1.1920 -0.4413 -1.2508
 6101SOL    HW229766   0.695   4.315  10.035 -1.0097 -0.1887  0.7019
 6102SOL     OW29767   2.631   2.114   5.810 -0.1065  0.2221 -0.3465
 6102SOL    HW129768   2.565   2.047   5.828  0.3407 -0.7523 -2.3409
 6102SOL    HW229769   2.649   2.095   5.718  0.4042 -0.4818 -0.0992
 6103SOL     OW29770   3.839   0.449   7.981  0.1262  0.1399  0.2563
 6103SOL    HW129771   3.747   0.428   7.961  0.2566 -0.5002  0.3223
 6103SOL    HW229772   3.874   0.366   8.014  0.4846  0.7249  1.3576
 6104SOL     OW29773   2.193   2.601  14.435  0.4981  0.0061  0.5914
 6104SOL    HW129774   2.144   2.540  14.379  0.3722  1.7240 -1.1523
 6104SOL    HW229775   2.143   2.681  14.418  0.4789 -0.4632 -1.5842
 6105SOL     OW29776   1.224   3.459   2.360  0.1589 -0.7660 -0.4646
 6105SOL    HW129777   1.141   3.504   2.373  1.4934  0.6845  3.0776
 6105SOL    HW229778   1.284   3.527   2.328 -1.0858  0.4253 -0.2418
 6106SOL     OW29779   2.497   3.331   0.437 -0.4398 -0.0776 -0.1295
 6106SOL    HW129780   2.526   3.244   0.465  2.6316  0.1236 -2.7000
 6106SOL    HW229781   2.579   3.380   0.432  1.8242 -3.8762 -0.5294
 6107SOL     OW29782   0.603   0.792   5.905  0.8006 -0.8801  0.1269
 6107SOL    HW129783   0.638   0.846   5.976 -2.3706 -0.4440  1.3558
 6107SOL    HW229784   0.617   0.704   5.938  1.9949  0.2352  2.6355
 6108SOL     OW29785   2.207   4.042   4.331 -0.1955  0.0383  0.2986
 6108SOL    HW129786   2.232   4.134   4.336  2.2450 -0.4900 -2.3526
 6108SOL    HW229787   2.126   4.033   4.380  0.3965  0.4238  1.3474
 6109SOL     OW29788   0.965   2.346  13.622  0.6452 -0.0814 -0.8897
 6109SOL    HW129789   0.984   2.280  13.555  3.3527 -1.1036  0.9196
 6109SOL    HW229790   0.960   2.284  13.695  2.1112  1.0197  0.1503
 6110SOL     OW29791   3.110   0.906   5.169  0.4403 -0.3108 -0.9660
 6110SOL    HW129792   3.173   0.976   5.155  0.9735 -0.7491 -0.7902
 6110SOL    HW229793   3.055   0.910   5.090  0.5476  0.0584 -1.0187
 6111SOL     OW29794   3.980   0.353  16.167 -0.1626  0.1795  0.0502
 6111SOL    HW129795   3.992   0.313  16.253 -0.6068 -1.9589 -0.8815
 6111SOL    HW229796   4.057   0.408  16.152  0.9454 -1.4458 -0.1813
 6112SOL     OW29797   4.320   2.920   6.589  0.4774 -1.0106  0.1930
 6112SOL    HW129798   4.338   2.855   6.521  1.8780 -1.1349  0.7017
 6112SOL    HW229799   4.325   3.003   6.541 -1.9621 -0.1965  1.3054
 6113SOL     OW29800   1.924   1.641  15.707 -0.0700 -0.6228 -0.3564
 6113SOL    HW129801   1.970   1.631  15.624 -0.9269 -0.0332 -0.9011
 6113SOL    HW229802   1.905   1.550  15.730  1.8113 -0.4026  2.0236
 6114SOL     OW29803   2.350   3.310   5.059  0.2653 -0.3478  0.0234
 6114SOL    HW129804   2.383   3.234   5.011  2.3148 -0.0175  0.9412
 6114SOL    HW229805   2.435   3.333   5.095 -0.5437  1.2983  0.9108
 6115SOL     OW29806   1.718   0.121   3.945 -0.5114  0.0456  0.5027
 6115SOL    HW129807   1.770   0.121   4.026  0.2247 -0.8902  0.0322
 6115SOL    HW229808   1.772   0.067   3.888  0.0513 -0.8199  1.8487
 6116SOL     OW29809   0.259   2.559   7.360  0.0520  0.1663 -0.4604
 6116SOL    HW129810   0.326   2.608   7.311  0.9575 -1.3230 -0.7408
 6116SOL    HW229811   0.181   2.601   7.325  0.4993  0.3772 -1.2063
 6117SOL     OW29812   4.508   1.554   7.996  0.3594 -0.3106 -0.5591
 6117SOL    HW129813   4.440   1.580   8.058  1.0445 -1.1293  0.5514
 6117SOL    HW229814   4.460   1.482   7.954  2.8491 -2.3940  0.1402
 6118SOL     OW29815   4.302   4.585   9.918 -0.5917  1.1045 -0.1004
 6118SOL    HW129816   4.234   4.542   9.971  0.5185 -1.1317 -0.4749
 6118SOL    HW229817   4.357   4.507   9.908 -1.5983  0.2890  0.7098
 6119SOL     OW29818   2.984   0.649  13.519 -0.3181 -0.0837  0.3113
 6119SOL    HW129819   2.979   0.650  13.424 -2.1806  0.6940  0.4253
 6119SOL    HW229820   3.078   0.630  13.528  0.1751  1.0354 -2.5772
 6120SOL     OW29821   0.942   0.159   6.441  0.1618 -0.3281 -0.3493
 6120SOL    HW129822   0.898   0.077   6.465  1.1356 -0.3879  1.2462
 6120SOL    HW229823   1.031   0.125   6.434 -0.9430 -3.4405  0.9192
 6121SOL     OW29824   0.431   1.784   1.160 -0.1767 -0.5994 -0.5124
 6121SOL    HW129825   0.356   1.740   1.200  0.1926  1.8324  2.8465
 6121SOL    HW229826   0.379   1.812   1.084  2.8947  0.4181 -2.2532
 6122SOL     OW29827   0.519   0.406   2.733 -0.1658 -0.6919 -0.2461
 6122SOL    HW129828   0.589   0.346   2.709  0.2519 -1.3652  2.6648
 6122SOL    HW229829   0.476   0.365   2.808 -0.5407 -0.7092 -0.4669
 6123SOL     OW29830   2.022   1.284   1.626 -0.2197 -0.2693 -0.1828
 6123SOL    HW129831   2.060   1.240   1.703 -0.2822  1.3053  0.7514
 6123SOL    HW229832   1.971   1.348   1.676 -0.7802  0.4729 -1.7116
 6124SOL     OW29833   3.670   2.739   4.695 -1.2838  0.2118 -0.3655
 6124SOL    HW129834   3.676   2.724   4.601  1.0651  0.2853 -0.2163
 6124SOL    HW229835   3.679   2.646   4.717  0.9142  0.6191  0.4672
 6125SOL     OW29836   1.305   4.265   3.182 -0.2104  0.2915  0.4254
 6125SOL    HW129837   1.302   4.186   3.128  1.9322  0.9218 -0.6291
 6125SOL    HW229838   1.251   4.239   3.257 -1.1764  0.1880 -0.2955
 6126SOL     OW29839   2.908   0.446   8.171 -0.3809 -0.9818  0.4875
 6126SOL    HW129840   2.816   0.419   8.176 -0.3527 -1.2619 -0.4994
 6126SOL    HW229841   2.918   0.525   8.225  2.5502 -1.8027  1.1325
 6127SOL     OW29842   3.820   0.068   3.447 -0.2072  0.0150  0.6935
 6127SOL    HW129843   3.778   0.126   3.511  2.6385  1.3729  1.3125
 6127SOL    HW229844   3.878   0.016   3.502 -0.9723  0.7922  2.2224
 6128SOL     OW29845   2.367   0.126   4.438  0.2177  0.4873 -0.0263
 6128SOL    HW129846   2.421   0.194   4.477 -1.4296  1.1644  1.0750
 6128SOL    HW229847   2.339   0.182   4.365  0.4675  0.3597 -0.2220
 6129SOL     OW29848   0.696   0.818   7.382  0.3701  0.5688 -0.3178
 6129SOL    HW129849   0.637   0.870   7.327  1.0488  0.5420 -1.0647
 6129SOL    HW229850   0.634   0.796   7.452 -0.3999 -3.1524 -2.1666
 6130SOL     OW29851   4.231   3.163   9.018 -0.3460  0.2386  0.2560
 6130SOL    HW129852   4.160   3.227   9.017 -1.5885 -1.1528 -0.8878
 6130SOL    HW229853   4.187   3.085   9.054 -1.2730 -0.1913 -1.8073
 6131SOL     OW29854   1.726   3.248   5.816 -0.4604  0.3788  0.0959
 6131SOL    HW129855   1.721   3.160   5.852  0.8884 -0.7557 -2.4550
 6131SOL    HW229856   1.787   3.281   5.882  0.5402 -0.2142 -0.5250
 6132SOL     OW29857   3.563   1.800   8.084 -0.1055  0.0922  0.0426
 6132SOL    HW129858   3.610   1.787   8.002 -0.7023  0.8069 -0.4050
 6132SOL    HW229859   3.505   1.724   8.085 -0.5675  0.4513  0.9070
 6133SOL     OW29860   1.504   2.938  16.473 -0.3441 -0.2253  0.7662
 6133SOL    HW129861   1.493   3.032  16.482 -0.7395 -0.2367  0.4005
 6133SOL    HW229862   1.590   2.922  16.512 -0.7252  0.9348  2.0628
 6134SOL     OW29863   3.676   0.031   2.671 -0.3415 -1.1529  0.1042
 6134SOL    HW129864   3.673   4.715   2.759  1.8625  0.6822  0.9719
 6134SOL    HW229865   3.662   4.679   2.611 -2.6171 -1.0458  0.5116
 6135SOL     OW29866   3.087   0.751  11.075 -0.4780  0.1989 -0.6044
 6135SOL    HW129867   3.118   0.665  11.105 -1.3464  0.4965  1.1843
 6135SOL    HW229868   3.112   0.751  10.983  0.1635 -2.4066 -0.4353
 6136SOL     OW29869   0.905   3.730   7.848  0.3589  0.4553  0.2258
 6136SOL    HW129870   0.931   3.812   7.806  1.2889 -0.0739 -0.2302
 6136SOL    HW229871   0.819   3.757   7.881 -0.1624 -0.0705 -0.7411
 6137SOL     OW29872   4.112   0.767   4.584 -0.3544  0.5322 -0.2836
 6137SOL    HW129873   4.181   0.728   4.531 -1.2630 -1.9142  0.3408
 6137SOL    HW229874   4.042   0.768   4.518 -0.4241  2.5747 -0.1726
 6138SOL     OW29875   4.187   4.389  10.101  0.1173 -0.4405 -0.2294
 6138SOL    HW129876   4.156   4.300  10.118  2.7384 -1.2097  0.5347
 6138SOL    HW229877   4.264   4.397  10.157 -0.6190  0.4488  0.6517
 6139SOL     OW29878   4.592   0.679  16.907  0.0390 -0.0602 -0.1319
 6139SOL    HW129879   4.609   0.635  16.824 -2.7536 -0.0414 -0.7295
 6139SOL    HW229880   4.496   0.683  16.909  0.1165  1.6922 -0.6415
 6140SOL     OW29881   1.473   1.842   5.101 -0.0119  0.3681 -0.3567
 6140SOL    HW129882   1.378   1.826   5.102  0.5691 -3.0059 -0.3568
 6140SOL    HW229883   1.491   1.934   5.084 -1.3963  0.9027  1.0971
 6141SOL     OW29884   1.346   0.716   6.155  0.2171  0.6530  0.0701
 6141SOL    HW129885   1.376   0.807   6.148  0.4830  0.5470 -0.1608
 6141SOL    HW229886   1.340   0.682   6.066  0.1657  0.5510  0.1131
 6142SOL     OW29887   4.031   2.316   7.341  0.3704  0.4759 -0.3649
 6142SOL    HW129888   4.118   2.329   7.302  0.9192 -1.3524  0.2601
 6142SOL    HW229889   4.023   2.391   7.400  1.7641  0.3258  0.0160
 6143SOL     OW29890   2.875   1.914  11.916 -0.5769  0.2257 -0.4717
 6143SOL    HW129891   2.826   1.921  11.998 -0.7500 -1.7854 -0.3925
 6143SOL    HW229892   2.851   1.827  11.883 -3.2248  0.6857  0.2379
 6144SOL     OW29893   1.865   3.163   4.206 -0.0322  0.7102  0.5057
 6144SOL    HW129894   1.790   3.185   4.152  1.7205 -0.7124 -2.5288
 6144SOL    HW229895   1.884   3.249   4.244 -0.6442  1.4535 -0.8882
 6145SOL     OW29896   2.033   2.676   1.932 -0.1708 -0.9470 -0.2281
 6145SOL    HW129897   1.955   2.730   1.940  0.7062  0.4532 -1.1391
 6145SOL    HW229898   2.050   2.675   1.838 -1.6831 -1.8240 -0.4808
 6146SOL     OW29899   4.676   3.762  10.179 -0.3552 -0.2128  0.4256
 6146SOL    HW129900   4.670   3.712  10.097 -0.7821  1.7897 -0.7728
 6146SOL    HW229901   0.032   3.811  10.154  0.3046 -1.2607  0.4092
 6147SOL     OW29902   4.701   2.247   8.872 -0.5409  0.3741  0.0165
 6147SOL    HW129903   0.072   2.221   8.878 -0.4382  0.9802  1.0569
 6147SOL    HW229904   4.661   2.161   8.888  0.9575 -0.3539 -0.1462
 6148SOL     OW29905   4.328   3.515   5.668 -0.0441  0.0235  0.2707
 6148SOL    HW129906   4.331   3.527   5.763 -0.3498  0.2904  0.2456
 6148SOL    HW229907   4.422   3.527   5.654  0.0544 -0.2508  0.6926
 6149SOL     OW29908   3.479   0.465   0.583  0.0601 -0.2268 -0.9029
 6149SOL    HW129909   3.552   0.517   0.619 -0.5296 -0.3346  0.4537
 6149SOL    HW229910   3.404   0.519   0.607  0.8291  0.0956  0.7666
 6150SOL     OW29911   4.006   0.870   8.915 -0.2015 -0.4924 -0.1712
 6150SOL    HW129912   4.058   0.939   8.957 -1.1512  0.2624 -0.2195
 6150SOL    HW229913   3.947   0.912   8.852  1.4046 -0.3904 -1.6098
 6151SOL     OW29914   1.818   2.496  15.635 -0.3690 -0.3347  0.2777
 6151SOL    HW129915   1.813   2.502  15.540 -2.0048 -2.5893  0.2312
 6151SOL    HW229916   1.726   2.507  15.661 -0.3401  0.4805  0.0599
 6152SOL     OW29917   1.891   1.742   6.206 -0.5079  0.2291 -0.0107
 6152SOL    HW129918   1.869   1.650   6.223  1.6372 -0.9258 -3.4730
 6152SOL    HW229919   1.871   1.775   6.293  0.2795  0.6954 -0.0144
 6153SOL     OW29920   1.976   1.658   1.120 -0.2313 -0.0717 -0.4475
 6153SOL    HW129921   2.014   1.606   1.049 -0.0524 -0.0142 -0.3934
 6153SOL    HW229922   2.049   1.693   1.171  0.2527 -0.6480 -0.7473
 6154SOL     OW29923   1.232   3.899   6.383  0.1549  0.7540 -0.2435
 6154SOL    HW129924   1.210   3.874   6.473  0.4032 -0.6060 -0.5604
 6154SOL    HW229925   1.149   3.924   6.343  0.2907  1.3295 -0.1660
 6155SOL     OW29926   3.418   3.408   3.290  0.0250 -0.2841  0.3636
 6155SOL    HW129927   3.483   3.351   3.248 -1.4016 -1.5687 -0.1226
 6155SOL    HW229928   3.360   3.341   3.328  0.3995 -1.2775 -0.8315
 6156SOL     OW29929   0.087   1.799   0.213 -0.1225 -0.4319  0.6562
 6156SOL    HW129930   0.028   1.756   0.275 -0.8009  0.1643  0.4225
 6156SOL    HW229931   0.172   1.779   0.252  0.9529 -0.3143 -1.6033
 6157SOL     OW29932   4.179   3.705   1.021  0.5325  0.0209 -0.3230
 6157SOL    HW129933   4.115   3.771   0.993 -0.3623 -0.4708  0.5400
 6157SOL    HW229934   4.227   3.754   1.088  0.3659 -3.6606  2.4759
 6158SOL     OW29935   3.544   4.531   6.136 -0.5312  0.8217  0.0249
 6158SOL    HW129936   3.486   4.462   6.103  0.2813 -0.6696  1.7403
 6158SOL    HW229937   3.548   4.506   6.228 -1.0736  1.7110  0.2924
 6159SOL     OW29938   4.314   1.614   6.600 -0.4015 -0.4203 -0.2515
 6159SOL    HW129939   4.334   1.684   6.662  1.8095 -0.2696 -1.1312
 6159SOL    HW229940   4.301   1.542   6.662 -0.0209 -0.4019 -0.1516
 6160SOL     OW29941   1.712   2.572   4.441 -0.1306 -0.5944  0.4609
 6160SOL    HW129942   1.659   2.505   4.397  0.4341  1.5042 -3.3445
 6160SOL    HW229943   1.647   2.642   4.450 -1.0740 -1.4965  0.7870
 6161SOL     OW29944   4.613   2.914   5.898 -0.0415 -0.2341 -0.3138
 6161SOL    HW129945   4.643   2.962   5.821 -0.3853 -1.0599 -0.9666
 6161SOL    HW229946   4.518   2.910   5.886 -0.0441  2.3630 -1.1414
 6162SOL     OW29947   4.468   0.810  14.961  0.1033  0.2178 -0.1179
 6162SOL    HW129948   4.458   0.796  15.055  0.5246 -0.5930 -0.2005
 6162SOL    HW229949   4.376   0.802  14.934 -0.3749 -1.2282  1.9149
 6163SOL     OW29950   1.360   1.855   5.960 -0.3057 -0.2350  0.7211
 6163SOL    HW129951   1.415   1.928   5.931  0.8157 -1.3006  0.1530
 6163SOL    HW229952   1.379   1.874   6.052  0.2026 -0.9633  0.7696
 6164SOL     OW29953   3.346   2.002  14.742  0.0116 -0.8597  0.7768
 6164SOL    HW129954   3.352   2.088  14.702 -0.2083 -1.9827 -1.7028
 6164SOL    HW229955   3.364   2.022  14.834  2.1374  0.2687  0.1050
 6165SOL     OW29956   2.890   1.344   0.478 -0.1762  0.2166 -0.5702
 6165SOL    HW129957   2.875   1.250   0.466 -0.5878  0.4040 -1.4872
 6165SOL    HW229958   2.972   1.353   0.430  0.2693  3.7374  0.8247
 6166SOL     OW29959   4.492   1.257   5.928 -0.2011 -0.4527  0.0877
 6166SOL    HW129960   4.418   1.290   5.978 -1.6567  0.6497 -2.8060
 6166SOL    HW229961   4.473   1.164   5.930 -2.1059 -0.1041 -1.5348
 6167SOL     OW29962   3.935   0.498   7.068 -0.5471  0.3092  0.0196
 6167SOL    HW129963   3.960   0.542   7.149  1.4206  0.7441 -0.8240
 6167SOL    HW229964   4.005   0.537   7.015 -1.3812 -0.5783 -1.7272
 6168SOL     OW29965   0.560   0.519   6.270  0.3343  0.3855  0.3160
 6168SOL    HW129966   0.569   0.579   6.344  3.5483 -0.9005  0.9783
 6168SOL    HW229967   0.555   0.430   6.304  0.3674  0.6995  1.1267
 6169SOL     OW29968   3.736   4.322  10.799 -0.1618 -0.6028 -0.2052
 6169SOL    HW129969   3.710   4.302  10.709 -1.0111  0.4262 -0.1933
 6169SOL    HW229970   3.805   4.385  10.779  2.1676 -3.2519 -0.5060
 6170SOL     OW29971   3.153   3.143   1.481 -0.3831 -0.2868  0.5510
 6170SOL    HW129972   3.193   3.056   1.480  0.9245  0.3086  0.2831
 6170SOL    HW229973   3.111   3.144   1.395 -1.4492  0.0422  1.0807
 6171SOL     OW29974   2.010   2.643   9.199  0.5250  0.0053 -0.1568
 6171SOL    HW129975   1.974   2.650   9.287  0.6427 -0.6657 -0.0504
 6171SOL    HW229976   2.064   2.563   9.202  0.6635  0.1126  0.2378
 6172SOL     OW29977   0.494   0.521  14.996 -0.3693 -0.3096  0.2619
 6172SOL    HW129978   0.539   0.461  15.055 -1.3484  0.6738  2.0236
 6172SOL    HW229979   0.466   0.585  15.062  0.1546 -0.5848  0.7605
 6173SOL     OW29980   0.046   1.849  13.258  0.1449  0.2949  0.1007
 6173SOL    HW129981   4.707   1.853  13.332  0.8503  1.3265  0.6190
 6173SOL    HW229982   4.715   1.835  13.179 -0.1547 -2.6718  0.8283
 6174SOL     OW29983   0.030   3.700  15.633  0.0661  0.4829 -0.2437
 6174SOL    HW129984   0.089   3.742  15.570  0.7928  0.1344  0.2027
 6174SOL    HW229985   0.067   3.612  15.628  1.6201  1.0624  1.1238
 6175SOL     OW29986   3.108   3.527   3.396  0.3646 -0.5058  0.1702
 6175SOL    HW129987   3.041   3.572   3.345  1.3982  0.7091 -0.1136
 6175SOL    HW229988   3.137   3.458   3.336  0.6427  0.5347 -0.8810
 6176SOL     OW29989   1.518   4.420   2.339  0.0164 -0.2187 -0.6474
 6176SOL    HW129990   1.457   4.348   2.322 -0.6690  1.1808 -4.1451
 6176SOL    HW229991   1.510   4.409   2.434 -0.3085 -1.7259 -0.8476
 6177SOL     OW29992   4.039   1.279   1.634  0.7258 -0.4227  0.0371
 6177SOL    HW129993   4.109   1.281   1.568 -1.5101  1.4527 -2.2956
 6177SOL    HW229994   3.961   1.270   1.579  0.8548 -1.0152 -0.0524
 6178SOL     OW29995   3.809   1.119  13.538 -0.5372 -0.0310 -0.1247
 6178SOL    HW129996   3.851   1.194  13.580 -0.7556 -0.1965  0.3991
 6178SOL    HW229997   3.877   1.052  13.528  0.2078  1.3727 -4.1438
 6179SOL     OW29998   3.573   3.896   3.791  0.3082  0.1638  0.4822
 6179SOL    HW129999   3.497   3.878   3.846 -0.7212 -1.2598 -1.3976
 6179SOL    HW230000   3.593   3.989   3.799  1.1656 -0.2619  3.1261
 6180SOL     OW30001   3.234   0.663   5.826 -0.3261 -0.3030  0.2786
 6180SOL    HW130002   3.144   0.688   5.845 -1.0720 -1.4419 -1.7787
 6180SOL    HW230003   3.212   0.624   5.742  0.4012  2.2175 -1.0913
 6181SOL     OW30004   1.554   1.554   3.237  0.6887 -0.1539 -0.1374
 6181SOL    HW130005   1.471   1.512   3.213  0.2680  0.0192  0.9782
 6181SOL    HW230006   1.621   1.490   3.213  0.0793 -1.5658  1.8457
 6182SOL     OW30007   0.462   4.566   9.995  0.2699  0.4900 -0.8754
 6182SOL    HW130008   0.385   4.623   9.986 -0.7866 -0.9048 -0.7536
 6182SOL    HW230009   0.438   4.504  10.064 -1.5808  3.0552  0.7727
 6183SOL     OW30010   1.676   4.073   3.735  0.2371  0.0070  0.1331
 6183SOL    HW130011   1.590   4.031   3.743 -0.0610  0.6201  0.1195
 6183SOL    HW230012   1.742   4.015   3.772 -1.1264 -1.1557  0.7730
 6184SOL     OW30013   4.676   3.013   8.303  0.0804 -0.2753 -0.3157
 6184SOL    HW130014   0.032   3.062   8.330 -1.3385  1.3568  0.8439
 6184SOL    HW230015   4.618   3.029   8.377  0.5458 -0.5909  0.1161
 6185SOL     OW30016   4.451   0.099   9.049  0.4276  0.2679 -0.0547
 6185SOL    HW130017   4.497   0.043   8.986  1.8363 -0.6118  1.7493
 6185SOL    HW230018   4.511   0.129   9.118 -0.2444 -0.2315  0.7440
 6186SOL     OW30019   4.179   3.780   4.215 -0.1205 -0.1665 -0.1149
 6186SOL    HW130020   4.269   3.809   4.229  0.2024 -2.2971  2.2394
 6186SOL    HW230021   4.178   3.761   4.122  0.7490  0.1555 -0.1948
 6187SOL     OW30022   0.466   1.875   3.339  0.0386 -0.4726  0.0581
 6187SOL    HW130023   0.491   1.964   3.364 -0.4411 -0.4145  0.3294
 6187SOL    HW230024   0.517   1.823   3.401 -0.2262 -0.1553  0.5463
 6188SOL     OW30025   0.719   4.197   4.113 -0.0694 -0.7566 -0.2454
 6188SOL    HW130026   0.705   4.112   4.073  3.7488 -1.1325 -0.7638
 6188SOL    HW230027   0.634   4.212   4.154  1.8372  4.2288  2.0081
 6189SOL     OW30028   2.954   0.643  16.894 -0.1208 -0.4572  0.0903
 6189SOL    HW130029   2.982   0.713  16.952  1.1820 -0.8255 -0.0939
 6189SOL    HW230030   2.965   0.682  16.808 -1.7389  0.6230  0.3801
 6190SOL     OW30031   3.885   0.672   2.076  0.0256 -0.5780 -0.4078
 6190SOL    HW130032   3.802   0.656   2.031  0.2322  0.1210 -1.0468
 6190SOL    HW230033   3.923   0.733   2.013  1.0321 -1.0828 -0.2919
 6191SOL     OW30034   2.886   3.772   4.729  0.1435  0.3898  0.3211
 6191SOL    HW130035   2.965   3.753   4.679  1.3899 -1.2727  2.9359
 6191SOL    HW230036   2.826   3.717   4.678 -1.6581  0.4374  2.3507
 6192SOL     OW30037   2.400   3.008   2.997 -0.0757  0.2558 -0.2658
 6192SOL    HW130038   2.306   3.012   3.015 -0.3124  1.1437 -1.6358
 6192SOL    HW230039   2.400   3.050   2.910 -0.6108 -0.0344 -0.4088
 6193SOL     OW30040   1.538   2.191  10.643 -0.1601  0.4005  0.2889
 6193SOL    HW130041   1.518   2.100  10.618 -0.1810  0.7794 -1.0559
 6193SOL    HW230042   1.627   2.192  10.676  0.0290  0.4143 -0.2207
 6194SOL     OW30043   4.358   2.411   3.671  0.6997 -0.3906  0.3676
 6194SOL    HW130044   4.432   2.457   3.710  1.8873 -0.9771 -1.2139
 6194SOL    HW230045   4.408   2.336   3.638 -0.5165 -0.3873 -1.4526
 6195SOL     OW30046   3.984   2.393  16.292 -0.4620  0.2053  0.2012
 6195SOL    HW130047   4.000   2.485  16.269 -1.5477  0.2714 -0.2736
 6195SOL    HW230048   4.033   2.378  16.373 -0.6535  0.4516  0.3603
 6196SOL     OW30049   4.662   3.983   1.540 -0.2992 -0.0662  0.8355
 6196SOL    HW130050   4.716   4.030   1.604 -0.0490  0.2096  0.4257
 6196SOL    HW230051   4.711   4.010   1.462  1.5911 -1.1021  1.6502
 6197SOL     OW30052   1.901   4.064   7.060  0.3056 -0.1426 -0.1465
 6197SOL    HW130053   1.887   4.159   7.055 -0.2473 -0.2402 -0.4709
 6197SOL    HW230054   1.887   4.038   7.151  3.6755 -2.1580 -0.1904
 6198SOL     OW30055   1.000   3.327   1.623 -0.4882  0.4398 -0.1125
 6198SOL    HW130056   0.987   3.382   1.700 -0.5366 -0.6530  0.6565
 6198SOL    HW230057   0.988   3.239   1.658 -2.3983  1.5642  2.0360
 6199SOL     OW30058   1.520   0.728  12.146 -0.2158 -0.0997  0.4125
 6199SOL    HW130059   1.576   0.790  12.098 -2.1770  0.0307 -1.6749
 6199SOL    HW230060   1.483   0.777  12.220 -0.6656  0.4797 -0.2022
 6200SOL     OW30061   3.976   1.679   5.692  0.1152  0.4070  0.0611
 6200SOL    HW130062   3.987   1.774   5.690  1.4733  0.2580  0.6388
 6200SOL    HW230063   4.057   1.662   5.740  1.2846  0.7287 -1.7994
 6201SOL     OW30064   2.769   3.049  10.498 -0.0708 -0.3197  0.0437
 6201SOL    HW130065   2.695   2.993  10.474  0.7872 -1.6663  0.5579
 6201SOL    HW230066   2.733   3.135  10.477  0.4195 -0.4843 -1.4702
 6202SOL     OW30067   2.676   4.097   8.173  0.0437  0.3219  0.4707
 6202SOL    HW130068   2.591   4.055   8.165  0.1524  0.0110  0.9601
 6202SOL    HW230069   2.695   4.091   8.267  2.2249 -0.9240 -0.0728
 6203SOL     OW30070   0.028   2.997   9.308  0.5809 -1.2180  0.5402
 6203SOL    HW130071   4.663   2.961   9.292  0.4670 -1.1819  1.0597
 6203SOL    HW230072   0.071   2.912   9.323 -0.3050 -1.5616  1.1055
 6204SOL     OW30073   3.552   3.595   1.585  0.3379  0.5675  0.8396
 6204SOL    HW130074   3.594   3.673   1.622 -1.2866  2.4125 -1.2433
 6204SOL    HW230075   3.585   3.596   1.495  1.7219 -4.7031  1.3005
 6205SOL     OW30076   1.266   1.585   6.017  0.4624 -0.5798  0.4890
 6205SOL    HW130077   1.300   1.671   5.991  1.8964 -1.1777  0.3920
 6205SOL    HW230078   1.177   1.608   5.991  0.3929  1.3605  2.4951
 6206SOL     OW30079   3.813   1.257   1.854 -0.3698  0.0955 -0.3373
 6206SOL    HW130080   3.737   1.250   1.795 -0.7062 -2.8467  0.4656
 6206SOL    HW230081   3.886   1.288   1.800 -0.7934 -1.2997 -1.7085
 6207SOL     OW30082   0.361   1.356   8.277  0.2334 -0.1798  0.0195
 6207SOL    HW130083   0.451   1.373   8.249 -0.2231  1.2509 -0.5779
 6207SOL    HW230084   0.339   1.448   8.264 -2.8444 -1.0636 -1.2896
 6208SOL     OW30085   2.119   2.676   6.036 -0.1668  0.0647  0.0330
 6208SOL    HW130086   2.077   2.631   6.109 -2.3778  2.0075 -0.0428
 6208SOL    HW230087   2.180   2.614   5.995 -1.2629 -0.8027 -0.2982
 6209SOL     OW30088   2.227   0.567   8.365 -0.6549 -0.0633 -0.0437
 6209SOL    HW130089   2.219   0.486   8.415  1.2792 -1.0594 -1.3429
 6209SOL    HW230090   2.208   0.623   8.440  1.3184 -0.1903  0.5489
 6210SOL     OW30091   1.750   4.422   2.140 -0.3360 -0.1253  0.0827
 6210SOL    HW130092   1.668   4.396   2.181  0.0337  0.5165  1.2417
 6210SOL    HW230093   1.777   4.342   2.095  0.1375  0.2711 -0.3367
 6211SOL     OW30094   2.064   2.491  13.083  0.8045 -0.2588  0.3435
 6211SOL    HW130095   2.073   2.430  13.009  1.1178  1.0843 -0.7226
 6211SOL    HW230096   2.149   2.535  13.074 -0.8105  2.5980 -1.0039
 6212SOL     OW30097   0.465   1.850  14.191 -0.0848 -0.2159 -0.5977
 6212SOL    HW130098   0.397   1.788  14.216  1.1998 -1.1232  0.6059
 6212SOL    HW230099   0.505   1.797  14.122 -0.1457 -0.6473 -0.3002
 6213SOL     OW30100   0.788   1.583   5.229  0.0200 -0.1383 -0.1736
 6213SOL    HW130101   0.732   1.660   5.222 -1.7684 -1.5532 -1.3350
 6213SOL    HW230102   0.718   1.517   5.241  0.6472 -0.7383  0.1847
 6214SOL     OW30103   3.201   3.369   2.779 -0.1771  1.2900  0.2824
 6214SOL    HW130104   3.213   3.348   2.687  0.0982  0.2288  0.5554
 6214SOL    HW230105   3.234   3.458   2.781  1.0852  0.8006  1.7345
 6215SOL     OW30106   2.662   4.697  12.855  0.3910  0.0033  0.0547
 6215SOL    HW130107   2.652   4.611  12.895 -0.9273 -0.9350 -2.3057
 6215SOL    HW230108   2.628   4.679  12.767 -3.0507  4.3623  0.4723
 6216SOL     OW30109   1.055   2.569  11.604  0.2108  1.1370 -0.4208
 6216SOL    HW130110   1.035   2.628  11.531  0.0819  0.6691 -0.7649
 6216SOL    HW230111   1.125   2.617  11.648  1.5621 -0.8865 -0.3411
 6217SOL     OW30112   0.008   2.362  10.186 -0.0076 -0.3148  0.2903
 6217SOL    HW130113   4.651   2.413  10.167 -1.6711 -1.4567  4.0528
 6217SOL    HW230114   0.078   2.408  10.140  1.0672 -0.3883  1.8321
 6218SOL     OW30115   2.822   1.098   6.010 -0.2625 -0.7201  0.6137
 6218SOL    HW130116   2.759   1.087   5.938  0.7306 -1.9835 -0.0453
 6218SOL    HW230117   2.821   1.010   6.048  0.6787 -0.2472  1.7389
 6219SOL     OW30118   3.979   4.383   8.537 -0.3026  1.3834  0.8188
 6219SOL    HW130119   3.993   4.473   8.567  0.5162  1.4193  0.3470
 6219SOL    HW230120   4.022   4.390   8.451  0.9808  0.9287  1.4141
 6220SOL     OW30121   0.389   2.395  17.663 -0.0780  0.0316  0.2902
 6220SOL    HW130122   0.412   2.303  17.651  1.5537  0.5273 -0.4210
 6220SOL    HW230123   0.297   2.389  17.641 -0.4855  3.1025  1.0549
 6221SOL     OW30124   2.687   1.512   0.419  0.4139  0.0909  0.2421
 6221SOL    HW130125   2.764   1.456   0.422  1.2306  1.2768  1.5919
 6221SOL    HW230126   2.738   1.590   0.439 -0.3553  1.4205 -2.9077
 6222SOL     OW30127   3.370   2.917   6.988  0.3541  0.2973 -0.2775
 6222SOL    HW130128   3.445   2.864   6.960  0.7319  1.4782 -1.4809
 6222SOL    HW230129   3.327   2.853   7.045  3.1522  0.6951  2.2621
 6223SOL     OW30130   1.364   0.295   9.525 -0.2332 -0.2337 -0.6910
 6223SOL    HW130131   1.434   0.327   9.468  0.5290 -0.9266 -0.1320
 6223SOL    HW230132   1.284   0.330   9.484 -1.7122 -1.9373  0.7430
 6224SOL     OW30133   1.444   4.467   3.228  0.6294 -0.4635  0.0017
 6224SOL    HW130134   1.376   4.490   3.292  1.3042  0.7839  0.2662
 6224SOL    HW230135   1.416   4.379   3.202  1.0414 -0.3750 -0.7262
 6225SOL     OW30136   2.054   0.122   5.474  0.2577 -0.7036  0.2141
 6225SOL    HW130137   1.962   0.099   5.465 -0.5607  2.6551  0.1295
 6225SOL    HW230138   2.090   0.089   5.391  1.3592  1.7502 -0.2777
 6226SOL     OW30139   3.585   4.596   5.453  0.8585  0.0427 -0.8893
 6226SOL    HW130140   3.515   4.661   5.443  1.0400  0.5619  1.3051
 6226SOL    HW230141   3.618   4.602   5.363 -0.2115  1.2213 -1.2068
 6227SOL     OW30142   4.488   2.231   6.144 -0.0870  0.4171 -0.2482
 6227SOL    HW130143   4.491   2.170   6.070 -0.4651  0.9415 -0.6960
 6227SOL    HW230144   4.475   2.179   6.223  2.5517  0.0453 -0.0367
 6228SOL     OW30145   2.338   1.375   5.115  0.6231  0.1805 -0.1918
 6228SOL    HW130146   2.356   1.351   5.024  0.1677  1.9421 -0.7702
 6228SOL    HW230147   2.369   1.466   5.118 -0.7266  0.6518 -0.1790
 6229SOL     OW30148   1.322   1.895   1.620 -1.0518 -0.5370 -0.0369
 6229SOL    HW130149   1.311   1.928   1.709  1.6435 -2.6652  1.0909
 6229SOL    HW230150   1.416   1.911   1.619 -0.9818 -0.9716 -1.6460
 6230SOL     OW30151   4.658   0.011   0.564 -0.5664  0.4172 -0.5824
 6230SOL    HW130152   4.589   0.077   0.563 -0.8611  0.1325  0.8165
 6230SOL    HW230153   4.635   4.676   0.637  1.3944 -0.7527 -0.8738
 6231SOL     OW30154   4.494   0.423  16.581 -0.0925 -0.3805  0.0582
 6231SOL    HW130155   4.439   0.490  16.620 -0.4403 -0.5223 -0.1921
 6231SOL    HW230156   4.454   0.401  16.497 -1.4589 -1.1916  0.9172
 6232SOL     OW30157   0.229   1.609   9.401  0.7624 -0.2203 -0.0342
 6232SOL    HW130158   0.238   1.608   9.496 -0.6601  2.8671  0.1520
 6232SOL    HW230159   0.169   1.684   9.392  1.3901  0.0036 -2.4410
 6233SOL     OW30160   1.778   3.313  12.503 -0.0485 -0.1093  0.8644
 6233SOL    HW130161   1.846   3.315  12.436  1.0616 -1.2834  1.9790
 6233SOL    HW230162   1.800   3.390  12.555  2.3245 -1.2882  1.6178
 6234SOL     OW30163   1.889   3.404   6.273  0.4039 -0.5003  0.0255
 6234SOL    HW130164   1.822   3.472   6.274  1.4578  0.5073  1.3486
 6234SOL    HW230165   1.875   3.360   6.357  1.6714 -0.5609  0.2079
 6235SOL     OW30166   3.094   0.497   6.229 -0.1791  0.0947  0.1131
 6235SOL    HW130167   3.039   0.500   6.308  0.0270 -1.8715  0.3259
 6235SOL    HW230168   3.043   0.450   6.163  1.5241  1.9473 -2.4862
 6236SOL     OW30169   0.931   3.010   8.326 -0.4486 -0.4283 -0.2134
 6236SOL    HW130170   0.965   2.944   8.385  0.5988  1.2361  1.0381
 6236SOL    HW230171   0.940   3.097   8.365  0.8174 -1.4364  1.7043
 6237SOL     OW30172   2.110   4.304  16.283 -0.0750 -0.6822  0.4341
 6237SOL    HW130173   2.199   4.291  16.251  0.5161  0.4781  1.6192
 6237SOL    HW230174   2.120   4.393  16.315  0.8326 -1.1707  1.5181
 6238SOL     OW30175   3.712   1.089  16.538 -0.1504 -0.0882  0.1955
 6238SOL    HW130176   3.630   1.082  16.488 -1.2139  0.4890  1.8421
 6238SOL    HW230177   3.667   1.102  16.621 -0.3470 -1.0732  0.2378
 6239SOL     OW30178   4.558   0.579   1.466 -0.6174 -0.5767 -0.3505
 6239SOL    HW130179   4.576   0.620   1.551 -0.0286 -1.0719 -0.2314
 6239SOL    HW230180   4.650   0.567   1.440  0.0104  0.3867  1.3773
 6240SOL     OW30181   0.254   2.225   8.846 -0.4243  0.0674  0.5837
 6240SOL    HW130182   0.287   2.139   8.874  1.7484  0.5645 -0.4190
 6240SOL    HW230183   0.221   2.203   8.759 -1.3326 -0.1209  0.9776
 6241SOL     OW30184   2.371   3.714  17.394 -0.2652  0.4255  0.4881
 6241SOL    HW130185   2.280   3.699  17.418 -0.3508  1.5394  0.8713
 6241SOL    HW230186   2.395   3.786  17.452 -1.8647  0.8409  0.6111
 6242SOL     OW30187   2.458   4.591  16.672  0.1172  0.0979 -0.3327
 6242SOL    HW130188   2.417   4.676  16.690 -0.0964 -0.1313  0.2731
 6242SOL    HW230189   2.474   4.599  16.578 -0.4488  0.3873 -0.4046
 6243SOL     OW30190   0.493   0.512   4.461  0.3489 -0.1027  0.5206
 6243SOL    HW130191   0.472   0.595   4.419 -1.7360 -0.5105  0.7645
 6243SOL    HW230192   0.437   0.456   4.407  2.0092  1.4588 -2.7781
 6244SOL     OW30193   1.051   4.206   7.930 -0.2439 -0.8077 -0.2862
 6244SOL    HW130194   1.054   4.273   7.998  0.6484 -0.5531 -0.5778
 6244SOL    HW230195   1.142   4.199   7.901  0.5601 -1.3257  2.3401
 6245SOL     OW30196   3.838   1.663   1.459  0.5412  0.7768 -0.3638
 6245SOL    HW130197   3.813   1.734   1.399  3.5683  1.2244 -1.1153
 6245SOL    HW230198   3.864   1.712   1.537 -1.7756 -1.1180  1.5949
 6246SOL     OW30199   1.661   0.068   5.131 -0.2546 -1.2346  0.1253
 6246SOL    HW130200   1.586   0.124   5.112  0.3818 -0.6645 -0.6919
 6246SOL    HW230201   1.629   4.704   5.103  0.5363 -1.6353  0.4385
 6247SOL     OW30202   0.506   2.987   0.664  0.0811 -0.6783 -0.5232
 6247SOL    HW130203   0.525   2.896   0.642 -1.1804 -0.8702 -0.8132
 6247SOL    HW230204   0.598   3.009   0.679 -0.0656  0.9674 -1.9431
 6248SOL     OW30205   3.017   0.981   8.167  0.0657 -0.2686  0.2955
 6248SOL    HW130206   2.952   0.950   8.231 -2.4811  1.5102 -1.4146
 6248SOL    HW230207   2.981   0.958   8.081 -0.4690  2.7811 -0.3011
 6249SOL     OW30208   0.139   1.533  11.982  0.0123  0.2849 -0.0638
 6249SOL    HW130209   0.064   1.476  11.969 -1.3011  1.9731  0.1092
 6249SOL    HW230210   0.124   1.594  11.910  0.3737 -0.8666 -1.1163
 6250SOL     OW30211   1.706   4.537   3.327 -0.2785 -0.2519 -0.1853
 6250SOL    HW130212   1.617   4.531   3.293 -0.6108 -2.1601  1.0385
 6250SOL    HW230213   1.749   4.463   3.283  1.3408  0.5745 -0.0066
 6251SOL     OW30214   1.898   1.778   6.698  0.1105 -0.1588  0.1323
 6251SOL    HW130215   1.886   1.799   6.791  1.1706 -0.4511  0.3436
 6251SOL    HW230216   1.882   1.685   6.706 -0.2917 -0.1691 -0.8101
 6252SOL     OW30217   4.458   2.775   5.680 -0.1124 -0.0490  0.5381
 6252SOL    HW130218   4.549   2.759   5.657 -0.3562  0.3812 -0.7151
 6252SOL    HW230219   4.438   2.832   5.606  0.1837  0.9800  1.2438
 6253SOL     OW30220   4.530   2.941  11.626  0.1931 -0.0959 -0.1282
 6253SOL    HW130221   4.624   2.954  11.617  0.0782  1.0835  0.3726
 6253SOL    HW230222   4.495   2.997  11.557 -0.7388 -0.6408 -0.1130
 6254SOL     OW30223   0.554   2.428   4.136 -0.1111 -0.4615 -0.1271
 6254SOL    HW130224   0.618   2.366   4.171  0.7180 -0.1327 -1.0838
 6254SOL    HW230225   0.599   2.452   4.056 -0.7222  0.1943 -0.2707
 6255SOL     OW30226   3.504   2.571   0.052  0.2568 -0.3638  0.1815
 6255SOL    HW130227   3.414   2.563   0.021 -0.1944 -1.2827  1.7508
 6255SOL    HW230228   3.508   2.656   0.096  2.8297 -0.5533  0.3023
 6256SOL     OW30229   0.866   1.132   3.474 -0.6579 -0.1125  0.1295
 6256SOL    HW130230   0.807   1.159   3.545 -0.4797 -2.1904  1.0936
 6256SOL    HW230231   0.815   1.070   3.422 -0.6062 -1.2971  1.4805
 6257SOL     OW30232   1.352   2.054   7.784  0.0792  0.5583 -0.0424
 6257SOL    HW130233   1.320   2.106   7.857  0.3052 -0.4712  0.7871
 6257SOL    HW230234   1.286   1.986   7.772  0.0260  0.9635 -2.0958
 6258SOL     OW30235   2.392   0.260   7.468  0.1186 -0.1550 -0.1438
 6258SOL    HW130236   2.376   0.226   7.556 -1.3348 -1.6807 -1.0021
 6258SOL    HW230237   2.447   0.336   7.487  1.3684 -1.1865  0.4305
 6259SOL     OW30238   2.464   1.922  16.882 -0.7228  0.3898 -0.2881
 6259SOL    HW130239   2.465   2.008  16.924 -0.1733  0.2884 -0.0884
 6259SOL    HW230240   2.432   1.949  16.796 -1.4380  1.4122  0.3056
 6260SOL     OW30241   2.970   3.891   7.454 -0.4730  0.4426 -0.0765
 6260SOL    HW130242   2.917   3.941   7.391 -0.5490 -1.7135 -1.7321
 6260SOL    HW230243   3.032   3.960   7.478  0.4589 -0.4614  0.1407
 6261SOL     OW30244   1.869   4.598   9.104  0.5323  0.1824 -0.0916
 6261SOL    HW130245   1.964   4.590   9.105  0.3904 -2.0051 -3.3962
 6261SOL    HW230246   1.848   4.504   9.108 -0.0933  0.3403  0.2415
 6262SOL     OW30247   4.335   4.145   8.123 -0.1291  0.0918 -0.0148
 6262SOL    HW130248   4.287   4.175   8.199 -1.1239 -0.3930 -0.4575
 6262SOL    HW230249   4.378   4.229   8.107 -0.9153  0.2503 -1.2617
 6263SOL     OW30250   1.959   2.396   7.214 -0.6613 -0.2143  0.6976
 6263SOL    HW130251   2.003   2.311   7.212 -1.3214 -0.5856  1.8583
 6263SOL    HW230252   1.871   2.365   7.191 -0.3200  0.0985 -1.0087
 6264SOL     OW30253   1.215   2.090   6.043 -0.4601  0.1607  0.3353
 6264SOL    HW130254   1.274   2.028   6.086 -2.2822 -0.7569  1.5022
 6264SOL    HW230255   1.214   2.167   6.100  0.0664 -0.3385  1.0189
 6265SOL     OW30256   3.819   4.505   0.507  0.1593  0.3690 -0.0765
 6265SOL    HW130257   3.853   4.593   0.487 -2.0343  1.4689  0.9998
 6265SOL    HW230258   3.826   4.470   0.418 -2.4246 -1.0639  0.2807
 6266SOL     OW30259   2.736   3.046   3.914 -0.6028  0.0932  0.2077
 6266SOL    HW130260   2.804   3.070   3.850  0.2138 -0.4322  0.8817
 6266SOL    HW230261   2.727   2.951   3.906  1.8304  0.0800 -2.4737
 6267SOL     OW30262   4.573   2.924   7.479 -0.7151 -0.0274  0.2212
 6267SOL    HW130263   4.546   2.833   7.468 -0.7732 -0.0124  0.2432
 6267SOL    HW230264   4.667   2.906   7.485 -1.0936 -2.0683 -0.1007
 6268SOL     OW30265   3.276   4.537  14.939 -0.2406  0.3503  0.2431
 6268SOL    HW130266   3.340   4.473  14.971  1.1492  0.7895 -1.6797
 6268SOL    HW230267   3.311   4.617  14.977  1.6259  0.0938 -0.9667
 6269SOL     OW30268   0.533   1.812   6.775  0.5202  0.2940  0.0907
 6269SOL    HW130269   0.502   1.897   6.743 -1.7214  0.3075  2.3201
 6269SOL    HW230270   0.455   1.791   6.825 -0.4976  1.0317 -1.1732
 6270SOL     OW30271   2.832   0.440  12.052  0.4189  0.1713  0.3194
 6270SOL    HW130272   2.772   0.442  12.127  0.7227 -0.4512  0.5846
 6270SOL    HW230273   2.914   0.399  12.078 -0.4729  0.2605  3.2998
 6271SOL     OW30274   2.325   1.315   9.085 -0.0512 -1.0253 -0.3516
 6271SOL    HW130275   2.239   1.293   9.050 -0.2120 -2.5220  1.0305
 6271SOL    HW230276   2.336   1.289   9.176 -1.7858  2.5444  0.8547
 6272SOL     OW30277   4.549   1.210  10.984 -0.1245 -0.0226 -0.4426
 6272SOL    HW130278   4.621   1.178  10.930  0.6397 -1.0156  1.1469
 6272SOL    HW230279   4.546   1.299  10.949 -0.1454 -0.0515 -0.5148
 6273SOL     OW30280   3.369   1.471   6.648  0.0367 -0.2598  1.0883
 6273SOL    HW130281   3.448   1.461   6.595 -0.4295  1.5085  0.0591
 6273SOL    HW230282   3.304   1.456   6.580 -0.4034  1.3587  1.1566
 6274SOL     OW30283   0.771   2.886   5.820 -0.4676 -0.0274 -0.1471
 6274SOL    HW130284   0.814   2.878   5.735 -1.7226  1.9643 -0.9643
 6274SOL    HW230285   0.706   2.952   5.798 -0.1508  0.8364  1.5050
 6275SOL     OW30286   0.089   4.067  12.867 -0.3178 -0.5976  0.3134
 6275SOL    HW130287   0.141   4.084  12.946  1.0802 -2.3135 -0.2391
 6275SOL    HW230288   0.137   4.108  12.795  1.6480 -3.2277  0.1218
 6276SOL     OW30289   3.787   3.516  16.709 -0.3392 -0.9790 -0.5502
 6276SOL    HW130290   3.752   3.595  16.750  1.8087 -0.2438 -0.1203
 6276SOL    HW230291   3.707   3.465  16.718  0.5780 -1.8511  2.5766
 6277SOL     OW30292   1.438   3.603  11.483 -0.4260  0.1717 -0.4050
 6277SOL    HW130293   1.389   3.539  11.534  0.7839  1.0052  1.7962
 6277SOL    HW230294   1.521   3.561  11.465  0.6422  2.0469  0.1413
 6278SOL     OW30295   2.116   2.796   0.153 -0.7812  0.0973  0.2993
 6278SOL    HW130296   2.049   2.734   0.181 -0.6580 -0.1980 -0.0698
 6278SOL    HW230297   2.194   2.755   0.190 -0.6603 -0.1338 -0.2275
 6279SOL     OW30298   3.453   4.262   2.046 -0.5696 -0.1345  0.2883
 6279SOL    HW130299   3.368   4.262   2.090  0.5609  1.1866  2.4617
 6279SOL    HW230300   3.463   4.357   2.041 -2.1595  0.1441  2.4760
 6280SOL     OW30301   1.005   4.312  14.400 -0.6813  0.0116 -0.6591
 6280SOL    HW130302   1.092   4.331  14.437  0.2140 -3.1805 -1.1375
 6280SOL    HW230303   0.949   4.363  14.459  0.7756 -0.3073  0.9979
 6281SOL     OW30304   4.559   4.296  13.692  0.0974 -0.3233 -0.3750
 6281SOL    HW130305   4.571   4.380  13.736 -1.1703  0.4910 -1.6152
 6281SOL    HW230306   4.468   4.285  13.717 -0.3056 -0.9086 -2.1141
 6282SOL     OW30307   0.507   2.122   4.834 -0.3688 -0.2486 -0.3321
 6282SOL    HW130308   0.413   2.103   4.831 -0.7015  1.4734 -0.4658
 6282SOL    HW230309   0.506   2.130   4.930 -2.3448 -0.5385 -0.3193
 6283SOL     OW30310   1.373   0.379   3.797  0.1782  0.3910  0.2204
 6283SOL    HW130311   1.325   0.431   3.862 -2.2107 -0.6756 -0.6777
 6283SOL    HW230312   1.303   0.342   3.743  0.2730  1.0080 -0.3236
 6284SOL     OW30313   2.362   3.222   8.277  0.1788  0.6010  0.2646
 6284SOL    HW130314   2.279   3.259   8.246 -0.1399 -0.4020 -0.0758
 6284SOL    HW230315   2.417   3.292   8.242  1.7848 -1.2282 -0.8382
 6285SOL     OW30316   1.256   3.679   3.690  0.0152  0.1889  0.7800
 6285SOL    HW130317   1.248   3.590   3.724 -1.8855  0.1769  0.3173
 6285SOL    HW230318   1.287   3.667   3.600  0.0910  0.5263  0.7629
 6286SOL     OW30319   3.570   4.580   5.134 -0.5994 -0.0220 -0.4192
 6286SOL    HW130320   3.633   4.645   5.104  2.5705 -2.8714  0.0750
 6286SOL    HW230321   3.610   4.506   5.090 -0.4717 -2.0124  3.0965
 6287SOL     OW30322   0.019   0.056   4.343 -0.0992  0.8549  0.0293
 6287SOL    HW130323   0.080   0.013   4.283 -1.6190  1.1390 -1.7394
 6287SOL    HW230324   0.068   0.054   4.424  0.9903  0.3424 -0.6427
 6288SOL     OW30325   4.325   4.100   2.196 -0.5822  0.3227  0.4981
 6288SOL    HW130326   4.391   4.164   2.171  0.7901 -1.1738  0.3140
 6288SOL    HW230327   4.392   4.041   2.232  0.1884  1.0540  0.2562
 6289SOL     OW30328   4.018   3.748   6.124 -0.6063  0.1093  0.1245
 6289SOL    HW130329   4.048   3.837   6.141 -1.7434  0.6930 -0.9177
 6289SOL    HW230330   4.021   3.747   6.028 -2.3361  0.4475  0.0749
 6290SOL     OW30331   3.392   3.762  16.121  0.2644  0.4897  0.5242
 6290SOL    HW130332   3.440   3.687  16.155 -0.5117  0.1256  0.8070
 6290SOL    HW230333   3.427   3.757  16.032 -0.6540  3.8572 -0.0128
 6291SOL     OW30334   0.823   0.098   6.917  0.5432 -0.5456  0.0893
 6291SOL    HW130335   0.850   0.183   6.883 -0.1151 -0.1142  0.6357
 6291SOL    HW230336   0.910   0.065   6.939  1.5457  1.7945 -0.3067
 6292SOL     OW30337   3.973   2.829   4.962 -0.4428  0.0018 -0.3500
 6292SOL    HW130338   4.015   2.768   4.901 -1.0929 -1.9264  1.1066
 6292SOL    HW230339   3.929   2.891   4.904 -1.2352  0.3440  0.6214
 6293SOL     OW30340   4.477   0.349   1.161  0.1041 -0.0714  0.2214
 6293SOL    HW130341   4.551   0.366   1.102  1.6753  0.1710  2.2680
 6293SOL    HW230342   4.407   0.342   1.096 -0.1758 -0.6646  0.5809
 6294SOL     OW30343   4.570   1.033   7.604  0.4020  0.3990 -0.2024
 6294SOL    HW130344   4.593   1.029   7.697 -1.4646 -0.1916  0.2338
 6294SOL    HW230345   4.488   0.987   7.586  0.4728  0.8075 -1.5381
 6295SOL     OW30346   0.700   3.775  13.186 -0.8651 -0.6673  0.2921
 6295SOL    HW130347   0.687   3.700  13.128  0.0567 -0.0892 -0.6582
 6295SOL    HW230348   0.649   3.838  13.135  1.9180 -0.0881 -1.7883
 6296SOL     OW30349   3.159   2.443   8.766  0.3002 -0.6650  0.1646
 6296SOL    HW130350   3.138   2.400   8.683  1.3025  0.2537 -0.5789
 6296SOL    HW230351   3.089   2.418   8.826  0.7086  1.6923  1.6122
 6297SOL     OW30352   2.560   4.553   6.004 -0.2694  0.1275  0.5817
 6297SOL    HW130353   2.491   4.495   6.036 -0.5264  2.2367  3.8665
 6297SOL    HW230354   2.507   4.624   5.968  2.3795  1.1498 -1.2801
 6298SOL     OW30355   4.312   0.996  12.869  0.3815 -0.0559 -0.0652
 6298SOL    HW130356   4.389   1.053  12.874  0.5198 -0.3830  1.4856
 6298SOL    HW230357   4.295   0.976  12.961  2.2539 -2.6240 -0.2565
 6299SOL     OW30358   0.281   2.322   5.421  0.0307 -0.1389  0.0213
 6299SOL    HW130359   0.253   2.301   5.332 -0.9072  1.4028 -0.0598
 6299SOL    HW230360   0.195   2.318   5.464 -0.0976  0.2811 -0.1931
 6300SOL     OW30361   3.125   4.245   7.203 -0.2415  0.0954 -0.1274
 6300SOL    HW130362   3.084   4.311   7.258  0.8155  1.5421 -1.0698
 6300SOL    HW230363   3.064   4.173   7.219 -0.9600  0.7775  0.1596
 6301SOL     OW30364   2.286   3.713  11.545 -0.3869  0.6599 -0.2081
 6301SOL    HW130365   2.317   3.626  11.519 -1.7877 -0.6673  2.5079
 6301SOL    HW230366   2.194   3.695  11.561  0.3794 -1.8712  1.3264
 6302SOL     OW30367   1.203   3.943   4.788  0.6685 -0.7091  0.2978
 6302SOL    HW130368   1.252   4.022   4.767 -1.3842  0.2088 -1.0139
 6302SOL    HW230369   1.265   3.870   4.796  0.8345 -0.8126 -2.0680
 6303SOL     OW30370   3.340   3.059   9.144  0.7212  0.0775 -0.1204
 6303SOL    HW130371   3.333   3.140   9.094 -1.2727  0.6292  1.0480
 6303SOL    HW230372   3.313   3.080   9.234 -1.1666  0.7681 -0.8608
 6304SOL     OW30373   1.516   1.900  12.653  0.5001  0.9472 -0.3867
 6304SOL    HW130374   1.591   1.959  12.664  0.4236  0.7224  1.2992
 6304SOL    HW230375   1.561   1.819  12.629 -0.3095  0.3228  0.2229
 6305SOL     OW30376   0.427   2.318   7.852  0.4705  0.3977 -0.3952
 6305SOL    HW130377   0.484   2.389   7.881  2.7238 -0.6768 -2.1576
 6305SOL    HW230378   0.467   2.252   7.908  0.5840  0.1887 -0.7200
 6306SOL     OW30379   2.213   4.048   7.590 -0.1313  0.6824  0.1892
 6306SOL    HW130380   2.247   3.979   7.534 -1.2172 -1.1104  1.7188
 6306SOL    HW230381   2.171   4.102   7.524 -0.0604  1.5700  0.8622
 6307SOL     OW30382   4.441   0.903   9.287 -0.0169 -0.1645  0.3123
 6307SOL    HW130383   4.537   0.907   9.294  0.2362 -2.7582 -1.6989
 6307SOL    HW230384   4.441   0.809   9.306 -0.9579 -0.1069  0.5693
 6308SOL     OW30385   2.129   1.897   5.483 -0.3910 -0.1288 -0.1772
 6308SOL    HW130386   2.037   1.886   5.507 -0.4669  3.8420  1.3007
 6308SOL    HW230387   2.117   1.896   5.388  0.4792 -1.7000 -0.2765
 6309SOL     OW30388   3.754   1.090   0.264  0.2387  0.3746  0.6832
 6309SOL    HW130389   3.734   1.174   0.306  0.6996  0.1764  1.2886
 6309SOL    HW230390   3.729   1.033   0.336  0.6811  1.5500  1.7720
 6310SOL     OW30391   0.616   0.616   5.256  0.1804  0.7944 -0.0354
 6310SOL    HW130392   0.608   0.527   5.291  2.8198  1.4412  2.2143
 6310SOL    HW230393   0.555   0.676   5.299 -1.1178 -0.3174 -0.3483
 6311SOL     OW30394   1.129   4.006   0.550  0.2105 -0.3167 -0.6476
 6311SOL    HW130395   1.109   4.019   0.457 -0.4035 -0.3092 -0.5123
 6311SOL    HW230396   1.136   4.098   0.577 -1.5349 -0.0310 -1.2074
 6312SOL     OW30397   3.145   2.412   4.252 -0.2265 -0.6913 -0.2783
 6312SOL    HW130398   3.087   2.434   4.325 -1.1491  0.0042 -1.2371
 6312SOL    HW230399   3.166   2.320   4.270 -0.4801 -0.4680  1.1888
 6313SOL     OW30400   0.905   1.773  13.148 -0.0689  0.2248  0.4833
 6313SOL    HW130401   0.938   1.698  13.197  1.7242  2.5858  2.8584
 6313SOL    HW230402   0.987   1.797  13.104  0.1288 -0.4485  0.4802
 6314SOL     OW30403   0.162   3.922  10.123 -0.5844  0.2277 -0.1220
 6314SOL    HW130404   0.155   3.984  10.050 -1.5410 -0.1923 -0.3830
 6314SOL    HW230405   0.222   3.856  10.087 -0.1837  0.6222 -0.1674
 6315SOL     OW30406   3.040   1.234   0.081  0.2579 -0.3006  0.0464
 6315SOL    HW130407   2.957   1.212   0.039  0.5199  1.4133 -1.3886
 6315SOL    HW230408   3.100   1.206   0.013  0.7913  0.4734  0.1938
 6316SOL     OW30409   3.253   4.637  10.296  0.1763  0.1812 -0.7385
 6316SOL    HW130410   3.176   4.694  10.300  1.3349  1.6348  1.4456
 6316SOL    HW230411   3.236   4.597  10.211  2.6015 -0.7708 -0.7681
 6317SOL     OW30412   2.264   3.606   2.028  0.2308 -0.8587  0.2994
 6317SOL    HW130413   2.237   3.591   2.118 -0.8333 -0.1451  0.0933
 6317SOL    HW230414   2.200   3.546   1.990 -1.3386  1.4146 -0.6362
 6318SOL     OW30415   4.360   4.118  11.488  0.8224  0.4077 -0.3993
 6318SOL    HW130416   4.406   4.151  11.410  0.7770  1.7922  0.1698
 6318SOL    HW230417   4.350   4.025  11.469 -3.1874  0.3648  2.0284
 6319SOL     OW30418   1.485   3.798   1.811 -0.0127  0.6674 -0.0659
 6319SOL    HW130419   1.390   3.810   1.813 -0.3397 -2.0884  0.1334
 6319SOL    HW230420   1.501   3.850   1.732  0.3785 -0.8047 -0.9480
 6320SOL     OW30421   0.423   1.215   2.134  0.2673  0.0552  0.1078
 6320SOL    HW130422   0.397   1.295   2.088  1.0695  0.8811  1.0843
 6320SOL    HW230423   0.362   1.224   2.207  1.3914 -0.5434  1.1029
 6321SOL     OW30424   2.021   0.078  15.957  0.5989  0.2831  0.0244
 6321SOL    HW130425   2.031   0.076  16.052  3.2096  0.7249 -0.2467
 6321SOL    HW230426   2.111   0.058  15.929  0.6065  1.5070 -0.8223
 6322SOL     OW30427   4.526   2.663   3.729 -0.1996 -0.0445  0.4139
 6322SOL    HW130428   4.433   2.670   3.752 -0.2384 -0.1934  0.3018
 6322SOL    HW230429   4.542   2.757   3.714 -1.9918  0.4141  1.3956
 6323SOL     OW30430   3.231   1.134   1.222 -0.0109  0.5296  0.2188
 6323SOL    HW130431   3.233   1.180   1.138  1.8453  1.3754  0.7223
 6323SOL    HW230432   3.141   1.101   1.220 -0.0384  0.5894  0.4715
 6324SOL     OW30433   0.107   2.052   9.927 -0.2386  0.1331  0.4098
 6324SOL    HW130434   0.083   2.069  10.018  0.3070 -1.4605  0.8638
 6324SOL    HW230435   0.187   2.102   9.915 -1.0834  0.5741 -3.6296
 6325SOL     OW30436   0.060   4.501  11.210  0.2771  0.3984 -0.3310
 6325SOL    HW130437   0.089   4.416  11.178 -2.1469 -0.8584  0.8760
 6325SOL    HW230438   0.108   4.507  11.292  2.6212  2.3066 -1.8182
 6326SOL     OW30439   3.669   2.230   5.136 -0.0530  0.1507  0.1170
 6326SOL    HW130440   3.659   2.322   5.112 -0.1239 -0.6247 -2.7480
 6326SOL    HW230441   3.591   2.203   5.089  0.3311  1.9791 -1.5739
 6327SOL     OW30442   2.800   4.048   5.097  0.5843 -0.0533  0.2945
 6327SOL    HW130443   2.796   4.011   5.185  0.7549 -0.8849 -0.0533
 6327SOL    HW230444   2.707   4.062   5.080  0.5549 -2.2320 -1.2895
 6328SOL     OW30445   1.599   4.532   7.728  0.5597  0.0975  0.4645
 6328SOL    HW130446   1.583   4.514   7.821  0.4431  0.2967  0.4832
 6328SOL    HW230447   1.555   4.453   7.697  1.2903  0.4367 -1.4518
 6329SOL     OW30448   0.976   4.386   4.880  0.6953 -0.0538 -0.3581
 6329SOL    HW130449   1.009   4.305   4.920 -0.5270 -1.1459 -1.5569
 6329SOL    HW230450   0.896   4.407   4.929  0.9910  0.1909  0.0216
 6330SOL     OW30451   2.840   3.489  15.995 -0.3608 -0.1225  1.0086
 6330SOL    HW130452   2.790   3.536  16.062 -0.1985  1.5206 -0.0133
 6330SOL    HW230453   2.927   3.531  15.993 -0.8539  0.9209  1.4794
 6331SOL     OW30454   0.322   2.711  13.102 -0.6635 -0.3442 -0.0140
 6331SOL    HW130455   0.309   2.636  13.044 -2.0715  0.2922 -0.5168
 6331SOL    HW230456   0.418   2.714  13.099 -0.5960 -0.6655  1.7821
 6332SOL     OW30457   1.804   1.911   1.174 -0.0731  0.1507 -0.4087
 6332SOL    HW130458   1.873   1.863   1.127  1.1662  0.4632  1.1079
 6332SOL    HW230459   1.815   1.885   1.265 -0.8144 -0.4516 -0.4883
 6333SOL     OW30460   4.391   2.534   0.572 -0.2736 -0.4652 -0.3597
 6333SOL    HW130461   4.331   2.600   0.608 -0.1272 -0.8431  0.5707
 6333SOL    HW230462   4.474   2.580   0.586  0.2253 -1.5334  0.1029
 6334SOL     OW30463   4.210   0.252   2.353 -0.1606  0.2058 -0.9251
 6334SOL    HW130464   4.163   0.189   2.407  1.0870  0.7877  0.8604
 6334SOL    HW230465   4.273   0.189   2.319 -1.2520 -1.1403 -0.4253
 6335SOL     OW30466   3.363   3.219   2.961 -0.0672 -0.2885  0.0138
 6335SOL    HW130467   3.297   3.153   2.984 -1.4919  1.3224  0.4808
 6335SOL    HW230468   3.316   3.279   2.903 -1.1679 -0.8949  0.2629
 6336SOL     OW30469   2.434   1.326   4.142  0.2437  0.5132 -0.3723
 6336SOL    HW130470   2.399   1.237   4.138  0.4065  0.4212  0.1701
 6336SOL    HW230471   2.416   1.350   4.051 -1.1237  1.8436  0.2508
 6337SOL     OW30472   2.635   0.881   8.573  0.2015 -0.0134 -0.2906
 6337SOL    HW130473   2.661   0.962   8.617 -1.4177  0.4083 -0.1085
 6337SOL    HW230474   2.573   0.843   8.635  1.4221  0.3184  1.1302
 6338SOL     OW30475   2.915   3.736   6.698  0.1053  0.5314  1.0384
 6338SOL    HW130476   2.993   3.767   6.652 -0.7285  1.0372 -0.0645
 6338SOL    HW230477   2.909   3.796   6.773  1.2738  1.1488  0.6424
 6339SOL     OW30478   2.654   2.272   7.645 -0.0090 -0.4443 -0.5175
 6339SOL    HW130479   2.706   2.352   7.653 -0.8345  0.0423 -0.0842
 6339SOL    HW230480   2.714   2.228   7.583  1.4699 -1.0882  1.3563
 6340SOL     OW30481   0.078   2.721   2.905  0.3867 -0.5914  0.2698
 6340SOL    HW130482   0.041   2.754   2.823  0.7473 -0.4765  0.1523
 6340SOL    HW230483   0.036   2.783   2.965  0.8178 -2.9775  3.0574
 6341SOL     OW30484   1.939   1.073  12.206  0.0176 -0.4761  0.0433
 6341SOL    HW130485   1.936   1.003  12.140 -2.0343  1.6048 -2.0685
 6341SOL    HW230486   1.979   1.036  12.285  1.3674  0.4787 -0.1879
 6342SOL     OW30487   4.032   1.377  15.063 -0.2127  0.2408  0.4287
 6342SOL    HW130488   4.081   1.379  15.146  2.0877  0.8415 -0.9528
 6342SOL    HW230489   3.940   1.384  15.088 -0.9160  0.1220 -2.1884
 6343SOL     OW30490   4.615   0.921   4.977 -0.3652 -0.5980 -0.4464
 6343SOL    HW130491   4.553   0.927   5.049  1.0766  0.4442  0.7086
 6343SOL    HW230492   4.589   0.991   4.917  1.5360 -1.1111 -1.8946
 6344SOL     OW30493   0.126   2.466   0.003  0.5196 -0.7899 -0.3072
 6344SOL    HW130494   0.161   2.473   0.092 -1.3258  0.3153  0.3442
 6344SOL    HW230495   0.036   2.484   0.031  0.5226 -0.1481 -0.6954
 6345SOL     OW30496   1.643   0.898   8.708 -0.1495 -0.2725  0.4221
 6345SOL    HW130497   1.550   0.881   8.693  0.2053 -2.2542  0.4828
 6345SOL    HW230498   1.633   0.885   8.802  0.5109 -0.9477  0.3947
 6346SOL     OW30499   3.510   3.630   5.205 -0.1658  0.1068  0.4716
 6346SOL    HW130500   3.453   3.697   5.168  0.4342  0.1885 -0.3083
 6346SOL    HW230501   3.595   3.646   5.164 -0.4050  0.9769  0.3126
 6347SOL     OW30502   2.453   0.240   6.586 -1.3517  0.2352  0.4681
 6347SOL    HW130503   2.381   0.296   6.611 -2.4576 -1.0614  0.1869
 6347SOL    HW230504   2.445   0.181   6.661  3.1993 -0.2784  0.5544
 6348SOL     OW30505   1.550   0.916  10.759  0.0010  0.4307 -0.0785
 6348SOL    HW130506   1.535   0.908  10.854  1.2038 -2.3744 -0.1537
 6348SOL    HW230507   1.620   0.852  10.751  0.8405  1.3202  0.2224
 6349SOL     OW30508   4.072   1.600   4.565  0.2654  0.3954  0.0016
 6349SOL    HW130509   4.025   1.682   4.578 -0.4787  0.2257 -1.5906
 6349SOL    HW230510   4.006   1.534   4.583  2.0604 -2.0571 -2.3095
 6350SOL     OW30511   1.210   2.928  16.442 -0.6592  0.5294 -1.1629
 6350SOL    HW130512   1.295   2.911  16.482 -1.1907 -0.7233 -0.5778
 6350SOL    HW230513   1.165   2.989  16.500  0.4971 -0.3146  0.6300
 6351SOL     OW30514   0.596   4.073   6.233  0.1656  0.1919 -0.2533
 6351SOL    HW130515   0.563   4.159   6.260 -0.2606 -0.2014  0.4717
 6351SOL    HW230516   0.669   4.094   6.176 -1.3708 -0.8289 -2.5817
 6352SOL     OW30517   0.781   1.044   5.866  0.3195 -0.6800  0.5527
 6352SOL    HW130518   0.791   0.957   5.828  0.3201 -0.0797 -0.8254
 6352SOL    HW230519   0.864   1.086   5.843  0.3242 -1.8232 -1.4690
 6353SOL     OW30520   3.673   0.389   9.465  0.0521  0.1779 -0.1204
 6353SOL    HW130521   3.585   0.418   9.442 -0.1409  0.6575  1.1810
 6353SOL    HW230522   3.721   0.391   9.382  1.4987 -0.4218  0.6972
 6354SOL     OW30523   1.747   0.617   5.577  0.4409 -0.0981  0.5323
 6354SOL    HW130524   1.769   0.695   5.627 -1.1919  1.0294 -0.5324
 6354SOL    HW230525   1.775   0.564   5.651 -1.9808 -2.8691 -0.5405
 6355SOL     OW30526   1.105   0.526  12.102  0.1499  0.3735 -0.1411
 6355SOL    HW130527   1.142   0.438  12.104  0.4166  0.4851 -0.1177
 6355SOL    HW230528   1.067   0.541  12.189  1.0856 -1.2272  0.5430
 6356SOL     OW30529   3.063   0.244   5.078  0.1274 -0.3624  0.1622
 6356SOL    HW130530   3.064   0.333   5.044 -1.5745  0.6778  2.8006
 6356SOL    HW230531   3.149   0.212   5.053  0.6586  0.0259  1.4933
 6357SOL     OW30532   2.819   4.561   3.873  0.4286  0.4955  0.1255
 6357SOL    HW130533   2.782   4.594   3.955 -0.5900  1.8530 -0.8825
 6357SOL    HW230534   2.745   4.535   3.819 -1.0673 -1.1963  3.0247
 6358SOL     OW30535   3.987   4.090   8.658 -0.5821  0.5934  0.2003
 6358SOL    HW130536   3.988   4.181   8.627  4.0733  0.9222  1.2813
 6358SOL    HW230537   4.012   4.091   8.750  0.5341  1.1567 -0.1016
 6359SOL     OW30538   4.358   1.199   6.918  0.4365  0.2479 -0.0892
 6359SOL    HW130539   4.265   1.187   6.896  0.2057  1.0794  0.4351
 6359SOL    HW230540   4.394   1.131   6.862  1.7055  0.1185  0.8961
 6360SOL     OW30541   0.251   3.136  13.813 -0.1608  0.2229 -0.3489
 6360SOL    HW130542   0.186   3.067  13.806  0.8503 -0.9359  1.6995
 6360SOL    HW230543   0.207   3.196  13.753  0.4622 -0.2099 -1.2314
 6361SOL     OW30544   4.435   2.342  13.727  0.0694 -0.2753  0.4108
 6361SOL    HW130545   4.346   2.312  13.708  0.2083 -0.6495  0.3534
 6361SOL    HW230546   4.457   2.276  13.792 -0.2986 -1.0004 -0.1937
 6362SOL     OW30547   4.046   2.798   8.039  0.5977  0.0116 -0.1243
 6362SOL    HW130548   4.053   2.891   8.060  1.4737  0.0210 -0.4232
 6362SOL    HW230549   4.137   2.774   8.022  0.6522  0.9841 -1.2671
 6363SOL     OW30550   0.348   0.289   2.919 -0.4785 -0.0680  0.5683
 6363SOL    HW130551   0.296   0.279   2.839  1.1333  1.8275 -0.6952
 6363SOL    HW230552   0.336   0.205   2.964 -2.3542  1.2873  2.5748
 6364SOL     OW30553   0.030   4.681  17.372 -0.4286  0.8704  0.0871
 6364SOL    HW130554   0.058   0.021  17.305 -0.2012  1.0260  0.3238
 6364SOL    HW230555   4.715   4.608  17.323 -0.3617 -1.4348  3.4999
 6365SOL     OW30556   1.670   2.496  10.805 -0.5314 -0.0664 -0.1992
 6365SOL    HW130557   1.608   2.429  10.832  1.2809 -1.0473  1.4941
 6365SOL    HW230558   1.633   2.582  10.827 -0.8744 -0.2971  0.1168
 6366SOL     OW30559   0.791   1.519  14.148  0.0105 -0.0018  0.2023
 6366SOL    HW130560   0.817   1.554  14.062 -1.1546  0.0854 -0.1157
 6366SOL    HW230561   0.815   1.428  14.134 -0.0458  0.2082 -1.3477
 6367SOL     OW30562   0.541   1.727   5.306 -0.3948  0.2683 -0.6678
 6367SOL    HW130563   0.469   1.664   5.296  0.6237 -1.1585  1.1237
 6367SOL    HW230564   0.522   1.762   5.393  3.1030 -0.1130  0.2446
 6368SOL     OW30565   2.504   3.507   6.551 -0.7655  0.3262 -0.2622
 6368SOL    HW130566   2.544   3.586   6.587  0.0711  0.7951 -2.2341
 6368SOL    HW230567   2.581   3.467   6.512 -1.4574 -0.7632 -0.5030
 6369SOL     OW30568   3.878   0.746   6.672  0.3876  0.5179 -0.3237
 6369SOL    HW130569   3.955   0.723   6.619 -2.0560 -0.1781 -3.5329
 6369SOL    HW230570   3.908   0.827   6.714  0.9597 -0.7725  1.7591
 6370SOL     OW30571   2.793   3.287   4.637 -0.0278  0.0238  0.1446
 6370SOL    HW130572   2.818   3.329   4.719 -2.4545  0.8446  0.4622
 6370SOL    HW230573   2.841   3.347   4.580  2.2347 -0.8448  1.1195
 6371SOL     OW30574   3.299   3.190   5.151  0.0737  0.0840  0.0949
 6371SOL    HW130575   3.293   3.234   5.236  2.4177  0.7586 -0.0871
 6371SOL    HW230576   3.316   3.101   5.183 -0.0084  0.1073  0.2048
 6372SOL     OW30577   4.230   0.859  14.335 -0.0639 -0.0529 -0.1302
 6372SOL    HW130578   4.232   0.824  14.424  0.9041 -1.5751 -0.7526
 6372SOL    HW230579   4.140   0.849  14.306 -0.5621  2.4190  0.5930
 6373SOL     OW30580   4.582   0.836  11.306 -0.1971  0.1459  0.1364
 6373SOL    HW130581   4.570   0.925  11.271 -0.3498  0.6726  1.5313
 6373SOL    HW230582   4.554   0.786  11.229  1.8541  1.5056 -1.5100
 6374SOL     OW30583   3.677   1.133   4.804  0.0838  0.4881  0.3072
 6374SOL    HW130584   3.707   1.122   4.714  0.2117  0.9829  0.2904
 6374SOL    HW230585   3.749   1.093   4.853  0.1187  0.7171  0.4443
 6375SOL     OW30586   4.265   2.965   3.100  0.0411  0.6011  0.3744
 6375SOL    HW130587   4.240   2.873   3.110 -1.8208  1.0299 -0.3164
 6375SOL    HW230588   4.219   2.980   3.017  1.7861  0.2216 -0.6568
 6376SOL     OW30589   3.358   0.194   1.063 -0.2556 -0.3525  0.4000
 6376SOL    HW130590   3.307   0.115   1.081  1.8527 -2.0978 -1.2292
 6376SOL    HW230591   3.322   0.258   1.124 -1.0694  0.4369 -0.9265
 6377SOL     OW30592   1.859   2.293   2.269 -0.1125 -0.4950 -0.1424
 6377SOL    HW130593   1.836   2.379   2.234 -0.5156 -0.0640  1.1513
 6377SOL    HW230594   1.814   2.308   2.352 -2.1462 -0.8237 -1.1983
 6378SOL     OW30595   4.404   1.622   3.366  0.5445  0.4979 -0.0532
 6378SOL    HW130596   4.443   1.680   3.301 -1.2106  1.3577 -0.3419
 6378SOL    HW230597   4.435   1.537   3.335  0.7624  0.3763  0.4943
 6379SOL     OW30598   4.620   0.667   9.400  0.8719 -0.0361  0.2474
 6379SOL    HW130599   4.658   0.676   9.312 -1.9931  0.1683 -0.9613
 6379SOL    HW230600   4.691   0.628   9.451 -0.0103 -0.3374  1.2337
 6380SOL     OW30601   2.162   2.537   2.483 -0.1529 -0.1598  0.1360
 6380SOL    HW130602   2.113   2.580   2.412 -0.1122  0.8686  0.7252
 6380SOL    HW230603   2.193   2.462   2.433  1.1752 -1.0337  2.2918
 6381SOL     OW30604   1.717   1.506   5.715 -0.2893  0.2015 -0.2359
 6381SOL    HW130605   1.801   1.552   5.713  0.0846 -0.4684  0.1519
 6381SOL    HW230606   1.716   1.473   5.625 -3.4357  1.7107 -0.7260
 6382SOL     OW30607   1.985   1.882   2.074 -0.2644  0.0967  0.1976
 6382SOL    HW130608   1.999   1.874   2.169  1.7356 -0.6852 -0.1454
 6382SOL    HW230609   1.927   1.958   2.067  0.8131  0.9589  0.5579
 6383SOL     OW30610   3.304   0.221   4.903  0.2384 -0.0705  0.3591
 6383SOL    HW130611   3.258   0.236   4.821 -1.6912 -1.9973  1.1078
 6383SOL    HW230612   3.374   0.157   4.889  2.0459  2.0878 -0.4259
 6384SOL     OW30613   0.359   4.243  17.687 -0.6480 -0.5918  0.2555
 6384SOL    HW130614   0.448   4.216  17.663 -1.4801 -1.4205 -1.9336
 6384SOL    HW230615   0.357   4.251   0.094 -1.1886  0.8134  0.1160
 6385SOL     OW30616   1.209   0.847   3.317  0.1502 -0.3485 -0.5142
 6385SOL    HW130617   1.204   0.781   3.386 -3.8078 -2.5361 -2.8790
 6385SOL    HW230618   1.250   0.799   3.245  1.6448 -0.0812  0.1634
 6386SOL     OW30619   3.596   0.179   6.148 -0.1125 -0.2058  0.1485
 6386SOL    HW130620   3.635   0.093   6.132 -1.4271 -0.6524 -0.6630
 6386SOL    HW230621   3.672   0.212   6.195  0.2634 -0.2073 -0.4586
 6387SOL     OW30622   1.101   1.433   6.461  0.1593  0.2309 -0.2899
 6387SOL    HW130623   1.109   1.473   6.375  0.0673 -0.2175 -0.5074
 6387SOL    HW230624   1.077   1.341   6.446  2.7292 -0.0758 -2.4070
 6388SOL     OW30625   2.936   2.875   8.720  0.4076 -0.6485  0.0314
 6388SOL    HW130626   2.874   2.802   8.721 -1.1346  0.6416 -0.7830
 6388SOL    HW230627   2.924   2.909   8.808  1.0251 -0.8999  0.2057
 6389SOL     OW30628   0.679   4.101   8.117  0.1507  0.9076 -0.1835
 6389SOL    HW130629   0.653   4.011   8.098  1.0487  0.4882  0.5924
 6389SOL    HW230630   0.633   4.124   8.198  1.6481  1.0896  0.6121
 6390SOL     OW30631   0.931   2.221   3.335  0.4930 -0.0379  0.0022
 6390SOL    HW130632   1.015   2.201   3.375  0.5580 -2.0753 -1.1737
 6390SOL    HW230633   0.877   2.143   3.346 -2.0210  1.5557 -0.7726
 6391SOL     OW30634   4.397   0.019   6.414 -0.0786  0.3117 -0.1901
 6391SOL    HW130635   4.383   0.054   6.327 -0.3028 -0.8244 -0.6083
 6391SOL    HW230636   4.425   0.090   6.472  1.6166 -1.4049  1.0890
 6392SOL     OW30637   2.677   3.821  17.369 -1.0484 -0.7726  0.1195
 6392SOL    HW130638   2.688   3.904  17.323  1.5467 -0.9181  0.4838
 6392SOL    HW230639   2.614   3.846  17.437 -0.5634 -3.1759  1.4453
 6393SOL     OW30640   4.481   3.854  14.845 -0.0915 -0.5872 -0.4822
 6393SOL    HW130641   4.436   3.792  14.787 -0.2919 -3.6551  3.0148
 6393SOL    HW230642   4.407   3.914  14.846  0.1028 -0.3800  0.8638
 6394SOL     OW30643   4.120   2.369   0.177 -0.0567 -0.1375  0.3663
 6394SOL    HW130644   4.143   2.294   0.232 -1.2937  2.0690  3.9190
 6394SOL    HW230645   4.030   2.347   0.155 -0.7594  1.3337  1.7004
 6395SOL     OW30646   0.168   1.748   5.790 -0.7524  0.3561  0.1195
 6395SOL    HW130647   0.199   1.837   5.772  2.0834 -0.8790 -1.0943
 6395SOL    HW230648   0.245   1.699   5.760 -0.0159  1.8790 -0.5032
 6396SOL     OW30649   1.359   3.105  15.209 -0.3305  0.2794 -0.0245
 6396SOL    HW130650   1.440   3.137  15.249  0.0229 -0.9127  0.2125
 6396SOL    HW230651   1.373   3.013  15.232 -1.2851  0.2056  0.2815
 6397SOL     OW30652   3.329   0.631   4.229 -0.2861  0.0647 -0.4899
 6397SOL    HW130653   3.303   0.721   4.250  0.3675 -0.2529  1.6486
 6397SOL    HW230654   3.418   0.626   4.263 -0.7573  2.2475  1.0361
 6398SOL     OW30655   4.721   0.900  13.203  0.0058  0.4025 -0.9472
 6398SOL    HW130656   0.047   0.817  13.199  1.1170  0.8155  4.2397
 6398SOL    HW230657   4.635   0.887  13.163 -1.2233  0.5491  1.6471
 6399SOL     OW30658   0.297   1.832   8.944  0.3142  0.8166  0.5867
 6399SOL    HW130659   0.374   1.837   8.888  1.7268  1.6641  2.6034
 6399SOL    HW230660   0.302   1.912   8.996 -0.0042  2.4824 -1.9165
 6400SOL     OW30661   2.300   3.620  16.081 -0.3001  0.0598  0.0199
 6400SOL    HW130662   2.378   3.599  16.031 -1.4134  2.1860 -2.6319
 6400SOL    HW230663   2.263   3.671  16.008  1.1085  1.0020 -0.0287
 6401SOL     OW30664   3.431   1.825   5.106  0.4452  0.3525  0.2997
 6401SOL    HW130665   3.456   1.745   5.151  0.8386 -0.8373 -2.0379
 6401SOL    HW230666   3.389   1.784   5.030  0.0200  1.1072  0.1172
 6402SOL     OW30667   4.289   4.057   5.351  0.2000  0.1416  0.1231
 6402SOL    HW130668   4.220   4.097   5.298  0.4780  0.4068 -0.0354
 6402SOL    HW230669   4.243   3.975   5.371  1.3306 -0.9952 -1.9161
 6403SOL     OW30670   3.348   3.766   4.333  0.0624  0.2984 -0.0113
 6403SOL    HW130671   3.412   3.794   4.267  0.6703  1.9398  1.2672
 6403SOL    HW230672   3.291   3.706   4.285 -0.0893 -0.3247  0.9612
 6404SOL     OW30673   2.708   0.041   6.939 -0.0684 -0.3940 -0.8149
 6404SOL    HW130674   2.678   4.713   7.016 -1.2948 -1.6792 -2.1040
 6404SOL    HW230675   2.737   0.118   6.987 -0.0607 -0.2534 -1.0490
 6405SOL     OW30676   2.279   4.385   1.323  0.1208 -0.0934 -0.4262
 6405SOL    HW130677   2.206   4.411   1.379  0.0014  0.9401 -1.0852
 6405SOL    HW230678   2.332   4.346   1.393 -2.0170 -1.5858  0.3850
 6406SOL     OW30679   1.028   3.355  17.414 -0.5489 -0.3401 -0.4475
 6406SOL    HW130680   1.028   3.344  17.509 -0.0621 -0.7259 -0.4929
 6406SOL    HW230681   1.111   3.402  17.418 -0.8150 -0.1581  2.5146
 6407SOL     OW30682   3.137   4.141  11.987  0.4515  0.0881  0.5476
 6407SOL    HW130683   3.142   4.124  12.081  2.4139 -0.5053  0.3384
 6407SOL    HW230684   3.168   4.232  11.983 -0.2575  0.3129  0.1607
 6408SOL     OW30685   0.351   0.223   3.559 -0.1082 -0.1809  0.4502
 6408SOL    HW130686   0.391   0.158   3.502 -2.1603 -0.9236 -0.1317
 6408SOL    HW230687   0.272   0.172   3.577 -0.0657 -0.2889  0.3252
 6409SOL     OW30688   4.183   2.680   8.364  0.0003  0.0199 -0.2500
 6409SOL    HW130689   4.222   2.765   8.342 -0.9768  0.2398 -1.1601
 6409SOL    HW230690   4.260   2.623   8.364  0.4680  0.6481  0.7322
 6410SOL     OW30691   0.627   1.030   0.839  0.5743  0.1976 -0.3471
 6410SOL    HW130692   0.584   1.022   0.754  2.5234  0.1780 -1.3281
 6410SOL    HW230693   0.682   1.105   0.815  1.4915 -0.8034 -1.3287
 6411SOL     OW30694   2.444   1.430   0.436 -0.5128 -0.1547 -0.8192
 6411SOL    HW130695   2.535   1.461   0.434 -0.3703 -0.4095  1.3558
 6411SOL    HW230696   2.453   1.349   0.487 -1.1235  0.7973  0.8105
 6412SOL     OW30697   2.287   0.846   3.241  0.5939 -0.3038 -0.7210
 6412SOL    HW130698   2.233   0.899   3.183 -0.5613 -0.0668  0.5783
 6412SOL    HW230699   2.224   0.793   3.289  2.7503  0.6520  3.1352
 6413SOL     OW30700   0.596   0.872   9.022 -0.3498 -0.6053 -0.5330
 6413SOL    HW130701   0.650   0.947   8.999 -1.0780  0.2199  0.4136
 6413SOL    HW230702   0.509   0.908   9.040  0.1254 -0.3229  1.2292
 6414SOL     OW30703   2.344   3.374   6.295  0.0667 -0.5590  0.4353
 6414SOL    HW130704   2.407   3.352   6.364 -1.0574  0.3724  1.7789
 6414SOL    HW230705   2.351   3.292   6.245  1.8686  0.6042 -1.1699
 6415SOL     OW30706   1.295   2.676   5.238  0.1650  0.7039  0.6626
 6415SOL    HW130707   1.293   2.633   5.323  1.7189 -1.8745 -0.5963
 6415SOL    HW230708   1.236   2.749   5.256 -1.3606  0.4935 -3.2998
 6416SOL     OW30709   4.325   3.248  15.533  0.1478  0.2903 -0.3557
 6416SOL    HW130710   4.330   3.319  15.598 -0.8211  0.9658 -1.0134
 6416SOL    HW230711   4.403   3.201  15.559  0.3343  1.2330  0.8176
 6417SOL     OW30712   4.546   1.847   2.257 -0.1396  0.0363 -0.1775
 6417SOL    HW130713   4.557   1.939   2.280  1.7823 -0.2924  0.2240
 6417SOL    HW230714   4.452   1.838   2.268  0.1542 -3.5478 -0.6652
 6418SOL     OW30715   4.356   3.051   7.343 -0.4376  0.0691  0.3802
 6418SOL    HW130716   4.439   3.016   7.376  1.4197  0.8984 -3.3842
 6418SOL    HW230717   4.289   2.994   7.381 -1.1605  0.8311  0.2368
 6419SOL     OW30718   1.520   4.346   1.924 -0.2530 -0.3384 -0.2090
 6419SOL    HW130719   1.456   4.404   1.883 -0.9383 -0.3215  0.8845
 6419SOL    HW230720   1.457   4.280   1.951 -1.2578 -0.2264 -2.2569
 6420SOL     OW30721   4.411   4.482  14.077  0.7646 -0.2800  0.3791
 6420SOL    HW130722   4.456   4.522  14.002 -0.2512  1.6199  0.7879
 6420SOL    HW230723   4.326   4.527  14.075  1.0059  0.1527 -0.4256
 6421SOL     OW30724   1.742   4.631   2.733  0.8316  0.3009  0.4908
 6421SOL    HW130725   1.647   4.619   2.727  0.9525 -0.5007  0.1239
 6421SOL    HW230726   1.768   4.689   2.662  0.0067  0.5729  0.4180
 6422SOL     OW30727   1.168   2.584   6.772  0.7275 -0.3480  0.0223
 6422SOL    HW130728   1.109   2.552   6.840 -1.4503  3.5852 -0.0475
 6422SOL    HW230729   1.247   2.604   6.822 -1.8235 -0.1515  4.0472
 6423SOL     OW30730   4.550   0.198   5.343  0.1101  0.3754 -0.0128
 6423SOL    HW130731   4.607   0.130   5.380  1.0546 -0.3769 -2.8301
 6423SOL    HW230732   4.608   0.269   5.367  1.4465  0.1292 -2.5170
 6424SOL     OW30733   3.348   0.749   6.090 -0.1488  0.5824  0.6304
 6424SOL    HW130734   3.421   0.689   6.105 -0.0919  0.6330  0.5555
 6424SOL    HW230735   3.326   0.732   5.999  1.6736  0.6386  0.1759
 6425SOL     OW30736   1.132   3.576   9.426  0.4294 -0.0402  0.0348
 6425SOL    HW130737   1.097   3.665   9.435 -0.2964 -0.1256 -2.0163
 6425SOL    HW230738   1.051   3.532   9.397  0.9000 -0.6790 -0.3066
 6426SOL     OW30739   2.594   2.365   6.456 -0.1809 -0.4487  0.1006
 6426SOL    HW130740   2.677   2.336   6.420 -0.1607  0.9234 -0.9935
 6426SOL    HW230741   2.556   2.278   6.451 -0.0103 -0.4426 -1.2666
 6427SOL     OW30742   1.060   3.249  12.356  0.8335  0.2122 -0.2044
 6427SOL    HW130743   1.138   3.210  12.316  0.0851 -1.7310  0.2488
 6427SOL    HW230744   1.085   3.339  12.378 -2.0462  1.3366 -1.5353
 6428SOL     OW30745   3.382   3.621   1.948  0.2216  0.0790 -0.1761
 6428SOL    HW130746   3.426   3.618   2.033  0.3548 -1.7292 -0.3130
 6428SOL    HW230747   3.394   3.712   1.920 -1.1268  0.2052 -0.3346
 6429SOL     OW30748   2.552   1.255  12.162  0.0908  0.5309  0.2312
 6429SOL    HW130749   2.518   1.174  12.199  2.8422 -1.9710 -2.7837
 6429SOL    HW230750   2.594   1.305  12.233 -0.0507 -0.9104  1.3256
 6430SOL     OW30751   2.775   1.143   5.695  0.1109  0.4619 -0.1057
 6430SOL    HW130752   2.798   1.225   5.738  2.9739  0.4972 -1.6919
 6430SOL    HW230753   2.772   1.176   5.605 -2.7945 -0.9403 -0.5297
 6431SOL     OW30754   1.679   2.103   4.966 -0.4952  0.3964 -0.0065
 6431SOL    HW130755   1.755   2.160   4.953 -0.0089  0.1257  1.6562
 6431SOL    HW230756   1.641   2.145   5.043 -0.5029  1.5309 -0.6220
 6432SOL     OW30757   4.114   0.880   8.024  0.2733  0.2499 -0.7869
 6432SOL    HW130758   4.151   0.865   7.937 -2.6375 -0.4441 -1.9112
 6432SOL    HW230759   4.074   0.796   8.050  1.9703 -1.0828 -2.4721
 6433SOL     OW30760   3.124   2.689   9.355 -0.3996  0.4448  0.4210
 6433SOL    HW130761   3.065   2.684   9.279  2.9257 -1.4953 -2.0567
 6433SOL    HW230762   3.073   2.744   9.414 -1.8542 -1.1382  0.6469
 6434SOL     OW30763   3.225   2.622   8.382  0.0312  0.4375 -0.0082
 6434SOL    HW130764   3.266   2.641   8.467 -0.9699 -1.4140  0.8894
 6434SOL    HW230765   3.288   2.672   8.330 -0.4690  0.5668 -0.4886
 6435SOL     OW30766   0.842   3.020   3.465 -0.0884  0.0181 -0.3514
 6435SOL    HW130767   0.863   2.990   3.377  0.5209 -1.0733  0.1678
 6435SOL    HW230768   0.822   2.937   3.509  0.0570  0.5994  0.8246
 6436SOL     OW30769   4.139   3.580  11.211  0.5611 -0.3329  0.5811
 6436SOL    HW130770   4.067   3.599  11.272 -0.2655  0.2468 -0.5948
 6436SOL    HW230771   4.105   3.493  11.190 -0.8275  0.5455 -0.7372
 6437SOL     OW30772   3.713   1.741   3.627  0.1781  0.2328  0.6696
 6437SOL    HW130773   3.769   1.793   3.570  0.6251 -1.0050 -0.0208
 6437SOL    HW230774   3.628   1.784   3.614  0.4309  0.7349  0.6578
 6438SOL     OW30775   0.360   4.629  16.114  0.2536 -0.4254 -0.2368
 6438SOL    HW130776   0.282   4.683  16.124  2.2424  2.4545 -0.3036
 6438SOL    HW230777   0.374   4.611  16.021 -0.8455 -0.1211 -0.4520
 6439SOL     OW30778   3.875   1.626   8.158  0.2988  0.1063 -0.1243
 6439SOL    HW130779   3.964   1.601   8.136  0.8683 -0.9183  3.3814
 6439SOL    HW230780   3.830   1.633   8.074 -1.5819  0.2973  0.8976
 6440SOL     OW30781   2.664   3.669  11.769  0.0188  0.4319  0.0554
 6440SOL    HW130782   2.756   3.676  11.792  0.2274 -0.7688 -0.4048
 6440SOL    HW230783   2.679   3.623  11.686 -1.1506 -0.7596  0.5013
 6441SOL     OW30784   1.452   0.803   6.949  0.3794  0.4512 -0.6103
 6441SOL    HW130785   1.470   0.710   6.957 -2.7310 -0.0725  0.2567
 6441SOL    HW230786   1.523   0.847   6.996  0.7521 -0.7516 -0.0598
 6442SOL     OW30787   1.568   3.675   2.075  0.0344 -0.6521 -0.0743
 6442SOL    HW130788   1.532   3.743   2.018  1.4315 -0.5293 -0.8139
 6442SOL    HW230789   1.636   3.716   2.128  0.3152  0.3587 -1.2032
 6443SOL     OW30790   3.145   1.946  17.294 -0.0284 -0.1077 -0.7482
 6443SOL    HW130791   3.074   2.003  17.264 -0.3723  0.2581  0.7632
 6443SOL    HW230792   3.176   1.911  17.211 -0.2601  2.0409 -1.7402
 6444SOL     OW30793   4.119   1.094  15.501 -0.3893 -0.2645  0.3869
 6444SOL    HW130794   4.045   1.108  15.441  1.3517 -1.5266 -2.0354
 6444SOL    HW230795   4.165   1.019  15.464 -3.1579 -1.1770 -1.1992
 6445SOL     OW30796   2.767   2.394  10.427 -0.5000 -0.7565 -0.6374
 6445SOL    HW130797   2.815   2.476  10.438  1.5091 -2.0489  0.3850
 6445SOL    HW230798   2.794   2.341  10.502 -0.6376  1.4153  0.9460
 6446SOL     OW30799   2.243   1.144   6.798 -0.1153  0.5019 -0.4187
 6446SOL    HW130800   2.264   1.228   6.758  0.1963 -0.1423 -1.6067
 6446SOL    HW230801   2.318   1.092   6.770 -0.4569 -0.6038  0.7193
 6447SOL     OW30802   1.521   2.088   2.203  0.4807  0.4739 -0.3774
 6447SOL    HW130803   1.529   1.993   2.214  1.6264  0.7243  1.0207
 6447SOL    HW230804   1.516   2.114   2.295  0.1899 -3.0330  0.6257
 6448SOL     OW30805   2.495   0.519   7.456  0.0276 -0.5962 -0.4642
 6448SOL    HW130806   2.559   0.545   7.390  1.3494 -0.9327  0.6820
 6448SOL    HW230807   2.501   0.590   7.521 -2.0050 -1.0249  0.2037
 6449SOL     OW30808   4.149   3.265   6.880  0.3724 -0.5401 -0.3781
 6449SOL    HW130809   4.175   3.176   6.905 -0.4343 -0.9813 -1.1365
 6449SOL    HW230810   4.139   3.298   6.969  0.6459  1.8410 -1.2234
 6450SOL     OW30811   3.860   0.118  13.607  0.5872  0.1422  0.2522
 6450SOL    HW130812   3.854   0.045  13.669  0.4704  1.7716  2.1744
 6450SOL    HW230813   3.801   0.090  13.538  1.9049  0.2521 -0.9129
 6451SOL     OW30814   0.624   0.381   5.442 -0.0005 -0.4936 -0.2306
 6451SOL    HW130815   0.655   0.299   5.480 -1.1789 -0.3014  1.1649
 6451SOL    HW230816   0.530   0.367   5.456  0.3274 -0.4200  2.0343
 6452SOL     OW30817   3.527   3.096   5.576  0.1674 -0.5910  0.3312
 6452SOL    HW130818   3.586   3.104   5.501 -2.1326 -0.5154 -1.4697
 6452SOL    HW230819   3.506   3.007   5.550 -0.8291 -1.0095  2.6152
 6453SOL     OW30820   4.059   1.921   5.802 -0.1808  0.3740 -0.1506
 6453SOL    HW130821   4.056   2.016   5.810  2.4640  0.0379  5.1619
 6453SOL    HW230822   4.018   1.900   5.886 -0.1904 -3.5553 -1.1197
 6454SOL     OW30823   3.076   2.505   7.534 -0.0143  0.2570 -0.7340
 6454SOL    HW130824   3.160   2.527   7.575  0.1599  0.1693 -1.0465
 6454SOL    HW230825   3.072   2.592   7.495  0.3172  1.1680  1.2801
 6455SOL     OW30826   1.139   3.519  10.210  0.2087 -0.2623  0.3438
 6455SOL    HW130827   1.168   3.608  10.228  2.0425 -0.0278 -3.6071
 6455SOL    HW230828   1.090   3.514  10.291  1.0174 -2.7548  0.7069
 6456SOL     OW30829   0.552   1.183   4.012 -0.0610 -0.0451  0.6277
 6456SOL    HW130830   0.646   1.201   4.006 -0.5056  0.6886 -4.0024
 6456SOL    HW230831   0.548   1.089   4.023  1.4110 -0.2953 -0.9021
 6457SOL     OW30832   3.674   3.593   2.529 -0.2218  0.9897  0.2884
 6457SOL    HW130833   3.758   3.592   2.483 -1.2762  0.3453 -1.6435
 6457SOL    HW230834   3.626   3.524   2.483 -0.6164 -0.6908  3.2417
 6458SOL     OW30835   2.695   0.238   8.438  0.3317 -0.2422  0.0936
 6458SOL    HW130836   2.702   0.334   8.441 -0.1006 -0.1528 -1.5246
 6458SOL    HW230837   2.784   0.212   8.412  0.3573  1.9319 -2.0077
 6459SOL     OW30838   1.337   1.426   6.219  0.6656  0.0675 -0.7020
 6459SOL    HW130839   1.342   1.482   6.142 -1.1494  0.9971 -0.1456
 6459SOL    HW230840   1.337   1.342   6.173 -1.7924  0.2994 -1.0873
 6460SOL     OW30841   2.139   2.950   7.950 -0.2933  0.0386 -0.4327
 6460SOL    HW130842   2.066   3.007   7.929 -0.9073 -0.6894 -0.2749
 6460SOL    HW230843   2.133   2.939   8.045  0.5580  1.8645 -0.1593
 6461SOL     OW30844   3.996   3.542  13.591  0.2094  0.2394  0.1208
 6461SOL    HW130845   3.992   3.593  13.511 -0.2492 -0.4204 -0.2788
 6461SOL    HW230846   4.072   3.568  13.643  1.6621  0.6980 -2.2617
 6462SOL     OW30847   0.137   4.606  10.722 -0.5035  0.7733  0.3291
 6462SOL    HW130848   0.213   4.590  10.779  0.2406  0.3462 -0.7961
 6462SOL    HW230849   0.109   4.516  10.702 -0.1560  0.7754 -0.1656
 6463SOL     OW30850   0.139   1.761   5.021 -0.4127 -0.2422  0.1033
 6463SOL    HW130851   0.065   1.733   4.968 -0.4016  2.1660 -1.1855
 6463SOL    HW230852   0.208   1.707   4.982  0.9070  1.0539  0.6097
 6464SOL     OW30853   2.051   3.696   2.695 -0.4816  0.0042 -0.7704
 6464SOL    HW130854   2.130   3.641   2.691  0.3503  1.4060 -4.2580
 6464SOL    HW230855   2.035   3.712   2.788  1.5477  2.6281 -0.8684
 6465SOL     OW30856   2.411   0.643   5.880 -0.1711  0.1264  0.2423
 6465SOL    HW130857   2.400   0.709   5.812 -1.7725  0.6568  1.0157
 6465SOL    HW230858   2.318   0.620   5.874 -0.2462  0.8078 -1.0453
 6466SOL     OW30859   3.468   3.271   4.931 -0.0987 -0.1583  0.0612
 6466SOL    HW130860   3.467   3.348   4.988 -2.2066  0.2204 -0.4934
 6466SOL    HW230861   3.406   3.220   4.984  0.3882 -1.7050 -0.8452
 6467SOL     OW30862   0.928   0.154   3.186  0.4357  0.2008  0.7728
 6467SOL    HW130863   0.938   0.192   3.099 -0.8284  0.6944  0.8433
 6467SOL    HW230864   0.883   0.224   3.234  1.7862  1.3556  0.3427
 6468SOL     OW30865   1.164   2.727   6.426  0.4288 -0.4164 -0.0727
 6468SOL    HW130866   1.195   2.647   6.385 -2.8950 -0.9702 -1.5153
 6468SOL    HW230867   1.244   2.779   6.418  0.0214  0.5497  2.0718
 6469SOL     OW30868   3.634   3.279  16.194 -0.1985 -0.3040  0.4497
 6469SOL    HW130869   3.606   3.189  16.179  0.8960 -0.2621 -1.7621
 6469SOL    HW230870   3.725   3.278  16.165  0.5443 -1.0449  2.8439
 6470SOL     OW30871   0.043   0.322   9.472 -0.0259 -0.1851 -0.1289
 6470SOL    HW130872   0.053   0.257   9.541  0.2830  1.8573  1.7618
 6470SOL    HW230873   0.049   0.395   9.534 -1.1193 -0.4097  0.2427
 6471SOL     OW30874   2.516   0.344  14.547 -0.1770  0.1909 -0.2461
 6471SOL    HW130875   2.487   0.352  14.456  1.1403 -1.9873 -0.8499
 6471SOL    HW230876   2.597   0.295  14.537 -0.2490  0.2782 -1.2915
 6472SOL     OW30877   1.452   0.226  12.034 -0.0982  0.0843 -0.1307
 6472SOL    HW130878   1.448   0.312  12.077  0.1625 -0.3960  0.8450
 6472SOL    HW230879   1.420   0.173  12.107  1.7317  0.8785  1.2512
 6473SOL     OW30880   3.607   0.054  13.934 -0.3138 -0.0459 -0.1677
 6473SOL    HW130881   3.515   0.025  13.934  0.0283 -1.0872  3.8708
 6473SOL    HW230882   3.593   0.148  13.938  0.2749 -0.0244  1.2283
 6474SOL     OW30883   0.381   4.327   2.654 -0.1961 -0.1956 -0.2545
 6474SOL    HW130884   0.407   4.236   2.640  0.9504 -0.1340  1.6153
 6474SOL    HW230885   0.304   4.303   2.705 -0.6537 -0.2434 -0.9649
 6475SOL     OW30886   1.232   3.932   8.202 -0.4831  0.2723 -0.0134
 6475SOL    HW130887   1.221   3.866   8.271  2.3804 -0.6942 -0.4628
 6475SOL    HW230888   1.138   3.942   8.189 -0.3179  1.8096 -0.0362
 6476SOL     OW30889   2.154   3.895  14.819  0.8164 -0.2163  0.5244
 6476SOL    HW130890   2.149   3.825  14.884 -0.2298  0.0801  0.7580
 6476SOL    HW230891   2.076   3.892  14.764  1.1381 -1.1439  0.1195
 6477SOL     OW30892   0.199   1.220   5.693 -0.5144  0.1133  0.0752
 6477SOL    HW130893   0.271   1.244   5.751  0.9192  1.7978 -2.3931
 6477SOL    HW230894   0.143   1.182   5.760  0.5314  1.2391  1.5705
 6478SOL     OW30895   1.187   0.625   7.311 -0.1887  0.0689  0.4170
 6478SOL    HW130896   1.099   0.658   7.331 -0.3406 -0.1943  0.1741
 6478SOL    HW230897   1.212   0.679   7.237 -1.6278 -1.3762 -1.1076
 6479SOL     OW30898   0.179   2.940  13.107 -0.0675 -0.1093 -0.5992
 6479SOL    HW130899   0.091   2.913  13.081  0.4319  1.0464 -3.4150
 6479SOL    HW230900   0.241   2.867  13.106 -1.7024 -1.5230  1.2919
 6480SOL     OW30901   1.169   2.886   2.733  0.2826  0.3115  0.4687
 6480SOL    HW130902   1.194   2.941   2.807  2.2227  0.7961 -0.5531
 6480SOL    HW230903   1.246   2.899   2.677 -0.3385  0.0120 -0.4638
 6481SOL     OW30904   1.710   1.228   8.410 -0.1293  0.3369 -0.4783
 6481SOL    HW130905   1.729   1.211   8.503  0.0506  0.6872 -0.4497
 6481SOL    HW230906   1.699   1.139   8.376  0.3990  0.8426 -1.9340
 6482SOL     OW30907   2.768   3.439  14.006 -0.5021 -0.0330 -0.3754
 6482SOL    HW130908   2.736   3.525  13.978 -0.1047  0.3872  0.4775
 6482SOL    HW230909   2.793   3.457  14.097 -0.8846  0.6282 -0.3999
 6483SOL     OW30910   3.406   3.170   0.232  0.1076  0.1738 -0.3733
 6483SOL    HW130911   3.469   3.158   0.161  0.4920 -1.2792  0.2140
 6483SOL    HW230912   3.346   3.096   0.223 -1.1987  0.9863  1.6110
 6484SOL     OW30913   4.308   0.293   8.913  0.2029 -0.1527 -0.1195
 6484SOL    HW130914   4.334   0.212   8.958 -1.3295 -0.8936 -0.5691
 6484SOL    HW230915   4.288   0.257   8.826 -0.0768 -0.1235 -0.0687
 6485SOL     OW30916   2.031   1.805   2.638  0.1243  0.3588  0.0970
 6485SOL    HW130917   2.116   1.772   2.611  0.8773  3.2201 -0.9689
 6485SOL    HW230918   1.973   1.750   2.586  1.9536  0.6526 -2.2051
 6486SOL     OW30919   1.408   0.327   2.215  0.4741  0.6226  0.6000
 6486SOL    HW130920   1.334   0.387   2.221  0.4171  0.3351  2.7076
 6486SOL    HW230921   1.408   0.284   2.301 -1.5313 -2.7682 -1.0965
 6487SOL     OW30922   3.851   4.580  15.872  0.3996 -0.3875 -0.5398
 6487SOL    HW130923   3.874   4.673  15.878 -1.1654 -0.0443  0.1578
 6487SOL    HW230924   3.933   4.533  15.887  0.5816  0.1056  0.0123
 6488SOL     OW30925   0.513   3.182   6.472  0.3633 -0.6275  0.8003
 6488SOL    HW130926   0.551   3.194   6.385 -0.6941  1.5864  0.6359
 6488SOL    HW230927   0.438   3.242   6.471  1.0470  0.1681 -2.5668
 6489SOL     OW30928   1.708   4.363   3.066  0.1193 -0.0329  0.1468
 6489SOL    HW130929   1.762   4.408   3.002  0.6071 -0.7122  0.0753
 6489SOL    HW230930   1.776   4.320   3.118 -0.4351 -0.9231  0.1448
 6490SOL     OW30931   3.686   3.220   0.265 -0.4088  0.0466  0.5071
 6490SOL    HW130932   3.678   3.181   0.177 -1.7059 -1.0970  1.1396
 6490SOL    HW230933   3.679   3.142   0.320  0.0020  0.1662  0.7258
 6491SOL     OW30934   2.519   4.222   3.556 -0.4200 -0.0347  0.0950
 6491SOL    HW130935   2.521   4.177   3.472  0.6882  0.3044 -0.0658
 6491SOL    HW230936   2.489   4.308   3.529 -0.5741 -0.4976 -1.2102
 6492SOL     OW30937   2.699   2.492   2.588 -0.0570  0.2298 -0.1831
 6492SOL    HW130938   2.701   2.489   2.492  0.8736  1.4923 -0.2027
 6492SOL    HW230939   2.772   2.437   2.614  0.0482  0.5921  0.2914
 6493SOL     OW30940   3.310   0.092   7.365 -0.1792  0.0834  0.3254
 6493SOL    HW130941   3.311   0.085   7.270 -1.6611 -0.7561  0.3673
 6493SOL    HW230942   3.403   0.107   7.384 -0.2653  2.7133 -1.3070
 6494SOL     OW30943   4.394   1.485   6.301  0.3059  0.1940 -0.5492
 6494SOL    HW130944   4.332   1.558   6.309  0.4292  0.2102  0.2682
 6494SOL    HW230945   4.476   1.531   6.287  1.7016 -1.7211  1.2926
 6495SOL     OW30946   1.983   3.986   5.575  0.0753  0.2466 -0.2859
 6495SOL    HW130947   2.069   3.945   5.570 -0.7518 -1.4274 -0.9320
 6495SOL    HW230948   1.947   3.950   5.656  1.3124 -1.7837 -0.6416
 6496SOL     OW30949   2.222   1.663   8.583  0.0883  0.1410  0.3981
 6496SOL    HW130950   2.179   1.735   8.536  0.1750 -0.4219 -0.5405
 6496SOL    HW230951   2.162   1.631   8.650  1.2276 -0.9243  0.9020
 6497SOL     OW30952   3.178   3.970  12.679  0.0994  0.1551  0.4892
 6497SOL    HW130953   3.234   3.910  12.630  2.9477  2.3694  0.9748
 6497SOL    HW230954   3.142   3.918  12.750  0.4021 -1.6231 -0.6638
 6498SOL     OW30955   2.091   3.153   0.842  0.3354 -0.7553 -0.8413
 6498SOL    HW130956   2.046   3.094   0.782  1.6935 -1.8171 -0.8279
 6498SOL    HW230957   2.163   3.185   0.788  1.4298  0.0346  1.0806
 6499SOL     OW30958   4.060   4.157  10.128  0.5233 -0.6392 -0.2258
 6499SOL    HW130959   4.102   4.100  10.193  1.8214  1.1702  0.5251
 6499SOL    HW230960   4.036   4.092  10.062  2.5337 -0.1222 -1.4593
 6500SOL     OW30961   3.131   2.206   6.504  0.2208 -0.1580  0.1014
 6500SOL    HW130962   3.134   2.279   6.443 -1.7710  1.2677  1.7089
 6500SOL    HW230963   3.047   2.172   6.474  0.8699 -2.3840  0.7929
 6501SOL     OW30964   4.333   0.648   2.544  0.5391  0.0263  0.2024
 6501SOL    HW130965   4.246   0.631   2.507  1.5026 -0.6544 -1.7761
 6501SOL    HW230966   4.384   0.635   2.464 -1.0153 -0.6018 -0.6922
 6502SOL     OW30967   3.366   2.724   9.862  0.0030 -0.2327  0.0855
 6502SOL    HW130968   3.310   2.655   9.898  1.4025 -1.4665 -0.1320
 6502SOL    HW230969   3.410   2.681   9.789 -0.4006  1.9899 -1.4763
 6503SOL     OW30970   2.091   4.102   6.422 -0.1285 -0.1707  0.0519
 6503SOL    HW130971   2.029   4.030   6.430  0.0434 -0.3316 -0.0471
 6503SOL    HW230972   2.042   4.171   6.466 -0.2204  0.7730 -1.5065
 6504SOL     OW30973   3.901   0.773   4.981 -0.0577  0.5067 -0.0108
 6504SOL    HW130974   3.918   0.712   5.052 -0.2679  1.1387  0.5811
 6504SOL    HW230975   3.903   0.714   4.906 -0.0072  2.1902 -1.3447
 6505SOL     OW30976   4.460   0.909  13.297  0.0541  0.2856 -0.7166
 6505SOL    HW130977   4.428   0.831  13.252 -1.8594  0.3015  0.6243
 6505SOL    HW230978   4.387   0.971  13.293 -0.0546  0.2340  0.5051
 6506SOL     OW30979   2.852   2.612   5.476 -0.0965 -0.1091  0.7404
 6506SOL    HW130980   2.945   2.600   5.454 -0.3489  0.5606 -0.7052
 6506SOL    HW230981   2.858   2.650   5.563  0.1705  1.2245  0.1453
 6507SOL     OW30982   4.589   0.164  10.574  0.0513  0.8918 -0.0581
 6507SOL    HW130983   4.659   0.222  10.543  0.3989  0.6094  0.2007
 6507SOL    HW230984   4.614   0.141  10.663 -0.3888 -1.2740 -0.4848
 6508SOL     OW30985   0.826   4.706   7.946  0.6819 -0.0637  1.0417
 6508SOL    HW130986   0.753   0.024   7.995  0.5164 -0.4348  1.0936
 6508SOL    HW230987   0.900   4.692   8.006  2.2738  2.4316 -0.3405
 6509SOL     OW30988   0.628   3.156   6.219 -0.3157  0.0590 -0.1163
 6509SOL    HW130989   0.534   3.155   6.199  0.2116  1.1693 -2.6432
 6509SOL    HW230990   0.659   3.079   6.171 -1.0120 -1.4349  1.8351
 6510SOL     OW30991   2.921   2.738   6.884 -0.0599 -0.3242  0.2613
 6510SOL    HW130992   2.909   2.739   6.979  1.6032  0.3619  0.4782
 6510SOL    HW230993   2.837   2.766   6.849  0.1054 -1.4927 -1.0660
 6511SOL     OW30994   2.129   4.689   4.659  0.4150  1.0708 -0.3985
 6511SOL    HW130995   2.083   4.645   4.588 -0.2953 -1.1575  1.4318
 6511SOL    HW230996   2.210   4.638   4.665  0.6809  1.4121 -1.0236
 6512SOL     OW30997   0.679   3.507   5.409 -0.4025  0.1366 -0.1418
 6512SOL    HW130998   0.629   3.507   5.327 -1.5906 -0.6664  0.5766
 6512SOL    HW230999   0.693   3.602   5.411 -0.2137  0.1218 -0.6431
 6513SOL     OW31000   0.265   1.471   7.975 -0.4411  0.1886  0.1048
 6513SOL    HW131001   0.195   1.490   8.037  0.0160 -0.4887  0.8253
 6513SOL    HW231002   0.328   1.431   8.035  0.1827  1.8586  0.5657
 6514SOL     OW31003   2.486   0.815  17.421  0.6124  0.1499  0.3418
 6514SOL    HW131004   2.393   0.834  17.410  1.1142  1.7322 -1.1930
 6514SOL    HW231005   2.486   0.721  17.440  2.3144 -0.1386 -1.0726
 6515SOL     OW31006   0.025   1.728   3.503  0.4435 -0.2444  0.0698
 6515SOL    HW131007   4.670   1.786   3.506 -0.0322 -0.8699 -0.0894
 6515SOL    HW231008   0.079   1.772   3.437 -0.1565  0.4433  0.0317
 6516SOL     OW31009   0.633   2.030   0.625  0.0272 -0.0868  0.1324
 6516SOL    HW131010   0.645   2.005   0.716 -3.0787  0.0461  0.5680
 6516SOL    HW231011   0.669   1.951   0.586 -1.1197 -0.5472  0.0214
 6517SOL     OW31012   2.462   4.488   5.121  0.2650  0.3742  0.2412
 6517SOL    HW131013   2.440   4.581   5.118 -1.9774 -0.1477  1.1635
 6517SOL    HW231014   2.557   4.500   5.125  0.2584  0.2073  0.9876
 6518SOL     OW31015   3.945   1.220  12.489 -0.5716 -0.4153 -0.6317
 6518SOL    HW131016   3.936   1.203  12.583  1.2512 -0.5818 -0.4956
 6518SOL    HW231017   3.903   1.306  12.483  1.5664  0.7554  1.0520
 6519SOL     OW31018   2.231   0.108  17.381  0.3274 -0.0455 -0.1834
 6519SOL    HW131019   2.221   0.013  17.369  0.5458  0.0447 -1.0516
 6519SOL    HW231020   2.154   0.122  17.436  0.9675 -0.3816  0.7799
 6520SOL     OW31021   2.045   0.307   8.117  0.2096 -0.0721  0.8331
 6520SOL    HW131022   2.032   0.398   8.088  2.8767  0.1537  0.2858
 6520SOL    HW231023   2.135   0.316   8.150 -0.1632 -0.5056  1.9519
 6521SOL     OW31024   0.973   1.635  16.514 -0.2451  0.3845  0.5084
 6521SOL    HW131025   1.045   1.688  16.482  0.1069  0.8015  1.9883
 6521SOL    HW231026   0.934   1.697  16.576 -0.5513 -0.6462  1.3523
 6522SOL     OW31027   0.993   0.680   3.175 -0.3369 -0.0525 -0.3489
 6522SOL    HW131028   1.088   0.675   3.181 -0.1794 -0.1705 -2.8324
 6522SOL    HW231029   0.965   0.644   3.259 -0.7297  0.7670 -0.1271
 6523SOL     OW31030   3.301   1.750   4.881  0.0249  0.8435 -0.1060
 6523SOL    HW131031   3.218   1.768   4.838 -1.9758 -2.0197  2.5167
 6523SOL    HW231032   3.348   1.811   4.824  2.2503 -0.7256  0.0852
 6524SOL     OW31033   1.405   0.950   5.728  0.4567  0.3738  0.8299
 6524SOL    HW131034   1.311   0.939   5.718  0.6410 -1.6774  1.4360
 6524SOL    HW231035   1.403   1.044   5.749 -0.6525  0.5904 -0.2535
 6525SOL     OW31036   2.250   2.048  11.280 -0.1350 -0.0626  0.3334
 6525SOL    HW131037   2.199   2.113  11.328  1.2797 -0.5985  2.5595
 6525SOL    HW231038   2.333   2.094  11.273 -1.4496  2.5858  2.1929
 6526SOL     OW31039   2.458   4.057  12.517  0.3860  0.0687 -0.2072
 6526SOL    HW131040   2.494   4.070  12.605  1.0328  0.9499 -0.6028
 6526SOL    HW231041   2.365   4.046  12.537  0.6863 -2.5951 -0.2752
 6527SOL     OW31042   3.075   2.742  15.114 -0.0759 -0.4439 -0.2843
 6527SOL    HW131043   3.082   2.653  15.077 -0.7356 -0.6999  0.2074
 6527SOL    HW231044   2.998   2.775  15.068 -0.9777 -0.9487  0.8675
 6528SOL     OW31045   2.947   2.028   9.253 -0.0158  0.3325 -0.0347
 6528SOL    HW131046   2.901   2.076   9.185 -0.6314 -0.4613 -0.1747
 6528SOL    HW231047   2.892   2.032   9.332 -0.1653  0.6800 -0.1566
 6529SOL     OW31048   0.552   2.207   7.341  0.4704 -0.0051  0.2094
 6529SOL    HW131049   0.537   2.128   7.393  0.0912  0.4928  0.8695
 6529SOL    HW231050   0.468   2.207   7.295 -0.5328  1.5779  2.0444
 6530SOL     OW31051   1.719   1.060   2.407 -0.3685 -0.5526 -0.3961
 6530SOL    HW131052   1.736   1.083   2.316  0.0504  2.6261  0.4898
 6530SOL    HW231053   1.807   1.026   2.426 -0.0204 -0.0753 -1.1817
 6531SOL     OW31054   3.448   4.641   3.787  0.5201  0.6782  0.3445
 6531SOL    HW131055   3.438   4.565   3.730  3.1685  1.3248 -1.0128
 6531SOL    HW231056   3.364   4.644   3.832  0.8447 -1.9082  1.1055
 6532SOL     OW31057   0.035   1.240   2.849 -0.2709  0.5872 -0.0615
 6532SOL    HW131058   0.069   1.265   2.935 -0.7779 -2.1223  0.9246
 6532SOL    HW231059   4.693   1.175   2.880  1.6524 -0.9116  0.7465
 6533SOL     OW31060   2.156   4.196   5.385  0.2134 -0.5303  0.3618
 6533SOL    HW131061   2.227   4.200   5.449  0.6279 -0.2121 -0.1130
 6533SOL    HW231062   2.086   4.248   5.423  1.3525  3.3711 -2.8729
 6534SOL     OW31063   4.717   0.002  11.045  0.1941  0.0344  0.0342
 6534SOL    HW131064   0.026   4.649  11.095  0.7455 -0.3813 -0.9143
 6534SOL    HW231065   4.721   0.063  11.118  0.4710 -0.0624  0.0965
 6535SOL     OW31066   0.517   4.686   2.547  0.0925 -0.5341  0.0368
 6535SOL    HW131067   0.516   4.696   2.452  1.4972 -0.6490  0.0115
 6535SOL    HW231068   0.427   4.661   2.568 -0.1500 -1.8986 -2.5810
 6536SOL     OW31069   3.864   3.777   4.055 -0.0135 -0.6623 -0.4722
 6536SOL    HW131070   3.819   3.778   3.971  1.0533  1.3026 -1.0401
 6536SOL    HW231071   3.921   3.855   4.049 -1.6086  0.7856  2.9009
 6537SOL     OW31072   0.023   1.615  12.933  0.2306 -0.4312  0.3294
 6537SOL    HW131073   0.054   1.699  12.966  1.2955 -0.0633 -1.6107
 6537SOL    HW231074   4.691   1.640  12.857  0.6086 -2.1107 -0.4808
 6538SOL     OW31075   2.941   0.492   4.985 -0.2333  0.1290 -0.1623
 6538SOL    HW131076   2.932   0.438   4.907  1.1158  0.6942 -0.6979
 6538SOL    HW231077   2.849   0.518   4.993 -0.8485 -1.4315 -2.1292
 6539SOL     OW31078   0.821   2.932  17.194 -0.5781 -0.3764 -0.1937
 6539SOL    HW131079   0.866   2.995  17.138  1.7038  0.1173  2.2216
 6539SOL    HW231080   0.848   2.849  17.154  0.6525  0.1336 -0.3929
 6540SOL     OW31081   1.435   3.196   8.388 -0.3223  0.2661  0.5300
 6540SOL    HW131082   1.522   3.217   8.422 -1.3478  3.6109  1.0665
 6540SOL    HW231083   1.380   3.265   8.426  0.9404  0.2289  2.4364
 6541SOL     OW31084   4.407   4.010   4.910  0.3875  0.3484 -0.0714
 6541SOL    HW131085   4.314   4.030   4.898  0.1530 -1.3930 -1.1483
 6541SOL    HW231086   4.396   3.939   4.973  0.6240  1.9028  1.7297
 6542SOL     OW31087   1.752   1.031   6.223 -0.5940 -0.1935  0.1814
 6542SOL    HW131088   1.810   1.017   6.298 -0.8262 -3.3788 -0.2652
 6542SOL    HW231089   1.801   1.098   6.175 -3.0970  1.4714 -0.0369
 6543SOL     OW31090   2.822   0.364   0.784  0.1441 -0.1874 -0.0667
 6543SOL    HW131091   2.889   0.431   0.768  2.0657 -2.0088  0.4594
 6543SOL    HW231092   2.786   0.384   0.870 -0.3400 -0.5584 -0.1806
 6544SOL     OW31093   4.261   3.987   9.868 -0.1476  1.0922  0.7377
 6544SOL    HW131094   4.175   3.964   9.904 -0.5900  0.5080 -0.6549
 6544SOL    HW231095   4.228   4.025   9.786  0.5664  4.1929  1.9028
 6545SOL     OW31096   4.051   0.677   5.643  0.0318  0.6352  0.0438
 6545SOL    HW131097   4.131   0.626   5.628 -0.3119  0.1113 -0.0368
 6545SOL    HW231098   4.026   0.681   5.550  0.0281  2.1023  0.1062
 6546SOL     OW31099   3.909   1.138   4.230  0.1787  0.3129 -0.2736
 6546SOL    HW131100   3.846   1.122   4.159  0.6799 -1.2226 -0.3747
 6546SOL    HW231101   3.975   1.197   4.193  1.9047 -1.4228  0.0305
 6547SOL     OW31102   0.062   4.197   9.150  0.2778 -0.6354 -0.3180
 6547SOL    HW131103   0.116   4.155   9.217 -1.3023  2.1149  2.6713
 6547SOL    HW231104   0.089   4.286   9.173 -1.4284 -0.1852 -0.1019
 6548SOL     OW31105   4.063   3.818   1.640 -0.0534 -0.2621  0.1893
 6548SOL    HW131106   4.115   3.868   1.578  0.1767  0.3570  0.8832
 6548SOL    HW231107   4.057   3.875   1.717  0.2118  0.5223 -0.3735
 6549SOL     OW31108   4.591   0.494   4.374  0.7589 -0.0151  0.1867
 6549SOL    HW131109   4.597   0.435   4.450 -0.6346  0.5304  0.7159
 6549SOL    HW231110   4.611   0.426   4.310 -0.2268 -0.2062  0.0866
 6550SOL     OW31111   1.132   2.569  10.097  0.7506  0.0504 -0.8910
 6550SOL    HW131112   1.163   2.648  10.141 -2.1329  0.4124  0.4742
 6550SOL    HW231113   1.205   2.511  10.120  1.6489  1.7764  0.5823
 6551SOL     OW31114   3.745   3.644  13.651 -0.1087  0.2446 -0.1131
 6551SOL    HW131115   3.771   3.733  13.675 -1.1052  0.6941 -0.7015
 6551SOL    HW231116   3.836   3.622  13.634 -0.0891  0.9777 -0.9450
 6552SOL     OW31117   2.561   1.647   6.530  0.2122  0.3672 -0.0574
 6552SOL    HW131118   2.635   1.606   6.575  0.2375 -1.4478 -1.7446
 6552SOL    HW231119   2.597   1.732   6.507  1.0257 -0.5412 -2.1592
 6553SOL     OW31120   4.423   0.589  11.711 -0.3265 -0.4931  0.7822
 6553SOL    HW131121   4.472   0.662  11.672  0.5781 -1.8113 -0.5440
 6553SOL    HW231122   4.338   0.634  11.710  0.5430  1.1071 -1.1191
 6554SOL     OW31123   1.882   2.736   6.371 -0.0492  0.4584  0.5249
 6554SOL    HW131124   1.969   2.698   6.387  0.1078  0.6011  0.0269
 6554SOL    HW231125   1.909   2.815   6.324  0.6217  0.1003  0.2983
 6555SOL     OW31126   1.894   0.948   7.793  1.1434 -0.1360  0.1630
 6555SOL    HW131127   1.882   1.033   7.835  1.2868 -0.0328 -0.0086
 6555SOL    HW231128   1.985   0.926   7.813  1.1016 -1.7167 -1.4019
 6556SOL     OW31129   1.238   4.336   2.022  0.3510  0.3138  0.0710
 6556SOL    HW131130   1.236   4.329   2.117  0.3138 -0.4484  0.0194
 6556SOL    HW231131   1.213   4.428   2.017 -1.9890 -0.2912  0.7867
 6557SOL     OW31132   0.180   0.861   9.467 -0.2071 -0.4313 -0.0354
 6557SOL    HW131133   0.229   0.869   9.548 -1.2824  0.0596  0.5737
 6557SOL    HW231134   0.246   0.831   9.405  0.5176  0.8793  0.1025
 6558SOL     OW31135   4.521   3.784   6.129  0.0705  0.5292  0.0536
 6558SOL    HW131136   4.471   3.862   6.105  0.6784  0.2148 -2.2267
 6558SOL    HW231137   4.598   3.825   6.167 -0.2680  1.4476 -0.2677
 6559SOL     OW31138   4.596   3.364   0.083 -0.6210  0.3536 -0.0357
 6559SOL    HW131139   4.614   3.438   0.024  0.7538  0.7963  0.9339
 6559SOL    HW231140   4.594   3.413   0.165 -2.3245 -1.3882  0.9496
 6560SOL     OW31141   0.540   2.519   6.186 -0.1216 -0.1844  0.3626
 6560SOL    HW131142   0.509   2.604   6.156 -0.8015 -1.0985 -1.5291
 6560SOL    HW231143   0.529   2.527   6.280 -0.6509  2.6447  0.0750
 6561SOL     OW31144   2.483   2.098   1.415 -0.8223 -0.3148  0.1560
 6561SOL    HW131145   2.410   2.104   1.354 -0.9980 -1.4156  0.2583
 6561SOL    HW231146   2.558   2.049   1.382  0.5472  0.2793  2.3915
 6562SOL     OW31147   2.154   0.155   7.906 -0.6682 -0.4320  0.0522
 6562SOL    HW131148   2.083   0.197   7.857  1.5701  0.8641 -2.0768
 6562SOL    HW231149   2.142   0.186   7.996 -1.9984 -3.8292  1.0541
 6563SOL     OW31150   4.097   2.473   3.225 -0.0001  0.0401 -0.1387
 6563SOL    HW131151   4.131   2.490   3.313  3.8975  0.3939 -1.6900
 6563SOL    HW231152   4.014   2.434   3.252  1.4103 -1.4937  2.0415
 6564SOL     OW31153   1.422   0.323   4.838  0.4311  0.2532  0.0511
 6564SOL    HW131154   1.505   0.352   4.801  1.1253 -0.4964  1.0181
 6564SOL    HW231155   1.382   0.403   4.871 -0.3241 -0.2477  0.3676
 6565SOL     OW31156   1.930   0.276   1.432  0.2425 -0.2249 -0.8300
 6565SOL    HW131157   2.018   0.313   1.442 -0.8308  2.4946 -1.4046
 6565SOL    HW231158   1.875   0.351   1.456  1.3412  0.1439  0.5537
 6566SOL     OW31159   4.108   4.669   6.252 -0.3547 -0.2246 -0.3837
 6566SOL    HW131160   4.152   4.609   6.191 -0.7581 -1.2202  0.2986
 6566SOL    HW231161   4.076   4.613   6.323 -0.0734 -0.3124 -0.3240
 6567SOL     OW31162   3.069   3.327   3.597 -0.0722 -0.1859  0.2974
 6567SOL    HW131163   3.048   3.376   3.517 -2.0682  1.1731  1.6571
 6567SOL    HW231164   3.136   3.267   3.563  0.9285  0.8720  0.4086
 6568SOL     OW31165   2.554   2.899   4.490 -0.2168 -0.1304 -0.4646
 6568SOL    HW131166   2.461   2.884   4.506  0.5998 -3.7342  1.1080
 6568SOL    HW231167   2.580   2.930   4.577 -1.9761  0.3179 -0.1025
 6569SOL     OW31168   0.523   2.783  16.565  0.3543 -0.1243  0.8169
 6569SOL    HW131169   0.467   2.767  16.641  0.8155  0.2983  1.2518
 6569SOL    HW231170   0.490   2.870  16.545  1.0997  0.1106  0.6178
 6570SOL     OW31171   4.456   2.416   9.114  0.3822  0.4544 -0.1995
 6570SOL    HW131172   4.414   2.426   9.029 -0.7571  0.0489  0.3098
 6570SOL    HW231173   4.382   2.445   9.168  1.5607 -0.7039  2.0095
 6571SOL     OW31174   4.084   2.012  12.421  0.5234 -0.4630  0.3338
 6571SOL    HW131175   4.161   1.958  12.437  0.3092 -0.3282  1.7658
 6571SOL    HW231176   4.009   1.952  12.414  0.3262 -0.2821  0.9256
 6572SOL     OW31177   3.803   4.441   0.249 -0.0944 -0.6176 -0.3081
 6572SOL    HW131178   3.810   4.434   0.154 -1.3091 -2.9013 -0.2159
 6572SOL    HW231179   3.711   4.420   0.262 -0.0853  0.2401  1.2192
 6573SOL     OW31180   1.748   2.082  12.688 -0.0169 -0.0995 -0.1560
 6573SOL    HW131181   1.809   2.094  12.616  1.4195  1.5608  1.3409
 6573SOL    HW231182   1.772   2.166  12.727 -2.4948  0.5781 -0.1190
 6574SOL     OW31183   0.880   0.390   1.310  0.0186  0.0451 -0.1033
 6574SOL    HW131184   0.863   0.367   1.218 -0.9845  0.3213  0.0076
 6574SOL    HW231185   0.793   0.387   1.349  0.3877  1.7860  0.8512
 6575SOL     OW31186   2.173   3.284   2.386 -0.2501 -0.1542  0.1316
 6575SOL    HW131187   2.098   3.303   2.442  0.4006  1.7096  0.3744
 6575SOL    HW231188   2.251   3.304   2.437  0.5552  0.3568 -1.3075
 6576SOL     OW31189   3.289   2.659   8.845 -0.4384  0.3720 -0.4496
 6576SOL    HW131190   3.232   2.588   8.816  1.2429 -0.2920 -2.0956
 6576SOL    HW231191   3.294   2.651   8.940  0.2810  2.8251 -0.2657
 6577SOL     OW31192   0.602   4.084   3.832  0.0801 -0.0415 -0.1533
 6577SOL    HW131193   0.647   4.126   3.758 -1.0611  2.9312  0.8540
 6577SOL    HW231194   0.523   4.130   3.858  0.4382  1.6479 -2.0699
 6578SOL     OW31195   4.324   0.363   3.428  0.7632 -0.4525  0.0835
 6578SOL    HW131196   4.335   0.428   3.359 -0.9276 -1.3448 -1.0236
 6578SOL    HW231197   4.415   0.333   3.430  0.6916 -0.4257  2.7899
 6579SOL     OW31198   1.940   2.123  12.382 -1.0900 -0.5411  0.3567
 6579SOL    HW131199   1.860   2.072  12.389 -1.5356  0.1686  0.4603
 6579SOL    HW231200   1.910   2.211  12.358  0.0516 -0.5116 -0.9798
 6580SOL     OW31201   3.170   3.294   7.013  0.0306 -0.3351 -0.5510
 6580SOL    HW131202   3.096   3.234   7.002 -0.1027 -0.4245  0.8141
 6580SOL    HW231203   3.149   3.354   6.941 -0.4016 -1.9826 -1.7814
 6581SOL     OW31204   3.325   3.591   3.554 -0.1105 -0.2151 -0.1856
 6581SOL    HW131205   3.259   3.609   3.486  0.8557  2.4590 -0.4105
 6581SOL    HW231206   3.298   3.501   3.575 -2.9166  0.5154 -0.6818
 6582SOL     OW31207   3.585   4.404   2.759  0.0317  0.3206 -0.0736
 6582SOL    HW131208   3.523   4.360   2.701  0.0603 -0.1991  0.2917
 6582SOL    HW231209   3.666   4.392   2.709 -1.2262 -3.1559 -1.2165
 6583SOL     OW31210   0.817   0.390  10.544 -0.3358 -0.0229  0.5739
 6583SOL    HW131211   0.783   0.458  10.602 -0.6707  1.4548 -1.3073
 6583SOL    HW231212   0.743   0.370  10.486  0.5350 -2.1768  0.2236
 6584SOL     OW31213   4.713   4.500  16.868  0.3262 -0.0777  0.1603
 6584SOL    HW131214   4.686   4.484  16.959 -0.5931  1.2703  0.1226
 6584SOL    HW231215   4.626   4.520  16.831 -0.6207  2.2091  3.6230
 6585SOL     OW31216   3.639   0.935  16.940 -0.0997  0.2313  0.4102
 6585SOL    HW131217   3.596   0.968  17.019  1.2056  0.0609  1.1993
 6585SOL    HW231218   3.690   1.011  16.911 -1.3833 -0.0510 -2.5149
 6586SOL     OW31219   0.820   3.999   9.843 -0.0949 -0.3443  0.4962
 6586SOL    HW131220   0.868   3.917   9.831 -0.7026 -0.6391  0.0695
 6586SOL    HW231221   0.892   4.058   9.866 -0.9648  0.1871  1.8850
 6587SOL     OW31222   1.613   0.905   3.346 -0.3066 -0.2577  0.2579
 6587SOL    HW131223   1.526   0.919   3.383  0.9376  1.1685  2.6219
 6587SOL    HW231224   1.615   0.810   3.338 -1.0374 -0.1180 -1.6307
 6588SOL     OW31225   3.955   3.680   5.489  0.3531 -0.5851 -0.0428
 6588SOL    HW131226   3.904   3.658   5.567 -1.6440 -1.4874 -1.6219
 6588SOL    HW231227   3.890   3.730   5.439  0.3480  1.1377  1.6676
 6589SOL     OW31228   0.442   3.452   3.770  0.1610 -0.0124 -0.4846
 6589SOL    HW131229   0.372   3.490   3.715  0.6516  1.1731 -0.2968
 6589SOL    HW231230   0.519   3.467   3.716  0.3437 -2.5245 -0.9037
 6590SOL     OW31231   3.842   4.377   2.684  0.9131 -0.6102  0.1727
 6590SOL    HW131232   3.921   4.417   2.720  0.5034 -0.5438  0.9928
 6590SOL    HW231233   3.881   4.324   2.615  0.2703  0.2058 -0.8166
 6591SOL     OW31234   3.614   3.854   5.805  0.0061  0.0759  0.4785
 6591SOL    HW131235   3.654   3.787   5.861 -0.9386  0.9593  2.1908
 6591SOL    HW231236   3.690   3.905   5.778 -0.0254 -0.8725 -1.4654
 6592SOL     OW31237   4.110   3.893  15.774 -0.5353 -0.1363  0.0197
 6592SOL    HW131238   4.099   3.964  15.710  0.5838 -0.0674 -0.1094
 6592SOL    HW231239   4.069   3.929  15.852  0.6826  1.7474 -0.2037
 6593SOL     OW31240   3.315   1.898   8.168 -0.0631 -0.7138  0.6831
 6593SOL    HW131241   3.411   1.898   8.177 -0.2879 -0.4552  3.1277
 6593SOL    HW231242   3.299   1.861   8.082  1.9178  0.6260 -0.2730
 6594SOL     OW31243   4.108   1.082   3.750  0.2724 -0.0738 -0.0978
 6594SOL    HW131244   4.183   1.022   3.754  0.2916 -0.1740 -1.8217
 6594SOL    HW231245   4.154   1.165   3.733 -0.6949  0.1421 -1.6337
 6595SOL     OW31246   2.207   1.304   8.275  0.4472  0.0497 -0.0858
 6595SOL    HW131247   2.276   1.238   8.280 -1.0983 -1.2999  3.2985
 6595SOL    HW231248   2.146   1.259   8.217  1.0387  0.7299 -1.2353
 6596SOL     OW31249   3.289   2.708   0.446 -0.0942 -0.7772 -0.1332
 6596SOL    HW131250   3.307   2.637   0.507  1.5360 -0.3263 -0.0807
 6596SOL    HW231251   3.194   2.699   0.441 -0.4383  1.1334  2.8859
 6597SOL     OW31252   3.015   4.072   4.267  0.4594  0.3754  0.1530
 6597SOL    HW131253   3.041   3.995   4.217 -2.4394 -0.0026 -0.7381
 6597SOL    HW231254   2.925   4.045   4.286  1.1938 -0.9315  1.7594
 6598SOL     OW31255   0.534   0.821   7.611  0.0184 -0.5962 -0.1135
 6598SOL    HW131256   0.447   0.824   7.650  0.5412  2.2568  0.8414
 6598SOL    HW231257   0.570   0.906   7.637  2.7673 -1.1652 -2.1141
 6599SOL     OW31258   2.932   1.184  11.552  0.1651 -0.3145  0.4337
 6599SOL    HW131259   2.911   1.095  11.578  1.3258 -0.1183  2.0605
 6599SOL    HW231260   3.009   1.206  11.604 -1.3772 -0.9555  2.9847
 6600SOL     OW31261   2.794   4.224   3.616  0.0583  0.2131 -0.6450
 6600SOL    HW131262   2.815   4.145   3.667 -2.0042  0.1503  0.1317
 6600SOL    HW231263   2.698   4.219   3.620  0.0703  0.3368 -0.1806
 6601SOL     OW31264   2.922   0.016  15.810  0.0874 -0.0794 -0.5847
 6601SOL    HW131265   2.947   0.029  15.718  0.1130  1.6132 -0.3395
 6601SOL    HW231266   2.984   0.075  15.853 -0.9999  0.1086  0.7102
 6602SOL     OW31267   3.444   2.322  11.809 -0.0968 -0.2322 -0.0312
 6602SOL    HW131268   3.349   2.314  11.805  0.0368 -1.6526 -0.2745
 6602SOL    HW231269   3.470   2.232  11.825 -2.1535 -0.7008  0.6301
 6603SOL     OW31270   1.512   1.984  14.965 -0.4739  0.5152  0.1490
 6603SOL    HW131271   1.543   1.968  15.054  1.1007  0.5754 -0.3868
 6603SOL    HW231272   1.429   2.030  14.977 -1.5468 -1.6774  1.1329
 6604SOL     OW31273   2.496   0.866   3.960 -0.2261  0.1977 -0.2741
 6604SOL    HW131274   2.575   0.868   4.013  0.5662 -1.6260 -1.4174
 6604SOL    HW231275   2.523   0.910   3.879  0.7655 -0.2284 -0.1730
 6605SOL     OW31276   2.861   3.791  15.381  0.3902 -0.4925 -0.1913
 6605SOL    HW131277   2.894   3.835  15.303  1.6555 -0.6805  0.2279
 6605SOL    HW231278   2.853   3.860  15.447  0.3289 -0.4090 -0.2859
 6606SOL     OW31279   2.058   0.111   2.877  0.0181  0.6363  0.5253
 6606SOL    HW131280   2.071   0.130   2.784  1.5350 -1.2239  0.3723
 6606SOL    HW231281   2.099   0.188   2.918  1.1067  0.0784  0.4877
 6607SOL     OW31282   2.915   3.959  16.829 -0.0395 -0.4490 -0.7607
 6607SOL    HW131283   2.907   3.914  16.745 -2.0608 -1.5451  0.0260
 6607SOL    HW231284   2.950   3.892  16.887 -0.6821  0.0067  0.1507
 6608SOL     OW31285   2.800   0.601   6.307  0.3186 -0.3125 -0.6836
 6608SOL    HW131286   2.750   0.537   6.359 -0.2597  1.5797  1.1095
 6608SOL    HW231287   2.730   0.666   6.306 -0.5207 -1.1718  1.3001
 6609SOL     OW31288   4.159   2.623  17.424 -0.1522 -0.1834  0.0631
 6609SOL    HW131289   4.096   2.622  17.496  1.0715  1.5518  1.1711
 6609SOL    HW231290   4.135   2.710  17.392 -2.1946 -1.5299 -2.0812
 6610SOL     OW31291   0.358   1.612  11.033 -0.5451 -0.2744  0.4271
 6610SOL    HW131292   0.389   1.700  11.011 -0.6495 -0.2078  0.5400
 6610SOL    HW231293   0.290   1.615  10.966  0.2096 -1.9703 -0.4021
 6611SOL     OW31294   0.977   3.557   2.426  0.1601 -0.8004 -0.1457
 6611SOL    HW131295   0.927   3.586   2.502  1.4613 -2.5031  1.3394
 6611SOL    HW231296   0.909   3.507   2.379 -1.6474  2.2937 -0.8360
 6612SOL     OW31297   0.855   1.794   3.330 -0.1113  0.0265  0.2375
 6612SOL    HW131298   0.905   1.715   3.313 -1.4904 -0.9732  0.8515
 6612SOL    HW231299   0.845   1.826   3.240 -1.2426 -0.1779  0.2878
 6613SOL     OW31300   2.035   2.102   8.618 -0.0586  0.0516  0.0923
 6613SOL    HW131301   1.959   2.145   8.579 -0.0409 -2.4563 -2.7420
 6613SOL    HW231302   2.014   2.015   8.583  4.0248  0.3536 -3.1601
 6614SOL     OW31303   3.777   1.022   6.775  0.0287 -0.0660  0.2970
 6614SOL    HW131304   3.738   1.016   6.862 -0.6864  1.5124  0.0959
 6614SOL    HW231305   3.694   1.019   6.727 -0.1093  0.9530  0.4643
 6615SOL     OW31306   1.524   2.483  13.499 -0.1929 -0.2671 -0.0268
 6615SOL    HW131307   1.529   2.490  13.404 -1.4148  0.7130 -0.0282
 6615SOL    HW231308   1.599   2.533  13.529  0.6619 -1.7089  0.2179
 6616SOL     OW31309   1.229   2.266   6.547 -0.0227  0.1837  0.0630
 6616SOL    HW131310   1.321   2.278   6.568  0.0255 -2.3804  1.3621
 6616SOL    HW231311   1.211   2.183   6.591 -0.8094 -0.5435 -1.6199
 6617SOL     OW31312   1.121   0.709   4.860  0.1276 -0.0485 -0.6785
 6617SOL    HW131313   1.036   0.738   4.828 -0.9522 -2.4156  0.0414
 6617SOL    HW231314   1.122   0.614   4.849 -1.1712 -0.3413  1.7257
 6618SOL     OW31315   2.060   4.216   3.918  0.0321 -0.0187 -0.0656
 6618SOL    HW131316   2.075   4.304   3.884  1.9140 -0.0685  0.6101
 6618SOL    HW231317   1.972   4.228   3.953 -0.5230  0.8132 -1.7780
 6619SOL     OW31318   1.856   2.001   9.158 -0.6100  0.3496 -0.2809
 6619SOL    HW131319   1.891   1.961   9.079 -1.3933  0.5709 -0.7473
 6619SOL    HW231320   1.785   1.941   9.183 -2.4272  3.5050  2.1506
 6620SOL     OW31321   3.285   1.124   5.405 -0.2233  0.1833 -0.0738
 6620SOL    HW131322   3.293   1.152   5.314 -1.8343  1.3836  0.1519
 6620SOL    HW231323   3.205   1.168   5.433 -1.0006 -0.6651 -0.9641
 6621SOL     OW31324   2.229   3.279   5.814  0.4343  0.0738 -0.2813
 6621SOL    HW131325   2.167   3.267   5.742 -2.0796  2.4865  1.5008
 6621SOL    HW231326   2.215   3.369   5.842  2.3935  0.0298  0.8692
 6622SOL     OW31327   0.106   4.155   5.847  0.0076  0.3983 -0.8961
 6622SOL    HW131328   0.132   4.066   5.824  1.1442  0.5289 -0.0645
 6622SOL    HW231329   0.016   4.156   5.815 -0.0978  1.2792 -0.5696
 6623SOL     OW31330   0.046   3.824   5.836  0.2318 -0.4200  0.5748
 6623SOL    HW131331   4.693   3.885   5.841 -0.1950 -1.0106  1.4298
 6623SOL    HW231332   0.004   3.740   5.853  0.8150 -0.2751  2.7548
 6624SOL     OW31333   2.787   1.101   2.817 -0.0315  0.1929 -0.0013
 6624SOL    HW131334   2.692   1.093   2.809  0.0712 -0.8508 -0.2588
 6624SOL    HW231335   2.790   1.177   2.875 -0.0575  0.9270 -0.9827
 6625SOL     OW31336   2.966   4.345   3.846  0.2273 -0.0524  0.7011
 6625SOL    HW131337   2.921   4.416   3.892  0.2781 -0.8452  1.9892
 6625SOL    HW231338   2.917   4.333   3.766 -0.8987 -2.8506  1.7962
 6626SOL     OW31339   4.598   4.443   5.065 -0.1789  0.3200  0.2820
 6626SOL    HW131340   4.556   4.359   5.084  0.6128 -0.3914 -1.1417
 6626SOL    HW231341   4.547   4.487   4.998 -0.7018 -1.0240 -0.2022
 6627SOL     OW31342   4.544   2.230   3.613  0.0224  0.3518 -0.4323
 6627SOL    HW131343   4.542   2.134   3.619  0.9729  0.3657  0.1033
 6627SOL    HW231344   4.635   2.244   3.588  0.8848  0.6586  2.8345
 6628SOL     OW31345   0.452   0.191   5.096  0.4828  0.2529  0.2123
 6628SOL    HW131346   0.463   0.286   5.091 -2.7605  0.5154 -1.3243
 6628SOL    HW231347   0.372   0.185   5.147  2.6436 -0.8970  3.5009
 6629SOL     OW31348   0.325   0.396   8.532 -0.3857  0.2475 -0.4357
 6629SOL    HW131349   0.337   0.307   8.499  0.9617  0.9557 -1.8232
 6629SOL    HW231350   0.367   0.396   8.619  0.1923 -3.4282 -0.6922
 6630SOL     OW31351   2.901   0.407  11.719 -0.1830 -0.8854 -0.4829
 6630SOL    HW131352   2.808   0.398  11.740 -0.4233 -0.1222 -1.2434
 6630SOL    HW231353   2.941   0.336  11.769  1.5323 -0.0807 -0.7253
 6631SOL     OW31354   4.313   4.478   9.135 -0.1646  0.1981 -0.5627
 6631SOL    HW131355   4.264   4.559   9.147  0.7770  0.5542  0.8935
 6631SOL    HW231356   4.297   4.460   9.043 -1.4612  1.3788 -0.5746
 6632SOL     OW31357   0.913   2.779   8.189 -0.0524  0.2778 -0.2500
 6632SOL    HW131358   0.955   2.736   8.263 -1.5083  0.2534  0.5514
 6632SOL    HW231359   0.898   2.868   8.221  1.1757  0.1865  0.5830
 6633SOL     OW31360   1.877   1.369  15.765 -0.4421 -0.3344 -0.0730
 6633SOL    HW131361   1.922   1.335  15.687  0.0510 -2.3741  1.1025
 6633SOL    HW231362   1.786   1.340  15.757 -0.9912  1.3261  0.2540
 6634SOL     OW31363   0.322   3.776   6.695  0.2051 -0.5505  0.1421
 6634SOL    HW131364   0.414   3.778   6.722  0.4816 -0.9175 -0.7332
 6634SOL    HW231365   0.273   3.773   6.776 -0.1742 -0.5348 -0.0867
 6635SOL     OW31366   1.382   0.418  14.826  0.3509  0.1356  0.2937
 6635SOL    HW131367   1.380   0.405  14.921  0.3008  0.4652  0.3387
 6635SOL    HW231368   1.336   0.339  14.798 -0.5258  1.3891 -1.8141
 6636SOL     OW31369   3.977   3.510   3.521 -0.1647  0.5498  0.4776
 6636SOL    HW131370   4.017   3.462   3.593 -0.5626  1.4577  1.3036
 6636SOL    HW231371   4.022   3.594   3.533 -1.8281  0.8610  4.3201
 6637SOL     OW31372   4.301   0.888   3.728 -0.0303 -0.1110 -0.7810
 6637SOL    HW131373   4.388   0.919   3.753  0.0112 -0.6132 -0.2974
 6637SOL    HW231374   4.306   0.798   3.760  1.3037  0.0627 -0.5280
 6638SOL     OW31375   3.844   2.459   9.470 -0.1342  0.1196 -0.0541
 6638SOL    HW131376   3.829   2.544   9.429 -0.5433  0.9573  1.8366
 6638SOL    HW231377   3.879   2.480   9.557  0.6955  0.2119 -0.4174
 6639SOL     OW31378   2.567   3.163   7.211  0.0279  0.1110 -0.1798
 6639SOL    HW131379   2.634   3.128   7.269 -0.1187 -2.3539 -1.4799
 6639SOL    HW231380   2.591   3.120   7.129  2.1626  3.5212 -1.3380
 6640SOL     OW31381   0.152   0.008   4.566  0.4284  0.1585 -0.2060
 6640SOL    HW131382   0.122   4.658   4.622  1.7103 -0.2380 -0.0078
 6640SOL    HW231383   0.248   0.003   4.575  0.4649  0.9235 -0.2116
 6641SOL     OW31384   0.280   2.720  16.726  0.7742  0.0403  0.6891
 6641SOL    HW131385   0.327   2.735  16.808  0.9197  3.2443 -0.0021
 6641SOL    HW231386   0.229   2.798  16.708 -0.0944 -0.9658 -1.2052
 6642SOL     OW31387   3.587   3.362   6.384 -0.7060  0.0862 -0.3485
 6642SOL    HW131388   3.595   3.281   6.434 -2.4919  0.4651  0.5301
 6642SOL    HW231389   3.670   3.360   6.336  1.2904  1.7713  3.0450
 6643SOL     OW31390   2.531   4.177   9.842  0.1168  0.1739  0.3709
 6643SOL    HW131391   2.557   4.247   9.902 -0.1831 -0.0614  0.7714
 6643SOL    HW231392   2.442   4.202   9.819  0.3485  1.9473  1.4478
 6644SOL     OW31393   4.078   4.527   5.467 -0.0430 -0.1691  0.2644
 6644SOL    HW131394   4.160   4.548   5.513  1.0774 -3.0572 -0.4236
 6644SOL    HW231395   4.027   4.604   5.491 -0.2668 -0.3877  0.4826
 6645SOL     OW31396   0.529   3.216   3.853 -0.0010  0.3287 -0.5624
 6645SOL    HW131397   0.482   3.296   3.832  0.2525  0.8661  1.0067
 6645SOL    HW231398   0.621   3.243   3.854 -0.1895  1.0466 -2.2003
 6646SOL     OW31399   1.731   1.283  16.573  0.0750 -0.5372  0.0860
 6646SOL    HW131400   1.736   1.318  16.484 -0.7654 -2.5166 -0.7293
 6646SOL    HW231401   1.657   1.224  16.564  2.3876 -3.1766 -1.5813
 6647SOL     OW31402   1.261   1.212  13.279 -0.2990  0.9768  0.0734
 6647SOL    HW131403   1.280   1.130  13.234  3.3298  0.1694  3.0106
 6647SOL    HW231404   1.203   1.184  13.350  0.8846 -0.7580  0.3660
 6648SOL     OW31405   3.889   1.370  11.316 -0.7746 -0.8625 -0.3636
 6648SOL    HW131406   3.970   1.412  11.286 -0.4825 -1.2136 -0.0701
 6648SOL    HW231407   3.837   1.444  11.349  1.6070  0.4771  0.4361
 6649SOL     OW31408   1.820   0.431   5.780 -0.2121 -0.0176 -0.1811
 6649SOL    HW131409   1.903   0.394   5.809  0.2436  1.2126  0.0903
 6649SOL    HW231410   1.779   0.434   5.866  1.3388 -2.1721  0.6449
 6650SOL     OW31411   1.503   3.312   5.930  0.5046 -0.0114  0.4214
 6650SOL    HW131412   1.557   3.294   5.853 -2.5744 -3.3785 -0.9402
 6650SOL    HW231413   1.487   3.226   5.968  0.8613  0.1367  0.9096
 6651SOL     OW31414   0.123   2.991   4.074  0.1668  0.6157  0.1219
 6651SOL    HW131415   0.087   2.903   4.084 -0.2928  0.7346 -0.4741
 6651SOL    HW231416   0.135   3.021   4.164  0.8532 -0.1736  0.3028
 6652SOL     OW31417   3.631   4.004  14.371  0.0377  0.3981  0.2493
 6652SOL    HW131418   3.685   3.952  14.312 -0.5873 -0.2183  0.2193
 6652SOL    HW231419   3.560   4.018  14.309 -0.2151 -0.2685  0.3922
 6653SOL     OW31420   0.085   0.222   6.820 -0.1132 -0.0945  0.1007
 6653SOL    HW131421   0.069   0.151   6.883  0.9557  0.6166  1.1703
 6653SOL    HW231422   0.069   0.180   6.736 -1.5622  0.5116  0.0748
 6654SOL     OW31423   4.546   2.089  10.643  0.2879 -0.0397 -0.1063
 6654SOL    HW131424   4.487   2.033  10.693 -1.3652  3.3713  1.7490
 6654SOL    HW231425   4.476   2.118  10.584  0.0878  0.5887  0.4381
 6655SOL     OW31426   2.914   1.677   8.314  0.3130  0.7236  0.5018
 6655SOL    HW131427   2.998   1.670   8.361  0.5241 -2.1824 -0.3366
 6655SOL    HW231428   2.899   1.769   8.338 -2.2210  0.2860  0.5359
 6656SOL     OW31429   1.147   1.635  12.938  0.0681  0.4771  0.4218
 6656SOL    HW131430   1.067   1.581  12.938 -0.0055  0.5759 -0.7861
 6656SOL    HW231431   1.178   1.630  13.028  0.6081  0.4257  0.2293
 6657SOL     OW31432   1.664   0.106  17.528 -0.0701  0.8138  0.3992
 6657SOL    HW131433   1.652   0.055  17.448 -0.2067  0.6559  0.5196
 6657SOL    HW231434   1.617   0.051  17.591 -0.9192 -0.9819 -1.8145
 6658SOL     OW31435   0.010   4.463   7.221 -0.1013  0.0466 -0.3403
 6658SOL    HW131436   0.098   4.463   7.259  0.2510  1.6395 -1.1735
 6658SOL    HW231437   0.013   4.376   7.180 -0.7499  0.3267 -0.9712
 6659SOL     OW31438   3.435   0.075   5.410 -0.0912 -0.6517  0.1728
 6659SOL    HW131439   3.472   0.148   5.359  0.0852 -1.2729 -0.5829
 6659SOL    HW231440   3.356   0.121   5.440  2.1986  2.3986  1.5590
 6660SOL     OW31441   2.141   4.399   3.725 -0.3646  0.6603 -0.1661
 6660SOL    HW131442   2.065   4.442   3.685 -1.4874 -0.3238  0.8621
 6660SOL    HW231443   2.161   4.338   3.654 -0.2698  0.3687  0.1062
 6661SOL     OW31444   3.688   3.783  16.569 -0.2006  0.6086 -0.0182
 6661SOL    HW131445   3.717   3.770  16.659 -0.5484 -1.5460 -0.2300
 6661SOL    HW231446   3.729   3.868  16.550 -2.3926  1.9802  1.3314
 6662SOL     OW31447   3.285   4.323   0.804  0.0982  0.5554 -0.5041
 6662SOL    HW131448   3.247   4.329   0.717  2.0455  0.2660 -1.3727
 6662SOL    HW231449   3.378   4.313   0.783 -0.1520 -1.2798 -0.7474
 6663SOL     OW31450   0.268   0.036   6.325 -0.5830 -0.3606  1.0284
 6663SOL    HW131451   0.175   0.038   6.346 -0.9539 -0.7805 -0.5164
 6663SOL    HW231452   0.263   0.036   6.229 -1.3537  0.7058  1.0686
 6664SOL     OW31453   4.238   0.599   8.122  0.2584 -0.2831 -0.0135
 6664SOL    HW131454   4.270   0.517   8.159  1.7318 -0.3392 -1.4230
 6664SOL    HW231455   4.276   0.668   8.177  0.0890 -1.7303  1.9331
 6665SOL     OW31456   0.444   2.767  10.769  0.1357 -0.2002  0.5159
 6665SOL    HW131457   0.441   2.671  10.770 -1.6053 -0.1699 -0.9642
 6665SOL    HW231458   0.356   2.796  10.793 -0.2597 -1.3046  0.4127
 6666SOL     OW31459   0.395   4.142   9.939  0.2808  0.0591 -0.3414
 6666SOL    HW131460   0.398   4.070   9.876 -0.2860 -0.2233 -0.0486
 6666SOL    HW231461   0.483   4.175   9.956  0.7617 -0.7883 -1.1668
 6667SOL     OW31462   0.761   1.755   2.198 -0.0134  0.2688 -0.1408
 6667SOL    HW131463   0.753   1.765   2.103  1.2400 -2.8190 -0.5829
 6667SOL    HW231464   0.719   1.670   2.208  1.2432 -0.0349  2.8116
 6668SOL     OW31465   1.308   1.864  12.904  0.5014  0.2997 -0.3154
 6668SOL    HW131466   1.242   1.795  12.897  0.9970 -0.1274 -0.7437
 6668SOL    HW231467   1.258   1.917  12.967 -0.5846 -0.7919 -0.2759
 6669SOL     OW31468   3.759   0.394   6.472  0.6405 -0.3811 -0.0343
 6669SOL    HW131469   3.831   0.456   6.465  1.6670 -1.7474 -1.6834
 6669SOL    HW231470   3.748   0.401   6.567  2.4540  0.3703  0.1145
 6670SOL     OW31471   3.251   0.685   7.577  0.2482 -0.5571 -0.4060
 6670SOL    HW131472   3.267   0.725   7.662 -0.9988 -0.7261 -0.1034
 6670SOL    HW231473   3.199   0.608   7.598 -0.0155  0.3044  2.0562
 6671SOL     OW31474   0.864   3.255   9.952  0.0618 -0.0480  0.4064
 6671SOL    HW131475   0.941   3.312   9.951  1.4177 -1.8077  2.8527
 6671SOL    HW231476   0.794   3.320   9.942  0.8882  0.6562 -0.7461
 6672SOL     OW31477   2.830   0.822  13.663 -0.0040  0.0926 -0.4625
 6672SOL    HW131478   2.893   0.829  13.591  0.2911  1.6260 -0.0499
 6672SOL    HW231479   2.863   0.745  13.709 -0.8639  0.2952  0.5043
 6673SOL     OW31480   2.357   2.103  15.410 -0.4590 -0.1421  0.1373
 6673SOL    HW131481   2.308   2.185  15.414 -0.9460 -0.4259 -0.1297
 6673SOL    HW231482   2.370   2.091  15.504 -1.7647  0.6810  0.4145
 6674SOL     OW31483   1.642   3.726  15.183  0.2054  0.2283  0.2313
 6674SOL    HW131484   1.666   3.635  15.203 -1.1983 -0.6307 -1.9542
 6674SOL    HW231485   1.622   3.717  15.089 -2.5478  1.9391  0.6587
 6675SOL     OW31486   3.569   2.502  11.622  0.1560  0.4111  0.4420
 6675SOL    HW131487   3.579   2.454  11.540 -0.0841 -0.9063  1.1873
 6675SOL    HW231488   3.540   2.429  11.677  1.6125  0.1210  0.8121
 6676SOL     OW31489   0.092   2.035   5.450  0.2021 -0.4170  0.2911
 6676SOL    HW131490   0.094   2.075   5.363 -0.1978 -1.0495 -0.0055
 6676SOL    HW231491   0.117   1.946   5.425 -0.4109 -0.8204  1.1140
 6677SOL     OW31492   0.793   0.755   7.096  0.2502  0.4021  0.0773
 6677SOL    HW131493   0.801   0.663   7.122  0.8438  0.5246  0.3339
 6677SOL    HW231494   0.726   0.780   7.160  1.3709  0.7287  1.1186
 6678SOL     OW31495   0.733   2.217   1.663  0.2911  0.0028 -0.1809
 6678SOL    HW131496   0.770   2.245   1.746 -0.5670  0.1410  0.1557
 6678SOL    HW231497   0.648   2.260   1.672 -0.0818 -0.1299 -2.9739
 6679SOL     OW31498   0.068   1.466  16.972 -0.4624 -0.2164 -0.3523
 6679SOL    HW131499   4.704   1.454  17.013 -1.1168 -0.0280 -1.6632
 6679SOL    HW231500   0.112   1.516  17.040 -3.1458  1.2083  0.3285
 6680SOL     OW31501   2.428   3.867   3.462 -0.7250  0.0014  0.0530
 6680SOL    HW131502   2.475   3.847   3.543 -3.0517  1.5046  1.7576
 6680SOL    HW231503   2.458   3.955   3.439  1.7750 -1.1622 -1.1730
 6681SOL     OW31504   3.375   3.104  10.096  0.2214  0.3810  0.4307
 6681SOL    HW131505   3.422   3.126  10.177  0.9099 -1.7160  0.6101
 6681SOL    HW231506   3.364   3.196  10.072 -1.5431  0.4711  1.6417
 6682SOL     OW31507   4.442   1.421  15.656  0.2645  0.1173 -0.6169
 6682SOL    HW131508   4.523   1.386  15.693  1.8053  1.0797 -3.0905
 6682SOL    HW231509   4.394   1.344  15.627  0.4579  0.4658 -1.8443
 6683SOL     OW31510   0.231   4.155   4.305 -0.2988  0.1088  0.0326
 6683SOL    HW131511   0.208   4.122   4.218 -1.5485  0.0869  0.3767
 6683SOL    HW231512   0.207   4.078   4.356  0.1648  1.5919  2.4905
 6684SOL     OW31513   4.157   0.561  14.507  0.6009 -0.7471 -0.3637
 6684SOL    HW131514   4.097   0.621  14.552  0.2534  0.7207 -2.7385
 6684SOL    HW231515   4.133   0.477  14.545  0.9692 -1.0572 -0.8211
 6685SOL     OW31516   3.115   0.464   6.605 -0.6030  0.3663 -0.1433
 6685SOL    HW131517   3.022   0.463   6.626 -1.0675  0.7087 -2.1622
 6685SOL    HW231518   3.126   0.385   6.658  1.3119  0.6775 -0.0772
 6686SOL     OW31519   2.522   0.380   3.648 -0.2358  0.1218  0.1889
 6686SOL    HW131520   2.482   0.437   3.714 -0.8176  0.5428 -0.5138
 6686SOL    HW231521   2.569   0.439   3.589 -0.8681  0.2547 -0.1896
 6687SOL     OW31522   0.122   2.105  14.311  0.1670 -0.0623 -0.5752
 6687SOL    HW131523   0.051   2.154  14.272  2.7651  2.4276 -2.1724
 6687SOL    HW231524   0.146   2.161  14.384  1.9009 -0.5229 -0.7840
 6688SOL     OW31525   4.642   2.038   7.132 -0.1030 -0.1683  0.6940
 6688SOL    HW131526   4.686   1.955   7.148 -0.8417 -0.6626  0.1864
 6688SOL    HW231527   4.602   2.046   7.219 -1.7406  0.8896 -0.1515
 6689SOL     OW31528   3.516   2.897  11.759  0.4718 -0.0153 -0.2262
 6689SOL    HW131529   3.536   2.917  11.851 -0.0022  1.7829 -0.5210
 6689SOL    HW231530   3.422   2.882  11.767  0.8086 -2.0382 -0.1913
 6690SOL     OW31531   4.103   1.573  13.047  0.2508 -0.4150  0.3104
 6690SOL    HW131532   4.186   1.558  13.001  1.1562 -0.4612  1.9285
 6690SOL    HW231533   4.106   1.503  13.113 -1.6054  0.4079  1.2504
 6691SOL     OW31534   0.419   3.192  13.626 -0.1851 -0.5913  0.6617
 6691SOL    HW131535   0.367   3.193  13.706  1.4731 -0.6635  1.7441
 6691SOL    HW231536   0.442   3.100  13.617 -1.7424 -0.7541 -1.4244
 6692SOL     OW31537   3.601   0.400   5.935 -0.1083  0.4657  0.2462
 6692SOL    HW131538   3.611   0.308   5.960 -1.7712 -0.0064 -0.8174
 6692SOL    HW231539   3.531   0.394   5.870  0.7440 -2.5908 -0.4145
 6693SOL     OW31540   2.330   3.777   2.519  0.1529  0.5938 -0.1552
 6693SOL    HW131541   2.305   3.733   2.599  2.4675 -0.9563 -0.2748
 6693SOL    HW231542   2.363   3.710   2.459  1.8602  0.6915  0.6670
 6694SOL     OW31543   4.194   3.765  11.047 -0.1800 -0.0703 -0.2731
 6694SOL    HW131544   4.248   3.831  11.091 -0.1322 -0.5774  0.4272
 6694SOL    HW231545   4.208   3.691  11.105  0.7009  1.0353  0.9274
 6695SOL     OW31546   1.121   3.279   5.766  0.2379 -0.0167  0.1115
 6695SOL    HW131547   1.180   3.222   5.717  1.1576  0.2987  0.8540
 6695SOL    HW231548   1.049   3.286   5.703 -0.9849 -1.1902  1.3887
 6696SOL     OW31549   3.617   2.532   5.810  0.1871 -0.1283  0.0922
 6696SOL    HW131550   3.550   2.504   5.747 -0.1415  2.2066 -0.5700
 6696SOL    HW231551   3.569   2.508   5.889 -1.5624 -0.6553 -1.1452
 6697SOL     OW31552   0.500   0.524   4.781  0.4499 -0.0241 -0.0177
 6697SOL    HW131553   0.424   0.558   4.734  0.2829  1.6780  1.4689
 6697SOL    HW231554   0.528   0.464   4.711  0.7996 -0.0840  0.1729
 6698SOL     OW31555   1.484   4.536  10.108  0.0064  0.4820 -0.0877
 6698SOL    HW131556   1.419   4.605  10.092 -0.9795 -0.1673  1.0714
 6698SOL    HW231557   1.440   4.477  10.170  0.8580  0.4650  0.4988
 6699SOL     OW31558   1.883   3.438   8.948  0.2803  0.5398  0.2878
 6699SOL    HW131559   1.947   3.394   9.003  0.5614 -0.0008 -0.4694
 6699SOL    HW231560   1.811   3.454   9.009  0.2562 -0.2295  0.4506
 6700SOL     OW31561   3.511   3.023  16.186  0.3930  0.1308 -0.2072
 6700SOL    HW131562   3.439   3.001  16.128 -0.6299 -1.8136  1.7942
 6700SOL    HW231563   3.578   2.968  16.146  0.6474  0.0763  0.2911
 6701SOL     OW31564   4.690   4.126   6.681 -0.3909 -0.3439  0.6947
 6701SOL    HW131565   4.706   4.160   6.593 -0.7347 -2.7536 -0.2971
 6701SOL    HW231566   4.598   4.151   6.693 -0.1681  0.9089 -0.1779
 6702SOL     OW31567   0.182   4.027  11.649 -0.4407 -0.3108 -0.4740
 6702SOL    HW131568   0.096   4.016  11.608 -1.0872  0.2810  0.7573
 6702SOL    HW231569   0.219   4.103  11.604  2.5174 -2.2792 -1.3637
 6703SOL     OW31570   2.487   3.164   5.775  0.0729  0.0612  0.7885
 6703SOL    HW131571   2.413   3.224   5.782  0.9079  1.1365  0.4522
 6703SOL    HW231572   2.562   3.223   5.777  0.7070 -0.6709 -0.7360
 6704SOL     OW31573   1.087   0.194   9.764 -0.4593 -0.3012  0.7328
 6704SOL    HW131574   1.008   0.146   9.789  0.1274 -0.7793  1.6586
 6704SOL    HW231575   1.081   0.191   9.668 -4.0689 -1.1857  0.9653
 6705SOL     OW31576   1.200   4.501   3.368 -0.2471  0.0140 -0.6877
 6705SOL    HW131577   1.136   4.555   3.414  0.9542 -1.1975  2.3992
 6705SOL    HW231578   1.162   4.482   3.282  1.6432 -0.4999 -1.4101
 6706SOL     OW31579   4.341   0.892   7.548 -0.3292 -0.1739  0.1198
 6706SOL    HW131580   4.295   0.853   7.473 -0.0587 -0.2780  0.0071
 6706SOL    HW231581   4.284   0.966   7.565 -0.8359 -1.0609  2.2587
 6707SOL     OW31582   3.635   3.256   7.380  0.0052  0.4002  0.1053
 6707SOL    HW131583   3.578   3.326   7.409 -0.4332 -0.7714  2.0388
 6707SOL    HW231584   3.570   3.217   7.321 -0.2593  1.6532 -0.4254
 6708SOL     OW31585   0.165   2.958   6.202 -0.2425 -0.2058 -0.1598
 6708SOL    HW131586   0.187   2.886   6.260  0.5063  0.3497  0.2559
 6708SOL    HW231587   0.097   3.009   6.246 -1.4997 -1.0915 -1.0845
 6709SOL     OW31588   3.437   0.042   4.542  0.3144  0.7692 -0.0746
 6709SOL    HW131589   3.519   0.058   4.496  0.0698  0.6920 -0.5329
 6709SOL    HW231590   3.372   0.039   4.471  0.9881  0.1124 -0.6627
 6710SOL     OW31591   3.535   4.066   8.478  0.4020 -0.5404  0.6087
 6710SOL    HW131592   3.604   4.127   8.505 -0.2312  0.1222  0.7122
 6710SOL    HW231593   3.587   4.011   8.419 -0.5423  0.5117 -1.1832
 6711SOL     OW31594   4.156   1.343  11.649  0.0738  0.2678  0.2290
 6711SOL    HW131595   4.072   1.326  11.607  1.2702  0.5797 -2.2547
 6711SOL    HW231596   4.187   1.259  11.684  1.7612  0.2937 -1.2179
 6712SOL     OW31597   0.635   1.171   3.641  0.4562  0.2841 -0.0770
 6712SOL    HW131598   0.654   1.265   3.653  0.2631  0.3501 -0.2957
 6712SOL    HW231599   0.542   1.183   3.623  0.5719 -0.7186 -1.2662
 6713SOL     OW31600   0.517   4.124   6.517 -0.1537  0.2486 -0.0420
 6713SOL    HW131601   0.600   4.172   6.526  0.4092 -1.3318  3.5803
 6713SOL    HW231602   0.448   4.190   6.518 -1.3773 -1.0352  0.7334
 6714SOL     OW31603   0.955   1.037   3.990 -0.2411  0.4456 -0.9324
 6714SOL    HW131604   0.956   0.956   4.041  0.0022  0.4322 -0.9583
 6714SOL    HW231605   1.022   1.016   3.925 -0.0147  0.1584 -0.6091
 6715SOL     OW31606   4.504   0.397   6.399 -0.2399  0.6562  0.3219
 6715SOL    HW131607   4.466   0.332   6.459  0.9598 -0.0865  0.2814
 6715SOL    HW231608   4.427   0.445   6.369 -1.5093 -1.6845 -0.1912
 6716SOL     OW31609   3.255   4.094  13.224  0.5561  0.3761  0.0525
 6716SOL    HW131610   3.291   4.065  13.308  0.1939 -1.2404 -0.3328
 6716SOL    HW231611   3.321   4.158  13.196  1.5525 -0.6462  0.0424
 6717SOL     OW31612   4.054   2.869  15.387  0.2634 -0.7441 -0.3996
 6717SOL    HW131613   3.989   2.933  15.356 -0.5583 -1.0577  0.6640
 6717SOL    HW231614   4.126   2.931  15.379 -1.6939  1.5671 -0.1653
 6718SOL     OW31615   0.031   4.330   4.205  0.1036  0.5513  0.0027
 6718SOL    HW131616   0.081   4.279   4.268  0.8675 -0.5340 -1.4798
 6718SOL    HW231617   4.713   4.394   4.265 -0.0799  0.0698  0.3879
 6719SOL     OW31618   2.405   0.607  14.874 -0.3903  0.2720 -0.0000
 6719SOL    HW131619   2.317   0.588  14.905 -0.8376  1.1003 -0.7489
 6719SOL    HW231620   2.452   0.533  14.912 -1.4690  0.8040  2.3810
 6720SOL     OW31621   1.670   3.967   6.251 -0.1758 -0.3792  0.2444
 6720SOL    HW131622   1.665   4.035   6.184 -0.6428 -0.4819  0.1715
 6720SOL    HW231623   1.621   3.895   6.211 -0.2742  0.3075 -0.8896
 6721SOL     OW31624   0.289   3.565   7.234  0.2104  0.1252  0.3238
 6721SOL    HW131625   0.361   3.545   7.294  1.2913  2.7932 -0.0980
 6721SOL    HW231626   0.291   3.660   7.220 -0.7254  0.1145  0.1093
 6722SOL     OW31627   3.548   0.158   4.733  0.1404  0.3236  0.3105
 6722SOL    HW131628   3.488   0.132   4.663 -0.5003  0.5400  0.7793
 6722SOL    HW231629   3.563   0.076   4.780  0.4954  0.3986  0.3252
 6723SOL     OW31630   0.567   2.252   9.117 -0.1752  1.0297 -0.1728
 6723SOL    HW131631   0.613   2.327   9.078  0.8407 -1.2745 -3.4449
 6723SOL    HW231632   0.542   2.299   9.196 -1.3424 -3.0083  1.8710
 6724SOL     OW31633   1.926   3.073   7.846 -0.8179  0.0172  0.6595
 6724SOL    HW131634   1.915   3.043   7.756 -0.3682  2.2290 -0.1272
 6724SOL    HW231635   1.837   3.095   7.875 -1.1639 -0.7216  0.1639
 6725SOL     OW31636   0.158   4.350   7.869 -0.0497  0.1231  0.5019
 6725SOL    HW131637   0.203   4.394   7.942  0.0882  1.4310 -0.3810
 6725SOL    HW231638   0.230   4.309   7.821 -0.4561  1.2031 -1.0110
 6726SOL     OW31639   3.642   3.487   0.782  0.0923  0.0150 -0.3833
 6726SOL    HW131640   3.705   3.478   0.711  0.4972  0.7379 -0.1192
 6726SOL    HW231641   3.683   3.427   0.844 -0.4655 -0.5301 -0.5373
 6727SOL     OW31642   3.919   4.718   0.060  0.2907  0.2516 -0.5854
 6727SOL    HW131643   3.874   4.654   0.005  0.5401 -0.9355  0.5805
 6727SOL    HW231644   3.992   4.667   0.096 -1.6545 -2.5398 -0.6132
 6728SOL     OW31645   4.556   1.300   3.557  0.3719 -0.3615  0.3696
 6728SOL    HW131646   4.563   1.206   3.539 -0.1684 -0.1722 -0.8223
 6728SOL    HW231647   4.569   1.339   3.470 -1.2878  3.5909  1.9078
 6729SOL     OW31648   0.133   0.091  16.662  0.2043  0.6213 -0.0619
 6729SOL    HW131649   0.066   0.155  16.687 -0.7943 -0.2195 -0.5818
 6729SOL    HW231650   0.164   0.124  16.577  0.4049  0.3114 -0.1062
 6730SOL     OW31651   0.096   1.066   2.635 -0.3738  0.0626 -0.4168
 6730SOL    HW131652   0.072   1.101   2.720 -1.3601 -2.4099  0.3143
 6730SOL    HW231653   0.173   1.014   2.657 -0.3948 -1.0955 -3.0614
 6731SOL     OW31654   1.859   0.231   7.364 -0.1494  0.2470  0.5713
 6731SOL    HW131655   1.884   0.204   7.452  0.2246  1.1586  0.7448
 6731SOL    HW231656   1.894   0.320   7.369 -1.1800  0.5932  1.6657
 6732SOL     OW31657   3.660   0.547   6.989 -0.0793 -0.2967  0.6528
 6732SOL    HW131658   3.746   0.508   7.004  1.0682  1.5108 -1.1603
 6732SOL    HW231659   3.647   0.576   7.079  1.2378 -1.9647  1.3683
 6733SOL     OW31660   2.819   3.458   7.885  0.0510  0.2989  0.2723
 6733SOL    HW131661   2.903   3.499   7.905  0.0424  0.2216  0.4624
 6733SOL    HW231662   2.806   3.404   7.963  0.0676  1.1122  0.8410
 6734SOL     OW31663   0.027   2.551   3.648 -0.4729  0.7780 -0.6012
 6734SOL    HW131664   4.711   2.548   3.560  0.4056  0.2632 -0.9594
 6734SOL    HW231665   4.674   2.594   3.691 -1.6810 -1.1606 -0.7561
 6735SOL     OW31666   4.641   4.026   7.943  0.3078  0.2816 -0.5286
 6735SOL    HW131667   4.703   4.085   7.986  1.1865 -1.3648  0.4721
 6735SOL    HW231668   4.682   4.016   7.857  0.9674 -1.7751  0.0417
 6736SOL     OW31669   1.044   2.226   9.769 -0.1983  0.3235 -0.5535
 6736SOL    HW131670   1.003   2.276   9.698  1.2250  1.4531 -0.5904
 6736SOL    HW231671   1.098   2.293   9.811  1.8773 -0.5592 -1.8176
 6737SOL     OW31672   2.207   0.800  10.506  0.7028  0.3121 -0.1445
 6737SOL    HW131673   2.177   0.878  10.553 -2.2867  1.0013 -3.2154
 6737SOL    HW231674   2.121   0.759  10.506  0.9242 -0.1567  0.3843
 6738SOL     OW31675   1.896   0.818   5.712 -0.0266  0.2185  0.3105
 6738SOL    HW131676   1.828   0.883   5.692  1.1750  1.2034 -0.5232
 6738SOL    HW231677   1.973   0.869   5.734  0.6517 -0.2631 -0.9343
 6739SOL     OW31678   1.373   4.702  16.639  0.0010  0.4352  0.2995
 6739SOL    HW131679   1.323   0.059  16.663 -2.4661 -1.1859  0.4650
 6739SOL    HW231680   1.302   4.640  16.653 -0.7687  1.2906  0.1698
 6740SOL     OW31681   2.949   1.758  15.634 -0.0863  0.0504  0.4327
 6740SOL    HW131682   2.913   1.817  15.700  2.6358  2.2501 -0.0418
 6740SOL    HW231683   2.966   1.823  15.566 -1.1316 -0.1179  0.0079
 6741SOL     OW31684   3.324   3.782   2.371  0.6498 -0.3018 -0.1252
 6741SOL    HW131685   3.374   3.771   2.290  1.6423 -2.2622  0.7643
 6741SOL    HW231686   3.249   3.833   2.339  1.2545  1.8189  1.8224
 6742SOL     OW31687   3.537   0.878   8.371  0.2079  0.5182  0.1642
 6742SOL    HW131688   3.550   0.867   8.465 -1.2643  1.2396  0.4502
 6742SOL    HW231689   3.446   0.907   8.374 -0.2290 -0.9303  0.9783
 6743SOL     OW31690   3.974   3.166   7.300  0.4401 -0.0766 -0.2214
 6743SOL    HW131691   3.923   3.181   7.221 -1.2044  1.1169  1.0667
 6743SOL    HW231692   4.014   3.085   7.268  0.4584  0.3067 -1.1746
 6744SOL     OW31693   1.172   1.975   5.069 -0.7723  0.2750  0.5657
 6744SOL    HW131694   1.143   1.891   5.034 -0.0012  0.7748 -1.2901
 6744SOL    HW231695   1.135   2.033   5.002  0.6875  0.7614  0.1797
 6745SOL     OW31696   4.282   1.925   4.288 -1.0877  0.0068 -0.1233
 6745SOL    HW131697   4.301   1.907   4.380 -1.9051  0.4459  0.1376
 6745SOL    HW231698   4.191   1.895   4.285 -0.7730 -0.7698 -1.7414
 6746SOL     OW31699   2.259   1.059   1.337  0.4992 -0.2111 -0.1546
 6746SOL    HW131700   2.309   1.109   1.272  0.3669  1.0442  0.7079
 6746SOL    HW231701   2.191   1.121   1.365  0.0018 -0.1948 -1.3687
 6747SOL     OW31702   3.741   2.974  16.927 -0.0390  0.4389 -0.0811
 6747SOL    HW131703   3.666   3.018  16.967  0.8283  1.3074  0.5867
 6747SOL    HW231704   3.708   2.925  16.852  1.4355  0.2804 -0.6279
 6748SOL     OW31705   1.487   4.520   0.351 -0.0328 -0.3834  0.2003
 6748SOL    HW131706   1.461   4.611   0.363 -0.9675 -0.4079 -1.6213
 6748SOL    HW231707   1.477   4.512   0.256  2.2913 -0.5220 -0.0323
 6749SOL     OW31708   0.641   2.908  10.612 -0.1286  0.3927 -0.7769
 6749SOL    HW131709   0.599   2.959  10.543 -0.5313  0.3953 -0.5322
 6749SOL    HW231710   0.564   2.858  10.639  1.9527 -0.4332  3.6005
 6750SOL     OW31711   2.976   3.282   9.180 -0.3534 -0.1093  0.5377
 6750SOL    HW131712   3.053   3.310   9.230 -1.2005  1.3758  1.0471
 6750SOL    HW231713   2.905   3.335   9.219 -0.3272  0.2016  0.1574
 6751SOL     OW31714   3.974   0.027   2.016  0.1780 -0.3893 -0.0390
 6751SOL    HW131715   3.949   0.106   2.064 -2.0398 -0.1473 -1.5822
 6751SOL    HW231716   3.908   4.686   2.047 -0.8209 -0.0642 -1.5189
 6752SOL     OW31717   0.016   0.019   2.818  0.1465  0.0791 -0.4362
 6752SOL    HW131718   4.709   0.002   2.728  1.3166 -0.7706 -0.6482
 6752SOL    HW231719   4.677   4.685   2.867 -0.8208  2.2675  0.8729
 6753SOL     OW31720   0.695   0.131  16.652  0.0301  0.2162  0.2894
 6753SOL    HW131721   0.691   0.138  16.748 -3.3874  2.0980  0.0270
 6753SOL    HW231722   0.766   0.070  16.635  0.1742  0.5000 -0.1059
 6754SOL     OW31723   1.916   2.049   1.775  0.3202  0.3953 -0.2704
 6754SOL    HW131724   2.008   2.064   1.797  0.3795  0.3060 -0.4647
 6754SOL    HW231725   1.878   2.135   1.793  1.1666  0.3000  2.0506
 6755SOL     OW31726   1.803   2.103   6.811  0.3480  0.6321  0.1953
 6755SOL    HW131727   1.763   2.093   6.898  2.7039 -2.1641  0.9411
 6755SOL    HW231728   1.736   2.050   6.768  1.9653 -0.4304 -0.9788
 6756SOL     OW31729   4.327   0.256   5.491  0.2715 -0.1563  0.0692
 6756SOL    HW131730   4.319   0.168   5.529 -1.5546 -0.0011  0.0106
 6756SOL    HW231731   4.393   0.243   5.422 -0.7186 -1.3011 -0.6574
 6757SOL     OW31732   3.354   0.807   0.890 -0.1625 -0.3326 -0.4353
 6757SOL    HW131733   3.339   0.896   0.922 -0.3937  0.5346 -2.9653
 6757SOL    HW231734   3.267   0.776   0.864  0.3065 -0.6192 -1.6128
 6758SOL     OW31735   3.213   0.454   1.681 -0.2413 -0.1768  0.7707
 6758SOL    HW131736   3.176   0.374   1.643 -0.3713  0.0881  0.3472
 6758SOL    HW231737   3.140   0.491   1.731  0.0993  0.7518  0.5771
 6759SOL     OW31738   1.130   3.127  15.766 -0.2132 -0.1488  0.5080
 6759SOL    HW131739   1.195   3.148  15.833  0.5084  0.1898 -0.3014
 6759SOL    HW231740   1.088   3.212  15.754 -3.0454 -1.4218  1.3404
 6760SOL     OW31741   0.252   3.068  12.488 -0.0935 -0.2713  0.4225
 6760SOL    HW131742   0.237   3.027  12.573  2.0623  1.7475  1.7860
 6760SOL    HW231743   0.306   3.000  12.447 -0.9331 -0.6788 -0.0129
 6761SOL     OW31744   2.421   1.517   4.661  0.7022  0.1059 -0.6567
 6761SOL    HW131745   2.431   1.612   4.667 -1.2796  0.2035  1.1351
 6761SOL    HW231746   2.350   1.504   4.598  0.1135 -0.3004  0.0872
 6762SOL     OW31747   0.057   3.788   8.248  0.1736  0.1644  0.3783
 6762SOL    HW131748   0.087   3.798   8.157  0.0324 -3.1543 -0.0396
 6762SOL    HW231749   4.708   3.850   8.262 -0.6979 -1.2787  2.3603
 6763SOL     OW31750   2.042   2.123   7.165 -0.6634  0.1645  0.0407
 6763SOL    HW131751   1.990   2.055   7.207  2.6823 -1.4006  1.6242
 6763SOL    HW231752   2.121   2.129   7.218  0.1907  1.9015 -1.4315
 6764SOL     OW31753   0.812   2.750   3.585  0.0268  0.4976 -0.2374
 6764SOL    HW131754   0.718   2.763   3.599  0.0337  0.2722  0.0295
 6764SOL    HW231755   0.826   2.678   3.647 -0.8023  2.1630  1.8810
 6765SOL     OW31756   3.292   2.573   0.690 -0.4094  0.1858  0.0612
 6765SOL    HW131757   3.353   2.570   0.763 -0.7762  2.4605  0.4706
 6765SOL    HW231758   3.218   2.523   0.723 -1.8928  1.4857 -1.2756
 6766SOL     OW31759   2.110   1.261   2.416 -0.7419  0.0653  0.4168
 6766SOL    HW131760   2.156   1.259   2.500 -1.2912  1.7668  0.7518
 6766SOL    HW231761   2.113   1.353   2.391 -3.5641  0.2577  0.7953
 6767SOL     OW31762   0.334   3.915  11.814 -0.6705 -0.0625  0.0680
 6767SOL    HW131763   0.271   3.931  11.744  1.6780 -3.2329 -2.7219
 6767SOL    HW231764   0.331   3.996  11.865 -1.1229 -1.0598  1.6342
 6768SOL     OW31765   3.208   4.690   5.637  0.2367 -0.0684 -0.2206
 6768SOL    HW131766   3.227   0.061   5.651 -0.9587  0.3449 -1.3283
 6768SOL    HW231767   3.142   4.678   5.706 -1.2012  0.5708 -1.4796
 6769SOL     OW31768   0.714   0.172  17.342 -0.0239 -0.0571 -0.3863
 6769SOL    HW131769   0.706   0.077  17.329  1.3881 -0.5582  2.5384
 6769SOL    HW231770   0.705   0.167  17.437  3.3051 -0.7810 -0.1228
 6770SOL     OW31771   0.682   2.248  11.392 -0.4228 -0.2841 -0.0379
 6770SOL    HW131772   0.731   2.188  11.448 -1.4136 -1.1204 -0.0513
 6770SOL    HW231773   0.604   2.199  11.365  0.4734 -1.9878  0.4087
 6771SOL     OW31774   0.574   1.074   5.044  0.4898  0.8372  0.4058
 6771SOL    HW131775   0.614   0.998   5.000  1.2498  0.9237  0.9449
 6771SOL    HW231776   0.489   1.080   5.001 -0.4259  0.8992  2.2465
 6772SOL     OW31777   2.560   1.087   1.024 -0.2752  0.4888  0.2660
 6772SOL    HW131778   2.537   1.168   1.070  2.3749 -0.0309  2.5289
 6772SOL    HW231779   2.612   1.127   0.955 -0.6063 -0.1455 -0.3526
 6773SOL     OW31780   0.878   0.780  10.779 -0.3053 -0.5085 -0.1770
 6773SOL    HW131781   0.890   0.814  10.868  1.0301  2.8697 -1.6421
 6773SOL    HW231782   0.860   0.863  10.734 -0.7912  0.4084  1.7249
 6774SOL     OW31783   2.458   2.138  15.686  1.1018  0.3108 -0.0679
 6774SOL    HW131784   2.397   2.066  15.705  0.4874  1.4507  2.2492
 6774SOL    HW231785   2.537   2.089  15.663 -0.1476 -2.0212  0.5345
 6775SOL     OW31786   2.428   2.145   8.008  0.3236 -0.8495 -0.5102
 6775SOL    HW131787   2.455   2.059   8.042  0.6638  0.8609  3.4848
 6775SOL    HW231788   2.378   2.179   8.082 -1.0798 -0.8163 -1.4726
 6776SOL     OW31789   0.128   1.471   8.533 -0.1107  0.0515 -0.2906
 6776SOL    HW131790   0.096   1.562   8.532 -1.1881 -0.3278 -1.1161
 6776SOL    HW231791   0.141   1.454   8.626 -0.1406 -0.3598 -0.3640
 6777SOL     OW31792   4.341   1.649   7.305  0.0248 -0.1458 -0.6023
 6777SOL    HW131793   4.381   1.647   7.391 -1.1432  1.5958 -0.0021
 6777SOL    HW231794   4.338   1.554   7.294  2.6151 -0.0654 -1.7868
 6778SOL     OW31795   1.241   0.521   2.323 -0.1071 -0.2639  0.6156
 6778SOL    HW131796   1.255   0.611   2.291  2.0628 -0.9646 -0.4277
 6778SOL    HW231797   1.153   0.536   2.359 -0.8211  0.1287 -1.2757
 6779SOL     OW31798   4.072   2.677   4.764 -0.2287 -0.0668 -0.1970
 6779SOL    HW131799   4.133   2.632   4.823 -3.6760 -1.7016  2.1149
 6779SOL    HW231800   4.045   2.598   4.716 -1.7860 -0.3215  1.0837
 6780SOL     OW31801   1.386   4.373   0.143 -0.4160  0.0613 -0.1107
 6780SOL    HW131802   1.335   4.328   0.210 -2.1106  0.5325 -1.0683
 6780SOL    HW231803   1.317   4.387   0.078  0.7041  1.0118 -1.1024
 6781SOL     OW31804   3.956   0.448   3.840  0.5270 -0.7760  0.5918
 6781SOL    HW131805   3.986   0.436   3.750  1.0100  0.5769  0.5675
 6781SOL    HW231806   3.881   0.506   3.829  0.2297 -1.2610  0.0485
 6782SOL     OW31807   0.820   2.367   9.000 -0.0030  0.4969  0.0304
 6782SOL    HW131808   0.824   2.368   9.096 -0.5312 -0.1746  0.0584
 6782SOL    HW231809   0.812   2.273   8.984  4.2336 -0.0295  1.0042
 6783SOL     OW31810   1.070   0.630  15.382  0.1520 -0.1177 -0.1836
 6783SOL    HW131811   1.147   0.578  15.356 -0.3734 -1.2507  0.5067
 6783SOL    HW231812   1.102   0.672  15.461 -0.7657 -0.5123  0.4062
 6784SOL     OW31813   2.858   2.261  15.550 -0.1465  0.0219  0.0588
 6784SOL    HW131814   2.815   2.259  15.635 -0.9530  0.9143 -0.3266
 6784SOL    HW231815   2.796   2.309  15.494  0.5277  1.3211  0.4341
 6785SOL     OW31816   2.980   3.144   2.116  0.4142  0.4620 -0.7904
 6785SOL    HW131817   2.992   3.101   2.032  3.2950  0.0603 -0.1763
 6785SOL    HW231818   2.885   3.140   2.127  0.5423 -1.3577 -0.4224
 6786SOL     OW31819   2.725   1.938   4.827  0.3627  0.1511  0.1344
 6786SOL    HW131820   2.806   1.962   4.783  0.8348  0.8302  1.3710
 6786SOL    HW231821   2.653   1.949   4.765  2.8682  0.1759 -2.7503
 6787SOL     OW31822   0.788   1.596  10.185  0.0432 -0.4879 -0.4441
 6787SOL    HW131823   0.813   1.548  10.264  0.9101 -1.4181 -1.2874
 6787SOL    HW231824   0.733   1.669  10.215 -1.2825 -1.6353 -0.0791
 6788SOL     OW31825   1.442   1.366   2.948 -0.2646  0.0048  0.3075
 6788SOL    HW131826   1.524   1.357   2.899  0.3283  1.6038  1.0090
 6788SOL    HW231827   1.367   1.382   2.890 -0.6750 -1.5546  0.4195
 6789SOL     OW31828   0.360   4.122   3.540 -0.8520  0.1520  0.0770
 6789SOL    HW131829   0.383   4.035   3.506 -1.4235 -0.1681  0.5158
 6789SOL    HW231830   0.332   4.152   3.453  1.3693 -1.3534 -1.1766
 6790SOL     OW31831   0.193   4.068   1.100  0.6787  0.2419  0.7801
 6790SOL    HW131832   0.276   4.021   1.096 -0.0354 -1.0456  1.0545
 6790SOL    HW231833   0.232   4.155   1.104  0.1254  0.6715 -3.2977
 6791SOL     OW31834   1.532   1.917   4.058 -0.8633  0.0229  0.1961
 6791SOL    HW131835   1.460   1.854   4.065  0.5005 -1.4949  0.6187
 6791SOL    HW231836   1.498   1.961   3.981 -0.6506 -0.0931  0.0351
 6792SOL     OW31837   0.225   1.919   6.438  0.8458  0.6138  0.4389
 6792SOL    HW131838   0.187   2.004   6.416 -2.3935 -1.1432 -0.8575
 6792SOL    HW231839   0.277   1.913   6.358  0.2466  1.8141 -0.0479
 6793SOL     OW31840   0.650   4.137  10.723 -0.5331  0.3768 -0.2852
 6793SOL    HW131841   0.687   4.182  10.647 -0.1981  1.1597  0.3345
 6793SOL    HW231842   0.603   4.205  10.771  1.8609  2.8484 -1.4443
 6794SOL     OW31843   2.378   1.031   8.877 -0.3613 -0.6621 -0.3035
 6794SOL    HW131844   2.287   1.016   8.901 -1.7661  2.3902 -3.8738
 6794SOL    HW231845   2.381   1.120   8.912 -0.0118 -0.6144 -0.4468
 6795SOL     OW31846   4.475   3.539   2.535  0.3691  0.0707  0.1087
 6795SOL    HW131847   4.463   3.533   2.440  0.3691 -0.0085  0.1135
 6795SOL    HW231848   4.508   3.455   2.568  2.9356  0.3825 -1.6829
 6796SOL     OW31849   0.779   2.797  17.454  0.2757  0.0953  0.1701
 6796SOL    HW131850   0.684   2.805  17.450  0.4404  1.7310 -0.4047
 6796SOL    HW231851   0.805   2.877  17.408  0.2946  1.1483  2.0253
 6797SOL     OW31852   3.003   4.426   1.683  0.3488  0.1552  0.3329
 6797SOL    HW131853   2.993   4.373   1.604 -2.5828 -1.2972  1.7130
 6797SOL    HW231854   2.978   4.510   1.643  1.0172 -0.3531 -1.1480
 6798SOL     OW31855   3.212   0.625   7.261  0.6838  0.1558  0.1315
 6798SOL    HW131856   3.249   0.664   7.340  1.4427  4.8464 -2.5408
 6798SOL    HW231857   3.202   0.536   7.296  2.3509 -0.6812 -1.4702
 6799SOL     OW31858   3.420   2.348   9.187 -0.4371  0.1223 -0.3626
 6799SOL    HW131859   3.402   2.422   9.129  1.5633 -0.5617 -1.8523
 6799SOL    HW231860   3.393   2.270   9.138  0.6262 -0.5354  0.0975
 6800SOL     OW31861   1.113   0.363   7.397  0.4316  0.4399 -0.2282
 6800SOL    HW131862   1.022   0.341   7.415  1.2074 -1.8444  0.8565
 6800SOL    HW231863   1.102   0.452   7.363  0.3727  0.0294 -1.3066
 6801SOL     OW31864   3.443   2.768   6.195  0.6476  0.5348 -0.3044
 6801SOL    HW131865   3.477   2.684   6.228 -0.2228  0.3001  0.0189
 6801SOL    HW231866   3.403   2.815   6.268  0.4648  0.9956 -0.7025
 6802SOL     OW31867   1.509   4.639  17.645  0.2111 -0.1332 -0.0615
 6802SOL    HW131868   1.422   4.605  17.626  0.3731 -1.3085  1.2715
 6802SOL    HW231869   1.560   4.568  17.606 -1.2565 -1.7596  0.9232
 6803SOL     OW31870   0.996   0.947   2.846  0.3109  0.2433 -0.0407
 6803SOL    HW131871   0.912   0.921   2.884  1.1862 -0.5575  1.3414
 6803SOL    HW231872   1.030   0.868   2.804  2.6191  0.7953  0.8140
 6804SOL     OW31873   4.078   1.599   7.956 -0.3871 -0.3001 -0.2275
 6804SOL    HW131874   4.065   1.504   7.956  1.2674 -0.5322  1.6275
 6804SOL    HW231875   4.106   1.618   7.866 -0.0964 -0.7326 -0.2295
 6805SOL     OW31876   0.074   3.979   3.479  0.0901  0.4231  0.0002
 6805SOL    HW131877   0.015   4.038   3.525 -1.4283 -0.7660 -0.4649
 6805SOL    HW231878   0.016   3.964   3.405 -0.2714 -0.5804  0.4976
 6806SOL     OW31879   2.407   2.507  15.316 -0.1876  0.2871 -0.0778
 6806SOL    HW131880   2.364   2.591  15.298 -0.6992 -0.3838 -2.0426
 6806SOL    HW231881   2.366   2.473  15.396  0.6365 -0.3990  0.0495
 6807SOL     OW31882   1.928   2.695   7.500  0.0284 -0.3900 -0.3712
 6807SOL    HW131883   1.987   2.677   7.427 -1.2205  1.0480 -1.7096
 6807SOL    HW231884   1.957   2.621   7.553 -0.4952 -0.8249 -0.6863
 6808SOL     OW31885   3.089   1.662  10.639 -0.1496 -0.0078  0.5133
 6808SOL    HW131886   3.057   1.749  10.664 -1.9014 -1.3475  2.8183
 6808SOL    HW231887   3.181   1.681  10.616 -0.0921  0.7468  1.3935
 6809SOL     OW31888   3.307   2.892  11.196 -0.2222 -0.5378  0.1520
 6809SOL    HW131889   3.255   2.969  11.219  2.2787  1.0759  0.4817
 6809SOL    HW231890   3.287   2.885  11.103 -0.9717 -0.7820  0.3364
 6810SOL     OW31891   0.171   2.453   4.690 -0.1390  0.1721  0.5144
 6810SOL    HW131892   0.170   2.405   4.608  0.9777 -0.8074  1.0742
 6810SOL    HW231893   0.131   2.535   4.661  1.9910  0.8975 -0.3522
 6811SOL     OW31894   2.497   1.373   4.892 -0.2253 -0.2299  0.3068
 6811SOL    HW131895   2.585   1.411   4.890  0.0101 -0.8355 -0.7826
 6811SOL    HW231896   2.455   1.408   4.814  0.4842 -2.6322 -1.1389
 6812SOL     OW31897   2.942   3.866   2.768  0.3067 -0.6161 -0.0982
 6812SOL    HW131898   3.029   3.893   2.738  0.3494 -0.3646  0.2509
 6812SOL    HW231899   2.899   3.941   2.809  0.0646 -2.0652  2.3475
 6813SOL     OW31900   1.193   4.237   7.608  0.3030 -0.4408  0.0408
 6813SOL    HW131901   1.219   4.146   7.592  2.4642 -0.2217  2.2342
 6813SOL    HW231902   1.099   4.225   7.595  0.1028  1.0253  0.1087
 6814SOL     OW31903   2.997   2.735   0.467  0.3071 -0.3591  0.2322
 6814SOL    HW131904   2.998   2.829   0.485 -1.7060 -0.5136  1.1282
 6814SOL    HW231905   2.972   2.697   0.551  2.8660  0.3700  1.3313
 6815SOL     OW31906   3.592   3.155   2.608  0.1108 -0.3759  0.5025
 6815SOL    HW131907   3.524   3.167   2.542  2.0049  0.9412 -1.2028
 6815SOL    HW231908   3.571   3.067   2.640  0.7393 -0.9579 -0.6714
 6816SOL     OW31909   4.273   0.933   9.594  0.2399 -0.1819 -0.3876
 6816SOL    HW131910   4.288   0.866   9.528  2.0114  0.9593 -1.1549
 6816SOL    HW231911   4.353   0.916   9.643  0.8399  0.2208 -1.2198
 6817SOL     OW31912   2.276   1.914   3.548  0.0831  0.5580  0.2494
 6817SOL    HW131913   2.278   1.847   3.615 -1.9363 -0.1338 -0.3910
 6817SOL    HW231914   2.186   1.942   3.563 -0.4753 -0.1059 -1.8046
 6818SOL     OW31915   2.812   3.511   7.193 -0.7468 -0.4286  0.1838
 6818SOL    HW131916   2.903   3.481   7.190 -1.0374 -1.2691 -0.3339
 6818SOL    HW231917   2.782   3.460   7.118  1.1296 -0.6377 -0.4198
 6819SOL     OW31918   4.453   3.809   4.193  0.7416  0.1817 -0.0532
 6819SOL    HW131919   4.528   3.753   4.211 -0.2568 -1.2343 -0.2548
 6819SOL    HW231920   4.422   3.774   4.109  0.1339 -0.3882  0.4028
 6820SOL     OW31921   3.150   3.093  11.316  0.6306 -0.6567 -0.0125
 6820SOL    HW131922   3.204   3.094  11.395  1.3401  0.0681 -0.5043
 6820SOL    HW231923   3.063   3.109  11.352  0.0036 -2.7468 -0.6217
 6821SOL     OW31924   1.953   2.663   4.342 -0.2157  0.1857  0.9353
 6821SOL    HW131925   1.879   2.607   4.366  0.8334 -2.1192 -1.2583
 6821SOL    HW231926   1.892   2.717   4.291 -1.4298  0.7335  2.9411
 6822SOL     OW31927   4.186   2.118  13.967 -0.1396  0.0142  1.0052
 6822SOL    HW131928   4.257   2.056  13.985  0.5218  0.0827 -1.3622
 6822SOL    HW231929   4.211   2.186  14.030  1.0110 -0.9219  1.5557
 6823SOL     OW31930   4.112   0.490   6.119  0.2818 -0.5364 -0.2895
 6823SOL    HW131931   4.028   0.449   6.096  0.2395  0.4769 -1.9391
 6823SOL    HW231932   4.095   0.584   6.120 -0.6079 -0.7153  1.3419
 6824SOL     OW31933   3.659   0.249   3.598 -0.2128  0.2392  0.3972
 6824SOL    HW131934   3.591   0.275   3.537 -1.4089  0.6797  1.9014
 6824SOL    HW231935   3.685   0.333   3.636 -0.5279  0.9135 -0.8855
 6825SOL     OW31936   0.577   3.902   8.655 -0.4831  0.0592  0.2636
 6825SOL    HW131937   0.635   3.882   8.581  2.3672 -1.1487  2.7953
 6825SOL    HW231938   0.545   3.817   8.682 -1.2291  0.7535  1.5750
 6826SOL     OW31939   4.640   0.146  10.838 -0.0806 -0.1008  0.0774
 6826SOL    HW131940   4.602   0.178  10.920 -0.6944 -1.9858  0.5480
 6826SOL    HW231941   4.686   0.069  10.872 -0.6195 -0.5011 -0.0912
 6827SOL     OW31942   1.793   2.474   6.925  0.3477 -0.7052  0.3140
 6827SOL    HW131943   1.789   2.512   7.013  0.3292  0.1329 -0.0525
 6827SOL    HW231944   1.852   2.401   6.943  1.4579  0.2477  0.4584
 6828SOL     OW31945   2.420   1.836   9.751  0.1289  0.0954 -0.4597
 6828SOL    HW131946   2.490   1.892   9.786 -0.2624  0.3159 -0.0348
 6828SOL    HW231947   2.456   1.812   9.666 -2.0372  0.6867 -1.5551
 6829SOL     OW31948   3.016   2.817  12.144 -0.2244 -0.8484  0.0729
 6829SOL    HW131949   2.968   2.752  12.195 -1.4758  0.2345  0.2951
 6829SOL    HW231950   2.986   2.797  12.056 -1.1226 -1.6402  0.5621
 6830SOL     OW31951   0.162   2.360  14.935  0.4082 -0.3386 -0.1454
 6830SOL    HW131952   0.071   2.382  14.956 -0.0650 -1.6892 -0.7641
 6830SOL    HW231953   0.142   2.324  14.848 -0.0900 -0.3667 -0.0174
 6831SOL     OW31954   3.129   4.129   1.061  0.1799  0.2179  0.4125
 6831SOL    HW131955   3.120   4.174   1.146 -1.3146  1.5874 -0.4787
 6831SOL    HW231956   3.162   4.205   1.013 -0.6138 -0.0285 -0.5047
 6832SOL     OW31957   2.288   3.398  16.245  0.0306 -0.3685  0.2808
 6832SOL    HW131958   2.320   3.466  16.186 -2.1956 -0.5436 -1.1216
 6832SOL    HW231959   2.361   3.391  16.307  2.0124  1.9585 -1.8173
 6833SOL     OW31960   0.523   1.124  15.173 -0.2429  0.3197  0.4498
 6833SOL    HW131961   0.576   1.129  15.093 -1.9594  0.4633 -0.6716
 6833SOL    HW231962   0.435   1.128  15.136 -0.3108 -0.8965  0.4813
 6834SOL     OW31963   3.539   4.238   0.693 -0.5266 -0.0779  0.1245
 6834SOL    HW131964   3.635   4.229   0.698 -0.6317 -1.2757 -0.0967
 6834SOL    HW231965   3.506   4.165   0.642  0.2963 -0.5130  0.2157
 6835SOL     OW31966   4.567   0.793  11.575 -0.6608  0.0470 -0.3768
 6835SOL    HW131967   4.606   0.879  11.588 -0.9221  0.0883  0.0983
 6835SOL    HW231968   4.545   0.791  11.481 -0.9967 -2.4140 -0.2619
 6836SOL     OW31969   2.834   0.255  10.339 -0.1110  0.6144  0.0272
 6836SOL    HW131970   2.823   0.349  10.325  4.8832  1.0977 -0.6015
 6836SOL    HW231971   2.747   0.223  10.315 -0.9351  1.4186  1.9235
 6837SOL     OW31972   0.782   3.426   8.831 -0.1798 -0.2306 -0.0463
 6837SOL    HW131973   0.712   3.364   8.849  0.7625 -1.4630 -0.6315
 6837SOL    HW231974   0.786   3.479   8.910 -0.3936 -1.2358  0.6280
 6838SOL     OW31975   3.393   0.261   6.894 -0.3160 -0.1539  0.6646
 6838SOL    HW131976   3.302   0.247   6.871 -0.1266 -1.3100  0.6018
 6838SOL    HW231977   3.396   0.224   6.982  0.8469 -0.5800  0.4495
 6839SOL     OW31978   4.127   0.554   1.621  0.0064  0.3025 -0.0062
 6839SOL    HW131979   4.220   0.557   1.642 -0.1192 -0.5337  0.6312
 6839SOL    HW231980   4.121   0.459   1.630  1.7710 -0.1146 -3.2134
 6840SOL     OW31981   2.693   2.770   6.688  0.4617 -0.5548 -0.3756
 6840SOL    HW131982   2.599   2.762   6.703  0.0334  1.8396 -1.7394
 6840SOL    HW231983   2.705   2.801   6.599 -0.5366  2.1586  0.4198
 6841SOL     OW31984   4.067   0.102   1.109 -0.3779 -0.1156  0.2732
 6841SOL    HW131985   3.997   0.039   1.089  0.2342 -1.3033  1.8575
 6841SOL    HW231986   4.017   0.172   1.152 -2.3838 -1.4728  0.1841
 6842SOL     OW31987   2.781   2.539  15.148 -0.2191  0.6566  0.6021
 6842SOL    HW131988   2.768   2.506  15.236 -1.4107 -1.5985 -0.4248
 6842SOL    HW231989   2.718   2.490  15.095  1.7134  0.0697 -1.1354
 6843SOL     OW31990   2.724   4.209  11.556 -0.1713 -0.2358  0.8895
 6843SOL    HW131991   2.699   4.294  11.592  2.5063  0.8609  0.1501
 6843SOL    HW231992   2.798   4.185  11.611 -0.2483 -1.8741  0.2916
 6844SOL     OW31993   2.094   3.335   2.036 -0.6606 -0.1027 -0.5220
 6844SOL    HW131994   2.054   3.257   1.999 -1.6312 -0.1474  0.6079
 6844SOL    HW231995   2.165   3.302   2.090  0.0981  1.1323 -0.7476
 6845SOL     OW31996   2.022   1.667   5.947  0.3837  0.0686 -0.0345
 6845SOL    HW131997   1.970   1.707   5.877  0.0719 -2.5852 -1.2952
 6845SOL    HW231998   1.969   1.697   6.021 -0.7134  1.6781 -1.4736
 6846SOL     OW31999   3.706   0.819   1.463  0.4389 -0.4041 -0.3120
 6846SOL    HW132000   3.781   0.761   1.477  1.2355  1.0228  1.3988
 6846SOL    HW232001   3.720   0.829   1.369 -1.9749  1.4663 -0.4702
 6847SOL     OW32002   3.775   2.515   2.494  0.3316  0.0693 -0.2320
 6847SOL    HW132003   3.811   2.596   2.531 -0.3004  0.8585 -1.3438
 6847SOL    HW232004   3.737   2.476   2.573 -1.2115  1.7806 -0.1139
 6848SOL     OW32005   4.174   3.770   4.786 -0.0265  0.4998 -0.1269
 6848SOL    HW132006   4.112   3.718   4.838  1.2541  0.5649  1.4645
 6848SOL    HW232007   4.123   3.847   4.759 -0.0111 -0.6413 -3.4732
 6849SOL     OW32008   4.261   2.266   4.499 -0.2679  0.8475  0.3079
 6849SOL    HW132009   4.191   2.225   4.549  0.3351 -1.2155 -0.5249
 6849SOL    HW232010   4.330   2.204   4.522 -0.9199 -0.8777 -2.3459
 6850SOL     OW32011   0.049   3.039   5.404 -0.0330  0.3202 -0.2851
 6850SOL    HW132012   0.136   3.038   5.365 -0.7082 -0.6288 -1.7536
 6850SOL    HW232013   0.065   3.061   5.496 -2.8619 -2.6488  0.9327
 6851SOL     OW32014   4.229   2.433  14.549  0.4630 -0.4186 -0.2017
 6851SOL    HW132015   4.175   2.497  14.597  0.1239 -0.5677 -0.3811
 6851SOL    HW232016   4.241   2.362  14.612 -2.5746 -1.5941 -0.9293
 6852SOL     OW32017   3.429   2.228  13.174  0.0267  0.0909 -0.5339
 6852SOL    HW132018   3.394   2.286  13.106  0.7985  1.4300  0.2057
 6852SOL    HW232019   3.505   2.275  13.208  0.0608 -1.5650  1.6896
 6853SOL     OW32020   1.554   3.879   2.337  0.1175 -0.4299 -0.8055
 6853SOL    HW132021   1.556   3.839   2.424  3.2514 -1.6693 -1.4417
 6853SOL    HW232022   1.594   3.965   2.352  0.3516 -0.5193 -0.9118
 6854SOL     OW32023   1.355   3.599   3.425  0.4630 -0.3002  0.4287
 6854SOL    HW132024   1.337   3.623   3.334 -4.8545  0.7612  1.7400
 6854SOL    HW232025   1.449   3.610   3.438  0.1298  0.4131  2.2432
 6855SOL     OW32026   1.704   2.837   2.686  0.1210  0.2903  0.0650
 6855SOL    HW132027   1.665   2.912   2.641  0.1281  0.5619  0.5093
 6855SOL    HW232028   1.694   2.871   2.775 -1.9367  0.0206 -0.0759
 6856SOL     OW32029   2.308   1.208  13.706  0.1981  0.2125 -0.3321
 6856SOL    HW132030   2.267   1.123  13.720 -2.4359  1.6979  0.8610
 6856SOL    HW232031   2.318   1.197  13.612 -0.1502  2.1004 -0.5889
 6857SOL     OW32032   0.293   2.098  10.547  0.1891  0.9999 -0.0108
 6857SOL    HW132033   0.252   2.123  10.630  0.5065  1.4436  0.0133
 6857SOL    HW232034   0.308   2.007  10.573  1.3901  0.7306 -1.6456
 6858SOL     OW32035   3.046   1.945  15.224  0.2695  0.0696  0.1249
 6858SOL    HW132036   3.065   1.985  15.139  1.1532  2.3541  1.3870
 6858SOL    HW232037   2.973   1.888  15.198  1.7915 -1.4552 -0.7499
 6859SOL     OW32038   4.177   2.535   4.976 -0.6535  0.0342  1.2093
 6859SOL    HW132039   4.240   2.518   5.046 -0.4456  2.5088  1.6254
 6859SOL    HW232040   4.099   2.544   5.030 -1.0958  1.4292  0.3240
 6860SOL     OW32041   2.661   3.171   9.367  0.2217  0.0306  0.0457
 6860SOL    HW132042   2.593   3.107   9.386 -0.3995  0.6959  0.0852
 6860SOL    HW232043   2.624   3.254   9.397  0.8884 -0.5982  2.6530
 6861SOL     OW32044   0.103   4.362   5.660  0.0875 -0.3152 -0.1747
 6861SOL    HW132045   0.189   4.345   5.622 -0.4543 -2.2899 -0.5291
 6861SOL    HW232046   0.109   4.317   5.744 -1.7210 -1.1225 -0.4722
 6862SOL     OW32047   0.354   3.229  13.370 -0.3072 -0.2460 -0.4248
 6862SOL    HW132048   0.275   3.283  13.370 -1.1796 -1.4954 -1.2659
 6862SOL    HW232049   0.369   3.197  13.458 -0.9949  1.6509  0.3844
 6863SOL     OW32050   3.107   1.201  15.925 -0.1597  0.4344  0.4083
 6863SOL    HW132051   3.017   1.235  15.921  0.1170  1.2092  0.8867
 6863SOL    HW232052   3.139   1.268  15.865 -1.1055  0.5628  0.0414
 6864SOL     OW32053   2.917   3.837   7.094  0.1021 -0.5934 -0.2818
 6864SOL    HW132054   2.875   3.861   7.011 -0.4820 -2.4200 -0.5090
 6864SOL    HW232055   2.981   3.771   7.067  0.2241  0.0983 -1.7049
 6865SOL     OW32056   2.025   3.237   1.507  0.2394  0.0122  0.1989
 6865SOL    HW132057   2.008   3.145   1.528  1.7222 -0.6148 -1.4219
 6865SOL    HW232058   2.119   3.242   1.519  0.0982  1.1548  0.8668
 6866SOL     OW32059   4.553   4.058   9.012 -0.3567  0.1236 -0.4648
 6866SOL    HW132060   4.607   4.136   9.024 -1.0525  0.7106 -1.1423
 6866SOL    HW232061   4.515   4.039   9.097 -0.1468 -0.6136 -0.5270
 6867SOL     OW32062   3.322   1.999   7.256  0.2800 -0.0259 -0.5562
 6867SOL    HW132063   3.411   2.027   7.234  0.4491 -2.3075 -2.8399
 6867SOL    HW232064   3.322   2.030   7.346  0.5148  1.5946 -1.1086
 6868SOL     OW32065   2.285   3.256   0.685  0.2672  0.5119 -0.1284
 6868SOL    HW132066   2.315   3.341   0.715 -0.3993  1.0292 -0.9298
 6868SOL    HW232067   2.288   3.288   0.595  2.5797  0.6590  0.0044
 6869SOL     OW32068   3.905   3.270  17.421 -0.0746  0.3451  0.0545
 6869SOL    HW132069   3.905   3.275  17.325 -2.4686  1.8991  0.1092
 6869SOL    HW232070   3.999   3.270  17.439 -0.1863 -0.0787  0.6271
 6870SOL     OW32071   3.824   0.330   1.682  0.2244  0.5856  0.2782
 6870SOL    HW132072   3.880   0.324   1.604 -2.1514 -3.5298 -1.1048
 6870SOL    HW232073   3.832   0.239   1.709 -0.1874  1.2741  2.6830
 6871SOL     OW32074   3.466   0.830   9.166  0.0628  0.5297 -0.5115
 6871SOL    HW132075   3.384   0.868   9.135 -0.6876 -1.9599 -1.6513
 6871SOL    HW232076   3.527   0.896   9.133  0.9694  0.8283  1.7487
 6872SOL     OW32077   1.714   3.978   7.855  0.0921 -0.0714 -0.2423
 6872SOL    HW132078   1.784   4.010   7.798  0.9852 -0.2101  0.7730
 6872SOL    HW232079   1.699   3.891   7.818 -0.6221 -0.0647  0.0239
 6873SOL     OW32080   2.059   2.885   5.836  0.1927  0.1734  0.1911
 6873SOL    HW132081   2.032   2.812   5.892 -0.4744 -1.6578 -2.5403
 6873SOL    HW232082   2.152   2.862   5.834  0.4923  1.4102  0.1851
 6874SOL     OW32083   2.317   2.569  13.086 -0.2109 -0.1414  0.2423
 6874SOL    HW132084   2.316   2.616  13.170 -0.1146 -1.4870  0.9988
 6874SOL    HW232085   2.397   2.592  13.039 -0.5911 -0.3185 -0.4826
 6875SOL     OW32086   0.362   3.007   7.481 -0.0208 -0.3962 -0.3020
 6875SOL    HW132087   0.449   3.004   7.523  0.3300  0.1615 -0.9977
 6875SOL    HW232088   0.349   3.100   7.466 -1.1504 -0.3256  1.2088
 6876SOL     OW32089   3.415   1.188   6.093 -0.3016 -0.2909 -0.0705
 6876SOL    HW132090   3.431   1.114   6.035  1.0893  1.1303 -1.4973
 6876SOL    HW232091   3.357   1.233   6.032 -0.1488  0.0666  0.0427
 6877SOL     OW32092   0.531   2.819   6.163 -0.6119 -0.8064  0.2854
 6877SOL    HW132093   0.465   2.865   6.110  1.1605 -0.5117 -1.6383
 6877SOL    HW232094   0.611   2.842   6.116 -0.5698  1.7622  1.5947
 6878SOL     OW32095   3.435   3.747   6.649  0.2826 -0.2938  0.1731
 6878SOL    HW132096   3.481   3.818   6.694  1.8674 -0.8681 -0.5443
 6878SOL    HW232097   3.497   3.728   6.579 -0.5974 -0.0784 -0.6511
 6879SOL     OW32098   1.024   0.127  12.366 -0.2096  0.2697  0.0905
 6879SOL    HW132099   1.083   0.117  12.291 -2.3875  0.3621 -1.6367
 6879SOL    HW232100   1.071   0.062  12.418  0.4036 -0.0969 -0.9048
 6880SOL     OW32101   0.004   1.147   0.455  0.2791 -0.0752  0.6722
 6880SOL    HW132102   4.702   1.236   0.479 -1.1154  0.1189 -1.3558
 6880SOL    HW232103   0.024   1.112   0.542 -0.9572  0.5312  1.1944
 6881SOL     OW32104   0.181   4.638   4.183 -0.0107 -0.3680  0.6671
 6881SOL    HW132105   0.248   4.583   4.222  2.9680  1.2762 -2.1462
 6881SOL    HW232106   0.173   4.617   4.090  1.5244  0.7520  0.2924
 6882SOL     OW32107   3.923   4.703   0.361  0.5538  0.9189  0.0790
 6882SOL    HW132108   3.963   0.067   0.348  1.7291  0.5978  1.5806
 6882SOL    HW232109   3.843   4.703   0.309 -0.8202  0.6818  2.1762
 6883SOL     OW32110   0.665   3.304   4.387  0.8997  0.1804 -0.3179
 6883SOL    HW132111   0.613   3.291   4.309 -0.5389  1.5756  0.4072
 6883SOL    HW232112   0.613   3.245   4.441  0.2498  0.4679 -0.6393
 6884SOL     OW32113   2.740   0.889   7.570  0.7700 -0.1053 -0.0850
 6884SOL    HW132114   2.817   0.945   7.564  0.9948 -0.4673 -0.5939
 6884SOL    HW232115   2.771   0.806   7.532 -0.4455 -0.9507  0.7856
 6885SOL     OW32116   1.804   4.440   4.908  0.3777 -0.4908  0.8488
 6885SOL    HW132117   1.821   4.504   4.839 -2.3288 -0.3286  0.3601
 6885SOL    HW232118   1.751   4.375   4.863  0.4869 -1.1965  1.7419
 6886SOL     OW32119   3.904   2.266   7.040  0.3508  0.0646 -0.0804
 6886SOL    HW132120   3.963   2.342   7.029  0.7310 -0.2975 -0.5628
 6886SOL    HW232121   3.816   2.304   7.039  0.2939 -0.0879 -0.9676
 6887SOL     OW32122   0.203   3.718   4.262 -0.4976  0.5512  0.0653
 6887SOL    HW132123   0.117   3.675   4.258 -1.1312  1.8005  0.3528
 6887SOL    HW232124   0.269   3.652   4.283 -0.1487  1.1536  0.8865
 6888SOL     OW32125   1.163   4.116   1.642 -0.0058 -0.3328 -0.0235
 6888SOL    HW132126   1.212   4.073   1.572  0.4402  0.2938 -0.0886
 6888SOL    HW232127   1.153   4.208   1.619 -1.2510  0.3218  3.1018
 6889SOL     OW32128   4.159   0.884  15.309  0.2914 -0.0334 -1.0904
 6889SOL    HW132129   4.228   0.871  15.244  0.1162 -0.2773 -1.2304
 6889SOL    HW232130   4.135   0.793  15.323 -1.6985  0.7471  0.5584
 6890SOL     OW32131   4.079   1.862   3.185 -0.2270  0.4077  0.4447
 6890SOL    HW132132   4.022   1.816   3.124 -0.5694 -0.5022  1.4554
 6890SOL    HW232133   4.095   1.783   3.236  3.7560  2.2024  1.9703
 6891SOL     OW32134   3.670   1.964   4.550  0.3429 -0.3707  0.5401
 6891SOL    HW132135   3.754   1.980   4.506  0.5319 -1.9365  0.3246
 6891SOL    HW232136   3.639   1.886   4.503  1.0026 -1.4870  1.9313
 6892SOL     OW32137   0.403   1.686   8.563 -0.0467 -0.3262 -0.3243
 6892SOL    HW132138   0.307   1.689   8.556  0.0163 -1.3053 -1.5985
 6892SOL    HW232139   0.417   1.617   8.627  1.5728 -2.0858 -2.5859
 6893SOL     OW32140   4.090   4.045   8.200 -0.2180  0.5703 -0.2079
 6893SOL    HW132141   4.177   4.034   8.159  0.5463 -0.0536  1.5786
 6893SOL    HW232142   4.049   4.110   8.143 -2.0484 -1.7954 -1.5770
 6894SOL     OW32143   2.217   2.132  14.697  0.0654 -0.0993  0.0338
 6894SOL    HW132144   2.303   2.101  14.725  0.3331  1.5624  1.0360
 6894SOL    HW232145   2.233   2.159  14.607 -1.7440  0.5882 -0.0842
 6895SOL     OW32146   2.893   1.332   4.276  0.2470 -0.0092  0.1006
 6895SOL    HW132147   2.846   1.389   4.214  0.1570 -0.8834 -0.6265
 6895SOL    HW232148   2.977   1.308   4.239  0.2922 -0.7110  0.6624
 6896SOL     OW32149   1.069   2.485  17.465  0.0430  0.4334 -0.4031
 6896SOL    HW132150   1.100   2.442  17.384 -1.1332 -2.0952  0.4908
 6896SOL    HW232151   1.152   2.526  17.488  0.0135  0.1335  0.2405
 6897SOL     OW32152   0.566   1.442  15.877  0.0494  0.2864 -0.1441
 6897SOL    HW132153   0.610   1.363  15.844 -2.9090 -1.8372  0.8756
 6897SOL    HW232154   0.541   1.425  15.968 -1.0643  1.3374 -0.2527
 6898SOL     OW32155   1.640   2.103   7.052 -0.6247  0.1842  0.4165
 6898SOL    HW132156   1.549   2.088   7.028  0.0294 -0.6126 -1.5223
 6898SOL    HW232157   1.638   2.158   7.131  0.8256 -0.5795  0.9961
 6899SOL     OW32158   0.039   1.707  10.635 -0.2289 -0.5846  0.7909
 6899SOL    HW132159   0.045   1.651  10.558 -1.2596 -0.9321  0.9560
 6899SOL    HW232160   4.666   1.724  10.629  0.1868  1.5150  0.2402
 6900SOL     OW32161   2.456   2.396  14.623  0.2844 -0.3851 -0.2963
 6900SOL    HW132162   2.433   2.410  14.715 -0.6644  1.7571 -0.8419
 6900SOL    HW232163   2.491   2.309  14.639  0.5949  0.2605  2.6471
 6901SOL     OW32164   0.752   1.766   1.629  0.3100 -0.0929  0.3171
 6901SOL    HW132165   0.692   1.730   1.564 -1.0062  0.0688  1.4569
 6901SOL    HW232166   0.835   1.772   1.581  0.2789  1.5470  0.4892
 6902SOL     OW32167   4.159   1.201   1.887 -0.3545  0.4946  0.4601
 6902SOL    HW132168   4.246   1.200   1.848 -0.7723 -0.7605 -0.4236
 6902SOL    HW232169   4.110   1.200   1.805 -1.1971 -0.8420  0.9772
 6903SOL     OW32170   0.236   2.611   4.402  0.4528  0.1422  0.1258
 6903SOL    HW132171   0.217   2.534   4.349  0.9054  0.2725 -0.2345
 6903SOL    HW232172   0.152   2.623   4.446  1.5924  0.9539  2.0976
 6904SOL     OW32173   2.353   2.872   7.201 -0.0850 -0.2350  0.0259
 6904SOL    HW132174   2.401   2.901   7.279 -0.7853 -0.8970  0.7058
 6904SOL    HW232175   2.376   2.779   7.200 -1.1841 -0.5014  0.5364
 6905SOL     OW32176   0.272   3.310   3.330  0.2119 -0.1067  0.4218
 6905SOL    HW132177   0.196   3.316   3.273 -0.1510 -1.7394  0.7299
 6905SOL    HW232178   0.336   3.369   3.289 -0.9902  1.4917  0.8841
 6906SOL     OW32179   4.625   0.454   2.904  0.4329 -0.0705  0.1770
 6906SOL    HW132180   4.562   0.382   2.901 -0.8270  1.0698 -0.4085
 6906SOL    HW232181   4.565   0.526   2.884 -1.0270 -1.1871  0.5639
 6907SOL     OW32182   1.887   1.470   0.503 -0.1725  0.5861  0.2768
 6907SOL    HW132183   1.906   1.564   0.504 -1.7642  0.9078  0.4378
 6907SOL    HW232184   1.955   1.429   0.555  0.0643  0.5108 -0.0911
 6908SOL     OW32185   4.582   1.855   7.575  0.0175 -1.1224  0.4257
 6908SOL    HW132186   4.495   1.818   7.562 -0.3512 -1.0599  2.6185
 6908SOL    HW232187   4.616   1.802   7.648  0.0874 -0.4909  0.8525
 6909SOL     OW32188   2.385   3.062   7.887 -0.5120 -0.4318  0.3603
 6909SOL    HW132189   2.303   3.023   7.917  0.9690 -3.0040  1.1038
 6909SOL    HW232190   2.390   3.038   7.795  2.1110 -0.0178  0.3982
 6910SOL     OW32191   2.481   0.170   7.191  0.6681  0.3540 -0.4826
 6910SOL    HW132192   2.562   0.213   7.163 -0.6065  2.4221 -0.9697
 6910SOL    HW232193   2.483   0.172   7.287 -1.4885  0.4680 -0.4316
 6911SOL     OW32194   4.240   0.464   1.331 -0.1524  0.2885 -0.1953
 6911SOL    HW132195   4.217   0.440   1.241 -1.4316 -1.8781  0.7185
 6911SOL    HW232196   4.157   0.506   1.352  0.7220  1.7430  0.3382
 6912SOL     OW32197   2.958   3.276   0.806 -0.0619 -0.1182  0.6702
 6912SOL    HW132198   2.943   3.201   0.863 -0.5110 -0.8674 -0.4329
 6912SOL    HW232199   3.040   3.247   0.767 -0.4620 -0.0427 -0.2371
 6913SOL     OW32200   2.102   2.366   1.890 -0.8915  0.1008 -0.2645
 6913SOL    HW132201   2.192   2.336   1.879 -0.4125  0.7716  1.7527
 6913SOL    HW232202   2.096   2.339   1.982 -0.2750 -1.9580 -0.8271
 6914SOL     OW32203   2.583   0.827  13.952 -0.1063  0.0654  0.4343
 6914SOL    HW132204   2.592   0.870  13.867 -0.5336 -1.1907 -0.2403
 6914SOL    HW232205   2.495   0.790  13.941  0.6393 -2.0983  1.6381
 6915SOL     OW32206   4.173   3.353   5.524  0.3913 -0.5398  0.2529
 6915SOL    HW132207   4.234   3.407   5.575 -1.1803 -0.1395  1.6988
 6915SOL    HW232208   4.108   3.321   5.585 -1.0787 -1.0615 -1.5841
 6916SOL     OW32209   0.702   4.690   3.266 -0.0424  0.0934 -0.5669
 6916SOL    HW132210   0.738   4.667   3.181 -1.7663 -1.3669 -0.9088
 6916SOL    HW232211   0.758   0.042   3.290 -0.4281  0.5488 -1.0805
 6917SOL     OW32212   2.188   2.151  12.497  0.1627 -0.2068 -0.0639
 6917SOL    HW132213   2.115   2.127  12.440  0.3699 -1.4401  0.1813
 6917SOL    HW232214   2.194   2.244  12.478  0.8834 -0.0665  0.8426
 6918SOL     OW32215   1.867   1.211   2.663  0.4959  0.3262  0.5370
 6918SOL    HW132216   1.845   1.121   2.638 -1.4848  0.6649  1.0408
 6918SOL    HW232217   1.852   1.257   2.580  1.8047 -0.6968 -0.2852
 6919SOL     OW32218   4.527   3.253   5.569  0.3964  0.4326  0.4316
 6919SOL    HW132219   4.547   3.317   5.636  0.7128 -2.6576  3.3188
 6919SOL    HW232220   4.516   3.309   5.493  3.2893  1.7220  0.9799
 6920SOL     OW32221   4.637   3.197   5.134  0.3287 -0.1031  1.0727
 6920SOL    HW132222   4.609   3.231   5.049  0.6146 -2.0625  0.2122
 6920SOL    HW232223   4.591   3.113   5.141 -1.6030  0.7230 -1.9933
 6921SOL     OW32224   3.814   4.104  16.167 -0.1154 -0.3547 -0.3433
 6921SOL    HW132225   3.771   4.104  16.253 -0.0808 -1.7917 -0.3284
 6921SOL    HW232226   3.748   4.080  16.102 -0.6865 -0.1432  0.1564
 6922SOL     OW32227   3.264   0.560   5.032 -0.2931  0.3777 -0.2812
 6922SOL    HW132228   3.293   0.520   4.950 -0.5967  0.9035 -0.6396
 6922SOL    HW232229   3.297   0.647   5.010 -1.9087  1.8926  3.3365
 6923SOL     OW32230   3.518   1.483  15.549  0.3851 -0.1698  0.6319
 6923SOL    HW132231   3.576   1.523  15.484  0.8684 -0.1125  1.0984
 6923SOL    HW232232   3.485   1.556  15.602  0.7501 -0.1849  0.8836
 6924SOL     OW32233   4.162   2.175   5.522 -0.5449  0.1365  0.6840
 6924SOL    HW132234   4.247   2.132   5.511  1.1561  4.5078 -3.2174
 6924SOL    HW232235   4.176   2.253   5.469  0.4263  0.4090  1.3395
 6925SOL     OW32236   3.942   0.618   4.756 -0.3946  0.4503  0.7299
 6925SOL    HW132237   4.006   0.550   4.778 -0.2452  0.1608 -0.5794
 6925SOL    HW232238   3.991   0.683   4.706  0.0334 -0.1571  0.3489
 6926SOL     OW32239   2.771   2.440   7.396 -0.4942 -0.1589  0.4450
 6926SOL    HW132240   2.715   2.363   7.393 -0.4228 -0.1366 -1.5324
 6926SOL    HW232241   2.738   2.469   7.311  0.0025  0.3836  0.4304
 6927SOL     OW32242   1.802   3.524   8.570  0.3186  0.0871 -0.1889
 6927SOL    HW132243   1.712   3.553   8.588 -0.6768 -1.8945 -2.0735
 6927SOL    HW232244   1.838   3.592   8.514  0.4660  0.6319  0.5659
 6928SOL     OW32245   3.917   0.216  13.865 -0.0398 -0.3688 -1.2501
 6928SOL    HW132246   3.973   0.290  13.841  0.5230 -0.6827 -0.8902
 6928SOL    HW232247   3.895   0.185  13.777  0.7980 -1.8100 -0.9597
 6929SOL     OW32248   1.820   2.834   3.544  0.2616  0.1961 -0.5094
 6929SOL    HW132249   1.834   2.755   3.595 -1.4371  0.6670  0.6868
 6929SOL    HW232250   1.829   2.800   3.454  0.5063 -1.6023  0.1949
 6930SOL     OW32251   3.312   2.579   6.677 -0.1110 -0.2817  0.3038
 6930SOL    HW132252   3.390   2.609   6.725  0.1810 -0.1678 -0.2420
 6930SOL    HW232253   3.289   2.647   6.614  3.7366 -0.5636 -1.4423
 6931SOL     OW32254   0.265   3.176  10.272 -0.7337 -0.2526  0.0340
 6931SOL    HW132255   0.211   3.150  10.197 -0.2506  1.9845 -1.1280
 6931SOL    HW232256   0.317   3.243  10.227 -1.5205  0.3029 -0.0573
 6932SOL     OW32257   2.420   2.323  14.256 -0.4548  0.0174  0.1892
 6932SOL    HW132258   2.371   2.342  14.176 -1.3190  0.7502  0.8994
 6932SOL    HW232259   2.468   2.403  14.274 -1.4824  0.4843  0.8938
 6933SOL     OW32260   1.249   4.536   7.436  0.1751  0.5773  0.1378
 6933SOL    HW132261   1.259   4.519   7.530  0.5848 -0.8492 -0.1638
 6933SOL    HW232262   1.341   4.534   7.411  0.2395  0.5185  0.3752
 6934SOL     OW32263   2.432   2.503   2.656  0.6383 -0.1365  0.2252
 6934SOL    HW132264   2.524   2.497   2.633  1.4652 -1.2746  3.8917
 6934SOL    HW232265   2.412   2.416   2.692 -0.1631 -0.0549 -0.0104
 6935SOL     OW32266   2.497   2.224   6.758 -0.0195 -0.3413  0.4350
 6935SOL    HW132267   2.449   2.159   6.705  0.2788 -0.7305  0.6397
 6935SOL    HW232268   2.453   2.307   6.744  1.4537  0.4780  0.6459
 6936SOL     OW32269   4.008   1.046   4.765  0.5557  0.1092  0.0814
 6936SOL    HW132270   4.037   1.016   4.678 -1.0480 -1.0779 -0.0433
 6936SOL    HW232271   3.913   1.053   4.750  0.3305 -1.7401  0.6470
 6937SOL     OW32272   3.497   3.291   2.065  0.3527 -0.1446 -0.0692
 6937SOL    HW132273   3.487   3.362   2.003  1.0622  0.6836  0.7703
 6937SOL    HW232274   3.592   3.290   2.070  0.2294 -1.3208  2.2518
 6938SOL     OW32275   0.476   4.571   2.283  0.1625  0.1589 -0.2356
 6938SOL    HW132276   0.382   4.553   2.275 -0.4386  2.0849  2.4785
 6938SOL    HW232277   0.510   4.522   2.208  0.6787 -0.2937  0.2961
 6939SOL     OW32278   1.925   4.651   3.066  0.2891 -0.3156  0.0986
 6939SOL    HW132279   1.928   4.572   3.011 -0.2413 -1.6610  2.0260
 6939SOL    HW232280   1.954   4.719   3.004  0.6702 -1.1288 -0.6166
 6940SOL     OW32281   0.544   1.321   8.009 -0.5273 -0.2947 -0.3208
 6940SOL    HW132282   0.594   1.284   8.082  1.4563  1.9118 -0.5690
 6940SOL    HW232283   0.596   1.399   7.993  0.7088 -1.0516  0.0593
 6941SOL     OW32284   3.552   0.645   1.037  0.5087 -0.2839 -0.0723
 6941SOL    HW132285   3.525   0.604   1.119 -3.3007 -0.2643 -1.3439
 6941SOL    HW232286   3.472   0.692   1.013 -0.4356 -1.0299  1.6107
 6942SOL     OW32287   3.519   4.546   2.995 -0.1573  0.0397 -0.1083
 6942SOL    HW132288   3.477   4.632   3.003 -2.7864 -1.1037 -1.5142
 6942SOL    HW232289   3.530   4.521   2.903  0.0130 -1.5326  0.3411
 6943SOL     OW32290   4.582   3.503   6.787  0.4748 -0.2925 -0.3642
 6943SOL    HW132291   4.606   3.516   6.879 -2.0757  0.1376  0.2366
 6943SOL    HW232292   4.634   3.570   6.742 -1.2288  0.6573 -0.9373
 6944SOL     OW32293   3.076   0.114  13.564 -0.4242 -0.1129 -0.9322
 6944SOL    HW132294   3.012   0.043  13.561 -0.5917  0.1036 -2.5094
 6944SOL    HW232295   3.102   0.121  13.656  0.1859 -1.4110 -0.9963
 6945SOL     OW32296   3.120   3.524   8.079  1.0348 -0.3737  0.0403
 6945SOL    HW132297   3.121   3.430   8.064 -0.8368 -0.3016 -0.5355
 6945SOL    HW232298   3.070   3.535   8.160 -0.6463  0.6647 -1.1530
 6946SOL     OW32299   0.470   3.458   8.542 -0.3075 -0.4107 -0.0526
 6946SOL    HW132300   0.431   3.445   8.456  0.3778  0.0579 -0.4334
 6946SOL    HW232301   0.482   3.365   8.560  0.5913 -0.1527  0.6685
 6947SOL     OW32302   2.335   3.588   2.731  0.2755 -0.4942  0.4426
 6947SOL    HW132303   2.410   3.552   2.684  1.1372 -0.1524  1.5574
 6947SOL    HW232304   2.318   3.510   2.784  0.8807 -0.3181  0.8934
 6948SOL     OW32305   3.882   1.627  13.213  0.7035  0.6648  0.1948
 6948SOL    HW132306   3.915   1.539  13.231  1.9905  1.7068  3.0128
 6948SOL    HW232307   3.953   1.642  13.152 -1.2234  1.7421 -1.7610
 6949SOL     OW32308   0.841   1.568  13.898  0.2959  0.7525  0.0932
 6949SOL    HW132309   0.836   1.506  13.826 -0.3511  0.6038  0.2600
 6949SOL    HW232310   0.767   1.627  13.882 -0.6732 -0.8838 -1.4722
 6950SOL     OW32311   3.841   0.414  11.399  0.1107  0.6869 -0.3694
 6950SOL    HW132312   3.781   0.458  11.339 -0.7407 -1.7232 -1.2502
 6950SOL    HW232313   3.923   0.442  11.357  0.7611 -2.9980 -1.5949
 6951SOL     OW32314   2.708   2.788   3.860  0.1624  0.1658  0.0304
 6951SOL    HW132315   2.773   2.718   3.870  1.8123  2.0539  2.3312
 6951SOL    HW232316   2.653   2.779   3.938  1.9049  0.3680  1.2599
 6952SOL     OW32317   1.171   1.976   0.599 -0.4190  0.4258 -0.4731
 6952SOL    HW132318   1.233   2.048   0.613  0.3490 -0.4823  0.7380
 6952SOL    HW232319   1.179   1.988   0.505 -1.9146  4.4423 -0.1128
 6953SOL     OW32320   0.175   0.100   4.940  0.7826 -0.6732  0.5695
 6953SOL    HW132321   0.213   0.015   4.963  1.3269 -0.7035 -0.4099
 6953SOL    HW232322   0.177   0.142   5.026  1.6518 -0.1827  0.3217
 6954SOL     OW32323   3.559   1.091  13.457  0.2007  0.8234 -0.0090
 6954SOL    HW132324   3.583   1.007  13.418  2.4919  0.6611  1.8209
 6954SOL    HW232325   3.642   1.113  13.498  0.1379  1.6656 -0.3309
 6955SOL     OW32326   3.266   0.701  15.863 -0.6884 -0.2304 -0.9014
 6955SOL    HW132327   3.247   0.794  15.857  0.7314  0.1987  1.3688
 6955SOL    HW232328   3.315   0.700  15.945  0.0881 -0.9922 -1.3664
 6956SOL     OW32329   2.218   3.932   3.284 -0.5702  0.4241 -0.3633
 6956SOL    HW132330   2.212   3.874   3.359 -1.5077  1.8990  0.7191
 6956SOL    HW232331   2.287   3.884   3.239  0.4762  1.6145 -0.0372
 6957SOL     OW32332   3.259   1.808   3.594  0.0671  0.2026  0.1525
 6957SOL    HW132333   3.192   1.877   3.595  0.5425  0.6984 -3.6111
 6957SOL    HW232334   3.207   1.759   3.531 -0.6545 -0.5009  1.2936
 6958SOL     OW32335   2.389   0.813   5.664 -0.4478 -0.0419 -0.1850
 6958SOL    HW132336   2.442   0.842   5.590  0.2574 -1.7510 -0.3500
 6958SOL    HW232337   2.335   0.892   5.673 -0.6308 -0.2131  0.2314
 6959SOL     OW32338   4.233   1.086   5.742  0.2395 -0.1646 -0.0681
 6959SOL    HW132339   4.292   1.140   5.689 -1.3141  2.9075  1.2942
 6959SOL    HW232340   4.155   1.142   5.742 -0.6415 -1.4063 -0.3668
 6960SOL     OW32341   2.854   3.224   8.346  0.3726 -0.1279 -0.6423
 6960SOL    HW132342   2.886   3.223   8.437 -0.3461 -0.3780 -0.3952
 6960SOL    HW232343   2.775   3.277   8.360 -1.1005 -2.6874  0.6520
 6961SOL     OW32344   1.531   2.815   4.399 -0.0864  0.1530 -0.3812
 6961SOL    HW132345   1.466   2.813   4.329 -0.7378 -0.7746  0.2467
 6961SOL    HW232346   1.550   2.907   4.416 -1.1142  0.1367  0.8400
 6962SOL     OW32347   3.792   3.117   5.370  0.3114 -0.5568  0.1909
 6962SOL    HW132348   3.805   3.197   5.319 -0.7789  0.5836  1.7300
 6962SOL    HW232349   3.833   3.052   5.313 -1.0176  0.2968 -1.7358
 6963SOL     OW32350   1.436   4.646   7.114 -0.4856  0.3201 -0.3434
 6963SOL    HW132351   1.384   0.005   7.126 -0.0995  0.5411 -0.1609
 6963SOL    HW232352   1.495   4.676   7.046 -1.3427 -2.1265 -2.1592
 6964SOL     OW32353   4.275   4.717   8.157  0.4391 -0.3846  0.3099
 6964SOL    HW132354   4.354   4.675   8.123 -0.6703 -1.5787 -0.8208
 6964SOL    HW232355   4.265   4.669   8.239 -0.6870  0.9800  0.9561
 6965SOL     OW32356   3.113   0.241  14.137  0.1107 -0.4109  0.7365
 6965SOL    HW132357   3.193   0.225  14.188 -0.0672  0.7214  1.3563
 6965SOL    HW232358   3.053   0.181  14.180 -0.1743 -0.0365  0.8558
 6966SOL     OW32359   4.416   1.253   1.798  0.3236 -0.0395  0.1556
 6966SOL    HW132360   4.453   1.264   1.711 -1.0133 -0.5853 -0.4782
 6966SOL    HW232361   4.498   1.245   1.848  0.0743  0.1654  0.5991
 6967SOL     OW32362   1.356   4.589   2.994 -0.1432  0.7170 -0.0619
 6967SOL    HW132363   1.387   4.525   3.058  2.3469  0.1608 -1.8298
 6967SOL    HW232364   1.266   4.583   3.027 -0.6480  2.5121 -1.0809
 6968SOL     OW32365   3.749   0.973   8.232  0.2174  0.2606 -0.4736
 6968SOL    HW132366   3.676   0.952   8.289  1.0137  1.4179  0.9558
 6968SOL    HW232367   3.774   0.886   8.202  1.9212  0.8898 -0.9015
 6969SOL     OW32368   0.683   1.549  16.188 -0.2671  0.2284  0.3807
 6969SOL    HW132369   0.623   1.613  16.150 -1.3845 -0.1308  1.5399
 6969SOL    HW232370   0.649   1.537  16.276  0.0449  0.4865  0.5352
 6970SOL     OW32371   1.478   2.034   2.832 -0.0887  0.1192  0.2184
 6970SOL    HW132372   1.536   2.075   2.896  0.5253  0.0556 -0.3019
 6970SOL    HW232373   1.395   2.080   2.847  0.1957  1.3864 -2.0478
 6971SOL     OW32374   0.727   1.508   3.371  0.0144 -1.4023 -0.1224
 6971SOL    HW132375   0.672   1.475   3.299 -2.7367  2.5823  0.1742
 6971SOL    HW232376   0.791   1.437   3.376  0.4751 -0.9410  0.4842
 6972SOL     OW32377   3.607   1.169  10.818 -0.3203  0.5172  0.2607
 6972SOL    HW132378   3.656   1.215  10.887 -1.1864  0.1496  1.1236
 6972SOL    HW232379   3.589   1.241  10.758  2.4794 -0.0701 -1.2470
 6973SOL     OW32380   2.922   2.958   9.007 -0.0119  0.2550  0.0536
 6973SOL    HW132381   2.921   3.039   9.058 -0.4046  0.6908 -0.6464
 6973SOL    HW232382   3.016   2.938   9.006 -0.0708 -0.0407  0.3758
 6974SOL     OW32383   0.024   1.004   6.130  0.3772 -0.0418  0.5070
 6974SOL    HW132384   0.079   0.979   6.205  0.9872 -0.2351 -0.0089
 6974SOL    HW232385   4.656   0.983   6.158  0.3044 -0.0351  0.2763
 6975SOL     OW32386   0.551   4.487   2.912  0.1086  0.2389  0.1289
 6975SOL    HW132387   0.521   4.429   2.843 -0.3946  1.8049 -0.9764
 6975SOL    HW232388   0.522   4.569   2.872 -2.1750 -0.3096  0.6837
 6976SOL     OW32389   4.397   2.462   4.172 -0.3578  0.2607 -0.6059
 6976SOL    HW132390   4.422   2.377   4.137  1.0816  0.3157  0.2919
 6976SOL    HW232391   4.473   2.519   4.159  0.8090 -1.0508  0.4648
 6977SOL     OW32392   4.242   0.510   0.674 -0.3731 -0.6341 -0.0288
 6977SOL    HW132393   4.157   0.470   0.658 -1.5900  0.9108  2.5450
 6977SOL    HW232394   4.290   0.477   0.598 -0.4885  2.4060 -1.4227
 6978SOL     OW32395   0.308   1.007   7.437 -0.1662 -0.3019  0.3487
 6978SOL    HW132396   0.268   1.016   7.524 -1.8277 -1.6241 -0.2715
 6978SOL    HW232397   0.384   1.064   7.445  0.3358 -0.9118 -0.1182
 6979SOL     OW32398   0.502   2.815   3.595 -0.4608 -0.3889  0.0909
 6979SOL    HW132399   0.483   2.790   3.504  0.5218  5.0721 -1.5852
 6979SOL    HW232400   0.410   2.814   3.622  0.0314 -0.1754  1.7587
 6980SOL     OW32401   2.177   4.313   5.880 -0.5983  0.4175  0.1233
 6980SOL    HW132402   2.125   4.298   5.960 -0.7503 -0.6520 -0.1820
 6980SOL    HW232403   2.172   4.408   5.886  0.2706  0.6297 -2.6520
 6981SOL     OW32404   3.988   3.974   4.762  0.0393 -0.3760 -0.1138
 6981SOL    HW132405   4.041   4.045   4.798 -1.4747  0.3892  0.6072
 6981SOL    HW232406   3.939   4.022   4.696  1.3521  0.8129 -0.2174
 6982SOL     OW32407   0.758   3.465   8.236  0.0834  0.6141  0.1230
 6982SOL    HW132408   0.690   3.513   8.285 -0.0212  0.8348 -0.2396
 6982SOL    HW232409   0.818   3.530   8.200  0.6428 -0.8971 -1.6249
 6983SOL     OW32410   2.912   0.492   7.311 -0.0953 -0.5800 -0.2224
 6983SOL    HW132411   2.867   0.464   7.391 -0.4564 -1.0430 -0.5870
 6983SOL    HW232412   2.998   0.452   7.327  0.4864  1.1116  0.8950
 6984SOL     OW32413   2.697   2.565  15.935 -0.0525 -0.0641 -0.5243
 6984SOL    HW132414   2.655   2.563  16.021  2.4480  0.7666  0.6953
 6984SOL    HW232415   2.664   2.652  15.912 -1.2539  0.1953  2.2514
 6985SOL     OW32416   4.513   3.084   3.004  0.2503 -0.2580  0.1073
 6985SOL    HW132417   4.480   3.169   2.974  5.1240  1.3442 -0.6426
 6985SOL    HW232418   4.436   3.047   3.047  0.3565  0.3946  0.8511
 6986SOL     OW32419   1.636   1.962   3.384  0.2844  0.2398  0.1102
 6986SOL    HW132420   1.623   1.889   3.324 -1.3717  0.1088  0.6262
 6986SOL    HW232421   1.636   2.031   3.317 -3.6439 -0.0020 -0.1778
 6987SOL     OW32422   1.036   1.616   6.734  0.1611 -0.6448 -0.4800
 6987SOL    HW132423   0.986   1.573   6.805  0.8553 -1.8331 -0.7095
 6987SOL    HW232424   1.042   1.704   6.771 -1.7714 -1.9376  2.9538
 6988SOL     OW32425   4.057   2.872  11.423  0.3482  0.0942  0.2267
 6988SOL    HW132426   4.057   2.785  11.381  0.9759  0.6336 -0.8875
 6988SOL    HW232427   4.131   2.911  11.376  1.9358  1.0362  3.5189
 6989SOL     OW32428   3.155   3.937   4.572  0.4933 -0.3674  0.5852
 6989SOL    HW132429   3.188   3.847   4.566  2.2431  0.3851 -1.0524
 6989SOL    HW232430   3.130   3.955   4.482  0.6574  0.1562  0.6477
 6990SOL     OW32431   4.091   1.529  11.199  0.3313  0.4375  0.8887
 6990SOL    HW132432   4.090   1.618  11.164 -0.3300  0.6626  1.4934
 6990SOL    HW232433   4.186   1.514  11.198  0.2399 -0.0517 -0.5393
 6991SOL     OW32434   1.967   3.998  16.744  0.4178  0.6765 -0.4317
 6991SOL    HW132435   2.005   4.078  16.781  1.9294  0.1055 -0.7679
 6991SOL    HW232436   2.002   3.944  16.814  0.1844  0.9862 -0.0751
 6992SOL     OW32437   3.697   1.537   9.923 -0.1475 -0.3355  0.2387
 6992SOL    HW132438   3.666   1.628   9.926 -2.3477 -1.0978  1.1451
 6992SOL    HW232439   3.790   1.551   9.908 -0.6153 -0.5900 -2.8115
 6993SOL     OW32440   3.067   0.550  10.602  0.0014  0.1505  0.0259
 6993SOL    HW132441   3.098   0.519  10.687  0.0391  0.1566  0.0146
 6993SOL    HW232442   3.078   0.470  10.550 -0.5480  0.1912 -0.1476
 6994SOL     OW32443   3.103   2.238   3.415 -0.1222 -0.3545 -0.0862
 6994SOL    HW132444   3.158   2.316   3.426 -0.7658  0.3841 -2.0508
 6994SOL    HW232445   3.133   2.193   3.336 -3.6772 -2.9310  0.0628
 6995SOL     OW32446   1.196   3.166  13.557 -0.4850  0.1941 -0.2262
 6995SOL    HW132447   1.230   3.232  13.496  1.7761  1.9247  2.8716
 6995SOL    HW232448   1.138   3.106  13.510 -2.3133  0.3863  1.7631
 6996SOL     OW32449   3.362   1.908   8.500  0.4471  0.4132  0.4928
 6996SOL    HW132450   3.286   1.879   8.551 -0.9112  1.2821 -1.0246
 6996SOL    HW232451   3.331   1.886   8.412 -1.5335 -0.9465  1.5186
 6997SOL     OW32452   3.078   2.844   5.353  0.5543  0.3999 -0.0281
 6997SOL    HW132453   2.986   2.858   5.333  0.7197  1.1134 -0.2991
 6997SOL    HW232454   3.074   2.890   5.436  1.7149  0.2257  0.1273
 6998SOL     OW32455   3.885   1.269   3.095  0.6761 -0.2339 -0.0755
 6998SOL    HW132456   3.886   1.363   3.077  1.3767 -0.5867 -1.8664
 6998SOL    HW232457   3.923   1.229   3.017 -1.6264 -2.4292 -0.0728
 6999SOL     OW32458   1.867   2.577   8.203 -0.0597  0.0864  0.1768
 6999SOL    HW132459   1.882   2.625   8.285  0.6481  1.8589 -0.9895
 6999SOL    HW232460   1.859   2.649   8.141 -1.2644 -0.0621  0.1569
 7000SOL     OW32461   3.404   1.856   6.323 -0.4366  0.0933  0.2257
 7000SOL    HW132462   3.467   1.784   6.324 -0.8584 -0.2737  0.2301
 7000SOL    HW232463   3.455   1.929   6.359 -1.1075  0.3729  0.6089
 7001SOL     OW32464   1.668   0.935   3.795 -1.2000  0.2961  0.8489
 7001SOL    HW132465   1.729   1.008   3.783 -0.0741 -0.4899  1.7885
 7001SOL    HW232466   1.599   0.942   3.729  0.9680 -0.1705 -1.4438
 7002SOL     OW32467   3.307   4.003  11.371 -0.2588  0.6172  0.2391
 7002SOL    HW132468   3.214   3.985  11.358 -0.4802  1.2123  1.0432
 7002SOL    HW232469   3.315   3.979  11.463 -0.8976  0.1141  0.1643
 7003SOL     OW32470   2.924   3.145   5.374  0.2888 -0.4526 -0.1031
 7003SOL    HW132471   2.912   3.188   5.459 -2.3154  0.3958 -0.9104
 7003SOL    HW232472   2.879   3.062   5.389 -0.8932  0.3352  0.6482
 7004SOL     OW32473   1.448   0.172   9.179 -0.1928  0.6740  0.6152
 7004SOL    HW132474   1.514   0.148   9.114 -1.0272  0.4638 -0.1481
 7004SOL    HW232475   1.494   0.227   9.242  0.7340 -0.5004  0.9612
 7005SOL     OW32476   0.949   0.664   9.275 -0.4127  0.1848  0.0723
 7005SOL    HW132477   0.939   0.574   9.303  3.8043  0.1453  1.3422
 7005SOL    HW232478   0.958   0.650   9.180  1.7101  1.2483  0.1322
 7006SOL     OW32479   4.030   4.017  16.018 -0.1180 -0.3603 -0.3385
 7006SOL    HW132480   4.102   4.053  16.070 -0.1326 -0.2898 -0.3658
 7006SOL    HW232481   3.955   4.001  16.076  0.5676  2.5022  1.3458
 7007SOL     OW32482   2.373   3.369   9.140 -0.1759 -0.0764 -0.3692
 7007SOL    HW132483   2.368   3.374   9.045  0.7022  0.2632 -0.3911
 7007SOL    HW232484   2.396   3.277   9.151 -1.8179 -0.3951  0.5093
 7008SOL     OW32485   2.767   3.201   4.181  0.0294  0.3730  0.2035
 7008SOL    HW132486   2.682   3.214   4.224  0.6394  0.7325  1.2920
 7008SOL    HW232487   2.732   3.148   4.109 -0.3574 -0.0814  0.7295
 7009SOL     OW32488   2.429   0.610   2.879 -0.2638 -0.3344  0.0754
 7009SOL    HW132489   2.491   0.538   2.882 -0.6156 -0.5242  3.1831
 7009SOL    HW232490   2.354   0.554   2.862  0.9793 -2.5297  1.8418
 7010SOL     OW32491   2.107   0.896  17.529  0.1396  0.2029  0.0650
 7010SOL    HW132492   2.023   0.931  17.497  1.6401  1.6703 -2.2814
 7010SOL    HW232493   2.091   0.902  17.623 -0.5574 -0.8866  0.0249
 7011SOL     OW32494   1.760   4.369   4.277 -0.2099  0.0435 -0.0725
 7011SOL    HW132495   1.809   4.340   4.355  0.5523  1.1513 -0.1448
 7011SOL    HW232496   1.724   4.450   4.312 -1.1019 -0.1932 -0.4415
 7012SOL     OW32497   0.627   4.218  17.636 -0.3965 -0.2419  0.4745
 7012SOL    HW132498   0.681   4.184  17.564 -1.5571  2.0853 -1.5234
 7012SOL    HW232499   0.672   4.181   0.023 -1.8779  0.1161  1.5206
 7013SOL     OW32500   2.316   0.613   5.058 -0.3383  0.2937 -0.3202
 7013SOL    HW132501   2.264   0.560   5.119  3.3410 -2.1144  0.6815
 7013SOL    HW232502   2.395   0.560   5.060  0.7688  1.9505 -0.0082
 7014SOL     OW32503   0.974   3.360   9.289  0.2353  0.9230  0.4601
 7014SOL    HW132504   0.905   3.374   9.224  0.8198 -1.4922 -0.6704
 7014SOL    HW232505   1.002   3.271   9.269 -3.2230 -0.2068  0.6088
 7015SOL     OW32506   2.148   2.876   2.898 -0.4389 -0.1182  0.0455
 7015SOL    HW132507   2.194   2.797   2.868  0.2730 -0.0334  0.9253
 7015SOL    HW232508   2.063   2.833   2.907  0.5307 -1.7220  1.5765
 7016SOL     OW32509   3.785   4.045  16.562  0.2890  0.6193  0.0874
 7016SOL    HW132510   3.868   4.055  16.516 -1.2968  3.4353 -2.1279
 7016SOL    HW232511   3.768   4.137  16.581  1.3273  0.6273  0.9511
 7017SOL     OW32512   1.968   3.256  16.642 -0.3847 -0.1136 -0.2569
 7017SOL    HW132513   1.923   3.287  16.721 -1.1591 -0.1701 -0.6759
 7017SOL    HW232514   2.008   3.336  16.610  0.9563 -0.3879  0.7214
 7018SOL     OW32515   4.300   3.549   3.617 -0.1979 -0.4029  0.1317
 7018SOL    HW132516   4.282   3.476   3.558  1.1231 -0.5786 -0.0641
 7018SOL    HW232517   4.387   3.518   3.644 -0.7041 -1.1927  0.8528
 7019SOL     OW32518   2.287   1.294  13.167 -0.0696  0.7547 -0.4095
 7019SOL    HW132519   2.328   1.222  13.216 -0.6217  1.4046  1.0067
 7019SOL    HW232520   2.234   1.338  13.234  0.5318 -0.7857  1.0879
 7020SOL     OW32521   0.144   1.177   8.220 -0.0246  0.1289 -0.4023
 7020SOL    HW132522   0.077   1.234   8.257 -0.7747 -0.4854 -0.8347
 7020SOL    HW232523   0.223   1.216   8.260  0.7470 -0.7019 -1.1206
 7021SOL     OW32524   2.050   2.387  11.654  0.0427 -0.1123  0.4689
 7021SOL    HW132525   1.977   2.414  11.598 -0.3053 -0.8234  0.5802
 7021SOL    HW232526   2.020   2.424  11.736  1.0252  0.2113  0.6871
 7022SOL     OW32527   3.875   2.450   6.339  0.0816  0.2612  0.3877
 7022SOL    HW132528   3.913   2.533   6.370 -2.0547  0.8203  1.5088
 7022SOL    HW232529   3.926   2.443   6.259 -1.6473 -1.1883 -0.5664
 7023SOL     OW32530   2.522   3.170   6.153 -0.1975 -0.1656 -0.0018
 7023SOL    HW132531   2.564   3.099   6.106  3.8438  2.0892  0.1414
 7023SOL    HW232532   2.531   3.152   6.247  0.9372  0.2881 -0.0230
 7024SOL     OW32533   4.082   4.181  13.649 -0.0470  0.1820  0.7605
 7024SOL    HW132534   4.032   4.250  13.604 -2.1776 -1.9455 -0.1273
 7024SOL    HW232535   4.055   4.106  13.597 -1.4212 -1.9244  4.4913
 7025SOL     OW32536   4.226   4.701   1.957 -0.3796  0.1076  0.0677
 7025SOL    HW132537   4.134   0.008   1.963 -0.6351 -0.9965  1.1738
 7025SOL    HW232538   4.271   0.062   1.939 -0.0125 -0.2925 -0.8483
 7026SOL     OW32539   1.857   3.573   3.552  0.1069  0.6729 -0.0194
 7026SOL    HW132540   1.898   3.619   3.625 -0.0169 -1.4949  1.4133
 7026SOL    HW232541   1.856   3.487   3.595 -0.6307  0.1587 -1.0681
 7027SOL     OW32542   2.382   2.150   4.301  0.0040 -0.1850 -0.2156
 7027SOL    HW132543   2.460   2.139   4.248 -0.5289  1.2260 -1.3114
 7027SOL    HW232544   2.347   2.064   4.278 -0.6218 -0.0583  0.2477
 7028SOL     OW32545   2.645   2.647  15.590  0.0146  0.1950 -0.3944
 7028SOL    HW132546   2.635   2.695  15.672  0.7290  0.1124 -0.2619
 7028SOL    HW232547   2.560   2.671  15.553 -1.2437 -0.6322  1.9212
 7029SOL     OW32548   3.834   4.095   5.461 -0.9792  0.1296 -0.3832
 7029SOL    HW132549   3.803   4.185   5.461  1.8411  1.1018  3.0477
 7029SOL    HW232550   3.920   4.102   5.502 -1.1082 -2.0438  0.2814
 7030SOL     OW32551   4.596   0.392  12.389 -0.2405  0.3425 -0.0925
 7030SOL    HW132552   4.624   0.306  12.420  2.4350  1.4465  0.5300
 7030SOL    HW232553   4.633   0.450  12.455  0.4511 -0.1688 -0.0341
 7031SOL     OW32554   2.301   3.473   0.334 -0.9500 -0.6506  0.2493
 7031SOL    HW132555   2.347   3.423   0.401  1.9485 -1.4170 -2.3313
 7031SOL    HW232556   2.223   3.418   0.328 -1.5602  0.4318 -1.9509
 7032SOL     OW32557   0.379   0.150   3.973  0.1893  0.0966  0.7762
 7032SOL    HW132558   0.459   0.098   3.966  0.2303  0.2350  0.2164
 7032SOL    HW232559   0.311   0.083   3.962  1.1715 -0.5939 -0.9731
 7033SOL     OW32560   4.300   4.301  13.476  0.2208  0.4755  0.1052
 7033SOL    HW132561   4.365   4.264  13.535  1.3892 -0.8058 -2.0047
 7033SOL    HW232562   4.226   4.281  13.534  0.5996  1.0010  0.7709
 7034SOL     OW32563   0.926   3.449   3.715  0.4990 -0.2432 -0.4146
 7034SOL    HW132564   0.967   3.371   3.677 -1.0330 -2.5068  2.4911
 7034SOL    HW232565   0.857   3.472   3.653  0.3083 -0.2155 -0.1946
 7035SOL     OW32566   0.247   4.121   0.556  0.3193  0.0555  0.6111
 7035SOL    HW132567   0.321   4.173   0.588 -0.4831  1.1178  0.7342
 7035SOL    HW232568   0.261   4.036   0.598 -0.9477  0.6077  2.1427
 7036SOL     OW32569   3.180   2.895   9.001 -0.5410 -0.3696 -0.2280
 7036SOL    HW132570   3.248   2.948   9.042 -1.3651 -0.6063  1.4231
 7036SOL    HW232571   3.226   2.811   8.999 -0.5019 -0.3681  0.8366
 7037SOL     OW32572   0.578   1.032  13.046 -0.9708  0.3487 -0.0348
 7037SOL    HW132573   0.513   1.100  13.025 -0.9121  0.7657  1.1240
 7037SOL    HW232574   0.618   1.004  12.964 -0.8676  1.7139 -0.4534
 7038SOL     OW32575   2.449   0.093   5.054  0.2481 -0.3408 -0.1063
 7038SOL    HW132576   2.368   0.066   5.011 -0.2949  2.8747 -1.1430
 7038SOL    HW232577   2.416   0.156   5.118  1.6758  1.3621 -1.0330
 7039SOL     OW32578   4.148   4.143  13.297  0.0865 -0.0529  0.5581
 7039SOL    HW132579   4.144   4.061  13.346  0.0040 -0.7678 -0.6469
 7039SOL    HW232580   4.215   4.190  13.348 -0.3479  0.0412  1.0411
 7040SOL     OW32581   4.457   0.387   3.828  0.5633 -0.2502 -0.6344
 7040SOL    HW132582   4.499   0.387   3.742  1.6553  2.1621 -0.1101
 7040SOL    HW232583   4.526   0.404   3.891 -0.4685  1.3638  0.0544
 7041SOL     OW32584   0.786   1.974   8.928 -0.5075 -0.0134 -0.3237
 7041SOL    HW132585   0.791   1.897   8.983 -0.7233  0.3419  0.1889
 7041SOL    HW232586   0.879   1.995   8.929 -1.0061  2.0862  2.0350
 7042SOL     OW32587   2.450   4.158  10.814 -0.1909  0.3322  0.4160
 7042SOL    HW132588   2.539   4.142  10.845  0.6210  0.0620 -2.0952
 7042SOL    HW232589   2.397   4.168  10.894 -1.0131  1.5923 -0.2918
 7043SOL     OW32590   1.160   3.377   7.933  0.4374  0.0427  0.0617
 7043SOL    HW132591   1.243   3.422   7.921 -0.6003  1.4651 -1.8264
 7043SOL    HW232592   1.180   3.326   8.011  1.3303  0.1185 -0.1245
 7044SOL     OW32593   4.490   0.607   4.133  0.0437  0.6461  0.4255
 7044SOL    HW132594   4.509   0.589   4.225 -0.8140 -0.9818  0.2755
 7044SOL    HW232595   4.570   0.587   4.085  0.5060 -0.7128  1.7470
 7045SOL     OW32596   3.554   3.382  16.748 -0.2068 -0.3858 -0.4729
 7045SOL    HW132597   3.580   3.329  16.673  0.7676 -0.3485 -0.1635
 7045SOL    HW232598   3.476   3.333  16.774  0.3200 -0.9956 -0.0276
 7046SOL     OW32599   4.339   3.406   9.257  0.1574 -0.1197  0.0248
 7046SOL    HW132600   4.370   3.488   9.218  0.7049 -0.8059 -0.9903
 7046SOL    HW232601   4.389   3.340   9.208 -0.4134 -0.1462 -0.5161
 7047SOL     OW32602   0.980   0.621   4.360 -0.4400  0.3850  0.3534
 7047SOL    HW132603   0.892   0.628   4.398  0.9138  3.2021  2.9732
 7047SOL    HW232604   0.983   0.542   4.306 -0.9052 -0.6067  1.7677
 7048SOL     OW32605   1.790   0.233   7.098 -0.0463  0.4105  0.2815
 7048SOL    HW132606   1.862   0.169   7.092 -0.4003 -0.2588  3.6748
 7048SOL    HW232607   1.794   0.249   7.192 -2.2491 -0.2794  0.4713
 7049SOL     OW32608   1.351   4.480  14.897  0.1267  0.3742  0.2135
 7049SOL    HW132609   1.401   4.493  14.816  0.9113  1.2602  0.8319
 7049SOL    HW232610   1.419   4.482  14.965 -0.7847 -0.6902  1.1500
 7050SOL     OW32611   3.999   4.266   4.247  0.2621  0.6882 -0.3278
 7050SOL    HW132612   4.055   4.232   4.177 -0.5589  0.6686 -0.9751
 7050SOL    HW232613   3.943   4.188   4.245  1.0642 -0.0179  4.5479
 7051SOL     OW32614   0.514   2.137  12.907 -0.3172 -0.0832  0.4038
 7051SOL    HW132615   0.456   2.144  12.983  0.2118  1.6241  0.6370
 7051SOL    HW232616   0.509   2.226  12.873 -0.8411 -0.3589 -0.2634
 7052SOL     OW32617   0.521   4.312  14.626 -0.2199  0.0121 -0.2027
 7052SOL    HW132618   0.469   4.393  14.630  0.0529  0.2998 -2.3930
 7052SOL    HW232619   0.505   4.286  14.716  0.7110 -1.7870 -0.5572
 7053SOL     OW32620   3.648   3.939  13.690 -0.0620 -0.0504  0.0524
 7053SOL    HW132621   3.645   4.000  13.616 -0.8695 -0.2246 -0.0592
 7053SOL    HW232622   3.570   3.886  13.670 -0.0412 -0.9872  2.5177
 7054SOL     OW32623   3.400   1.254   7.332 -0.2144 -0.0504 -0.5795
 7054SOL    HW132624   3.355   1.304   7.400 -2.3815 -1.2791 -1.1066
 7054SOL    HW232625   3.489   1.276   7.360 -0.2634  0.4839 -0.8461
 7055SOL     OW32626   2.583   2.484   3.243  0.0950  0.0547  0.1224
 7055SOL    HW132627   2.559   2.518   3.156  0.6273 -0.7403 -0.3337
 7055SOL    HW232628   2.582   2.567   3.290 -1.7791 -0.2826  0.6510
 7056SOL     OW32629   4.680   4.176   7.396 -0.6404 -0.3108  0.0863
 7056SOL    HW132630   4.625   4.154   7.471 -0.8284  4.3402  1.3092
 7056SOL    HW232631   0.025   4.231   7.436 -0.6163  0.5355 -1.1013
 7057SOL     OW32632   3.973   3.602   6.511 -0.3461 -0.3461  0.1443
 7057SOL    HW132633   3.893   3.636   6.471 -0.0201  0.1361 -0.0855
 7057SOL    HW232634   4.027   3.673   6.544 -1.4321  1.3994 -1.8617
 7058SOL     OW32635   2.113   0.469  10.679 -0.1131  0.3458 -0.4430
 7058SOL    HW132636   2.160   0.546  10.647  0.9190  0.0091  0.2652
 7058SOL    HW232637   2.054   0.458  10.605 -0.2805  0.2569 -0.2971
 7059SOL     OW32638   2.055   3.710  15.277  0.0300  0.1335  0.9189
 7059SOL    HW132639   2.068   3.797  15.316  1.6624 -0.4587  1.6927
 7059SOL    HW232640   1.965   3.694  15.307 -0.5795  1.3690 -0.2702
 7060SOL     OW32641   3.151   0.757   8.798 -0.3309  0.3253  0.2521
 7060SOL    HW132642   3.111   0.714   8.874 -0.5562  0.8851  0.4531
 7060SOL    HW232643   3.199   0.827   8.842  0.3583 -0.6653  1.0378
 7061SOL     OW32644   4.415   0.360   1.607 -0.0250  0.2588  0.4656
 7061SOL    HW132645   4.355   0.316   1.668  0.4051 -0.0257  0.6810
 7061SOL    HW232646   4.498   0.316   1.626 -0.3603  1.0233  3.7914
 7062SOL     OW32647   4.043   1.085   8.457  0.2657 -0.2401  0.1774
 7062SOL    HW132648   4.088   1.149   8.512  0.9938  1.0712 -1.9245
 7062SOL    HW232649   4.110   1.074   8.390  0.7965 -1.8364  0.9783
 7063SOL     OW32650   2.404   2.497   3.806 -0.2622 -0.0445  0.4241
 7063SOL    HW132651   2.430   2.425   3.865 -0.3727 -1.0489 -0.7489
 7063SOL    HW232652   2.310   2.511   3.811 -0.0762  0.4403  2.7306
 7064SOL     OW32653   3.204   3.836   9.572 -0.1741 -0.3334  0.1852
 7064SOL    HW132654   3.195   3.891   9.651  0.6501 -2.4482  1.7534
 7064SOL    HW232655   3.298   3.833   9.555 -0.4051 -0.6752 -1.0019
 7065SOL     OW32656   1.518   1.109   8.159  0.9969  0.7631 -0.6824
 7065SOL    HW132657   1.555   1.083   8.243 -1.0259  1.1137  0.3082
 7065SOL    HW232658   1.467   1.034   8.129  0.9301  0.1553  0.9446
 7066SOL     OW32659   2.143   4.363  15.508  0.6336  0.2419 -0.7945
 7066SOL    HW132660   2.235   4.337  15.503  0.8779  0.5204  1.8448
 7066SOL    HW232661   2.121   4.375  15.416 -0.3014  0.1556 -0.5863
 7067SOL     OW32662   0.124   3.165   0.361 -0.3360 -0.5987  0.1375
 7067SOL    HW132663   0.186   3.135   0.427  0.9417  0.6172 -0.5308
 7067SOL    HW232664   0.124   3.260   0.374  1.6274 -0.2936 -2.2391
 7068SOL     OW32665   3.559   1.809   8.675 -0.0883  0.2465  0.1998
 7068SOL    HW132666   3.564   1.834   8.768 -1.8799  0.3075  0.2689
 7068SOL    HW232667   3.497   1.871   8.637 -1.3881 -1.0787  0.1723
 7069SOL     OW32668   3.613   2.197   5.407  0.6640  0.0677  0.4701
 7069SOL    HW132669   3.657   2.202   5.322 -2.2450  0.8863 -0.9581
 7069SOL    HW232670   3.674   2.254   5.454  1.0308  1.0907 -1.2411
 7070SOL     OW32671   1.824   3.318  16.208 -0.1420 -0.2821 -0.7335
 7070SOL    HW132672   1.752   3.380  16.213 -0.3461 -0.6334  0.7232
 7070SOL    HW232673   1.894   3.383  16.207 -0.1268 -0.2995 -0.8063
 7071SOL     OW32674   0.465   2.253   5.081  0.1743 -0.3106 -0.0033
 7071SOL    HW132675   0.381   2.236   5.124 -0.6764 -0.9611 -1.9322
 7071SOL    HW232676   0.522   2.253   5.158  0.3539  0.8943 -0.1401
 7072SOL     OW32677   3.090   2.495   3.832 -0.1554  0.5979 -0.3219
 7072SOL    HW132678   3.173   2.450   3.820 -0.9010 -0.7080 -0.6154
 7072SOL    HW232679   3.099   2.555   3.757 -0.7819  1.0169 -0.0651
 7073SOL     OW32680   4.643   3.421  15.598 -0.5584 -0.3666 -0.6663
 7073SOL    HW132681   4.615   3.396  15.510 -0.3711  1.2537 -1.1892
 7073SOL    HW232682   4.557   3.440  15.636 -0.5660  2.0037 -1.8516
 7074SOL     OW32683   4.411   1.390   8.386  0.5333  0.0046  0.2828
 7074SOL    HW132684   4.437   1.482   8.398 -0.2389  0.2766 -0.1291
 7074SOL    HW232685   4.374   1.386   8.298  0.6070 -0.4588  0.2727
 7075SOL     OW32686   0.615   1.784   2.503 -0.2887 -0.1841  0.5543
 7075SOL    HW132687   0.584   1.784   2.594  0.9078  2.2037  0.9634
 7075SOL    HW232688   0.567   1.711   2.464  0.3404 -0.5587  0.4926
 7076SOL     OW32689   1.676   0.251  15.196 -0.8767  0.2005 -0.3038
 7076SOL    HW132690   1.740   0.201  15.144 -0.4473  1.9339 -1.4315
 7076SOL    HW232691   1.635   0.314  15.137 -1.1416 -0.7999 -1.1864
 7077SOL     OW32692   2.776   2.489  13.645 -0.1482  0.2313 -0.1650
 7077SOL    HW132693   2.806   2.553  13.580 -2.6073  1.2847 -0.2420
 7077SOL    HW232694   2.860   2.448  13.667 -1.2443 -1.8922  0.0833
 7078SOL     OW32695   3.984   2.955   8.470 -0.6577 -0.2029 -0.5374
 7078SOL    HW132696   3.909   3.005   8.438  0.2167  1.3279 -0.1865
 7078SOL    HW232697   4.062   2.983   8.421 -0.5833  2.7006  1.2481
 7079SOL     OW32698   2.344   2.795   5.768 -0.7531  0.0801 -0.3285
 7079SOL    HW132699   2.358   2.743   5.689  0.2849 -1.2721  0.7518
 7079SOL    HW232700   2.352   2.730   5.837  0.0401  0.9198  0.3622
 7080SOL     OW32701   2.663   3.361  10.436 -0.6156 -0.6074 -0.4099
 7080SOL    HW132702   2.717   3.407  10.500 -0.6327 -0.2156 -0.6748
 7080SOL    HW232703   2.590   3.332  10.491 -1.3229 -0.6434 -1.3583
 7081SOL     OW32704   2.036   1.473   5.493  0.1196  0.6246  0.3688
 7081SOL    HW132705   1.949   1.487   5.458 -0.5113  1.1192  2.1490
 7081SOL    HW232706   2.078   1.450   5.410  1.7065  0.8007  1.1234
 7082SOL     OW32707   4.209   3.562   6.206 -0.5501  0.2578  0.7912
 7082SOL    HW132708   4.260   3.614   6.143 -1.6957 -0.3924 -0.6577
 7082SOL    HW232709   4.128   3.613   6.205  0.0623  1.2203  0.2621
 7083SOL     OW32710   3.029   2.420   4.899 -0.1350 -0.1623 -0.1465
 7083SOL    HW132711   2.989   2.438   4.984  1.2682 -0.9305  0.6639
 7083SOL    HW232712   2.965   2.461   4.841  0.8997 -1.1813 -2.0063
 7084SOL     OW32713   1.315   0.475   2.622 -0.3481 -0.6627  0.0332
 7084SOL    HW132714   1.254   0.405   2.644 -3.1776  1.4485 -1.0128
 7084SOL    HW232715   1.253   0.536   2.583 -0.1926  0.3029  1.2694
 7085SOL     OW32716   1.819   0.591  11.180  0.7345 -0.6252 -0.1309
 7085SOL    HW132717   1.755   0.550  11.238  2.3055 -0.2442  1.8761
 7085SOL    HW232718   1.905   0.558  11.208  0.5918 -0.3315  0.6456
 7086SOL     OW32719   3.930   0.243   6.971 -0.0904 -0.2307 -0.4740
 7086SOL    HW132720   3.886   0.324   6.996 -1.6535 -0.8361 -1.2076
 7086SOL    HW232721   3.920   0.236   6.876  0.5114 -3.0841 -0.3435
 7087SOL     OW32722   4.650   1.339   6.864 -0.1677  0.3508 -0.6710
 7087SOL    HW132723   4.586   1.407   6.843 -0.5794  0.5355  1.1916
 7087SOL    HW232724   4.610   1.263   6.821 -2.0265  0.3204  1.1656
 7088SOL     OW32725   1.749   0.678   2.714  0.3690 -0.4601  0.1303
 7088SOL    HW132726   1.664   0.716   2.689  0.8924  1.2389  0.9197
 7088SOL    HW232727   1.727   0.585   2.718  0.1431 -0.5204 -2.5000
 7089SOL     OW32728   2.524   2.990   6.989  0.0785 -0.0035  0.1611
 7089SOL    HW132729   2.553   2.898   6.985 -4.7183 -1.4510 -0.4544
 7089SOL    HW232730   2.435   2.975   7.019 -0.2934  3.0966  0.5593
 7090SOL     OW32731   4.573   2.613  12.000  0.3451 -0.7753  0.9953
 7090SOL    HW132732   4.606   2.700  11.978 -1.5314 -0.2041  0.4619
 7090SOL    HW232733   4.485   2.607  11.963  1.4399 -0.0194 -1.7316
 7091SOL     OW32734   4.402   4.112   1.562 -0.2706 -0.0420  0.1069
 7091SOL    HW132735   4.482   4.064   1.539  0.6744  0.9356  1.3382
 7091SOL    HW232736   4.424   4.195   1.521 -0.6905 -0.0878 -0.2048
 7092SOL     OW32737   3.547   0.940   3.255  0.3320 -0.1381  0.0828
 7092SOL    HW132738   3.579   1.025   3.288  0.7005 -0.2296 -0.0440
 7092SOL    HW232739   3.524   0.949   3.163 -0.8631 -0.0301  0.3948
 7093SOL     OW32740   3.395   0.916   3.483 -0.0663 -0.2859  0.5067
 7093SOL    HW132741   3.432   0.991   3.435  0.6527 -0.9281  0.0512
 7093SOL    HW232742   3.455   0.850   3.449 -0.1051 -0.7185  1.2831
 7094SOL     OW32743   4.524   3.795   5.574 -0.0598  0.3177 -0.2778
 7094SOL    HW132744   4.472   3.799   5.655 -0.7784 -1.3037 -0.6647
 7094SOL    HW232745   4.475   3.731   5.522  1.0074 -1.3674  0.7967
 7095SOL     OW32746   2.152   3.385   7.791 -0.0718 -0.9876 -0.2540
 7095SOL    HW132747   2.090   3.315   7.808  0.1072 -1.0041  0.3324
 7095SOL    HW232748   2.110   3.466   7.822  2.8558  0.8859 -1.0736
 7096SOL     OW32749   2.428   2.282   7.244  0.5539  0.1532 -0.2060
 7096SOL    HW132750   2.383   2.231   7.311 -1.0151  1.4054 -0.3064
 7096SOL    HW232751   2.440   2.216   7.176  0.3310  0.2236 -0.3133
 7097SOL     OW32752   2.333   2.123  16.680 -0.2306  0.4468 -0.4487
 7097SOL    HW132753   2.285   2.040  16.683 -2.7952  1.8551 -2.3253
 7097SOL    HW232754   2.329   2.153  16.589 -1.9912  1.9208  0.1055
 7098SOL     OW32755   0.707   0.853  16.250 -0.2894  0.4744 -0.1309
 7098SOL    HW132756   0.788   0.879  16.207  0.0988  1.9627  1.5518
 7098SOL    HW232757   0.718   0.899  16.333  1.5796 -1.1444  0.5172
 7099SOL     OW32758   0.722   4.444   4.260  0.1567  0.8450 -0.0490
 7099SOL    HW132759   0.711   4.417   4.351 -0.6372  2.0558  0.2160
 7099SOL    HW232760   0.628   4.437   4.241  0.2519  2.8681 -1.2786
 7100SOL     OW32761   1.983   4.021   0.156  0.0191 -0.6275 -0.2544
 7100SOL    HW132762   1.942   4.102   0.186  2.6543  0.5293  0.2338
 7100SOL    HW232763   2.053   4.063   0.106  0.1126 -1.2871 -0.6887
 7101SOL     OW32764   4.526   2.118   6.893  0.1296 -0.0079  0.1421
 7101SOL    HW132765   4.570   2.070   6.964  2.9063  0.5099 -1.2310
 7101SOL    HW232766   4.437   2.099   6.920 -0.0204 -0.5821 -0.7515
 7102SOL     OW32767   3.489   3.449   7.482  0.1602 -0.6563  0.0685
 7102SOL    HW132768   3.569   3.499   7.496  0.3518 -1.4684  1.8792
 7102SOL    HW232769   3.427   3.522   7.479  0.0352 -0.7867 -0.5441
 7103SOL     OW32770   1.290   2.518   7.953  0.0771  0.1920 -0.3319
 7103SOL    HW132771   1.217   2.579   7.953  1.7485  2.1753 -0.4099
 7103SOL    HW232772   1.254   2.438   7.913 -1.9952  0.4042  1.1477
 7104SOL     OW32773   1.434   0.848   3.570 -0.2564 -0.0145 -0.2792
 7104SOL    HW132774   1.439   0.787   3.496 -0.6814  0.7226 -0.9152
 7104SOL    HW232775   1.360   0.807   3.615  0.4149 -1.7089 -0.6996
 7105SOL     OW32776   4.289   4.301   6.373  0.2720  0.1595  0.1947
 7105SOL    HW132777   4.287   4.259   6.287  3.5545  1.0212 -0.3036
 7105SOL    HW232778   4.380   4.328   6.382 -0.3744  2.6562 -0.6966
 7106SOL     OW32779   3.504   0.388  11.345  0.3275 -0.1143 -0.7419
 7106SOL    HW132780   3.510   0.312  11.287 -0.8319 -1.0084  0.3202
 7106SOL    HW232781   3.577   0.435  11.304  1.1931  0.2202  1.1797
 7107SOL     OW32782   4.448   2.509  12.748 -0.3871 -0.1594 -0.4312
 7107SOL    HW132783   4.387   2.557  12.805 -0.8761  0.1150 -1.1829
 7107SOL    HW232784   4.393   2.524  12.671 -0.7987 -0.0210 -0.1100
 7108SOL     OW32785   4.506   1.987  16.516  0.0829  0.4043 -0.0779
 7108SOL    HW132786   4.525   1.913  16.573 -0.8438  0.8407  0.8066
 7108SOL    HW232787   4.418   1.963  16.488  0.5605  0.1819 -1.4132
 7109SOL     OW32788   3.562   3.444   1.087  0.3100 -0.5130  0.2465
 7109SOL    HW132789   3.628   3.426   1.153  0.8537  0.1219 -0.1158
 7109SOL    HW232790   3.523   3.525   1.121  1.6233  0.1287  0.2148
 7110SOL     OW32791   1.167   2.140   5.771  0.1706  0.2604 -0.3828
 7110SOL    HW132792   1.204   2.090   5.844  2.5356  0.5989 -1.3396
 7110SOL    HW232793   1.209   2.223   5.793  1.0509 -0.3705  0.3189
 7111SOL     OW32794   0.987   1.947   6.026  0.6003  0.2310  0.0238
 7111SOL    HW132795   1.067   1.996   6.042  1.0737 -0.7159  0.5501
 7111SOL    HW232796   0.950   2.006   5.960 -1.6963 -0.7383  0.4515
 7112SOL     OW32797   2.625   1.342   8.885  0.7796 -0.3157  0.8496
 7112SOL    HW132798   2.564   1.303   8.821  2.1189 -1.5931  0.3423
 7112SOL    HW232799   2.700   1.284   8.902  0.9128 -0.6635 -0.9422
 7113SOL     OW32800   1.908   3.172  14.149 -0.1222  0.2401 -0.4646
 7113SOL    HW132801   1.927   3.098  14.206  1.1564  0.0238 -1.1677
 7113SOL    HW232802   1.970   3.236  14.185 -0.3888  0.6208 -0.6897
 7114SOL     OW32803   0.917   4.035   5.201 -0.2384 -0.1477  0.1556
 7114SOL    HW132804   0.822   4.044   5.190 -0.6121  1.2054  4.2388
 7114SOL    HW232805   0.957   4.057   5.118 -0.0170 -1.6896 -0.1545
 7115SOL     OW32806   3.640   1.342   5.850  0.3750 -0.1974  0.7497
 7115SOL    HW132807   3.660   1.255   5.815  0.0360  0.1262 -0.2103
 7115SOL    HW232808   3.665   1.390   5.772 -0.9522  1.0870  1.1304
 7116SOL     OW32809   3.266   2.886   4.527 -0.4068  0.3469  0.2584
 7116SOL    HW132810   3.284   2.979   4.509 -2.5407  0.6586 -0.3308
 7116SOL    HW232811   3.316   2.875   4.608 -2.1549 -3.2139  0.8564
 7117SOL     OW32812   1.685   2.255   9.740 -0.5152 -0.1535  0.5471
 7117SOL    HW132813   1.702   2.175   9.689 -2.6482  0.9868 -1.9496
 7117SOL    HW232814   1.745   2.243   9.813  0.7358 -0.9341 -0.5857
 7118SOL     OW32815   0.906   3.083   8.665 -0.2407 -0.0389  0.0360
 7118SOL    HW132816   0.985   3.028   8.668 -0.3141 -0.0874  1.1183
 7118SOL    HW232817   0.943   3.170   8.655 -1.2202  0.6962  2.9441
 7119SOL     OW32818   4.288   2.774  16.695  0.0431  0.0580 -0.5590
 7119SOL    HW132819   4.284   2.734  16.781 -0.8947  2.0920  0.3330
 7119SOL    HW232820   4.283   2.693  16.644 -2.2571  0.1302 -0.4713
 7120SOL     OW32821   2.870   4.675   2.251  0.2888  0.2253  0.3122
 7120SOL    HW132822   2.956   4.649   2.283  0.8279  1.0265 -0.4872
 7120SOL    HW232823   2.821   4.636   2.323 -0.7765  1.3294  0.1721
 7121SOL     OW32824   2.515   0.264   9.516 -0.3506  0.1361  0.1071
 7121SOL    HW132825   2.429   0.225   9.503 -0.3822 -0.1072  1.0335
 7121SOL    HW232826   2.571   0.230   9.445  0.1831 -1.1446  1.1369
 7122SOL     OW32827   2.421   2.541   7.993 -0.3823  0.0485 -0.4907
 7122SOL    HW132828   2.342   2.527   8.044  0.8444  0.3617  1.4679
 7122SOL    HW232829   2.374   2.573   7.915 -0.3413 -2.6247 -1.6162
 7123SOL     OW32830   3.116   0.190  17.655 -0.4086 -0.1453 -0.0047
 7123SOL    HW132831   3.055   0.134   0.015  0.6163  1.5783  3.3179
 7123SOL    HW232832   3.063   0.270  17.656  0.6712  0.5373  1.7198
 7124SOL     OW32833   2.933   1.270  14.919 -0.4247 -0.0025 -0.2526
 7124SOL    HW132834   2.945   1.232  14.832 -1.6895  0.4284 -0.6098
 7124SOL    HW232835   2.964   1.211  14.988 -2.3755 -1.6248 -0.7690
 7125SOL     OW32836   0.153   1.157   7.931  0.1382  0.1097 -0.3385
 7125SOL    HW132837   0.158   1.166   8.026  0.8007 -1.2790 -0.2527
 7125SOL    HW232838   0.242   1.132   7.908 -0.1035 -2.1997  1.3203
 7126SOL     OW32839   1.961   0.317   7.807 -0.6132  0.2809  0.5240
 7126SOL    HW132840   1.881   0.318   7.860 -1.9380  1.0210 -1.4759
 7126SOL    HW232841   1.991   0.407   7.815  1.4150 -0.4380  0.8761
 7127SOL     OW32842   3.370   0.445   8.132  0.6244 -0.0704  0.3882
 7127SOL    HW132843   3.345   0.353   8.141  0.8183 -0.1101  0.5103
 7127SOL    HW232844   3.381   0.466   8.224  0.6485 -3.0715  1.0777
 7128SOL     OW32845   1.392   3.503   7.785  0.0048 -0.2484 -0.0490
 7128SOL    HW132846   1.408   3.441   7.713 -1.9592 -2.5824  1.5056
 7128SOL    HW232847   1.334   3.562   7.737 -1.5172 -1.4507  0.2839
 7129SOL     OW32848   3.529   1.920   4.816 -0.6698  0.3989 -0.5459
 7129SOL    HW132849   3.522   1.977   4.892 -0.8572  0.7881 -0.8550
 7129SOL    HW232850   3.598   1.970   4.773  1.6413 -2.0385  0.3470
 7130SOL     OW32851   1.316   2.388  10.176 -0.1342 -0.7169  0.0255
 7130SOL    HW132852   1.344   2.297  10.188  0.0385 -0.5675  0.8012
 7130SOL    HW232853   1.331   2.422  10.265  0.0193  0.5009 -0.4704
 7131SOL     OW32854   0.316   1.121  14.962  0.4997 -0.0293 -0.4452
 7131SOL    HW132855   0.343   1.164  14.881  0.1986  0.4272 -0.2980
 7131SOL    HW232856   0.277   1.042  14.924  0.0691  1.0851 -2.2886
 7132SOL     OW32857   3.108   4.332   0.097 -0.1618 -0.5424 -0.5260
 7132SOL    HW132858   3.059   4.264   0.143  0.2467 -0.6926 -0.3138
 7132SOL    HW232859   3.140   4.381   0.172 -1.1420 -1.1697  0.3013
 7133SOL     OW32860   2.477   4.124   2.726  0.5450  0.1599 -0.1345
 7133SOL    HW132861   2.498   4.037   2.693  0.7112 -0.3115  1.2131
 7133SOL    HW232862   2.460   4.178   2.649  3.1071  1.0444 -0.0793
 7134SOL     OW32863   1.160   3.169  10.992  0.1230 -0.2492  0.0135
 7134SOL    HW132864   1.206   3.091  11.022  2.7898  1.4878  0.3700
 7134SOL    HW232865   1.232   3.229  10.973  0.3231 -0.3067  0.5975
 7135SOL     OW32866   1.528   4.167  11.352  1.0513 -0.3003  0.5256
 7135SOL    HW132867   1.555   4.089  11.401 -0.3095 -0.9493  0.2575
 7135SOL    HW232868   1.543   4.236  11.415 -1.3415  1.0424 -0.3671
 7136SOL     OW32869   2.339   4.363  17.657  0.0221 -0.0202  0.4215
 7136SOL    HW132870   2.342   4.458  17.646  1.3393  0.2641  3.1614
 7136SOL    HW232871   2.416   4.351   0.024  0.2458 -2.7736 -0.4881
 7137SOL     OW32872   2.153   4.627   1.731  0.4690  0.1381 -0.1798
 7137SOL    HW132873   2.135   4.627   1.637 -0.6835  1.6601  0.0540
 7137SOL    HW232874   2.064   4.627   1.765 -0.0229 -0.0024 -1.4917
 7138SOL     OW32875   0.211   2.043  13.215 -0.0363  0.0996  0.3543
 7138SOL    HW132876   0.143   1.975  13.222 -0.9147  0.9738  0.3354
 7138SOL    HW232877   0.285   1.987  13.238  1.3639  1.9450  0.2839
 7139SOL     OW32878   1.500   3.952   1.574 -0.2894  0.6098  0.5249
 7139SOL    HW132879   1.435   4.022   1.574 -0.8942  0.0426 -4.0556
 7139SOL    HW232880   1.543   3.974   1.492 -0.1160 -0.4381  0.3377
 7140SOL     OW32881   2.811   4.211  11.882 -0.1731 -0.6022  0.2822
 7140SOL    HW132882   2.873   4.263  11.934 -1.9564  0.2066  1.5961
 7140SOL    HW232883   2.731   4.261  11.898 -0.8473 -1.7075  0.3353
 7141SOL     OW32884   4.025   2.518   7.496  0.1028 -0.1860 -0.4704
 7141SOL    HW132885   4.082   2.590   7.524 -0.9312  1.2047 -1.9446
 7141SOL    HW232886   4.007   2.488   7.585  0.7422  1.6116  0.2686
 7142SOL     OW32887   3.626   2.425  10.594  0.0851 -0.2003 -0.3959
 7142SOL    HW132888   3.601   2.438  10.686  1.1985  1.5719 -0.3442
 7142SOL    HW232889   3.717   2.399  10.604  0.4928  1.9280  1.5789
 7143SOL     OW32890   4.280   1.690   6.876  0.0524 -0.4520 -0.1016
 7143SOL    HW132891   4.367   1.670   6.911  0.2806  1.0415  0.1884
 7143SOL    HW232892   4.229   1.633   6.934 -0.1616  0.7166  0.8730
 7144SOL     OW32893   4.538   2.858   2.738  0.0805 -0.0932  0.2373
 7144SOL    HW132894   4.523   2.785   2.679 -4.4797 -0.5686  1.9753
 7144SOL    HW232895   4.487   2.833   2.814 -4.1000 -2.0005 -3.2478
 7145SOL     OW32896   4.494   1.669  10.196 -0.1770 -0.3309 -0.1696
 7145SOL    HW132897   4.527   1.735  10.135 -0.3111  0.7584  0.9423
 7145SOL    HW232898   4.555   1.596  10.209 -1.6806 -1.3529  1.1207
 7146SOL     OW32899   1.661   2.067   7.939 -0.1453 -0.1200  0.1399
 7146SOL    HW132900   1.753   2.071   7.964 -0.7396 -0.2487  2.3399
 7146SOL    HW232901   1.625   2.142   7.985  0.7931  0.4724 -0.0850
 7147SOL     OW32902   2.298   3.138   3.818  0.6209 -0.0977  0.2201
 7147SOL    HW132903   2.243   3.217   3.812 -0.7023 -1.0690 -0.4316
 7147SOL    HW232904   2.387   3.166   3.799  1.0070 -0.6135  1.2558
 7148SOL     OW32905   3.329   2.578   4.113 -0.0618 -0.0461 -0.1685
 7148SOL    HW132906   3.258   2.537   4.162  0.2668 -1.5364 -0.9302
 7148SOL    HW232907   3.411   2.540   4.145 -0.1444 -0.2963 -0.2586
 7149SOL     OW32908   0.383   4.533   4.337  0.3390  0.2921  0.5570
 7149SOL    HW132909   0.439   4.595   4.383  2.8080 -1.5894  0.0876
 7149SOL    HW232910   0.326   4.501   4.408 -0.4236  0.2608 -0.0714
 7150SOL     OW32911   1.595   0.361  10.480  0.2258  0.0962 -0.2767
 7150SOL    HW132912   1.557   0.303  10.546 -0.2556 -2.1121 -2.4997
 7150SOL    HW232913   1.638   0.413  10.548  3.6420  0.7436 -2.9454
 7151SOL     OW32914   1.984   0.382   5.363 -0.0192 -0.1707 -0.6529
 7151SOL    HW132915   2.016   0.324   5.432 -2.1046 -0.3555  0.1611
 7151SOL    HW232916   2.060   0.413   5.314  0.3490  0.9248  0.5944
 7152SOL     OW32917   2.914   4.429  13.749 -0.1821  0.1163 -0.0401
 7152SOL    HW132918   2.821   4.451  13.745 -0.4473 -0.7983  1.3127
 7152SOL    HW232919   2.915   4.337  13.725 -0.7911 -0.2838  1.4881
 7153SOL     OW32920   3.594   3.623   6.444 -0.0261 -0.3478 -0.6099
 7153SOL    HW132921   3.544   3.541   6.446 -1.5186  0.6090  1.4057
 7153SOL    HW232922   3.665   3.606   6.382 -0.1061 -0.7793 -0.5802
 7154SOL     OW32923   0.723   3.984  12.901 -0.1792  0.3205 -0.1965
 7154SOL    HW132924   0.812   3.980  12.866  0.9217  0.5072  2.6230
 7154SOL    HW232925   0.740   4.013  12.990  1.5137 -0.7478 -0.1868
 7155SOL     OW32926   2.139   3.628   0.021 -0.2251  0.0710  0.2924
 7155SOL    HW132927   2.149   3.649  17.617  0.6818  0.4408  0.4745
 7155SOL    HW232928   2.200   3.554   0.024 -1.1298 -0.6340  1.3084
 7156SOL     OW32929   4.191   4.630   6.597  0.0550 -0.0511  0.1869
 7156SOL    HW132930   4.123   4.576   6.556 -1.2808 -1.1435  3.8440
 7156SOL    HW232931   4.224   4.677   6.521 -0.5275 -0.4309 -0.2982
 7157SOL     OW32932   1.616   0.990  14.411  0.1763  0.3173  0.0561
 7157SOL    HW132933   1.689   1.040  14.447  0.0606  1.0605 -0.7419
 7157SOL    HW232934   1.614   1.029  14.323 -0.7285 -0.1711 -0.1439
 7158SOL     OW32935   4.629   0.220   9.217  0.0661  0.2846 -0.0828
 7158SOL    HW132936   4.684   0.263   9.283  0.8954  1.4807 -1.5853
 7158SOL    HW232937   4.585   0.293   9.175  1.0685 -0.0403 -1.6812
 7159SOL     OW32938   0.416   1.217   9.736 -0.0757 -0.0727 -0.4328
 7159SOL    HW132939   0.387   1.306   9.758  0.9465  0.2024 -0.1922
 7159SOL    HW232940   0.439   1.181   9.822 -1.5008  0.8221  0.3303
 7160SOL     OW32941   0.697   1.735  10.817 -0.4066 -0.4309  0.2453
 7160SOL    HW132942   0.702   1.753  10.911  0.7133 -0.0937  0.1207
 7160SOL    HW232943   0.664   1.818  10.784 -2.4439 -0.2680  2.7521
 7161SOL     OW32944   2.494   1.775   4.680  0.0694  0.5140  0.3553
 7161SOL    HW132945   2.420   1.824   4.717 -0.4004 -0.0434  0.1552
 7161SOL    HW232946   2.511   1.815   4.594  0.1768  1.8536  1.0090
 7162SOL     OW32947   1.466   3.246  16.046  0.0760 -0.6506  0.1451
 7162SOL    HW132948   1.543   3.205  16.086 -0.1419 -0.7051  0.5107
 7162SOL    HW232949   1.397   3.184  16.067  1.7612 -1.9938  1.7227
 7163SOL     OW32950   2.715   1.104   7.886  0.3112  0.1258  0.1624
 7163SOL    HW132951   2.760   1.160   7.949 -2.0729  1.8733  0.2997
 7163SOL    HW232952   2.758   1.142   7.809  1.4748  0.9536  1.2072
 7164SOL     OW32953   0.070   3.987   4.132  0.4864  0.6410  0.0183
 7164SOL    HW132954   0.057   3.893   4.137  0.3496  0.6340 -0.4602
 7164SOL    HW232955   4.705   4.028   4.140  0.9198  1.2219  1.7601
 7165SOL     OW32956   1.044   3.425   4.409 -0.5218  0.0851  0.1065
 7165SOL    HW132957   0.981   3.483   4.366 -1.0571  0.6136  1.5747
 7165SOL    HW232958   1.001   3.342   4.391  0.0835  0.1302 -1.5209
 7166SOL     OW32959   1.730   1.371   2.844  0.1986  0.1592 -0.7366
 7166SOL    HW132960   1.777   1.318   2.779 -1.0025  1.4135 -2.6327
 7166SOL    HW232961   1.702   1.452   2.801  1.9144 -0.4953 -3.0985
 7167SOL     OW32962   1.218   4.404   7.086  0.3076 -0.0640  0.5252
 7167SOL    HW132963   1.186   4.491   7.110 -0.8774 -0.4444  0.3526
 7167SOL    HW232964   1.298   4.392   7.136  1.0082  2.0540 -0.0997
 7168SOL     OW32965   0.200   4.695   3.885 -0.2932  0.3425 -0.5952
 7168SOL    HW132966   0.186   4.600   3.885  0.1949  0.2873  1.9735
 7168SOL    HW232967   0.233   4.697   3.795 -0.1645  1.1813 -0.5296
 7169SOL     OW32968   2.472   2.316   2.047  0.0469 -0.4395  0.0320
 7169SOL    HW132969   2.560   2.334   2.081  0.1601  0.0478 -0.5113
 7169SOL    HW232970   2.467   2.226   2.017 -0.5861 -0.0760 -0.9475
 7170SOL     OW32971   0.830   2.797   9.808  0.3453 -0.6079 -0.4190
 7170SOL    HW132972   0.761   2.762   9.752 -0.3230  1.5424 -0.9733
 7170SOL    HW232973   0.813   2.890   9.794  1.8025 -0.2175  0.3273
 7171SOL     OW32974   3.263   2.469   9.450  0.3674 -0.9854 -0.2328
 7171SOL    HW132975   3.297   2.493   9.536 -2.8753  1.0617  0.4674
 7171SOL    HW232976   3.203   2.537   9.419  0.6867 -0.8364 -0.5285
 7172SOL     OW32977   0.477   4.310   7.287 -0.4211 -0.2880  0.2468
 7172SOL    HW132978   0.572   4.314   7.282 -0.4282 -0.6075 -0.2269
 7172SOL    HW232979   0.460   4.256   7.364 -1.8003  0.4135  0.4295
 7173SOL     OW32980   0.569   3.446   2.580  0.4718  0.6615  0.6768
 7173SOL    HW132981   0.566   3.518   2.517  0.2784  1.1799  1.2827
 7173SOL    HW232982   0.516   3.382   2.531 -2.4766  3.0807  0.7050
 7174SOL     OW32983   2.176   2.310   7.505 -0.1125 -0.2716  0.0428
 7174SOL    HW132984   2.264   2.335   7.535 -1.1789  0.7886  2.3149
 7174SOL    HW232985   2.122   2.383   7.538 -0.3140 -0.8124  0.9137
 7175SOL     OW32986   2.530   2.228   8.574  0.3570 -0.7591  0.1336
 7175SOL    HW132987   2.437   2.206   8.568  0.4062 -1.7004  2.7402
 7175SOL    HW232988   2.549   2.192   8.661  2.3914 -2.2262 -0.9163
 7176SOL     OW32989   2.292   3.306   9.871 -0.5509  0.1109 -0.0295
 7176SOL    HW132990   2.227   3.326   9.938  0.5425 -0.4791  1.2101
 7176SOL    HW232991   2.251   3.356   9.801  3.4793  2.3938 -0.7739
 7177SOL     OW32992   2.139   4.196   3.381 -0.5508  0.3277  0.3088
 7177SOL    HW132993   2.185   4.123   3.338 -4.0013 -1.7018  0.0379
 7177SOL    HW232994   2.114   4.151   3.462  0.0334  1.4641  1.1119
 7178SOL     OW32995   4.571   3.559  13.032 -0.3449 -0.0430 -0.3053
 7178SOL    HW132996   4.585   3.483  12.974 -1.1067  0.4295 -1.1125
 7178SOL    HW232997   4.584   3.632  12.972 -0.9520  1.7576  1.7706
 7179SOL     OW32998   0.848   0.487   8.815 -0.0255 -0.1231  0.3518
 7179SOL    HW132999   0.864   0.500   8.721  2.0527 -0.1650  0.7110
 7179SOL    HW233000   0.830   0.393   8.810  2.7023 -0.6522  0.5974
 7180SOL     OW33001   2.177   0.873   7.856  0.1727  0.0865  0.1391
 7180SOL    HW133002   2.232   0.930   7.909 -1.4631  2.1389 -0.3545
 7180SOL    HW233003   2.213   0.786   7.873 -0.0812 -0.2362 -0.9612
 7181SOL     OW33004   0.728   3.359   4.010  0.2694  0.7377  0.5120
 7181SOL    HW133005   0.754   3.451   3.996  2.9864  0.0724  1.0909
 7181SOL    HW233006   0.658   3.371   4.074 -0.2063  0.8974 -0.0357
 7182SOL     OW33007   0.252   2.711   3.686  0.7291  0.2323 -0.0999
 7182SOL    HW133008   0.187   2.643   3.668  1.9708 -0.5826 -1.5353
 7182SOL    HW233009   0.254   2.713   3.781 -1.9509  3.2183 -0.1431
 7183SOL     OW33010   0.964   2.963  11.021  0.5605  0.4041  0.0421
 7183SOL    HW133011   1.016   3.034  10.983  1.8750 -0.5003  0.1304
 7183SOL    HW233012   0.953   2.989  11.112  1.5527 -0.0255  0.2869
 7184SOL     OW33013   1.656   4.485  12.064  0.2183  0.1656 -0.1349
 7184SOL    HW133014   1.687   4.576  12.070  2.0629 -0.4553 -0.1050
 7184SOL    HW233015   1.619   4.474  12.152 -1.0890 -0.4929 -0.7771
 7185SOL     OW33016   3.114   3.344   6.727  0.3436 -0.4318 -0.1928
 7185SOL    HW133017   3.118   3.249   6.721  0.0020 -0.4663  0.0896
 7185SOL    HW233018   3.203   3.370   6.705 -0.6485  1.1332 -2.4167
 7186SOL     OW33019   3.519   0.852   2.972  0.0772 -0.2725  0.0347
 7186SOL    HW133020   3.568   0.780   2.933 -2.6870 -2.2711  0.2576
 7186SOL    HW233021   3.529   0.932   2.920 -2.2096  0.9281  1.4354
 7187SOL     OW33022   0.569   4.593   5.911  0.1977  0.2085  0.0526
 7187SOL    HW133023   0.609   4.573   5.995  0.5385 -0.1915 -0.2047
 7187SOL    HW233024   0.649   4.602   5.858  1.2983 -2.8587  1.2230
 7188SOL     OW33025   3.875   1.657   3.857  0.1338 -0.3268 -0.0035
 7188SOL    HW133026   3.852   1.567   3.879 -1.3578  0.2912  1.0042
 7188SOL    HW233027   3.823   1.673   3.778 -0.8219 -0.2310  0.6426
 7189SOL     OW33028   1.314   4.355   6.029 -0.0056 -0.0993 -0.2464
 7189SOL    HW133029   1.393   4.380   5.981  2.0582 -0.2744  3.0753
 7189SOL    HW233030   1.310   4.265   5.997 -1.3062  0.0276 -0.4444
 7190SOL     OW33031   3.360   4.407   4.505 -0.1437  0.3119 -0.7556
 7190SOL    HW133032   3.282   4.352   4.498 -1.0552  1.3617  1.3210
 7190SOL    HW233033   3.326   4.486   4.464  0.9648 -0.4610 -3.1787
 7191SOL     OW33034   1.609   2.677  11.036 -0.3361 -0.1024  0.2919
 7191SOL    HW133035   1.704   2.672  11.040 -0.2407  0.6521 -1.0769
 7191SOL    HW233036   1.614   2.763  11.077 -0.5618 -0.5650  1.2955
 7192SOL     OW33037   1.605   1.920   2.548  0.1668 -0.6321 -0.3424
 7192SOL    HW133038   1.627   1.830   2.525  1.4152 -0.1226 -1.1251
 7192SOL    HW233039   1.584   1.913   2.642 -0.5412  1.9417 -0.3207
 7193SOL     OW33040   3.881   0.160   6.321  0.2643  0.0826 -0.4516
 7193SOL    HW133041   3.851   0.230   6.379 -0.3341 -0.4279 -0.1534
 7193SOL    HW233042   3.975   0.160   6.342  0.5016  1.1750 -1.4944
 7194SOL     OW33043   2.560   3.032   4.231  0.5051  0.2472  0.3677
 7194SOL    HW133044   2.593   2.980   4.304 -0.4921 -1.6488 -0.5084
 7194SOL    HW233045   2.465   3.027   4.241  0.4887 -1.7377 -0.7684
 7195SOL     OW33046   4.467   4.578   3.296 -0.1300  0.2377  0.0087
 7195SOL    HW133047   4.442   4.636   3.367 -1.6940  0.4583 -0.7127
 7195SOL    HW233048   4.484   4.491   3.332 -1.9278  0.1880  0.7204
 7196SOL     OW33049   4.203   2.892   5.097  0.0102  0.0301 -0.2308
 7196SOL    HW133050   4.175   2.850   5.178 -1.2427  1.2078 -0.0495
 7196SOL    HW233051   4.129   2.866   5.042 -1.6869  1.3884  1.4495
 7197SOL     OW33052   2.997   1.619  16.318 -0.1288  0.2185  0.4110
 7197SOL    HW133053   3.057   1.548  16.295  1.9302  1.6623  1.3890
 7197SOL    HW233054   2.967   1.595  16.406 -1.8613 -0.7352 -0.4255
 7198SOL     OW33055   0.165   3.939   0.830  0.2643  0.3369  0.0120
 7198SOL    HW133056   0.073   3.956   0.850  0.6008 -0.8779  2.6437
 7198SOL    HW233057   0.205   4.013   0.876  0.4924 -0.4469  1.0756
 7199SOL     OW33058   3.649   3.093   7.666 -0.4307 -0.0372 -0.5916
 7199SOL    HW133059   3.658   3.132   7.579  0.2951 -2.2967 -1.5425
 7199SOL    HW233060   3.599   3.154   7.721 -0.9419 -0.2274 -0.8456
 7200SOL     OW33061   4.067   4.635   8.831 -0.6260 -0.0377  0.1164
 7200SOL    HW133062   4.008   4.631   8.756 -1.1135  0.1055  0.4917
 7200SOL    HW233063   4.041   4.719   8.869  2.3030  0.9668 -0.1091
 7201SOL     OW33064   2.647   3.589   1.948 -0.3895 -0.3272  0.7658
 7201SOL    HW133065   2.601   3.509   1.923 -2.3267  0.6759  1.1442
 7201SOL    HW233066   2.738   3.557   1.950  0.2746  1.4841 -0.7989
 7202SOL     OW33067   4.169   4.023   9.604 -0.2086 -0.6706 -0.0112
 7202SOL    HW133068   4.094   4.060   9.558  0.1988 -2.0828 -1.8292
 7202SOL    HW233069   4.237   4.035   9.537 -1.7682  0.7648 -1.3383
 7203SOL     OW33070   1.708   2.168   8.839 -0.1002 -0.1634  0.2379
 7203SOL    HW133071   1.733   2.236   8.778 -0.0723  0.3914  0.8670
 7203SOL    HW233072   1.789   2.144   8.884 -0.4386  2.3146  2.2080
 7204SOL     OW33073   4.054   3.543   4.083 -0.0974 -0.2439  0.0212
 7204SOL    HW133074   4.079   3.462   4.039  0.5197  0.5134 -1.0221
 7204SOL    HW233075   4.014   3.596   4.013  0.0411 -0.2195 -0.0390
 7205SOL     OW33076   0.290   2.454   3.345  0.1030 -0.3381  0.2089
 7205SOL    HW133077   0.239   2.384   3.387  0.0202 -0.2848  0.1972
 7205SOL    HW233078   0.374   2.408   3.343  0.7436  0.8739 -0.7390
 7206SOL     OW33079   2.711   0.149  14.453 -0.5236  0.2169  0.4897
 7206SOL    HW133080   2.702   0.160  14.358  1.0155 -2.6825  0.0162
 7206SOL    HW233081   2.801   0.174  14.472 -1.0455  1.6699  1.0578
 7207SOL     OW33082   0.240   4.267   8.879 -0.7534  0.4510  0.1557
 7207SOL    HW133083   0.258   4.255   8.972  1.8382  2.5599 -0.0779
 7207SOL    HW233084   0.295   4.196   8.845  1.6073  1.4531  1.9005
 7208SOL     OW33085   1.162   3.230   8.180 -0.0621  0.0383 -0.4644
 7208SOL    HW133086   1.093   3.229   8.246 -0.1320 -1.2257 -0.5447
 7208SOL    HW233087   1.222   3.158   8.199 -0.0876  0.0855 -0.2039
 7209SOL     OW33088   3.682   2.253   3.679 -0.7271  0.1886 -0.0318
 7209SOL    HW133089   3.670   2.221   3.769 -1.8058  0.6534 -0.0043
 7209SOL    HW233090   3.626   2.330   3.678 -1.5668 -0.4145  0.3497
 7210SOL     OW33091   3.628   0.627  15.338 -0.6420  0.4390 -0.2182
 7210SOL    HW133092   3.612   0.552  15.395  0.7770 -1.0720 -1.8548
 7210SOL    HW233093   3.536   0.653  15.333 -0.8760 -0.8696 -2.4992
 7211SOL     OW33094   0.903   1.267   1.607  0.2703 -0.2164  0.5909
 7211SOL    HW133095   0.931   1.357   1.594 -0.7477  0.0241  0.0564
 7211SOL    HW233096   0.830   1.284   1.667 -0.5163  0.9183 -0.7151
 7212SOL     OW33097   3.384   3.012   1.187 -0.1652 -0.4890 -0.4688
 7212SOL    HW133098   3.292   3.034   1.168  0.4399  2.2777 -0.1480
 7212SOL    HW233099   3.426   3.068   1.122  0.7029  2.2474  2.4588
 7213SOL     OW33100   0.042   2.586   6.827 -0.1388  0.1490  0.0134
 7213SOL    HW133101   0.138   2.576   6.825 -0.2754 -0.6732 -2.7465
 7213SOL    HW233102   0.013   2.530   6.899 -1.4126 -1.8511 -2.0612
 7214SOL     OW33103   0.144   1.748   8.524 -0.2308 -0.6995 -0.4244
 7214SOL    HW133104   0.137   1.809   8.451  0.5228 -1.3386 -1.0335
 7214SOL    HW233105   0.061   1.754   8.570  0.1636  0.8703  0.0917
 7215SOL     OW33106   3.612   0.310   9.699  0.3440  0.5866 -0.1866
 7215SOL    HW133107   3.642   0.309   9.609  0.4917 -1.6834 -0.1191
 7215SOL    HW233108   3.688   0.353   9.737  0.8440  0.4451 -1.0380
 7216SOL     OW33109   4.367   2.129   3.077 -0.0831 -0.0931  0.2934
 7216SOL    HW133110   4.398   2.196   3.016  3.3287 -0.6438  1.4505
 7216SOL    HW233111   4.379   2.180   3.157  1.7383  1.5677 -1.0518
 7217SOL     OW33112   3.724   4.213   2.233 -0.0415 -0.2698 -0.5927
 7217SOL    HW133113   3.714   4.167   2.316  0.7831 -0.0163 -0.3491
 7217SOL    HW233114   3.678   4.297   2.240  1.5712  0.5291  0.5162
 7218SOL     OW33115   2.673   3.673  10.432  0.1998 -1.0388  0.5852
 7218SOL    HW133116   2.592   3.720  10.454 -0.2450 -1.1734 -0.7503
 7218SOL    HW233117   2.646   3.602  10.374  0.8083  0.2263 -1.2313
 7219SOL     OW33118   1.117   0.239   2.466 -0.3021 -0.3595  0.0812
 7219SOL    HW133119   1.044   0.212   2.521  0.6333 -0.0815  1.4428
 7219SOL    HW233120   1.080   0.320   2.430  0.3840 -0.9119 -1.8930
 7220SOL     OW33121   2.461   3.963  15.699  0.0483 -0.1052 -0.0065
 7220SOL    HW133122   2.505   3.994  15.621  1.4563 -1.4000  0.2584
 7220SOL    HW233123   2.374   4.002  15.692 -0.2271 -0.7907 -0.3745
 7221SOL     OW33124   1.481   2.402   3.487 -0.4434 -0.7485  0.3652
 7221SOL    HW133125   1.425   2.344   3.539  0.2758 -0.4000  1.5284
 7221SOL    HW233126   1.433   2.485   3.483  1.5062  0.3500 -0.4411
 7222SOL     OW33127   3.134   3.946   6.079  0.5234 -0.2246 -0.4073
 7222SOL    HW133128   3.201   3.900   6.030  1.4928  0.6526  0.1012
 7222SOL    HW233129   3.139   4.031   6.036 -1.3028 -0.7946 -1.7234
 7223SOL     OW33130   3.522   4.576   8.104  0.1909  0.6190 -0.0633
 7223SOL    HW133131   3.448   4.584   8.164  0.7835  2.7924  0.4114
 7223SOL    HW233132   3.478   4.518   8.042  2.1717 -0.7183 -0.2418
 7224SOL     OW33133   1.887   2.000   8.255  0.0087  0.1825  0.3810
 7224SOL    HW133134   1.881   2.089   8.222 -0.0145 -0.0931 -0.3605
 7224SOL    HW233135   1.854   2.009   8.344 -0.3816  2.0379  0.0379
 7225SOL     OW33136   2.484   0.980  12.899 -0.8159 -0.0967 -0.2394
 7225SOL    HW133137   2.476   0.934  12.816  0.9556 -2.0727  0.6770
 7225SOL    HW233138   2.398   0.979  12.941 -1.2640  2.3072 -1.0684
 7226SOL     OW33139   0.412   3.914   0.203  0.2096  0.1346 -0.0274
 7226SOL    HW133140   0.401   3.924   0.108 -3.6114 -0.5488  0.3604
 7226SOL    HW233141   0.376   4.001   0.222 -0.2400 -0.2349  0.7723
 7227SOL     OW33142   0.251   0.268  12.258  0.2549 -0.1409  0.0981
 7227SOL    HW133143   0.226   0.184  12.221 -0.0924  0.6128 -1.4210
 7227SOL    HW233144   0.214   0.267  12.346  1.1139 -1.1570  0.4428
 7228SOL     OW33145   4.218   1.091   9.329  0.3669 -0.4956 -0.2186
 7228SOL    HW133146   4.287   1.030   9.303 -0.8283 -2.8422  2.2223
 7228SOL    HW233147   4.207   1.058   9.418  0.6951 -0.9238 -0.3356
 7229SOL     OW33148   3.211   2.585  11.485  0.4042  0.0589  0.4522
 7229SOL    HW133149   3.129   2.559  11.527 -0.9343  0.6530 -1.7786
 7229SOL    HW233150   3.257   2.502  11.500 -0.5527 -1.3476 -4.4307
 7230SOL     OW33151   1.612   2.200   5.377  0.7720 -0.0644 -0.0895
 7230SOL    HW133152   1.579   2.162   5.296  0.2769 -2.3768  1.1732
 7230SOL    HW233153   1.554   2.153   5.437  0.1261  1.0764  0.1858
 7231SOL     OW33154   4.681   0.592  10.286  0.1213 -0.0887  0.4655
 7231SOL    HW133155   4.664   0.679  10.249 -0.7450 -1.2565 -1.8781
 7231SOL    HW233156   4.608   0.588  10.348  0.4198 -0.9928  0.7492
 7232SOL     OW33157   0.969   1.750   4.302 -0.2122 -0.5076  0.1391
 7232SOL    HW133158   1.059   1.775   4.323 -0.2700 -0.3557  0.2028
 7232SOL    HW233159   0.944   1.705   4.383  1.5455 -0.9820  0.4216
 7233SOL     OW33160   1.765   1.756   5.168  0.0766  0.2846 -0.5648
 7233SOL    HW133161   1.687   1.809   5.183 -0.7846 -2.0628  3.2035
 7233SOL    HW233162   1.828   1.822   5.139 -0.4322  1.0709  0.1280
 7234SOL     OW33163   1.378   4.362   6.861  0.5706 -0.1842 -0.5692
 7234SOL    HW133164   1.385   4.454   6.834  4.6148 -0.3874 -0.2004
 7234SOL    HW233165   1.330   4.377   6.942 -0.1908  0.4290 -1.1318
 7235SOL     OW33166   1.153   4.261   1.316 -0.2696 -0.0844 -0.5366
 7235SOL    HW133167   1.212   4.313   1.262 -1.3317  2.7884  1.0799
 7235SOL    HW233168   1.142   4.321   1.390 -0.1947 -0.0704 -0.5363
 7236SOL     OW33169   1.632   2.435   0.430  0.1470  0.1846  0.3267
 7236SOL    HW133170   1.607   2.428   0.522  0.9339  1.2333  0.6251
 7236SOL    HW233171   1.551   2.470   0.392  1.1485  1.7832 -0.3380
 7237SOL     OW33172   2.445   4.717   6.271 -0.9038 -0.7309 -0.2291
 7237SOL    HW133173   2.515   0.055   6.243 -1.6572  0.2087 -0.0815
 7237SOL    HW233174   2.462   4.635   6.223  0.0565 -0.0200 -1.1054
 7238SOL     OW33175   2.864   0.885   2.420 -0.1657  0.4913  0.0242
 7238SOL    HW133176   2.823   0.806   2.456  3.7913 -2.3152 -1.6472
 7238SOL    HW233177   2.921   0.853   2.350 -0.5382 -0.1821  0.0349
 7239SOL     OW33178   4.371   4.496   2.803  0.0480  0.6547 -0.6429
 7239SOL    HW133179   4.329   4.539   2.877  0.0970  0.4825 -0.5154
 7239SOL    HW233180   4.413   4.418   2.839 -1.2199 -0.1466 -0.9323
 7240SOL     OW33181   4.657   2.842   6.383 -0.1751  0.1626 -0.4726
 7240SOL    HW133182   4.700   2.798   6.456  0.6875  1.3502 -0.2537
 7240SOL    HW233183   4.622   2.917   6.431 -1.1857 -1.4010  1.2162
 7241SOL     OW33184   2.471   4.544  13.696  1.2883 -0.2881 -0.3935
 7241SOL    HW133185   2.482   4.639  13.690  0.3905 -0.0979  0.8578
 7241SOL    HW233186   2.505   4.526  13.784  1.5455 -0.6930 -0.5762
 7242SOL     OW33187   0.183   3.151   5.073 -0.0555 -0.3322  0.2338
 7242SOL    HW133188   0.224   3.146   5.159 -1.6667  2.6066  1.1884
 7242SOL    HW233189   0.092   3.129   5.093 -0.1941 -2.2249 -2.3852
 7243SOL     OW33190   3.470   2.260   3.395  0.0200  0.9584 -0.3808
 7243SOL    HW133191   3.453   2.255   3.301  2.2405  1.9631 -0.8474
 7243SOL    HW233192   3.551   2.208   3.398 -0.2613  0.4906 -0.9876
 7244SOL     OW33193   0.688   0.076  10.284 -0.3194  0.2437  0.3016
 7244SOL    HW133194   0.647   0.011  10.341 -0.1466 -2.5852 -2.7732
 7244SOL    HW233195   0.637   0.155  10.303 -2.8466 -1.5238  0.8826
 7245SOL     OW33196   3.923   2.215   1.649 -0.0825 -0.3820 -0.3296
 7245SOL    HW133197   3.918   2.146   1.715 -0.6587  0.0470  0.0752
 7245SOL    HW233198   4.018   2.223   1.634 -0.3680  1.7211 -0.9529
 7246SOL     OW33199   3.734   1.561   9.629 -0.3816  0.0740 -0.0953
 7246SOL    HW133200   3.731   1.470   9.661 -1.2740 -0.1117 -0.7140
 7246SOL    HW233201   3.682   1.559   9.549  1.4205 -0.2052 -1.2647
 7247SOL     OW33202   3.528   0.783  16.245 -0.2786 -0.0090  0.1845
 7247SOL    HW133203   3.530   0.870  16.285 -1.4744  0.0370  0.1476
 7247SOL    HW233204   3.442   0.787  16.202  0.6578 -0.7555 -1.7654
 7248SOL     OW33205   4.317   0.829   7.124  0.0605  0.4669  0.2551
 7248SOL    HW133206   4.274   0.848   7.041 -0.6483 -0.0538  0.5057
 7248SOL    HW233207   4.240   0.833   7.181 -0.8147  1.8894 -1.0198
 7249SOL     OW33208   0.387   3.021   7.856 -0.2338  0.0120  0.0124
 7249SOL    HW133209   0.329   3.061   7.921 -0.6568  1.8177 -1.4658
 7249SOL    HW233210   0.325   2.954   7.828 -0.3718  0.0011  0.3564
 7250SOL     OW33211   1.068   2.889   6.747 -0.3259 -0.4523  0.2660
 7250SOL    HW133212   1.009   2.923   6.814  0.3943  0.6684  0.3148
 7250SOL    HW233213   1.154   2.925   6.767 -0.0736 -0.5305 -0.6805
 7251SOL     OW33214   2.146   1.233   4.912 -0.3751  0.0245  0.0366
 7251SOL    HW133215   2.125   1.323   4.885 -1.6457  0.6070  2.9737
 7251SOL    HW233216   2.060   1.193   4.900 -0.3401  0.7388 -2.5762
 7252SOL     OW33217   3.598   0.168   6.719 -0.1506  0.0733  0.6638
 7252SOL    HW133218   3.536   0.178   6.791 -0.5119  2.8586 -0.0466
 7252SOL    HW233219   3.548   0.218   6.655 -0.3217 -1.0070 -0.0335
 7253SOL     OW33220   2.004   1.321  14.669  0.3356  0.0139 -0.1481
 7253SOL    HW133221   2.004   1.345  14.577  3.2545  1.4210  0.2328
 7253SOL    HW233222   2.043   1.234  14.664  0.2298 -0.0123 -0.5482
 7254SOL     OW33223   1.998   3.238   5.208 -0.3340 -0.1238  0.2857
 7254SOL    HW133224   1.912   3.199   5.227  0.1390  0.1399  3.0715
 7254SOL    HW233225   1.987   3.273   5.120  0.0890 -1.5546 -0.3345
 7255SOL     OW33226   0.607   1.268   3.131 -0.0645  0.5470 -0.2843
 7255SOL    HW133227   0.564   1.230   3.207 -1.0190  0.6321 -0.7780
 7255SOL    HW233228   0.690   1.221   3.126 -1.0312 -0.8595 -2.9748
 7256SOL     OW33229   3.845   1.297   3.530  0.6310  0.1307 -0.7635
 7256SOL    HW133230   3.752   1.299   3.509  0.1394  0.0617  1.4616
 7256SOL    HW233231   3.851   1.307   3.625  0.6363 -0.6865 -0.6782
 7257SOL     OW33232   2.983   0.301   3.318 -0.4769  0.4944  0.1470
 7257SOL    HW133233   2.953   0.251   3.394 -3.6179 -0.1528 -1.5294
 7257SOL    HW233234   2.913   0.287   3.254 -0.3107  1.3101 -0.2225
 7258SOL     OW33235   4.641   4.461   1.578 -0.4286 -0.1922  0.0486
 7258SOL    HW133236   4.674   4.537   1.531 -0.6867 -1.0963 -1.6213
 7258SOL    HW233237   4.566   4.421   1.534  1.1566 -2.6833 -0.4107
 7259SOL     OW33238   2.899   1.732   5.012  0.1828  0.3527  0.4494
 7259SOL    HW133239   2.832   1.796   4.989  0.8047  0.6068 -0.6434
 7259SOL    HW233240   2.912   1.680   4.933  0.5023  0.2368  0.5802
 7260SOL     OW33241   1.329   2.865   1.649 -0.2433 -0.3203 -0.0853
 7260SOL    HW133242   1.317   2.929   1.578 -1.7078  1.0807  1.4419
 7260SOL    HW233243   1.294   2.785   1.610  0.4916 -0.1967 -1.0146
 7261SOL     OW33244   4.470   0.774   3.371 -0.1334 -0.0882  0.6568
 7261SOL    HW133245   4.472   0.859   3.326  1.1874 -1.7647 -2.4689
 7261SOL    HW233246   4.387   0.786   3.417 -0.5027  1.5251 -0.4083
 7262SOL     OW33247   3.270   3.407   0.968 -0.2687  0.1152 -0.1393
 7262SOL    HW133248   3.295   3.496   0.941 -1.7231  0.4870 -0.2808
 7262SOL    HW233249   3.209   3.429   1.038 -0.1436  0.9269 -0.2781
 7263SOL     OW33250   0.176   2.576   9.521 -0.0947  0.0424  0.3161
 7263SOL    HW133251   0.186   2.661   9.479 -0.6425  1.1517  2.4086
 7263SOL    HW233252   0.222   2.581   9.605  2.6857 -2.8724 -1.0382
 7264SOL     OW33253   1.217   0.584  12.898  0.6806  0.5209 -0.2012
 7264SOL    HW133254   1.279   0.529  12.851  2.0115  1.0971  0.8732
 7264SOL    HW233255   1.190   0.528  12.970  0.2805 -0.0270 -0.7849
 7265SOL     OW33256   4.312   1.257  13.083  0.3826  0.2264 -0.0976
 7265SOL    HW133257   4.392   1.205  13.073 -1.2286 -1.9223 -1.7428
 7265SOL    HW233258   4.336   1.335  13.033 -2.5735  0.8610 -0.5128
 7266SOL     OW33259   0.694   4.527   1.687 -0.3211  0.4189  0.0998
 7266SOL    HW133260   0.620   4.468   1.675  1.7119 -2.0530 -0.3041
 7266SOL    HW233261   0.651   4.611   1.671 -1.7331 -0.6230 -1.5505
 7267SOL     OW33262   1.315   4.360  11.733 -0.3228  0.5211 -0.2296
 7267SOL    HW133263   1.289   4.403  11.815  0.0057  1.6775 -0.7353
 7267SOL    HW233264   1.407   4.357  11.759 -0.1103  0.1531 -1.0275
 7268SOL     OW33265   3.509   1.528   3.605  0.1388  0.4723  0.3974
 7268SOL    HW133266   3.430   1.552   3.653  2.3659  3.2355  2.6511
 7268SOL    HW233267   3.575   1.593   3.627 -0.6426  0.9349  1.3462
 7269SOL     OW33268   4.019   3.380  12.214  0.6134  0.2480  0.1581
 7269SOL    HW133269   3.989   3.291  12.233 -0.8629  0.3165 -1.7549
 7269SOL    HW233270   4.114   3.369  12.213  0.5872  0.1196 -1.0004
 7270SOL     OW33271   1.565   1.630   4.942 -0.3893 -0.1327 -0.2711
 7270SOL    HW133272   1.556   1.712   4.990 -1.7540 -0.1393 -0.5084
 7270SOL    HW233273   1.529   1.652   4.856 -0.8275 -1.8272 -0.5252
 7271SOL     OW33274   2.952   2.738  10.056  0.1066  0.6785 -0.3178
 7271SOL    HW133275   2.877   2.702  10.009 -1.3746 -0.0101  2.5937
 7271SOL    HW233276   2.912   2.812  10.100 -0.1902  0.0098  0.5360
 7272SOL     OW33277   4.104   1.251  12.836  0.0101 -0.3077  0.1711
 7272SOL    HW133278   4.173   1.283  12.778 -0.1076 -1.5217 -0.6523
 7272SOL    HW233279   4.156   1.206  12.902 -2.3132 -1.7742  0.9857
 7273SOL     OW33280   0.635   3.952  10.065 -0.1771 -0.0907 -0.1590
 7273SOL    HW133281   0.703   3.954   9.998 -0.4391  1.5384 -0.3770
 7273SOL    HW233282   0.608   4.043  10.078  0.5642  0.2640 -1.1789
 7274SOL     OW33283   0.844   3.615   3.965 -0.4008 -1.0188  0.1192
 7274SOL    HW133284   0.916   3.577   3.913 -1.0273 -3.2282  0.8494
 7274SOL    HW233285   0.825   3.699   3.924 -1.5963 -1.1865  0.3303
 7275SOL     OW33286   4.197   0.368   2.680 -0.0418 -0.2560 -0.5972
 7275SOL    HW133287   4.259   0.408   2.619 -0.5647  0.8831 -0.3941
 7275SOL    HW233288   4.134   0.438   2.700  2.7353  1.7978  1.0435
 7276SOL     OW33289   3.845   1.545  14.607  0.6571 -0.0218  0.3531
 7276SOL    HW133290   3.891   1.498  14.537 -1.0099 -2.2922  0.7938
 7276SOL    HW233291   3.921   1.570  14.661  1.1754 -0.2751 -0.2611
 7277SOL     OW33292   4.318   3.405  12.790  0.0644 -0.2996 -0.5923
 7277SOL    HW133293   4.283   3.387  12.703 -0.5373  1.1446 -0.6578
 7277SOL    HW233294   4.339   3.317  12.821 -3.1377 -1.2920 -1.2812
 7278SOL     OW33295   3.379   0.380   9.835 -0.2582  0.4468 -0.1497
 7278SOL    HW133296   3.451   0.355   9.777  1.2909 -0.0654  2.0250
 7278SOL    HW233297   3.424   0.370   9.918 -0.1723  1.3104 -0.0915
 7279SOL     OW33298   0.566   0.213   8.976  0.1089  0.3820 -0.0084
 7279SOL    HW133299   0.505   0.286   8.964  0.3841  0.6221  0.0400
 7279SOL    HW233300   0.510   0.136   8.978 -2.0429  2.0000  1.6766
 7280SOL     OW33301   0.484   2.358   2.787 -0.3679 -0.8230  0.7273
 7280SOL    HW133302   0.410   2.397   2.740  0.5776 -2.4082 -2.0428
 7280SOL    HW233303   0.530   2.302   2.725 -1.3828 -2.0960  1.1298
 7281SOL     OW33304   1.254   2.620   1.510  0.1984 -0.6887 -0.5647
 7281SOL    HW133305   1.169   2.594   1.545  0.9817 -0.6465  1.3818
 7281SOL    HW233306   1.244   2.586   1.421  0.4895  1.0510 -1.2594
 7282SOL     OW33307   0.195   4.542   2.295 -0.7452 -0.3071 -0.4488
 7282SOL    HW133308   0.139   4.499   2.359 -1.1640  1.4377  0.3627
 7282SOL    HW233309   0.144   4.618   2.268  0.0083 -0.4630 -2.3221
 7283SOL     OW33310   3.794   3.795  16.150  0.6522  0.5737 -0.3991
 7283SOL    HW133311   3.789   3.699  16.150  0.0485  0.6102  1.3756
 7283SOL    HW233312   3.777   3.818  16.241 -2.3259 -0.4297 -0.6991
 7284SOL     OW33313   1.061   0.221   5.058  0.6395  0.2391  0.2753
 7284SOL    HW133314   1.136   0.274   5.030  1.0547 -1.2691 -1.5167
 7284SOL    HW233315   1.022   0.276   5.125  2.4723 -0.4216  1.8807
 7285SOL     OW33316   3.576   1.018   2.726  0.1489  0.4069  0.3605
 7285SOL    HW133317   3.639   0.975   2.668  1.2515  1.0186  1.1147
 7285SOL    HW233318   3.502   0.998   2.669  0.8574  0.9984 -0.7710
 7286SOL     OW33319   3.136   3.898   1.720 -0.2668 -0.2416 -0.4476
 7286SOL    HW133320   3.066   3.838   1.745  1.3768 -2.1947 -0.4947
 7286SOL    HW233321   3.091   3.959   1.661  0.8054 -0.0124 -1.0347
 7287SOL     OW33322   3.903   3.102   3.119  0.1406 -0.0730 -0.3699
 7287SOL    HW133323   3.860   3.017   3.113 -0.8724  0.5402 -1.9669
 7287SOL    HW233324   3.933   3.110   3.209 -1.9723  1.3582  0.2117
 7288SOL     OW33325   3.863   0.389   9.674  0.2490  0.4867 -0.0103
 7288SOL    HW133326   3.814   0.404   9.593  1.9742  4.6549 -0.2633
 7288SOL    HW233327   3.831   0.458   9.732 -0.3754 -0.0876  0.3302
 7289SOL     OW33328   2.309   1.878   4.346 -0.6842 -0.0289 -0.0202
 7289SOL    HW133329   2.294   1.798   4.294  0.8891 -1.2337  1.3825
 7289SOL    HW233330   2.260   1.864   4.427 -0.2105 -1.0629  0.0887
 7290SOL     OW33331   3.398   0.641  11.138  0.1042  0.3526  0.0676
 7290SOL    HW133332   3.429   0.617  11.225  2.0029 -0.5187 -0.8722
 7290SOL    HW233333   3.304   0.629  11.156  0.1256  2.1043  1.3994
 7291SOL     OW33334   2.100   4.691  16.188  0.2339  0.3046 -0.5068
 7291SOL    HW133335   2.078   0.019  16.266  0.5409  0.6170 -0.6181
 7291SOL    HW233336   2.144   4.621  16.236  2.1166  2.0162  0.2840
 7292SOL     OW33337   0.921   0.046   4.255  0.1251  0.0986 -0.2983
 7292SOL    HW133338   0.876   0.035   4.339  0.9658 -0.5062  0.0714
 7292SOL    HW233339   0.848   0.037   4.195  0.2309 -1.5329 -0.1866
 7293SOL     OW33340   4.555   2.026   1.485  0.5927  0.2889 -0.6144
 7293SOL    HW133341   4.471   2.008   1.444  0.5431 -0.8888  0.0295
 7293SOL    HW233342   4.529   2.085   1.556  0.5829  0.6440 -0.9149
 7294SOL     OW33343   4.100   4.274  10.397  0.0384  0.0655  0.2525
 7294SOL    HW133344   4.129   4.183  10.392  2.1439  0.7241  0.1704
 7294SOL    HW233345   4.053   4.280  10.314  1.3225 -0.9208 -0.5573
 7295SOL     OW33346   4.063   1.727   4.325 -0.9369 -0.5197  0.1798
 7295SOL    HW133347   4.051   1.684   4.241  1.2206  1.0115 -0.9320
 7295SOL    HW233348   4.112   1.674   4.388 -0.6593  0.6659  0.9670
 7296SOL     OW33349   1.460   0.420  11.585 -0.0751  0.0456 -0.2071
 7296SOL    HW133350   1.440   0.444  11.495  1.3997 -0.0821 -0.5594
 7296SOL    HW233351   1.370   0.396  11.607 -0.0335 -0.0934 -0.1897
 7297SOL     OW33352   0.069   0.988   4.642  0.1143  0.2343 -0.1195
 7297SOL    HW133353   0.097   1.047   4.572 -0.6622 -0.4648 -1.0074
 7297SOL    HW233354   4.696   0.982   4.630  0.3530  0.2291 -2.0098
 7298SOL     OW33355   2.446   3.569   4.587  0.0885 -0.3731 -0.2400
 7298SOL    HW133356   2.362   3.524   4.594 -0.8329  1.0548 -2.0438
 7298SOL    HW233357   2.462   3.587   4.679  1.1368 -0.2277 -0.4509
 7299SOL     OW33358   1.484   0.916   2.385  0.8737  1.1590 -0.2162
 7299SOL    HW133359   1.572   0.940   2.357  2.0202 -0.1051  2.3341
 7299SOL    HW233360   1.456   1.000   2.422  2.5603  1.3194  0.6588
 7300SOL     OW33361   0.455   3.755   2.827 -0.7288 -0.7856 -0.1577
 7300SOL    HW133362   0.498   3.671   2.810  2.1333  0.6872 -0.1054
 7300SOL    HW233363   0.493   3.812   2.760 -0.0142 -0.1234  0.8182
 7301SOL     OW33364   3.636   1.295  16.995  0.1600  0.0932 -0.0281
 7301SOL    HW133365   3.577   1.367  16.972  0.9136  1.0571  1.0462
 7301SOL    HW233366   3.654   1.317  17.087 -0.9685 -1.4453  0.5616
 7302SOL     OW33367   2.463   4.719   0.523 -0.3034 -0.1139  0.1227
 7302SOL    HW133368   2.523   0.014   0.596 -1.9269  2.6090  0.8461
 7302SOL    HW233369   2.427   0.085   0.510 -2.7086 -0.9249  1.1931
 7303SOL     OW33370   3.751   2.091   3.124  0.0161 -0.1099 -0.2658
 7303SOL    HW133371   3.655   2.087   3.117 -0.0634 -0.7393  1.0384
 7303SOL    HW233372   3.774   2.183   3.112  1.7235 -0.6326 -1.0093
 7304SOL     OW33373   1.980   0.465   4.718 -0.1135  0.7876 -0.3307
 7304SOL    HW133374   2.049   0.405   4.690 -1.8120 -1.3194 -0.0070
 7304SOL    HW233375   1.967   0.458   4.812 -0.5454 -0.3227 -0.4740
 7305SOL     OW33376   0.259   1.085   6.834 -0.2853  0.2472  0.5595
 7305SOL    HW133377   0.262   0.997   6.872 -1.9832  0.3330  0.8952
 7305SOL    HW233378   0.245   1.135   6.914 -2.9445 -0.4144  0.5086
 7306SOL     OW33379   3.152   4.084   7.569  0.5030 -0.0438 -0.0260
 7306SOL    HW133380   3.189   4.168   7.543 -0.2527  0.7932  1.5890
 7306SOL    HW233381   3.222   4.025   7.542  0.5787 -0.3058  0.7412
 7307SOL     OW33382   0.704   1.042   9.773 -0.0489  0.4026 -0.5071
 7307SOL    HW133383   0.657   1.056   9.855 -0.3999 -1.6010 -0.3620
 7307SOL    HW233384   0.686   0.948   9.766 -1.0768  0.5352  0.3257
 7308SOL     OW33385   1.173   3.289  15.187 -0.0132  0.1327 -0.1769
 7308SOL    HW133386   1.229   3.212  15.193 -0.5461 -0.2886 -0.5445
 7308SOL    HW233387   1.227   3.335  15.123  0.9495  0.4446  0.8596
 7309SOL     OW33388   3.396   0.017  13.614  0.3420  0.4104  0.3270
 7309SOL    HW133389   3.349   4.663  13.650  1.2768 -0.3946 -0.1684
 7309SOL    HW233390   3.345   0.093  13.643  2.2844  1.8720 -0.0979
 7310SOL     OW33391   2.266   2.118   3.998  0.5893 -0.1693 -0.4259
 7310SOL    HW133392   2.244   2.025   3.986  2.2844 -0.9934  2.6487
 7310SOL    HW233393   2.272   2.145   3.907  1.7786 -1.9755 -0.8872
 7311SOL     OW33394   0.326   1.832   9.828  0.1066  0.3204  0.1397
 7311SOL    HW133395   0.308   1.925   9.836  3.1227  0.7994  1.2486
 7311SOL    HW233396   0.419   1.831   9.850  0.4621 -0.8131 -1.4797
 7312SOL     OW33397   2.583   3.398   9.475 -0.5276 -0.2171 -0.1025
 7312SOL    HW133398   2.514   3.460   9.452 -1.9509 -2.0796 -0.8404
 7312SOL    HW233399   2.555   3.377   9.565 -2.2843  1.4954 -0.2363
 7313SOL     OW33400   0.657   3.115   5.741  0.3505  0.3561  0.1568
 7313SOL    HW133401   0.608   3.180   5.791  1.2058  1.2230 -0.1325
 7313SOL    HW233402   0.667   3.158   5.656 -1.4317 -0.8092 -0.6296
 7314SOL     OW33403   2.170   3.976   4.676  0.0462 -0.8119  0.2077
 7314SOL    HW133404   2.152   4.062   4.715 -0.9524 -0.5851 -0.7155
 7314SOL    HW233405   2.114   3.967   4.598 -3.1304 -0.2801  2.4164
 7315SOL     OW33406   2.172   2.361  15.452  0.3195  0.0461  0.3098
 7315SOL    HW133407   2.169   2.456  15.442  2.4135 -0.3085 -3.3357
 7315SOL    HW233408   2.083   2.329  15.436  0.5878 -1.4497  1.7981
 7316SOL     OW33409   0.765   4.095   4.866 -0.0134 -0.0484 -0.6373
 7316SOL    HW133410   0.718   4.114   4.948  0.8493 -0.4270 -0.0478
 7316SOL    HW233411   0.849   4.055   4.885  0.3575  1.5500  1.1126
 7317SOL     OW33412   0.751   1.971   8.634  0.1275 -0.0890  0.6081
 7317SOL    HW133413   0.763   1.937   8.723 -1.6330 -1.4024  0.3283
 7317SOL    HW233414   0.841   1.998   8.616 -0.4929  1.0528 -0.7924
 7318SOL     OW33415   3.347   0.192   1.749  0.4064 -0.4902  0.2363
 7318SOL    HW133416   3.272   0.197   1.690 -0.3035 -0.0665  1.1755
 7318SOL    HW233417   3.325   0.241   1.828 -1.8436 -1.7037  0.3724
 7319SOL     OW33418   3.559   4.052   2.900 -0.1187  0.2184 -0.2981
 7319SOL    HW133419   3.607   4.075   2.979 -1.0758 -0.7658  0.5805
 7319SOL    HW233420   3.617   4.063   2.825  1.3268  0.5850  0.8983
 7320SOL     OW33421   4.474   3.745   2.106  0.3098  0.6670  0.6711
 7320SOL    HW133422   4.531   3.675   2.137 -0.6243 -0.1906  0.4245
 7320SOL    HW233423   4.465   3.724   2.013 -0.7062  0.5668  0.7930
 7321SOL     OW33424   4.489   3.967  10.823  0.0281  0.1289 -0.2387
 7321SOL    HW133425   4.454   3.912  10.752  1.4767  0.4069 -1.1707
 7321SOL    HW233426   4.423   4.036  10.829 -0.4594 -0.4432  0.9917
 7322SOL     OW33427   3.842   1.440  15.503  0.6910  0.0786 -0.4284
 7322SOL    HW133428   3.858   1.413  15.413  1.3467 -0.0026 -0.2855
 7322SOL    HW233429   3.924   1.473  15.539 -0.4419 -0.3593  2.5863
 7323SOL     OW33430   0.390   2.066  15.222  1.0903  0.2538  0.1398
 7323SOL    HW133431   0.316   2.008  15.239  1.3412  0.0257  0.4459
 7323SOL    HW233432   0.358   2.156  15.216 -1.2845 -0.8410 -3.6988
 7324SOL     OW33433   4.677   3.415  10.808  0.4054 -0.5556  0.2468
 7324SOL    HW133434   4.635   3.492  10.770 -1.7060 -0.9783  1.7197
 7324SOL    HW233435   0.048   3.439  10.806  0.5130 -0.9558  0.4179
 7325SOL     OW33436   0.908   1.557  10.860 -0.6010  0.3143 -0.1106
 7325SOL    HW133437   0.828   1.606  10.878 -1.0438 -0.1782 -0.7332
 7325SOL    HW233438   0.968   1.632  10.854  1.4020 -1.1838  1.0633
 7326SOL     OW33439   4.685   3.371   2.846 -0.3295 -0.0481  0.2082
 7326SOL    HW133440   4.602   3.413   2.868  0.2097  0.4835  1.2831
 7326SOL    HW233441   4.676   3.346   2.754  0.1799  1.2133 -0.1893
 7327SOL     OW33442   4.503   2.952   1.725 -0.0837 -0.2114  0.1470
 7327SOL    HW133443   4.421   2.932   1.680  0.0328 -1.8549  0.6785
 7327SOL    HW233444   4.500   3.048   1.721 -1.3824 -0.2787 -0.2960
 7328SOL     OW33445   0.145   4.109   1.697  0.0788 -0.2452  0.0234
 7328SOL    HW133446   0.187   4.144   1.618  1.0988  0.1639  0.7378
 7328SOL    HW233447   0.097   4.190   1.714  1.2299  0.3739  0.3044
 7329SOL     OW33448   1.790   1.327   8.137 -0.4989 -0.3083  0.3343
 7329SOL    HW133449   1.778   1.331   8.232  1.2483 -1.8632  0.6341
 7329SOL    HW233450   1.879   1.292   8.132 -0.4133 -0.1778  0.9927
 7330SOL     OW33451   1.104   2.347   1.803  0.5708  0.1025 -0.6337
 7330SOL    HW133452   1.093   2.266   1.754  0.1882 -0.4674  0.3945
 7330SOL    HW233453   1.064   2.411   1.744  3.8205  0.1815 -2.7559
 7331SOL     OW33454   0.266   3.617   9.626 -0.2206  0.2507 -0.0113
 7331SOL    HW133455   0.258   3.680   9.555 -3.5878 -0.4836 -0.3025
 7331SOL    HW233456   0.252   3.532   9.584 -0.4125  0.6002 -0.6442
 7332SOL     OW33457   3.463   4.312   8.348  0.1518  0.1614  0.9616
 7332SOL    HW133458   3.473   4.234   8.402  3.3517  0.1163  0.3190
 7332SOL    HW233459   3.512   4.383   8.390  2.2776 -1.1158  0.6467
 7333SOL     OW33460   4.720   4.527   4.695  0.2799 -0.1018 -0.2685
 7333SOL    HW133461   0.027   4.436   4.692  2.8206  0.6004  2.0219
 7333SOL    HW233462   4.658   4.540   4.624  1.2797  1.6331 -0.8109
 7334SOL     OW33463   2.769   3.432   9.274  0.0256  0.5578 -0.2889
 7334SOL    HW133464   2.727   3.420   9.359 -1.8310  0.9197 -1.1534
 7334SOL    HW233465   2.751   3.524   9.254  0.6847  0.9540  0.9093
 7335SOL     OW33466   0.390   1.403  11.213 -0.6295 -0.3936  0.0961
 7335SOL    HW133467   0.331   1.333  11.184  0.5500 -0.7207 -1.5060
 7335SOL    HW233468   0.385   1.466  11.141  1.2936 -1.0371 -0.5807
 7336SOL     OW33469   0.824   2.079   9.757  0.2812 -0.0119  0.5422
 7336SOL    HW133470   0.899   2.139   9.757  0.1414  0.1285 -2.2586
 7336SOL    HW233471   0.853   1.998   9.799  1.2762  1.1961  2.1958
 7337SOL     OW33472   3.708   2.693   6.459  0.0494 -0.0851 -0.5081
 7337SOL    HW133473   3.767   2.753   6.412  0.2000 -0.6314 -1.0074
 7337SOL    HW233474   3.674   2.639   6.388 -1.7637 -0.4910  0.6723
 7338SOL     OW33475   1.357   2.123  15.840  0.4164  0.1435 -0.3440
 7338SOL    HW133476   1.365   2.079  15.925 -2.0803  0.5195  0.1003
 7338SOL    HW233477   1.449   2.141  15.821  0.5046  0.2516  0.1986
 7339SOL     OW33478   1.476   4.663  15.117 -0.8239  0.0119  0.2739
 7339SOL    HW133479   1.548   4.603  15.137 -1.6665 -0.3946  2.0755
 7339SOL    HW233480   1.506   4.692  15.030  3.2634  1.0363  2.0046
 7340SOL     OW33481   3.611   2.953   3.528 -0.5354  0.3158 -0.0909
 7340SOL    HW133482   3.704   2.956   3.549 -0.7630 -2.6547  1.3700
 7340SOL    HW233483   3.620   2.965   3.434  1.3127  0.4707  0.1135
 7341SOL     OW33484   3.418   4.013  13.422  1.0667 -0.2565 -0.2822
 7341SOL    HW133485   3.509   4.032  13.401  0.2874  2.1853 -1.4818
 7341SOL    HW233486   3.426   3.924  13.455  1.5232  0.4169  1.4160
 7342SOL     OW33487   1.872   3.142   6.914  0.4278 -0.0327 -0.2393
 7342SOL    HW133488   1.835   3.100   6.992  1.1160 -0.6879 -0.2591
 7342SOL    HW233489   1.847   3.080   6.846 -0.7558 -0.3467  0.4894
 7343SOL     OW33490   3.404   2.324   9.948 -0.0288  0.0603 -0.0980
 7343SOL    HW133491   3.388   2.236   9.982 -0.3320  0.0908 -0.1649
 7343SOL    HW233492   3.399   2.376  10.029  1.5093  0.5462 -0.3117
 7344SOL     OW33493   0.529   3.755   4.776 -0.3622  0.2231 -0.2450
 7344SOL    HW133494   0.498   3.669   4.805 -0.7770  0.3718 -0.2509
 7344SOL    HW233495   0.596   3.742   4.710 -0.4899  0.3291 -0.3944
 7345SOL     OW33496   3.666   3.945   7.929  0.1998  0.1128 -0.1273
 7345SOL    HW133497   3.684   4.039   7.927 -4.6518  1.0863  2.3514
 7345SOL    HW233498   3.570   3.942   7.935  0.2299  1.5814  0.9446
 7346SOL     OW33499   0.593   3.171   3.516 -0.6248  0.0209  0.2296
 7346SOL    HW133500   0.681   3.133   3.511 -0.0834  1.2994  0.1476
 7346SOL    HW233501   0.553   3.129   3.440  0.3898 -0.8310  0.1686
 7347SOL     OW33502   1.558   2.867   4.890  0.9138  0.1764 -0.1522
 7347SOL    HW133503   1.633   2.819   4.856  0.7987 -0.7194  0.8668
 7347SOL    HW233504   1.497   2.826   4.829  0.5841 -1.0702  1.0257
 7348SOL     OW33505   2.210   3.725   7.673 -0.5976 -0.2690  0.4834
 7348SOL    HW133506   2.301   3.738   7.701 -0.5586  1.1963 -0.3516
 7348SOL    HW233507   2.188   3.645   7.720 -0.6408  0.1015  1.1013
 7349SOL     OW33508   0.368   3.517   4.273 -0.0929  0.1210  0.5322
 7349SOL    HW133509   0.452   3.562   4.283 -0.2579  0.5073  0.1857
 7349SOL    HW233510   0.370   3.481   4.185  0.3419  0.0134  0.5878
 7350SOL     OW33511   3.300   2.765  12.075  0.5055 -0.5474 -0.0664
 7350SOL    HW133512   3.293   2.694  12.012 -1.4286  0.8133 -1.4124
 7350SOL    HW233513   3.209   2.794  12.085  0.7998  0.8437 -1.3649
 7351SOL     OW33514   0.343   1.002   8.984 -0.2799  0.0154  0.1312
 7351SOL    HW133515   0.331   1.093   9.013 -1.7970 -0.1526  0.0522
 7351SOL    HW233516   0.285   0.994   8.908  1.1687 -3.3034 -0.6034
 7352SOL     OW33517   0.888   1.414   4.816 -0.6327 -0.1292  0.2476
 7352SOL    HW133518   0.968   1.386   4.859 -1.7044 -0.0454  2.3062
 7352SOL    HW233519   0.838   1.398   4.896  0.5422  0.5369  1.1095
 7353SOL     OW33520   1.087   2.905   4.444 -0.2039  0.0618 -0.1729
 7353SOL    HW133521   1.125   2.820   4.420  0.7013  0.5934 -0.5949
 7353SOL    HW233522   1.095   2.887   4.537  3.7452  1.2015 -0.3120
 7354SOL     OW33523   4.283   1.480   8.731 -0.4949  0.3655  0.2901
 7354SOL    HW133524   4.233   1.562   8.732  0.4592  0.9494 -0.1079
 7354SOL    HW233525   4.352   1.501   8.793  0.0696 -0.5327 -0.0348
 7355SOL     OW33526   3.501   1.580   9.218  0.2264 -0.7866 -0.1956
 7355SOL    HW133527   3.573   1.633   9.185 -0.1424 -2.3166 -3.4666
 7355SOL    HW233528   3.550   1.531   9.284  0.1980  0.4353  0.7427
 7356SOL     OW33529   2.985   3.359   5.570 -0.0210  0.5235  0.1737
 7356SOL    HW133530   3.061   3.362   5.627  1.6562 -0.3972 -2.0099
 7356SOL    HW233531   2.923   3.427   5.597 -1.9846 -0.8786 -0.8143
 7357SOL     OW33532   0.204   2.269   2.147  0.8113 -0.1530  0.6632
 7357SOL    HW133533   0.192   2.192   2.093  0.4243  1.2871 -1.2873
 7357SOL    HW233534   0.199   2.238   2.238  0.3008 -0.2198  0.6129
 7358SOL     OW33535   0.772   0.304   1.059  0.0167  0.1103 -0.0133
 7358SOL    HW133536   0.842   0.264   1.006  1.1447  0.3889  1.2635
 7358SOL    HW233537   0.707   0.236   1.039 -1.1382  0.4809  2.4947
 7359SOL     OW33538   0.756   1.714   4.600  0.3427 -0.0126 -0.2678
 7359SOL    HW133539   0.797   1.716   4.686 -0.8743  1.0421  0.2800
 7359SOL    HW233540   0.770   1.803   4.569  0.5285  0.5357  1.3838
 7360SOL     OW33541   1.383   3.520  13.446  0.0038  0.6184 -0.1137
 7360SOL    HW133542   1.461   3.504  13.498  0.1996  0.0933 -0.5645
 7360SOL    HW233543   1.354   3.604  13.482 -1.2634  0.7057 -1.3510
 7361SOL     OW33544   2.710   0.742   0.225  0.3302 -0.1789 -0.2351
 7361SOL    HW133545   2.724   0.704   0.139  1.7597  1.4673 -0.7192
 7361SOL    HW233546   2.667   0.826   0.204 -0.8006 -0.4558  0.9422
 7362SOL     OW33547   2.005   4.129   1.941 -0.2046 -0.0757  0.1477
 7362SOL    HW133548   1.920   4.152   1.979  0.0917 -1.0782  1.4529
 7362SOL    HW233549   2.017   4.207   1.887 -1.1855 -0.4795 -0.6426
 7363SOL     OW33550   2.324   0.152   2.189 -0.7829 -0.0926 -0.0247
 7363SOL    HW133551   2.348   0.144   2.097 -0.1177  1.6802 -0.0148
 7363SOL    HW233552   2.379   0.079   2.215 -1.6769  0.2867  2.9975
 7364SOL     OW33553   1.254   1.937   3.645  0.2996  0.1039 -0.6537
 7364SOL    HW133554   1.171   1.900   3.674 -0.1583  2.9045  1.5871
 7364SOL    HW233555   1.294   1.864   3.597 -0.4880  0.0880 -1.2893
 7365SOL     OW33556   4.147   2.026   4.960  0.5764  0.6751 -0.1955
 7365SOL    HW133557   4.193   2.105   4.933  0.5773  0.6234 -0.3439
 7365SOL    HW233558   4.085   2.068   5.020 -2.0364 -3.1352 -0.2145
 7366SOL     OW33559   0.391   2.577  10.415  0.0176 -0.1763  0.5004
 7366SOL    HW133560   0.420   2.485  10.410 -1.0651 -0.4974  0.0774
 7366SOL    HW233561   0.348   2.578  10.500  0.5944  2.1178  0.7574
 7367SOL     OW33562   2.056   0.356  11.930 -0.3837 -0.0361 -0.2360
 7367SOL    HW133563   2.021   0.267  11.932 -0.2833 -0.1128 -1.6160
 7367SOL    HW233564   1.991   0.395  11.871 -0.3624  0.0144 -0.2256
 7368SOL     OW33565   4.307   1.188   0.520  0.3479  0.0563  0.4685
 7368SOL    HW133566   4.305   1.173   0.425 -1.3970  0.2599  0.4748
 7368SOL    HW233567   4.213   1.183   0.536  0.3758  0.5491  0.7823
 7369SOL     OW33568   2.070   3.840  11.690 -0.5660 -0.2619  1.0167
 7369SOL    HW133569   2.127   3.806  11.759  1.5853  1.3840  0.0490
 7369SOL    HW233570   2.106   3.927  11.673 -1.6928  0.2316  1.1801
 7370SOL     OW33571   2.221   2.159   6.706  0.0323  0.0132 -0.2796
 7370SOL    HW133572   2.218   2.063   6.695  2.3128 -0.2342  1.3209
 7370SOL    HW233573   2.180   2.178   6.790 -1.2347 -1.4503 -0.5547
 7371SOL     OW33574   0.154   4.371  10.100  0.2906  0.5171  0.3544
 7371SOL    HW133575   0.097   4.400  10.171  0.8846  0.6656  0.7694
 7371SOL    HW233576   0.238   4.370  10.147  1.0633 -0.4316 -1.0158
 7372SOL     OW33577   2.580   3.554   2.569 -0.0635 -0.5292 -0.5280
 7372SOL    HW133578   2.632   3.594   2.499  0.2075 -1.8985 -1.1075
 7372SOL    HW233579   2.650   3.551   2.634 -0.3450  0.7739 -0.1754
 7373SOL     OW33580   4.719   2.554  11.005 -0.6371 -0.5839  0.1551
 7373SOL    HW133581   4.656   2.575  11.074  1.4227 -1.7765  2.4127
 7373SOL    HW233582   0.070   2.512  11.050 -0.8890 -0.2819  0.8403
 7374SOL     OW33583   0.339   0.339   6.830 -0.0254 -0.4603 -0.4621
 7374SOL    HW133584   0.264   0.282   6.846 -0.5412  1.2238  2.8863
 7374SOL    HW233585   0.328   0.358   6.736  2.6272  0.9617 -0.4771
 7375SOL     OW33586   2.207   2.416  14.083 -0.1638  0.1676  0.1161
 7375SOL    HW133587   2.184   2.458  14.167  2.3667  2.3319 -0.2893
 7375SOL    HW233588   2.265   2.486  14.054 -0.8937  0.7709  0.0963
 7376SOL     OW33589   1.144   0.032  15.354  0.1579  0.3432  0.4449
 7376SOL    HW133590   1.150   4.670  15.308  1.2961  2.7773 -3.7572
 7376SOL    HW233591   1.049   0.045  15.358  0.1710  1.1851 -2.2419
 7377SOL     OW33592   0.773   2.556   2.564  0.6211  0.3821 -0.0518
 7377SOL    HW133593   0.731   2.471   2.576 -0.8882  0.7856 -2.3969
 7377SOL    HW233594   0.864   2.538   2.586  0.5643  0.1812  0.0248
 7378SOL     OW33595   4.342   3.642  15.451  0.2121 -0.1837  0.1492
 7378SOL    HW133596   4.251   3.673  15.449 -0.4989 -2.2436  0.0416
 7378SOL    HW233597   4.350   3.592  15.370  1.1605  1.5811 -0.8465
 7379SOL     OW33598   1.788   2.903   7.594 -0.4572 -0.1427 -0.4065
 7379SOL    HW133599   1.829   2.829   7.549 -0.6043  0.9038 -2.2598
 7379SOL    HW233600   1.789   2.969   7.525 -1.2887  0.4471  0.1433
 7380SOL     OW33601   1.712   3.767   3.181  0.3352  0.9692  0.1673
 7380SOL    HW133602   1.643   3.830   3.161  1.7136  2.3571 -0.2061
 7380SOL    HW233603   1.787   3.816   3.148 -0.2053  0.5719 -1.6378
 7381SOL     OW33604   4.353   3.212  16.461 -0.3066  0.2161  0.1033
 7381SOL    HW133605   4.293   3.192  16.390  1.5045  0.9053 -1.6114
 7381SOL    HW233606   4.438   3.180  16.430 -0.2974 -0.6146  0.9668
 7382SOL     OW33607   0.376   1.440   9.875  0.0667 -0.3882  0.2273
 7382SOL    HW133608   0.436   1.477   9.940 -0.0903 -0.2272  0.2789
 7382SOL    HW233609   0.370   1.509   9.810 -1.3560 -1.0297 -0.3218
 7383SOL     OW33610   0.104   3.259  10.498  0.2488  0.2446  0.1886
 7383SOL    HW133611   0.156   3.213  10.432  1.9571 -0.3458  1.9653
 7383SOL    HW233612   0.142   3.220  10.576 -1.2727 -0.0099  0.7967
 7384SOL     OW33613   2.448   2.634   7.695 -0.0459  0.0347  0.1803
 7384SOL    HW133614   2.376   2.674   7.744 -2.2576 -3.1645 -0.4975
 7384SOL    HW233615   2.520   2.686   7.730  0.2564  0.0037 -0.4099
 7385SOL     OW33616   4.576   4.255   7.029  0.1138  0.6177  0.1186
 7385SOL    HW133617   4.492   4.221   7.061 -0.3867  2.0901  0.4048
 7385SOL    HW233618   4.554   4.346   7.005 -1.1419 -0.0453 -1.2919
 7386SOL     OW33619   3.157   1.437   5.037 -0.1788  0.2243 -0.2327
 7386SOL    HW133620   3.083   1.497   5.038 -0.7476 -0.4653 -0.9849
 7386SOL    HW233621   3.188   1.458   5.125 -1.4792  3.9945 -0.6951
 7387SOL     OW33622   3.591   2.926   2.347  0.4039 -0.4271 -0.0955
 7387SOL    HW133623   3.679   2.942   2.313 -0.9802  0.3531 -3.4076
 7387SOL    HW233624   3.592   2.831   2.346  2.2851 -0.4412  2.9591
 7388SOL     OW33625   4.198   2.030   7.985  0.3308  0.2190  0.0069
 7388SOL    HW133626   4.133   1.975   8.030 -0.0435  0.1472 -0.6183
 7388SOL    HW233627   4.188   2.110   8.038 -1.4328  0.4641 -0.6891
 7389SOL     OW33628   1.999   0.181   1.176  0.1923 -0.6645  0.1760
 7389SOL    HW133629   2.011   0.238   1.100  1.5911  1.5668  2.0506
 7389SOL    HW233630   1.967   0.245   1.240  0.9273  0.0960 -0.2159
 7390SOL     OW33631   1.197   4.097   8.497  0.2566 -0.4505 -0.1027
 7390SOL    HW133632   1.216   4.073   8.406 -2.9778 -0.6683 -0.7087
 7390SOL    HW233633   1.264   4.165   8.508 -0.3748  0.3232 -0.9642
 7391SOL     OW33634   0.209   2.898  10.855  0.2123 -0.2926 -0.2646
 7391SOL    HW133635   0.214   2.906  10.950 -0.3598 -2.7380 -0.0306
 7391SOL    HW233636   0.140   2.833  10.843  0.2220 -0.5411  1.0666
 7392SOL     OW33637   0.573   1.192   6.328 -0.0732 -1.0661  0.1182
 7392SOL    HW133638   0.653   1.223   6.370 -0.4349 -0.1567  0.1309
 7392SOL    HW233639   0.531   1.265   6.282 -0.9662 -2.1336 -0.7695
 7393SOL     OW33640   3.137   3.072  15.161 -0.3239  0.4473  0.5414
 7393SOL    HW133641   3.046   3.054  15.183 -0.1714 -0.6040  0.3209
 7393SOL    HW233642   3.184   3.006  15.212  1.3615 -0.2068 -1.8736
 7394SOL     OW33643   3.945   1.721   9.919 -0.1751  0.1629  0.3986
 7394SOL    HW133644   3.909   1.735   9.832  0.8721  0.1639 -0.0301
 7394SOL    HW233645   3.892   1.794   9.954 -0.0192 -0.0619  1.1054
 7395SOL     OW33646   1.824   2.402   5.488  0.0748  0.1770 -0.3699
 7395SOL    HW133647   1.855   2.433   5.402 -0.5921  0.1454 -0.6227
 7395SOL    HW233648   1.729   2.413   5.484 -0.1461 -1.6392  0.1006
 7396SOL     OW33649   2.049   4.232   6.096  0.1004  0.0423  0.4574
 7396SOL    HW133650   2.013   4.242   6.183 -2.4313 -0.4019 -0.5517
 7396SOL    HW233651   2.131   4.185   6.115  0.4715 -0.4718 -2.2738
 7397SOL     OW33652   3.167   3.752   6.607 -0.0915 -0.0570 -0.0152
 7397SOL    HW133653   3.170   3.797   6.522 -0.9900  2.3636  1.2147
 7397SOL    HW233654   3.260   3.734   6.621 -0.0977  1.9576  2.6720
 7398SOL     OW33655   2.776   2.378   4.271 -0.3973  0.2218 -0.1745
 7398SOL    HW133656   2.831   2.417   4.339 -0.5704  0.7367 -0.3264
 7398SOL    HW233657   2.718   2.453   4.258  0.9266  1.0095 -1.5428
 7399SOL     OW33658   0.721   1.296   6.821 -0.5561 -0.4087 -0.1826
 7399SOL    HW133659   0.695   1.206   6.802 -1.7028 -0.2897  0.8668
 7399SOL    HW233660   0.671   1.346   6.757  0.8904 -0.6665 -1.5247
 7400SOL     OW33661   1.824   0.557  15.480  0.5282 -0.1655  0.1792
 7400SOL    HW133662   1.893   0.592  15.425 -1.4778  1.9873 -0.9699
 7400SOL    HW233663   1.809   0.473  15.437  1.3569 -0.0758 -0.2759
 7401SOL     OW33664   1.408   1.856   8.988 -0.5682 -0.1981 -0.4414
 7401SOL    HW133665   1.499   1.853   8.956 -1.0788 -3.0457 -1.6043
 7401SOL    HW233666   1.406   1.938   9.037 -1.1026  0.2257 -1.1771
 7402SOL     OW33667   1.987   1.752   0.827 -0.3255  0.0656  0.2298
 7402SOL    HW133668   2.043   1.693   0.879  0.1565  0.6529  0.3893
 7402SOL    HW233669   1.997   1.734   0.734  0.4558 -0.9267  0.5001
 7403SOL     OW33670   0.362   1.600   6.370  0.2660 -0.2656 -0.2720
 7403SOL    HW133671   0.314   1.584   6.451  0.8345 -2.7252 -0.4315
 7403SOL    HW233672   0.291   1.594   6.306 -2.1857  0.1187  2.4323
 7404SOL     OW33673   1.112   1.901   3.093 -0.5855 -0.2966 -0.6169
 7404SOL    HW133674   1.190   1.917   3.146 -0.7473 -0.4591 -0.3264
 7404SOL    HW233675   1.094   1.992   3.069 -0.0895 -0.3016 -1.0074
 7405SOL     OW33676   3.712   0.945   4.300  0.4478 -0.6346 -0.5196
 7405SOL    HW133677   3.738   0.958   4.209  1.1476 -0.2819 -0.2654
 7405SOL    HW233678   3.765   0.869   4.320  0.5711 -0.4565 -0.1737
 7406SOL     OW33679   4.556   0.226  15.303 -0.4920 -0.3393 -0.1418
 7406SOL    HW133680   4.641   0.270  15.308 -0.3243 -0.8503  1.5497
 7406SOL    HW233681   4.547   0.203  15.396  3.0939 -2.0746 -0.2434
 7407SOL     OW33682   2.803   0.637   7.989 -0.0288  0.4854 -0.9138
 7407SOL    HW133683   2.791   0.599   7.902  0.7674 -1.1746 -0.3062
 7407SOL    HW233684   2.882   0.589   8.015 -0.5603  0.1413  0.0485
 7408SOL     OW33685   4.670   1.435   5.351  0.5319 -0.8963  0.0840
 7408SOL    HW133686   4.660   1.341   5.339 -0.0900 -1.0347  1.7169
 7408SOL    HW233687   4.688   1.463   5.261 -1.2952  0.3898  0.1005
 7409SOL     OW33688   4.657   2.107   3.276 -0.4011 -0.3844 -0.3564
 7409SOL    HW133689   4.700   2.068   3.199  2.0405  0.1831  0.7333
 7409SOL    HW233690   4.640   2.196   3.247 -0.4119 -0.5568 -0.8849
 7410SOL     OW33691   4.440   4.384   7.299 -0.2152  0.2113 -0.6919
 7410SOL    HW133692   4.400   4.441   7.233  0.1625  1.4625  0.1534
 7410SOL    HW233693   4.533   4.388   7.274  0.0954 -1.1982  0.2516
 7411SOL     OW33694   4.207   2.156  16.351 -0.2331  0.0303 -0.2284
 7411SOL    HW133695   4.171   2.197  16.430 -1.2480  1.0489 -1.2102
 7411SOL    HW233696   4.276   2.215  16.321 -0.5378  1.2758  1.4886
 7412SOL     OW33697   0.705   1.526   7.927 -0.8278 -0.6649 -0.0181
 7412SOL    HW133698   0.797   1.541   7.952 -1.4671 -0.3889  2.1873
 7412SOL    HW233699   0.734   1.492   7.842 -1.3121 -2.2475  0.4645
 7413SOL     OW33700   4.510   3.184   6.096 -0.4334  0.0316 -0.1132
 7413SOL    HW133701   4.467   3.198   6.012  0.5385  1.4253 -0.3674
 7413SOL    HW233702   4.482   3.258   6.149 -1.3428  0.9216 -1.8414
 7414SOL     OW33703   2.481   1.728  12.623 -0.3694  0.0429 -0.2814
 7414SOL    HW133704   2.488   1.796  12.690  0.7823  0.4093 -0.7643
 7414SOL    HW233705   2.486   1.780  12.543 -4.0681  2.4407  1.0361
 7415SOL     OW33706   4.142   1.029  12.643  0.3272  0.0105 -0.0036
 7415SOL    HW133707   4.070   0.967  12.631  2.3286 -1.9362 -2.2035
 7415SOL    HW233708   4.167   1.005  12.732  1.0156 -4.6552 -1.4263
 7416SOL     OW33709   4.540   4.637   8.076  0.1037 -0.1809  0.6082
 7416SOL    HW133710   4.590   4.705   8.121  1.4444 -0.3730 -0.5537
 7416SOL    HW233711   4.511   4.672   7.992  2.3471 -2.6586 -1.2217
 7417SOL     OW33712   1.327   3.400   7.048  0.3037 -0.3519  0.1416
 7417SOL    HW133713   1.395   3.338   7.075  1.2231  0.1503 -1.0223
 7417SOL    HW233714   1.361   3.423   6.961 -2.8903  0.4432 -0.8952
 7418SOL     OW33715   2.696   2.279   5.220  0.1216  0.0343 -0.6079
 7418SOL    HW133716   2.697   2.339   5.294  2.2601 -0.1229 -0.5081
 7418SOL    HW233717   2.614   2.238   5.248 -0.3196  2.0121  0.9580
 7419SOL     OW33718   1.940   2.422   5.232  0.2692 -0.4410  0.0306
 7419SOL    HW133719   1.895   2.492   5.184  0.8988 -1.5124 -2.1007
 7419SOL    HW233720   2.035   2.436   5.226  0.2751 -1.4819 -2.1046
 7420SOL     OW33721   4.162   4.414   1.322 -0.4430  0.0527 -0.0351
 7420SOL    HW133722   4.117   4.466   1.389 -0.4004  1.1885 -0.8949
 7420SOL    HW233723   4.156   4.463   1.240 -0.5412  1.7693  0.9957
 7421SOL     OW33724   2.523   4.137   0.873 -0.4231  0.2897  0.2910
 7421SOL    HW133725   2.470   4.065   0.838 -0.0467  0.7885 -1.3009
 7421SOL    HW233726   2.459   4.208   0.879 -0.2553  0.6985 -2.7828
 7422SOL     OW33727   3.416   4.629   1.413 -0.2379  0.0687 -0.2659
 7422SOL    HW133728   3.380   4.718   1.420  1.0207  0.3626  2.6816
 7422SOL    HW233729   3.422   4.603   1.505 -1.2654 -1.7455 -0.7151
 7423SOL     OW33730   3.622   4.469  15.490 -0.7517 -0.4318 -0.7976
 7423SOL    HW133731   3.686   4.461  15.561 -0.1651  1.6912 -1.0771
 7423SOL    HW233732   3.546   4.432  15.534 -0.3350  0.5120  0.7512
 7424SOL     OW33733   2.941   0.816  10.019  0.4429  0.1899 -0.6168
 7424SOL    HW133734   3.035   0.814  10.003  0.0841 -1.9499 -2.3974
 7424SOL    HW233735   2.925   0.759   9.944  0.8090  0.1957 -0.6958
 7425SOL     OW33736   2.050   1.339  14.384 -0.0325  0.0173  0.1422
 7425SOL    HW133737   2.122   1.369  14.329 -0.2770  0.3846  0.0219
 7425SOL    HW233738   1.968   1.367  14.344  0.5666  0.9975 -0.3911
 7426SOL     OW33739   2.697   3.169   9.073  0.1832  0.3576 -0.1281
 7426SOL    HW133740   2.715   3.220   9.152 -0.4069  0.6872 -0.2088
 7426SOL    HW233741   2.763   3.204   9.013 -0.3053  1.1332 -0.2086
 7427SOL     OW33742   2.852   3.853  16.569  0.0279  0.1737 -0.1409
 7427SOL    HW133743   2.791   3.921  16.541  1.0287  0.4319 -1.6972
 7427SOL    HW233744   2.883   3.819  16.485  1.2872 -0.4975  0.5829
 7428SOL     OW33745   3.496   1.804   6.851 -0.2295 -0.5889  0.0248
 7428SOL    HW133746   3.465   1.760   6.930  0.6614 -1.8432 -0.3284
 7428SOL    HW233747   3.552   1.735   6.817  0.3318 -0.5843  0.9511
 7429SOL     OW33748   3.051   2.823  11.446  0.1844  0.0288  0.1758
 7429SOL    HW133749   3.098   2.754  11.398  1.2801  1.3542 -0.6342
 7429SOL    HW233750   3.122   2.845  11.506 -0.5001  0.0818  0.9622
 7430SOL     OW33751   2.325   4.666  17.108  0.4048 -0.3289  0.1799
 7430SOL    HW133752   2.324   4.671  17.204 -2.8081  1.2652  0.0672
 7430SOL    HW233753   2.419   4.664  17.092 -0.1177 -0.2544 -2.8245
 7431SOL     OW33754   0.998   3.486   5.075 -0.0053  0.1154 -0.6853
 7431SOL    HW133755   1.007   3.581   5.082  2.3721 -0.0459 -1.2794
 7431SOL    HW233756   0.915   3.477   5.029 -0.8230 -0.8386  0.9755
 7432SOL     OW33757   1.127   2.205   9.076  1.1718  0.3734 -0.1772
 7432SOL    HW133758   1.210   2.158   9.087  0.9608 -0.1750 -0.9348
 7432SOL    HW233759   1.072   2.139   9.118  1.1148  0.3964 -0.2169
 7433SOL     OW33760   2.095   3.303   6.649 -0.8640 -0.2504 -0.0469
 7433SOL    HW133761   2.093   3.364   6.723 -1.2778 -0.1917 -0.1079
 7433SOL    HW233762   2.190   3.300   6.637 -0.5506 -0.3576  2.4783
 7434SOL     OW33763   0.100   0.871  17.601 -0.1602  0.0296 -0.7269
 7434SOL    HW133764   0.116   0.785  17.562  0.9356 -0.1397  0.1086
 7434SOL    HW233765   0.101   0.923  17.520 -2.3547  1.1679 -0.0460
 7435SOL     OW33766   2.558   1.573   7.926  0.0591  0.2335  0.1211
 7435SOL    HW133767   2.605   1.643   7.970  1.8291  0.4898 -2.2240
 7435SOL    HW233768   2.501   1.549   8.000  0.1919 -2.4033 -0.6342
 7436SOL     OW33769   0.708   0.189  12.464 -0.1399 -0.1607  0.5184
 7436SOL    HW133770   0.767   0.247  12.513 -0.6087  1.2542 -0.6064
 7436SOL    HW233771   0.766   0.128  12.419 -0.1555  0.7822 -0.7906
 7437SOL     OW33772   3.787   2.240   8.526  0.2871 -0.3602  0.3968
 7437SOL    HW133773   3.881   2.220   8.528  0.4967  0.6803  0.6808
 7437SOL    HW233774   3.787   2.335   8.517 -0.2422 -0.4136 -0.1636
 7438SOL     OW33775   0.940   4.153   7.571  0.1824 -0.1316 -0.5079
 7438SOL    HW133776   0.846   4.148   7.589  0.5512 -2.3950  0.8036
 7438SOL    HW233777   0.941   4.157   7.475 -0.7950 -3.0600 -0.6398
 7439SOL     OW33778   2.028   0.513  10.932 -0.1221 -0.1119  0.3219
 7439SOL    HW133779   2.063   0.515  10.842 -2.1463 -0.6293 -0.4705
 7439SOL    HW233780   2.096   0.482  10.991 -0.7517  1.1023  1.6623
 7440SOL     OW33781   1.576   2.726   2.141  0.8580 -0.6508 -0.0103
 7440SOL    HW133782   1.508   2.672   2.101  0.0404  1.7338 -1.8163
 7440SOL    HW233783   1.533   2.803   2.178  1.9620  1.0293 -2.2624
 7441SOL     OW33784   1.095   3.943  10.088  0.2555 -0.1268 -0.5904
 7441SOL    HW133785   1.083   4.010  10.020 -1.7520 -1.1924 -1.2949
 7441SOL    HW233786   1.164   3.887  10.053  1.7820  1.3830 -0.0295
 7442SOL     OW33787   4.713   2.897   3.079 -0.1508 -0.3205 -0.1123
 7442SOL    HW133788   4.667   2.974   3.045 -1.1684 -0.9546 -0.1525
 7442SOL    HW233789   4.673   2.882   3.165  1.5245 -3.5324  0.0874
 7443SOL     OW33790   4.477   4.517   6.669 -0.4764  0.3888  0.2909
 7443SOL    HW133791   4.450   4.485   6.755 -1.7542 -2.3250 -1.1337
 7443SOL    HW233792   4.389   4.540   6.638 -1.2780 -1.8459  0.9407
 7444SOL     OW33793   4.226   0.470   5.600  0.3810  0.0707  0.3035
 7444SOL    HW133794   4.256   0.408   5.533 -0.6843  0.9748 -1.0093
 7444SOL    HW233795   4.154   0.419   5.636 -1.7936  2.2194 -1.0561
 7445SOL     OW33796   0.254   2.002   4.399  0.4667 -0.0792 -0.2969
 7445SOL    HW133797   0.259   1.931   4.463 -0.8665  0.9051  0.8981
 7445SOL    HW233798   0.311   1.972   4.328  2.4593 -0.2236  1.3290
 7446SOL     OW33799   0.815   4.607   4.064  0.3009 -0.1580  0.2083
 7446SOL    HW133800   0.796   4.557   4.143  1.5358  1.2377  1.3913
 7446SOL    HW233801   0.858   4.537   4.015 -1.6774 -1.0585 -0.2050
 7447SOL     OW33802   2.598   3.988   5.876  0.1478  0.0061  0.8804
 7447SOL    HW133803   2.537   3.990   5.950 -0.5128  0.1091  0.3414
 7447SOL    HW233804   2.659   4.058   5.899  0.9886 -0.9798  1.6556
 7448SOL     OW33805   2.908   3.363   4.372 -0.1303 -0.3857 -0.0408
 7448SOL    HW133806   2.852   3.318   4.309 -0.1997 -0.2939 -0.0444
 7448SOL    HW233807   2.982   3.302   4.377  1.3099  1.4786  1.2611
 7449SOL     OW33808   2.393   3.221   7.443 -0.1130  0.0539  0.2294
 7449SOL    HW133809   2.461   3.287   7.455 -0.4058  0.3121  0.4417
 7449SOL    HW233810   2.401   3.201   7.349 -4.0277  0.5945 -0.2207
 7450SOL     OW33811   0.968   1.385   7.320  0.0113  0.0233  0.0204
 7450SOL    HW133812   1.025   1.394   7.244 -0.9088 -1.5316 -0.8579
 7450SOL    HW233813   0.986   1.293   7.343  1.2837  0.4412  0.6956
 7451SOL     OW33814   0.528   3.929  10.342 -0.1625  0.1963  0.1434
 7451SOL    HW133815   0.484   3.888  10.415  0.5023 -1.3159 -0.3159
 7451SOL    HW233816   0.611   3.962  10.378  0.5506 -0.1957 -1.1214
 7452SOL     OW33817   0.330   1.332   6.708  0.0464 -0.0263  0.2898
 7452SOL    HW133818   0.284   1.337   6.624 -1.4625 -1.3224  1.0508
 7452SOL    HW233819   0.303   1.247   6.743 -2.4659  0.8010  0.3450
 7453SOL     OW33820   1.543   0.294  10.110  0.6772  0.3638 -0.5082
 7453SOL    HW133821   1.481   0.352  10.066 -1.0592 -0.6096  0.7113
 7453SOL    HW233822   1.589   0.253  10.037 -0.8808  0.5350 -1.5728
 7454SOL     OW33823   0.236   3.630   3.657 -0.1754  0.4565  0.1236
 7454SOL    HW133824   0.268   3.695   3.594 -1.0655  1.3601  0.5879
 7454SOL    HW233825   0.152   3.604   3.618 -0.6827  0.8280  0.9555
 7455SOL     OW33826   4.613   0.393   5.832 -0.0862  0.5216 -0.1560
 7455SOL    HW133827   4.610   0.488   5.825 -2.3338  0.4255 -0.3004
 7455SOL    HW233828   4.520   0.372   5.823 -0.1306  1.1067 -1.0651
 7456SOL     OW33829   0.456   3.530   9.322  0.2515 -0.4592 -0.1204
 7456SOL    HW133830   0.367   3.499   9.304  0.1711  0.2712 -1.0173
 7456SOL    HW233831   0.444   3.613   9.275 -2.1991 -1.9388 -2.1267
 7457SOL     OW33832   2.504   3.706  15.653  1.2943 -0.3662  0.8390
 7457SOL    HW133833   2.411   3.683  15.654  0.7685  1.7393 -0.1264
 7457SOL    HW233834   2.499   3.801  15.641  2.4949 -0.4968 -0.7542
 7458SOL     OW33835   1.443   3.195  16.632 -0.4118 -0.5180  0.3429
 7458SOL    HW133836   1.481   3.248  16.702  0.6801 -2.6812  1.3741
 7458SOL    HW233837   1.520   3.190  16.575 -0.2157 -1.3861  0.6919
 7459SOL     OW33838   3.324   0.951  10.854  0.6143  0.1340  0.0956
 7459SOL    HW133839   3.348   1.038  10.886  1.4085  0.4136 -1.2661
 7459SOL    HW233840   3.361   0.907  10.931  2.7678  2.3940  0.3587
 7460SOL     OW33841   1.717   1.244   5.493  0.0393  0.1668  0.0079
 7460SOL    HW133842   1.766   1.196   5.427 -0.4746 -0.3869  0.0272
 7460SOL    HW233843   1.753   1.333   5.484 -1.0885  0.5032 -1.1054
 7461SOL     OW33844   0.505   0.112   6.392  0.6598  0.2630 -0.0939
 7461SOL    HW133845   0.411   0.111   6.373  0.3065 -1.0294  1.6592
 7461SOL    HW233846   0.504   0.026   6.435  1.9675  0.2765 -0.0429
 7462SOL     OW33847   3.506   2.422   6.031  0.4840 -0.5031 -0.7143
 7462SOL    HW133848   3.538   2.337   6.061  1.7157 -0.2696 -1.3651
 7462SOL    HW233849   3.422   2.396   5.993 -0.7386 -2.7223  3.4291
 7463SOL     OW33850   2.261   2.251   8.532  0.3150 -0.4315  0.5190
 7463SOL    HW133851   2.196   2.198   8.579 -0.3062 -1.3552 -1.4266
 7463SOL    HW233852   2.264   2.328   8.589  2.1571 -0.5187  0.5334
 7464SOL     OW33853   1.183   2.533   3.961 -0.0081  0.1684  0.1565
 7464SOL    HW133854   1.276   2.513   3.966 -0.0625  0.0060  0.5121
 7464SOL    HW233855   1.181   2.629   3.963  3.2842  0.2197 -0.3813
 7465SOL     OW33856   0.497   0.472  16.031 -1.0971  0.3423  0.3703
 7465SOL    HW133857   0.554   0.396  16.022 -1.9645 -0.5581  2.4065
 7465SOL    HW233858   0.562   0.542  16.039  0.0907 -0.7845  0.5922
 7466SOL     OW33859   4.453   3.488   2.912 -0.2373 -0.1880 -0.0662
 7466SOL    HW133860   4.385   3.421   2.906  1.0180 -1.4677 -0.0130
 7466SOL    HW233861   4.439   3.516   3.002 -0.8926 -0.6646 -0.0168
 7467SOL     OW33862   3.841   2.866   5.259 -0.0401 -0.9004 -0.0677
 7467SOL    HW133863   3.901   2.798   5.289  0.2162 -1.1659 -1.1693
 7467SOL    HW233864   3.861   2.850   5.166  0.7024  1.7464 -0.3579
 7468SOL     OW33865   2.195   2.851  10.634  0.0983 -0.2833  0.4154
 7468SOL    HW133866   2.122   2.890  10.683 -2.0048 -2.4002 -1.0864
 7468SOL    HW233867   2.243   2.794  10.694  0.1290 -0.2266  0.4451
 7469SOL     OW33868   2.638   2.994   8.351  0.0372 -0.3457 -0.0752
 7469SOL    HW133869   2.709   3.056   8.332 -0.9686  0.6798 -0.4695
 7469SOL    HW233870   2.668   2.921   8.297  1.1922 -1.4025  1.9952
 7470SOL     OW33871   3.188   2.695   2.612 -0.4580  0.4401 -0.4394
 7470SOL    HW133872   3.265   2.750   2.601  0.2652 -0.7670 -1.3913
 7470SOL    HW233873   3.215   2.603   2.613  1.2769  0.9387 -0.9098
 7471SOL     OW33874   3.100   3.897   5.305 -0.1437 -0.4842 -0.0980
 7471SOL    HW133875   3.119   3.991   5.313  1.2533 -1.0077  2.5656
 7471SOL    HW233876   3.035   3.884   5.374 -0.6642 -1.8880 -0.8608
 7472SOL     OW33877   3.621   1.995   7.178 -0.2322  0.5110  0.3736
 7472SOL    HW133878   3.680   1.940   7.126 -1.9935 -1.0001 -0.0212
 7472SOL    HW233879   3.674   2.072   7.200  1.5680 -1.0917  1.6546
 7473SOL     OW33880   2.862   4.000   3.369 -0.3441 -0.2135 -0.2700
 7473SOL    HW133881   2.802   3.944   3.320 -0.1460 -0.9055  0.2977
 7473SOL    HW233882   2.808   4.013   3.447  0.8697 -1.4352  0.7505
 7474SOL     OW33883   2.094   2.960   6.510 -0.0343 -0.1913  0.0089
 7474SOL    HW133884   2.172   2.990   6.556  2.2150 -1.7574 -2.8057
 7474SOL    HW233885   2.119   2.870   6.488  0.3431 -0.2099  0.5289
 7475SOL     OW33886   0.951   2.996  10.602 -0.4482 -0.0560 -0.1538
 7475SOL    HW133887   0.946   3.067  10.666 -3.5944  0.4481 -0.9436
 7475SOL    HW233888   0.874   2.946  10.626 -0.6220 -0.0384 -0.6635
 7476SOL     OW33889   2.410   3.541   4.300 -0.0271  0.6419  0.1581
 7476SOL    HW133890   2.442   3.577   4.383  0.2682  0.6448  0.0397
 7476SOL    HW233891   2.400   3.620   4.247  4.3849  0.0052 -1.5570
 7477SOL     OW33892   3.903   1.996  12.189 -0.4986 -0.0695  0.3203
 7477SOL    HW133893   3.858   1.933  12.245 -2.4034  1.3023  0.3423
 7477SOL    HW233894   3.991   2.012  12.225 -0.8562 -0.4065  1.3638
 7478SOL     OW33895   1.351   2.005   3.214  0.5117 -0.3093 -0.5649
 7478SOL    HW133896   1.388   2.067   3.152  0.7726 -1.2364 -1.3329
 7478SOL    HW233897   1.425   1.946   3.208  1.0557  0.0300  2.5942
 7479SOL     OW33898   1.787   2.278   9.221 -0.6244 -0.3865  0.0950
 7479SOL    HW133899   1.833   2.258   9.303 -1.4532  0.2373  0.7099
 7479SOL    HW233900   1.810   2.199   9.173 -0.4847  1.0968 -2.2953
 7480SOL     OW33901   3.195   0.832   4.678  0.2735  0.8392  0.2696
 7480SOL    HW133902   3.197   0.736   4.679  1.0677  0.8456 -0.7868
 7480SOL    HW233903   3.282   0.858   4.708  1.0728  1.0642 -2.2312
 7481SOL     OW33904   1.879   2.956   6.654  0.2931  0.6982  0.3739
 7481SOL    HW133905   1.847   3.031   6.602  0.8437  0.5261 -0.2117
 7481SOL    HW233906   1.963   2.945   6.609 -0.8430  2.4659 -2.2111
 7482SOL     OW33907   1.406   1.104   3.560 -0.2956  0.0467  0.8372
 7482SOL    HW133908   1.405   1.009   3.576  2.5729 -0.3283 -1.1045
 7482SOL    HW233909   1.344   1.116   3.489  1.8171  1.5990 -0.7511
 7483SOL     OW33910   0.414   2.497  13.845 -0.5508 -0.0494  0.1351
 7483SOL    HW133911   0.493   2.476  13.795  1.9631  2.4505  2.9735
 7483SOL    HW233912   0.433   2.461  13.932  0.4464 -0.2430 -0.1552
 7484SOL     OW33913   1.166   3.791  13.346  0.4228 -0.4231  0.0840
 7484SOL    HW133914   1.184   3.763  13.435 -0.4208  1.5983  0.8880
 7484SOL    HW233915   1.073   3.769  13.346  0.1963  0.5048 -2.8992
 7485SOL     OW33916   4.243   1.822   1.608 -0.8583  0.5306  0.1880
 7485SOL    HW133917   4.267   1.871   1.530  1.0417 -2.0469 -0.8580
 7485SOL    HW233918   4.261   1.896   1.666  1.0784 -0.2268  0.5700
 7486SOL     OW33919   3.341   1.226   3.153  0.0045 -0.6402 -0.5091
 7486SOL    HW133920   3.301   1.223   3.240  0.5150 -0.3542 -0.2681
 7486SOL    HW233921   3.431   1.215   3.183 -0.1841  2.1025  1.0299
 7487SOL     OW33922   4.440   1.517   7.515  0.1887 -0.0696 -0.2433
 7487SOL    HW133923   4.533   1.493   7.520  0.6391  1.2534 -2.0699
 7487SOL    HW233924   4.402   1.480   7.595  1.1563 -1.7342 -0.5413
 7488SOL     OW33925   3.716   0.886  10.891 -0.4910  0.4303 -0.7838
 7488SOL    HW133926   3.638   0.926  10.929 -1.4632 -1.0253 -1.2359
 7488SOL    HW233927   3.725   0.924  10.804  0.8526  2.2155  0.1340
 7489SOL     OW33928   4.716   4.295   8.287 -0.1815 -0.6620 -0.2387
 7489SOL    HW133929   4.645   4.317   8.227  0.6142  1.4711 -0.3761
 7489SOL    HW233930   4.719   4.376   8.337  1.1219 -0.4686 -0.6364
 7490SOL     OW33931   4.134   4.316  16.706 -0.2869  0.0661  0.5416
 7490SOL    HW133932   4.085   4.262  16.768  2.1530  0.2859  2.6992
 7490SOL    HW233933   4.166   4.250  16.644 -0.1417  0.3744  0.2916
 7491SOL     OW33934   0.227   0.208  13.996  0.1166 -0.0708  0.3439
 7491SOL    HW133935   0.309   0.246  13.966 -1.1737  2.5395  0.1753
 7491SOL    HW233936   0.193   0.197  13.908 -2.2954  2.1326  0.9851
 7492SOL     OW33937   4.553   4.247   5.769 -0.0425  0.2114  0.3736
 7492SOL    HW133938   4.518   4.185   5.706 -0.5454  0.3169  0.5498
 7492SOL    HW233939   4.543   4.336   5.736 -0.4157  0.3115  0.7534
 7493SOL     OW33940   2.093   0.474  11.262  0.0381 -0.7338  0.3012
 7493SOL    HW133941   2.108   0.482  11.356 -2.6397  1.6316  0.5384
 7493SOL    HW233942   2.156   0.405  11.243 -0.3464 -2.0543  3.9163
 7494SOL     OW33943   2.903   0.393   8.926  0.5139  0.8248 -0.2221
 7494SOL    HW133944   2.935   0.327   8.865 -0.7749 -0.3554  0.3915
 7494SOL    HW233945   2.839   0.431   8.866  0.4934  0.6058 -0.3362
 7495SOL     OW33946   4.375   2.172  10.937  0.2161  0.6774  0.3459
 7495SOL    HW133947   4.336   2.257  10.915  1.1347  1.0341  0.0946
 7495SOL    HW233948   4.467   2.196  10.926  0.4877 -0.3720  0.3646
 7496SOL     OW33949   3.660   2.341   6.720  0.3304  0.8950 -0.0778
 7496SOL    HW133950   3.633   2.332   6.629  0.9216 -1.7859 -0.0112
 7496SOL    HW233951   3.703   2.426   6.715 -0.3973  1.3189  1.0702
 7497SOL     OW33952   1.246   2.649   7.205 -0.2571 -0.1678  0.5910
 7497SOL    HW133953   1.227   2.574   7.261 -0.9710 -0.3505  0.1073
 7497SOL    HW233954   1.324   2.683   7.249  0.3705  0.0353 -0.6716
 7498SOL     OW33955   3.626   3.840   2.686 -0.0231  0.2182 -0.8212
 7498SOL    HW133956   3.639   3.753   2.649 -2.0429  0.0589 -1.1558
 7498SOL    HW233957   3.532   3.854   2.674  0.1132  1.3887 -0.5107
 7499SOL     OW33958   2.274   4.448   9.918  0.2316  0.2177 -0.0002
 7499SOL    HW133959   2.365   4.479   9.915 -0.0848  1.0416 -1.2643
 7499SOL    HW233960   2.262   4.384   9.848 -0.9582  2.0829 -1.5244
 7500SOL     OW33961   0.511   0.149  14.989  0.3752 -0.6202 -0.4452
 7500SOL    HW133962   0.491   0.094  15.065  0.0252 -0.7749 -0.6498
 7500SOL    HW233963   0.533   0.087  14.920 -2.1043 -0.3003 -1.5276
 7501SOL     OW33964   4.164   3.324   4.335  0.2943  0.2583  0.4605
 7501SOL    HW133965   4.115   3.388   4.386 -0.9554  1.2256 -1.9696
 7501SOL    HW233966   4.243   3.376   4.321  1.3692 -1.3058  0.6494
 7502SOL     OW33967   0.069   2.027   5.049 -0.3351 -0.4164  0.1150
 7502SOL    HW133968   0.102   1.942   5.020  0.6083 -0.3869  1.0969
 7502SOL    HW233969   4.701   2.004   5.074 -0.6757 -0.1336 -0.8714
 7503SOL     OW33970   3.626   0.816   8.633  0.6072  0.2165  0.0226
 7503SOL    HW133971   3.671   0.835   8.715 -0.0613 -0.9872  0.6572
 7503SOL    HW233972   3.706   0.821   8.579  0.5992 -0.7531 -0.0775
 7504SOL     OW33973   1.396   1.459  13.267  0.0215  0.3523 -0.1882
 7504SOL    HW133974   1.482   1.453  13.309 -0.4202  0.0328  0.6683
 7504SOL    HW233975   1.369   1.368  13.277 -0.3327  0.1510 -3.0568
 7505SOL     OW33976   1.542   2.841   3.083 -0.5385 -0.1212  0.0445
 7505SOL    HW133977   1.530   2.750   3.054  0.5498  0.5565 -2.4920
 7505SOL    HW233978   1.469   2.845   3.145 -0.4639  0.5102  0.0936
 7506SOL     OW33979   3.931   4.563  14.080 -0.1711 -0.1544  0.0391
 7506SOL    HW133980   3.950   4.481  14.034  0.4630  0.0363 -0.0318
 7506SOL    HW233981   4.021   4.593  14.091 -0.7922  1.5668  0.3808
 7507SOL     OW33982   2.096   0.134  16.405  0.2460  0.1337  0.2018
 7507SOL    HW133983   2.006   0.132  16.438 -0.0178 -0.4762 -0.5338
 7507SOL    HW233984   2.145   0.168  16.480 -1.8021  0.0710  1.5678
 7508SOL     OW33985   0.177   1.607   6.193  0.0666 -0.3442 -0.3082
 7508SOL    HW133986   0.215   1.568   6.115 -0.7487  1.7374 -1.7267
 7508SOL    HW233987   0.136   1.687   6.160 -0.1640 -1.1717 -2.0105
 7509SOL     OW33988   3.880   4.047   3.236  0.2565 -0.3881 -0.1053
 7509SOL    HW133989   3.850   3.960   3.211 -0.1227 -0.3062  0.0665
 7509SOL    HW233990   3.904   4.080   3.150 -0.4954 -1.0027 -0.5453
 7510SOL     OW33991   1.090   0.375   4.202  0.1884 -0.4436 -0.2067
 7510SOL    HW133992   1.154   0.350   4.269  0.5698 -0.5168 -0.5980
 7510SOL    HW233993   1.104   0.309   4.135  0.0645 -1.0363  0.3449
 7511SOL     OW33994   1.960   1.444   4.303  0.6278  0.1188 -0.2653
 7511SOL    HW133995   1.922   1.357   4.296  1.4056 -0.2502  0.1357
 7511SOL    HW233996   2.017   1.450   4.227 -1.1579  0.2980 -1.5871
 7512SOL     OW33997   4.539   0.877   2.193  0.5073 -0.2876 -0.8656
 7512SOL    HW133998   4.514   0.934   2.120 -1.4312 -2.6289 -2.0310
 7512SOL    HW233999   4.623   0.917   2.215  0.7304 -1.3986  0.2561
 7513SOL     OW34000   3.243   0.165   6.203 -1.0567 -0.1820 -0.3219
 7513SOL    HW134001   3.186   0.195   6.132 -0.8189  1.6210  0.2588
 7513SOL    HW234002   3.216   0.074   6.218 -1.9117 -0.4028 -3.2234
 7514SOL     OW34003   0.153   3.447   9.835  0.0090  0.3831  0.3508
 7514SOL    HW134004   0.170   3.501   9.758  0.7192  0.6393  0.6826
 7514SOL    HW234005   0.099   3.516   9.874 -1.8222 -0.9360  0.1022
 7515SOL     OW34006   1.963   3.586   6.972 -0.0903 -0.8174  0.1703
 7515SOL    HW134007   1.890   3.648   6.966  0.9734  0.4095 -0.0820
 7515SOL    HW234008   2.013   3.592   6.890  0.0350 -0.3297  0.2858
 7516SOL     OW34009   3.755   0.384   8.580  0.0906 -0.3465 -0.1404
 7516SOL    HW134010   3.838   0.432   8.575 -0.3412  0.0364 -3.2988
 7516SOL    HW234011   3.706   0.454   8.623 -2.0233 -1.1313 -1.3003
 7517SOL     OW34012   2.938   3.928   1.261  0.0468  0.4249 -0.1436
 7517SOL    HW134013   2.872   3.874   1.304  1.0471 -1.5500 -1.0503
 7517SOL    HW234014   2.903   3.920   1.173 -0.3536 -2.9182  0.3136
 7518SOL     OW34015   1.350   1.139  10.312  0.4812 -0.1336 -0.4815
 7518SOL    HW134016   1.424   1.088  10.278 -0.1939 -1.5517  0.1830
 7518SOL    HW234017   1.358   1.133  10.407 -0.0557 -0.2448 -0.4419
 7519SOL     OW34018   0.195   1.432   0.408 -0.2289  0.7087  0.0081
 7519SOL    HW134019   0.230   1.346   0.383 -0.8683  0.0782  1.3083
 7519SOL    HW234020   0.114   1.406   0.451  0.6706 -0.4844  1.0060
 7520SOL     OW34021   0.666   2.439   9.618  0.4413  0.3198 -0.0861
 7520SOL    HW134022   0.758   2.462   9.608  0.3055  0.4729 -0.9727
 7520SOL    HW234023   0.625   2.524   9.633  0.2972  0.1187  0.6281
 7521SOL     OW34024   4.433   0.338   8.129 -0.1195  0.1608  0.1992
 7521SOL    HW134025   4.418   0.244   8.138  0.6653 -0.0635 -0.7448
 7521SOL    HW234026   4.446   0.360   8.221 -0.0208 -0.3434  0.3066
 7522SOL     OW34027   0.066   2.075  11.093  0.3898  0.1321 -0.2334
 7522SOL    HW134028   0.021   2.095  11.175 -2.8458  0.8265 -2.1772
 7522SOL    HW234029   0.001   2.115  11.035 -0.8132  0.5669  1.3929
 7523SOL     OW34030   4.071   2.713   5.269 -0.1232  0.4272  0.1757
 7523SOL    HW134031   4.061   2.619   5.255 -0.0106  0.2892  1.0136
 7523SOL    HW234032   4.145   2.710   5.330  0.0377 -0.0660 -0.0426
 7524SOL     OW34033   2.268   3.159   9.599  0.0547 -0.3062 -0.3504
 7524SOL    HW134034   2.358   3.127   9.604 -0.5214 -1.3711  3.0486
 7524SOL    HW234035   2.226   3.081   9.562 -1.7858 -0.2428  1.6316
 7525SOL     OW34036   0.981   3.573   8.078  0.5157 -0.6858 -0.6866
 7525SOL    HW134037   1.047   3.511   8.047  0.9921 -0.7525  0.4530
 7525SOL    HW234038   0.966   3.612   7.992  1.8206 -1.0433 -1.0807
 7526SOL     OW34039   3.033   0.366   5.976 -0.3198  0.0649  0.5653
 7526SOL    HW134040   3.024   0.276   5.944 -0.8543  0.3874 -0.1870
 7526SOL    HW234041   3.046   0.418   5.897 -0.4936 -0.2398  0.3361
 7527SOL     OW34042   2.100   1.002   8.840 -0.1671  0.3543 -0.4725
 7527SOL    HW134043   2.075   0.924   8.890  4.7520  0.9747  2.9504
 7527SOL    HW234044   2.067   0.973   8.755 -0.7238  0.2203 -0.2131
 7528SOL     OW34045   1.023   3.967  13.160  0.5708 -0.1218 -0.3927
 7528SOL    HW134046   0.978   3.956  13.076  1.1925 -0.6000 -0.6656
 7528SOL    HW234047   1.026   3.876  13.191 -1.2430  0.5144  1.6099
 7529SOL     OW34048   1.751   3.740   1.090  0.0440  0.3871  0.3000
 7529SOL    HW134049   1.825   3.724   1.149 -0.8814 -0.3470  1.2458
 7529SOL    HW234050   1.684   3.693   1.139 -0.8450  1.1527 -0.1942
 7530SOL     OW34051   0.040   2.612   8.711 -0.5298  0.1219 -0.4688
 7530SOL    HW134052   0.107   2.680   8.707 -1.1825  0.7267 -1.2130
 7530SOL    HW234053   0.063   2.560   8.788 -1.2748  0.7709  0.1816
 7531SOL     OW34054   1.444   3.116   2.796  0.3988 -0.0335  0.7248
 7531SOL    HW134055   1.501   3.172   2.849  3.3308 -1.2635 -1.1131
 7531SOL    HW234056   1.384   3.087   2.865 -0.8365  0.5511 -0.1069
 7532SOL     OW34057   1.522   1.166   4.314 -0.0005  0.2343  0.2545
 7532SOL    HW134058   1.595   1.184   4.254  0.1023 -0.2111  0.2423
 7532SOL    HW234059   1.520   1.254   4.351 -0.3657  0.3351 -0.0046
 7533SOL     OW34060   4.480   4.057   1.081  0.0155 -0.3691 -0.0426
 7533SOL    HW134061   4.407   3.996   1.095  0.7187 -1.2510 -0.1629
 7533SOL    HW234062   4.542   4.022   1.146  1.5337  1.1130 -0.7080
 7534SOL     OW34063   1.226   3.067  11.756  0.2780 -0.3751  0.2059
 7534SOL    HW134064   1.299   3.083  11.816 -0.3938 -1.8706  1.4057
 7534SOL    HW234065   1.161   3.126  11.794  2.4073  2.9522 -1.2892
 7535SOL     OW34066   2.145   3.539   9.100  0.1335  0.0196 -0.2194
 7535SOL    HW134067   2.079   3.489   9.148 -0.9553  0.3654 -1.3776
 7535SOL    HW234068   2.215   3.473   9.090  1.1433  1.5537 -3.2152
 7536SOL     OW34069   1.765   3.925  15.315  0.4981  0.2539  0.4073
 7536SOL    HW134070   1.737   3.997  15.258  2.2290  0.0782 -0.6716
 7536SOL    HW234071   1.721   3.847  15.282  0.8670  0.9933 -1.8705
 7537SOL     OW34072   3.809   2.520  13.142 -0.5086 -0.0258 -0.4573
 7537SOL    HW134073   3.803   2.615  13.154  1.9433  0.0363  0.3109
 7537SOL    HW234074   3.733   2.487  13.188 -0.8217  0.6823 -0.4564
 7538SOL     OW34075   1.940   2.328  16.095 -0.2435  0.5508 -0.5424
 7538SOL    HW134076   1.858   2.367  16.065  0.7727  3.9688  1.0691
 7538SOL    HW234077   1.932   2.318  16.190 -0.8258  0.9229 -0.5531
 7539SOL     OW34078   0.244   4.165   3.987 -0.2510 -0.3388  0.2860
 7539SOL    HW134079   0.241   4.142   3.894 -1.5308 -1.4277  0.5880
 7539SOL    HW234080   0.173   4.113   4.025  0.6962 -0.9427  1.2102
 7540SOL     OW34081   0.919   4.191   5.458  0.2032  0.4072 -0.3314
 7540SOL    HW134082   0.919   4.166   5.366  2.1403 -3.4961  0.7323
 7540SOL    HW234083   0.877   4.117   5.501 -2.1100  1.3077 -1.0671
 7541SOL     OW34084   0.136   0.096  15.964  0.0495 -0.7587  0.1705
 7541SOL    HW134085   0.098   0.180  15.989 -0.1638 -0.1075 -2.3008
 7541SOL    HW234086   0.109   0.041  16.037  0.6778  1.3787  1.9993
 7542SOL     OW34087   0.069   0.430   5.316  0.0481  0.0610 -0.5028
 7542SOL    HW134088   0.050   0.486   5.391  1.1010  3.3659 -2.6738
 7542SOL    HW234089   0.016   0.473   5.249  0.1488  0.6616 -0.1986
 7543SOL     OW34090   1.795   2.693  17.574 -0.2199 -0.3560 -0.2603
 7543SOL    HW134091   1.813   2.692  17.668  0.3612  0.4897 -0.3678
 7543SOL    HW234092   1.882   2.696  17.536 -0.4230 -0.5759 -0.7438
 7544SOL     OW34093   2.793   1.720  13.739 -0.3929  0.0582 -0.3371
 7544SOL    HW134094   2.705   1.722  13.702 -0.7308  1.3173  0.5340
 7544SOL    HW234095   2.777   1.785  13.808 -1.1286 -0.3871 -0.0967
 7545SOL     OW34096   3.346   0.310   0.041  0.3683 -0.2601 -0.2143
 7545SOL    HW134097   3.411   0.251   0.003  3.4101  2.4222  0.8312
 7545SOL    HW234098   3.263   0.279   0.005  1.0049 -1.7441 -0.3790
 7546SOL     OW34099   0.815   0.478   7.194 -0.1673  0.0894  0.0254
 7546SOL    HW134100   0.848   0.527   7.269 -2.0394  0.1920  0.7871
 7546SOL    HW234101   0.725   0.457   7.219 -1.1251  0.6270 -2.9252
 7547SOL     OW34102   0.674   2.128   6.331  0.2384 -0.6288 -0.1212
 7547SOL    HW134103   0.596   2.101   6.283 -1.7814  1.7194  1.8546
 7547SOL    HW234104   0.734   2.058   6.308  2.0347  1.2585 -1.2398
 7548SOL     OW34105   0.669   1.150   7.049 -0.1544  0.3823 -0.2861
 7548SOL    HW134106   0.684   1.215   6.980  0.3595  1.3271  0.7259
 7548SOL    HW234107   0.690   1.212   7.119  0.4585 -1.1903  0.9135
 7549SOL     OW34108   2.109   3.127   2.751 -0.0055  0.1185 -0.0873
 7549SOL    HW134109   2.057   3.079   2.687  0.4013  0.6127 -0.7815
 7549SOL    HW234110   2.138   3.051   2.802  0.3769  0.9263  0.9132
 7550SOL     OW34111   1.365   1.004  10.576  0.1869  0.8361 -0.7137
 7550SOL    HW134112   1.422   1.080  10.589 -0.2507  0.5817  2.8558
 7550SOL    HW234113   1.423   0.951  10.632  0.9031  1.4689 -0.8526
 7551SOL     OW34114   4.310   0.490   5.110  0.3053 -0.1711  0.5227
 7551SOL    HW134115   4.331   0.524   5.197 -1.4692  0.9249  0.5220
 7551SOL    HW234116   4.373   0.539   5.057  0.1059 -1.6851 -1.1169
 7552SOL     OW34117   2.503   0.313   4.552 -0.0431 -0.5113  0.1630
 7552SOL    HW134118   2.493   0.406   4.532 -0.5149 -0.7611 -0.7880
 7552SOL    HW234119   2.491   0.313   4.647 -2.1255 -2.3247 -0.0913
 7553SOL     OW34120   0.547   1.005   2.782  0.5144  0.1304 -0.2378
 7553SOL    HW134121   0.575   0.918   2.810 -4.0948 -0.9358  1.0372
 7553SOL    HW234122   0.617   1.023   2.719 -0.4274  0.8584 -1.0813
 7554SOL     OW34123   0.394   4.305   9.691  0.3315 -0.6544 -0.4389
 7554SOL    HW134124   0.318   4.340   9.738 -1.1616 -2.5476 -1.4816
 7554SOL    HW234125   0.428   4.240   9.753 -1.2413 -1.6189 -0.6041
 7555SOL     OW34126   0.856   0.072  15.372  0.7765 -0.1990  0.5933
 7555SOL    HW134127   0.815   0.078  15.286 -2.6289 -1.1228  2.1048
 7555SOL    HW234128   0.819   4.707  15.392 -0.6299  0.1502 -0.4845
 7556SOL     OW34129   0.138   4.182   2.201  0.4640 -0.2652 -0.2922
 7556SOL    HW134130   0.234   4.186   2.208  0.3423  1.5249  0.4819
 7556SOL    HW234131   0.128   4.089   2.219  0.5781  0.1642  1.9763
 7557SOL     OW34132   0.857   4.537   8.419  0.2790 -0.2270 -0.3487
 7557SOL    HW134133   0.816   4.499   8.342  0.7225 -2.7248  0.6307
 7557SOL    HW234134   0.911   4.459   8.434  0.9831  0.0963 -1.2316
 7558SOL     OW34135   1.346   0.474   5.155  0.1095  0.1648  0.5463
 7558SOL    HW134136   1.352   0.470   5.251  2.8349 -0.5638  0.3452
 7558SOL    HW234137   1.384   0.561   5.142 -0.7345  0.9687  3.3706
 7559SOL     OW34138   4.707   3.975   9.565  0.1906 -0.0413  0.0067
 7559SOL    HW134139   0.046   3.915   9.521 -1.1249 -0.1257 -1.7028
 7559SOL    HW234140   0.017   4.065   9.560 -0.0118  0.0104 -0.3159
 7560SOL     OW34141   0.512   2.027   8.905  0.1657  0.1030  0.5184
 7560SOL    HW134142   0.607   2.028   8.893  0.0323  1.1099 -0.4908
 7560SOL    HW234143   0.511   2.064   8.994 -1.1523 -1.1772  1.0291
 7561SOL     OW34144   2.212   2.464   3.113 -0.5838 -0.2687 -0.5416
 7561SOL    HW134145   2.166   2.536   3.156  1.5850 -0.3718  1.9326
 7561SOL    HW234146   2.300   2.500   3.104 -1.0250  1.3602  1.8058
 7562SOL     OW34147   0.154   0.113   0.350 -0.5482 -0.6762 -0.9660
 7562SOL    HW134148   0.094   0.045   0.381  1.3822 -1.6420  0.7134
 7562SOL    HW234149   0.126   0.118   0.259 -4.4027  1.7761  0.3615
 7563SOL     OW34150   2.960   1.045  14.152 -0.0814  0.0552 -0.0192
 7563SOL    HW134151   3.053   1.044  14.174  0.1687 -0.0490 -1.0806
 7563SOL    HW234152   2.955   1.070  14.060 -0.5959  3.0735  0.8346
 7564SOL     OW34153   1.909   3.466  12.057 -0.1576 -0.3717  0.4249
 7564SOL    HW134154   1.822   3.427  12.053 -0.0123 -0.7879  1.2487
 7564SOL    HW234155   1.951   3.417  12.129 -1.7054 -1.6782  0.4347
 7565SOL     OW34156   3.240   1.976  17.554 -0.0543 -0.2688 -0.0105
 7565SOL    HW134157   3.190   1.980  17.472 -0.7382 -1.2505  0.3591
 7565SOL    HW234158   3.296   2.053  17.547  0.1690 -0.4749 -0.5033
 7566SOL     OW34159   0.145   0.105   8.493  0.3842 -0.6328 -0.0080
 7566SOL    HW134160   0.193   0.063   8.422 -0.2194  0.5465 -1.1066
 7566SOL    HW234161   0.121   0.029   8.546  2.0664 -1.2792 -0.1979
 7567SOL     OW34162   3.983   0.703   8.423 -0.0247  0.0233 -0.3993
 7567SOL    HW134163   3.992   0.750   8.340  0.1344  0.8494  0.0776
 7567SOL    HW234164   3.888   0.687   8.421 -0.2889  1.5825 -0.3729
 7568SOL     OW34165   1.732   3.991  17.465 -0.4065  0.6600 -0.3543
 7568SOL    HW134166   1.661   4.054  17.452 -2.1690 -1.3981 -0.7035
 7568SOL    HW234167   1.742   3.995  17.560  0.2591  1.3570 -0.4485
 7569SOL     OW34168   2.804   0.666  17.133 -0.4482  0.4844 -0.5609
 7569SOL    HW134169   2.839   0.612  17.061  2.2331  2.4896 -0.7742
 7569SOL    HW234170   2.879   0.678  17.191  1.2208  0.0721 -2.6002
 7570SOL     OW34171   0.212   0.471  13.794 -0.5852 -0.0260  0.2487
 7570SOL    HW134172   0.276   0.429  13.736 -1.4890 -0.6870 -0.2650
 7570SOL    HW234173   0.144   0.404  13.795 -1.4567  0.8661  1.1392
 7571SOL     OW34174   1.556   4.009   1.297 -0.1746  0.4117 -0.6989
 7571SOL    HW134175   1.493   4.038   1.232  0.2342 -0.0990 -1.3164
 7571SOL    HW234176   1.635   3.992   1.247 -0.1993 -1.8105  0.0187
 7572SOL     OW34177   0.369   2.307   7.053  0.5266 -0.2038  0.0963
 7572SOL    HW134178   0.368   2.217   7.019  0.4431  0.9343 -2.8791
 7572SOL    HW234179   0.346   2.299   7.146 -0.4778  0.4996 -0.0949
 7573SOL     OW34180   0.944   1.977  12.556  0.5871 -0.1645 -0.1740
 7573SOL    HW134181   1.026   2.020  12.578  0.0569  0.6819  0.1306
 7573SOL    HW234182   0.915   1.969  12.647 -1.7985  1.5767 -0.7660
 7574SOL     OW34183   0.274   2.043  10.269 -0.1557  0.2960 -0.4816
 7574SOL    HW134184   0.273   2.079  10.358  1.6825  1.4347 -0.9175
 7574SOL    HW234185   0.307   1.956  10.293 -0.0454  0.6492  0.6469
 7575SOL     OW34186   0.680   3.425  12.724 -0.3499  0.0637  0.1761
 7575SOL    HW134187   0.634   3.421  12.807 -0.3735 -0.9829  0.1116
 7575SOL    HW234188   0.758   3.374  12.746 -0.2859 -0.5715 -1.5067
 7576SOL     OW34189   0.991   1.188   6.103 -0.3654  0.1611  0.2004
 7576SOL    HW134190   1.025   1.137   6.029  0.8565  2.3728 -0.7518
 7576SOL    HW234191   0.910   1.221   6.064 -1.0682 -1.1497  0.5328
 7577SOL     OW34192   3.170   2.561   7.909  0.0180 -0.0629 -0.4434
 7577SOL    HW134193   3.196   2.623   7.842 -1.5921  0.1094 -0.9023
 7577SOL    HW234194   3.249   2.549   7.962 -0.4788 -1.8989 -0.0891
 7578SOL     OW34195   0.077   4.477   5.326  0.2434  0.3447  0.9129
 7578SOL    HW134196   0.125   4.434   5.254  0.9928  2.2516  0.2784
 7578SOL    HW234197   0.037   4.395   5.356  3.2196 -1.1348  0.9270
 7579SOL     OW34198   1.559   0.059   2.397 -0.1188  0.2390  0.5363
 7579SOL    HW134199   1.566   0.092   2.486  0.5520 -0.1108  0.6100
 7579SOL    HW234200   1.648   0.041   2.368 -0.1461 -1.6806  1.6134
 7580SOL     OW34201   1.273   2.176   3.004  0.2585 -0.4542 -0.2385
 7580SOL    HW134202   1.178   2.189   3.003  0.6031  2.2453  0.9889
 7580SOL    HW234203   1.306   2.260   2.973  0.6920 -0.2907  0.6474
 7581SOL     OW34204   1.309   1.988   1.907 -0.3252  0.0396 -0.0649
 7581SOL    HW134205   1.285   1.905   1.949  0.5657 -0.6744 -0.9572
 7581SOL    HW234206   1.252   2.048   1.954 -0.8772 -1.4138  1.1341
 7582SOL     OW34207   2.317   4.446   2.901 -0.8864  0.3514  0.3655
 7582SOL    HW134208   2.254   4.484   2.841  1.5575  0.8952 -1.8478
 7582SOL    HW234209   2.263   4.379   2.943  1.1788 -1.8596 -0.5246
 7583SOL     OW34210   0.222   2.804   9.380 -0.1263  0.1829  0.4185
 7583SOL    HW134211   0.298   2.834   9.429  0.1904 -2.4373  1.5250
 7583SOL    HW234212   0.260   2.764   9.302  1.2202 -0.3365  1.3410
 7584SOL     OW34213   0.650   1.443   3.681  0.2198  0.4497 -0.1506
 7584SOL    HW134214   0.648   1.477   3.771 -4.0455  1.2761 -0.5244
 7584SOL    HW234215   0.719   1.489   3.634  0.5188 -0.9869 -1.1239
 7585SOL     OW34216   3.795   4.262   3.877 -0.0980  0.4667  0.4634
 7585SOL    HW134217   3.730   4.313   3.925 -2.2235 -0.8716 -1.0213
 7585SOL    HW234218   3.774   4.289   3.787  2.0020  1.2128  0.1936
 7586SOL     OW34219   1.154   2.357   3.563 -0.6451 -0.5923 -0.0281
 7586SOL    HW134220   1.171   2.274   3.517  1.5725 -1.8431  3.0173
 7586SOL    HW234221   1.106   2.325   3.639 -1.3603 -0.5033 -0.4506
 7587SOL     OW34222   4.067   1.380   7.347  0.8536  0.2003  0.0328
 7587SOL    HW134223   4.157   1.374   7.315  0.4688  0.4249 -1.1033
 7587SOL    HW234224   4.021   1.379   7.263  0.9138  1.0561 -0.0144
 7588SOL     OW34225   0.602   0.565   7.600  0.5680  0.3627 -0.2524
 7588SOL    HW134226   0.583   0.657   7.585  1.0298  0.3948 -0.6351
 7588SOL    HW234227   0.531   0.520   7.554 -1.4609  1.4792  1.7846
 7589SOL     OW34228   2.801   3.154   7.361  0.1216 -0.2229 -0.4601
 7589SOL    HW134229   2.815   3.127   7.452 -1.4274 -1.2154 -0.5166
 7589SOL    HW234230   2.869   3.220   7.345 -1.0722  1.4967  1.5639
 7590SOL     OW34231   1.295   2.038   8.767 -0.2206 -0.0489  0.7163
 7590SOL    HW134232   1.357   1.981   8.722 -0.9259  0.8619 -1.4505
 7590SOL    HW234233   1.232   1.965   8.770  0.5099 -0.6317  1.7683
 7591SOL     OW34234   1.742   2.873  16.556 -0.3543  0.2798  0.1210
 7591SOL    HW134235   1.787   2.876  16.471  3.5408 -0.1813  2.1616
 7591SOL    HW234236   1.798   2.822  16.615 -1.2584  0.6342  1.2838
 7592SOL     OW34237   2.643   1.142   8.666  0.2303 -0.2999 -0.4764
 7592SOL    HW134238   2.560   1.150   8.713 -0.4947 -2.9147 -1.3189
 7592SOL    HW234239   2.621   1.171   8.578  0.9841  1.9968  0.0731
 7593SOL     OW34240   2.971   1.501   8.897 -0.1920  0.1691  0.3730
 7593SOL    HW134241   3.029   1.447   8.950 -0.3540 -0.6858 -0.3192
 7593SOL    HW234242   3.010   1.484   8.811  1.2961  0.8630  0.9172
 7594SOL     OW34243   0.260   3.372   9.015 -0.7796  0.4090  0.4726
 7594SOL    HW134244   0.292   3.462   9.025  0.6383  0.1928 -2.2732
 7594SOL    HW234245   0.244   3.359   9.109 -1.2948  2.2200  0.6381
 7595SOL     OW34246   3.853   3.091   6.007  0.7904 -0.0218 -0.3363
 7595SOL    HW134247   3.814   3.016   6.051 -1.3678  1.4707  0.3285
 7595SOL    HW234248   3.784   3.119   5.946 -0.0408 -1.2462  0.0406
 7596SOL     OW34249   3.384   3.655   0.496 -0.0605 -0.5233  0.0827
 7596SOL    HW134250   3.456   3.666   0.558 -0.5785 -2.6186  1.0517
 7596SOL    HW234251   3.433   3.595   0.439 -1.5112 -1.1704 -0.4791
 7597SOL     OW34252   2.580   2.938   9.740 -0.0967 -0.1706 -0.4579
 7597SOL    HW134253   2.659   2.983   9.769  0.1021 -0.9865  0.2910
 7597SOL    HW234254   2.519   2.959   9.811  1.2863  0.7557  0.4503
 7598SOL     OW34255   1.588   4.002  15.081 -0.5519  0.3089  0.0115
 7598SOL    HW134256   1.574   3.919  15.036 -2.0469 -0.4139  1.8033
 7598SOL    HW234257   1.661   4.036  15.029  0.0534 -0.5630  0.2815
 7599SOL     OW34258   3.666   3.956  17.345 -0.6868  0.4341  0.1839
 7599SOL    HW134259   3.658   4.051  17.343  3.3534  0.7738  0.3924
 7599SOL    HW234260   3.572   3.944  17.339 -0.4625 -1.1568 -0.2958
 7600SOL     OW34261   3.924   4.606   5.883  0.2522  0.3661 -0.8147
 7600SOL    HW134262   3.916   4.666   5.957  0.5653 -0.9385  0.2740
 7600SOL    HW234263   3.834   4.595   5.855 -0.2746  1.6945  0.3420
 7601SOL     OW34264   0.480   2.216   4.565  0.1815 -1.0070  0.2789
 7601SOL    HW134265   0.500   2.188   4.654 -1.2129 -0.0739  0.8929
 7601SOL    HW234266   0.392   2.253   4.579  1.9433  2.3782  2.4127
 7602SOL     OW34267   4.121   2.321   4.271  0.6048  0.8228  0.0309
 7602SOL    HW134268   4.177   2.281   4.204 -1.4063  0.9327 -1.7139
 7602SOL    HW234269   4.168   2.295   4.350 -1.4675 -2.1087  0.2559
 7603SOL     OW34270   4.425   3.176  17.686  0.1732 -0.0055  0.4664
 7603SOL    HW134271   4.481   3.100  17.673  2.7751  2.4672 -2.7328
 7603SOL    HW234272   4.492   3.243   0.011  0.0031  0.5930 -1.7495
 7604SOL     OW34273   0.697   3.791   5.099 -0.1507 -0.6518  0.0361
 7604SOL    HW134274   0.670   3.709   5.140  1.0259 -1.7133 -1.3188
 7604SOL    HW234275   0.771   3.761   5.047 -0.6725  0.5400 -1.3954
 7605SOL     OW34276   2.760   3.715   1.376  0.0766 -0.2173  0.0818
 7605SOL    HW134277   2.685   3.663   1.349 -0.1384 -0.3132  0.8883
 7605SOL    HW234278   2.793   3.658   1.445  1.8823 -0.9538 -1.3671
 7606SOL     OW34279   4.175   3.584  14.255  0.1369  0.2889 -0.5119
 7606SOL    HW134280   4.104   3.610  14.196 -0.9423 -2.1703 -0.3167
 7606SOL    HW234281   4.251   3.627  14.216 -0.7058  2.4293  0.2456
 7607SOL     OW34282   1.203   4.390   4.290  0.3851 -0.3220  0.0972
 7607SOL    HW134283   1.150   4.330   4.237 -0.0292 -0.6349  0.8636
 7607SOL    HW234284   1.213   4.332   4.366  1.1610  0.3064  0.4787
 7608SOL     OW34285   4.516   1.357   1.125 -0.0004 -0.2887  0.0129
 7608SOL    HW134286   4.551   1.426   1.068  0.8178  0.7055  1.7045
 7608SOL    HW234287   4.421   1.372   1.127  0.2123  1.1832 -1.4032
 7609SOL     OW34288   3.821   4.153   4.634  0.1071  0.6157 -0.5292
 7609SOL    HW134289   3.892   4.216   4.620  2.3337 -2.1859 -2.0906
 7609SOL    HW234290   3.744   4.209   4.638  0.3664  0.6698  3.2706
 7610SOL     OW34291   1.670   0.040  12.029  0.0351 -0.1378  0.8297
 7610SOL    HW134292   1.736   0.090  11.980 -0.5850  0.2317  0.3677
 7610SOL    HW234293   1.599   0.103  12.044  1.3600  1.6150 -0.2195
 7611SOL     OW34294   2.471   1.776   8.894  0.3731  0.1261  0.0117
 7611SOL    HW134295   2.457   1.686   8.865  1.7187 -0.3411  0.7902
 7611SOL    HW234296   2.524   1.758   8.972 -0.4552 -3.2716 -0.1766
 7612SOL     OW34297   2.664   2.951   3.030  0.1341 -0.4886  0.3374
 7612SOL    HW134298   2.573   2.978   3.018  1.0346  1.9781 -0.9391
 7612SOL    HW234299   2.690   3.034   3.069 -1.9799 -0.5208  1.7882
 7613SOL     OW34300   2.604   3.332   1.543 -0.3751 -0.5881 -0.0089
 7613SOL    HW134301   2.599   3.325   1.638  0.7457 -0.2187  0.0788
 7613SOL    HW234302   2.594   3.240   1.516  0.7314 -0.3982 -1.0841
 7614SOL     OW34303   0.877   2.531   9.993  0.1796  0.2194 -0.0637
 7614SOL    HW134304   0.967   2.534  10.025  0.5011 -2.8049 -0.6911
 7614SOL    HW234305   0.858   2.437   9.992  0.5153  0.1416  0.6662
 7615SOL     OW34306   0.148   4.445   3.972  0.1659  0.0822 -0.3710
 7615SOL    HW134307   0.088   4.429   4.045 -1.7749 -0.2497 -2.0353
 7615SOL    HW234308   0.190   4.359   3.976 -3.8305 -1.8500  0.1466
 7616SOL     OW34309   4.149   1.747   8.379 -0.1160 -0.0492 -0.1298
 7616SOL    HW134310   4.104   1.794   8.448 -1.6089 -0.8141 -0.5820
 7616SOL    HW234311   4.182   1.674   8.432 -0.2353 -1.3215 -1.7929
 7617SOL     OW34312   3.912   4.620   3.830 -0.1146 -0.0177 -0.2404
 7617SOL    HW134313   3.884   4.601   3.920 -1.1034  0.4324 -0.4555
 7617SOL    HW234314   3.842   4.680   3.804 -0.9849 -0.7774  0.3918
 7618SOL     OW34315   4.423   2.845   8.492  0.6177  0.6271  0.1903
 7618SOL    HW134316   4.426   2.919   8.553 -1.4399  0.7057  0.1985
 7618SOL    HW234317   4.425   2.769   8.550 -0.6327  0.6420  0.2572
 7619SOL     OW34318   1.505   0.627   3.866  0.6031 -0.0750 -0.7290
 7619SOL    HW134319   1.596   0.629   3.837  1.1399  0.3338  1.0298
 7619SOL    HW234320   1.458   0.585   3.793 -2.2565  1.4006  0.2655
 7620SOL     OW34321   3.624   4.490  16.586 -0.4913  0.3623  0.3398
 7620SOL    HW134322   3.595   4.520  16.500 -0.5665  0.1542  0.2937
 7620SOL    HW234323   3.666   4.406  16.567 -2.4707 -0.3437 -0.8127
 7621SOL     OW34324   1.437   0.833   6.405 -1.0962 -0.3087 -0.1148
 7621SOL    HW134325   1.521   0.794   6.430 -1.3605 -0.2172  0.8965
 7621SOL    HW234326   1.421   0.788   6.322  1.3344  0.7629 -1.1725
 7622SOL     OW34327   1.255   4.402   5.149 -0.1022  0.3473  0.5793
 7622SOL    HW134328   1.306   4.452   5.213 -0.8498  2.0980 -0.1699
 7622SOL    HW234329   1.240   4.471   5.084  2.9939  0.6246  0.1936
 7623SOL     OW34330   3.013   3.118   2.722  0.1227 -0.3287 -0.0120
 7623SOL    HW134331   3.049   3.080   2.642 -1.2283  1.3043 -1.3900
 7623SOL    HW234332   2.934   3.066   2.735  0.4930 -0.6278  1.0496
 7624SOL     OW34333   2.348   3.358   3.232  0.0266  0.2206  0.3329
 7624SOL    HW134334   2.370   3.438   3.280  0.1067  0.5919 -0.3188
 7624SOL    HW234335   2.383   3.295   3.295 -1.4162 -1.0086 -0.0827
 7625SOL     OW34336   2.171   4.580   2.723 -0.2442  0.1839 -0.7977
 7625SOL    HW134337   2.152   4.580   2.629  1.0791 -2.1604 -1.0586
 7625SOL    HW234338   2.126   4.654   2.763  3.0814  1.1239  1.2274
 7626SOL     OW34339   3.622   1.232   3.221  0.0157 -0.1360 -0.1807
 7626SOL    HW134340   3.604   1.321   3.250 -0.3220 -0.5340  0.8514
 7626SOL    HW234341   3.707   1.237   3.177 -0.0868 -2.4843 -0.6656
 7627SOL     OW34342   2.992   2.103   0.754  0.6355  0.5078  0.3819
 7627SOL    HW134343   3.078   2.142   0.742  0.8237 -0.6194 -1.9261
 7627SOL    HW234344   2.947   2.171   0.804 -0.6708 -1.8399  2.4007
 7628SOL     OW34345   0.450   1.860   3.040 -0.5309  0.0728 -0.0337
 7628SOL    HW134346   0.455   1.955   3.041  0.7744  0.0076 -1.8946
 7628SOL    HW234347   0.467   1.849   3.134 -2.9436  2.1117  0.6535
 7629SOL     OW34348   3.366   3.434   7.150 -0.2630 -0.2479  0.4982
 7629SOL    HW134349   3.431   3.364   7.162 -2.6087 -2.5476 -0.1400
 7629SOL    HW234350   3.298   3.384   7.104  1.7523 -1.9239 -0.6724
 7630SOL     OW34351   0.194   0.200   7.682  0.1518  0.1375 -0.1311
 7630SOL    HW134352   0.229   0.114   7.707  0.2617  0.6146  1.3422
 7630SOL    HW234353   0.205   0.202   7.587 -0.6213  1.0549 -0.1928
 7631SOL     OW34354   0.516   3.604   8.069 -0.1518  0.1562  0.2831
 7631SOL    HW134355   0.540   3.599   8.162 -3.4754 -2.0662  1.0376
 7631SOL    HW234356   0.468   3.525   8.044 -0.9934 -0.0098  2.4273
 7632SOL     OW34357   1.553   2.327   3.214  0.2984 -0.1149 -0.0789
 7632SOL    HW134358   1.483   2.382   3.179 -1.1405 -1.6656  0.3538
 7632SOL    HW234359   1.500   2.311   3.293  1.0764 -3.2663 -0.2088
 7633SOL     OW34360   2.814   2.200  10.620  0.0673  0.6612 -0.4289
 7633SOL    HW134361   2.876   2.180  10.690 -0.3328  0.5418 -0.1062
 7633SOL    HW234362   2.766   2.117  10.620 -0.7770  1.1635  2.4409
 7634SOL     OW34363   1.934   1.257  16.774  0.1788 -0.0129 -0.0515
 7634SOL    HW134364   1.882   1.286  16.699  1.8628 -0.5756 -1.4506
 7634SOL    HW234365   1.870   1.205  16.821 -0.7456  0.0780 -1.2057
 7635SOL     OW34366   1.173   3.001   1.388  0.2561  0.3756  0.2550
 7635SOL    HW134367   1.114   2.977   1.459 -0.2940 -0.8453 -0.6177
 7635SOL    HW234368   1.237   3.059   1.429  0.2032  0.3570  0.3640
 7636SOL     OW34369   2.990   4.128  14.126  0.1684  0.1888 -0.1475
 7636SOL    HW134370   2.945   4.084  14.054 -0.4816  0.6745 -0.0386
 7636SOL    HW234371   2.952   4.084  14.202  1.8421 -1.0188 -0.0194
 7637SOL     OW34372   2.114   3.195   8.848  0.9208 -0.1624  0.1883
 7637SOL    HW134373   2.146   3.119   8.799  2.2158 -0.1555  1.0318
 7637SOL    HW234374   2.041   3.213   8.788 -1.0912 -1.3945  2.2878
 7638SOL     OW34375   3.852   1.101  12.250  0.0339 -0.2334  0.4083
 7638SOL    HW134376   3.896   1.023  12.284  0.7833 -0.5805 -1.3644
 7638SOL    HW234377   3.861   1.148  12.332  1.6832 -0.7486  0.5235
 7639SOL     OW34378   3.991   0.325   1.474  0.1979 -0.4881 -0.2528
 7639SOL    HW134379   4.079   0.293   1.454  0.0902 -0.8358 -0.1592
 7639SOL    HW234380   3.938   0.296   1.400 -1.4519 -0.3925  0.8835
 7640SOL     OW34381   2.589   4.387   0.107 -0.2580  0.0174 -0.2908
 7640SOL    HW134382   2.566   4.447   0.177  1.4604  0.8146 -0.4271
 7640SOL    HW234383   2.670   4.428   0.078  2.1217 -3.4118  1.5842
 7641SOL     OW34384   1.724   1.758   9.289 -0.4287  1.0410 -0.4633
 7641SOL    HW134385   1.646   1.704   9.273 -0.0420  0.1934  0.5513
 7641SOL    HW234386   1.750   1.724   9.375  2.2205  1.6683 -1.0372
 7642SOL     OW34387   4.295   1.915   2.361 -0.3694  0.4660 -0.4815
 7642SOL    HW134388   4.318   1.944   2.450  0.1182 -1.1058 -0.1009
 7642SOL    HW234389   4.215   1.966   2.348 -1.4446 -0.1526  3.5719
 7643SOL     OW34390   3.787   3.794   3.202  0.2570 -0.1437  0.2053
 7643SOL    HW134391   3.713   3.737   3.223 -0.3010  0.7041  0.5304
 7643SOL    HW234392   3.839   3.739   3.143  1.3856  1.0569  0.0870
 7644SOL     OW34393   0.817   3.761  15.572 -0.5948 -0.2608  0.6197
 7644SOL    HW134394   0.756   3.689  15.559 -1.8488  1.2948 -2.0080
 7644SOL    HW234395   0.874   3.723  15.639 -1.0175 -0.9172  0.6047
 7645SOL     OW34396   3.001   1.020  17.280  0.2510 -0.0510  0.0364
 7645SOL    HW134397   3.008   1.111  17.310  1.0495 -1.1577  3.1074
 7645SOL    HW234398   2.918   1.017  17.233  0.1427 -2.7967  0.4315
 7646SOL     OW34399   3.202   3.292   5.426  0.0082 -0.1717  0.4648
 7646SOL    HW134400   3.207   3.384   5.401 -0.5510  0.3259  2.1170
 7646SOL    HW234401   3.107   3.289   5.418  0.0165  1.8080 -0.4940
 7647SOL     OW34402   0.467   3.945   6.994  0.2209 -0.2082 -0.4965
 7647SOL    HW134403   0.393   4.003   7.007  0.6726  0.8710 -2.7632
 7647SOL    HW234404   0.521   4.001   6.938 -0.8696  2.1862  0.8555
 7648SOL     OW34405   4.398   2.277   9.451 -0.6295 -0.3361 -0.7426
 7648SOL    HW134406   4.358   2.345   9.396  0.1639  0.0483 -0.8512
 7648SOL    HW234407   4.491   2.299   9.444 -0.0500 -2.5084  0.1156
 7649SOL     OW34408   1.246   2.713  14.814  0.2758 -0.0503  0.1098
 7649SOL    HW134409   1.259   2.728  14.908 -0.1863 -0.2902  0.2112
 7649SOL    HW234410   1.309   2.779  14.784  2.5348 -3.2561 -2.2153
 7650SOL     OW34411   2.146   4.136   5.126 -0.5809 -0.1619 -0.1430
 7650SOL    HW134412   2.193   4.204   5.079  1.2842 -1.4924 -0.1847
 7650SOL    HW234413   2.144   4.171   5.215  0.5938  0.0850 -0.2201
 7651SOL     OW34414   4.194   2.678   7.102  0.2921  0.2149 -0.5265
 7651SOL    HW134415   4.264   2.630   7.057 -0.7636 -1.2573 -0.5654
 7651SOL    HW234416   4.248   2.714   7.172  0.5861 -2.3344  0.5504
 7652SOL     OW34417   2.607   3.592   0.691  0.2921 -1.0066 -0.0097
 7652SOL    HW134418   2.690   3.548   0.712  1.3175  1.2371  0.5977
 7652SOL    HW234419   2.634   3.654   0.624 -3.1384  2.3659  1.7500
 7653SOL     OW34420   1.543   1.485  17.123 -0.1209  0.2332 -0.2415
 7653SOL    HW134421   1.479   1.516  17.187 -1.0740  1.3875 -1.7489
 7653SOL    HW234422   1.549   1.394  17.153 -0.6407  0.6922  1.2137
 7654SOL     OW34423   3.674   4.449  16.273  0.4967 -0.8182 -0.7476
 7654SOL    HW134424   3.675   4.514  16.203 -2.3426 -0.2944 -0.3259
 7654SOL    HW234425   3.584   4.416  16.264 -0.2564  0.8656  0.5170
 7655SOL     OW34426   1.885   2.154   5.367  0.3728 -0.0350 -0.1655
 7655SOL    HW134427   1.912   2.246   5.377  2.3823 -0.7114  0.5464
 7655SOL    HW234428   1.791   2.170   5.381  0.5158  0.4782  0.2359
 7656SOL     OW34429   2.214   1.293  11.502  0.1601  0.0509 -0.3262
 7656SOL    HW134430   2.230   1.323  11.413 -1.0383  0.3619 -0.4335
 7656SOL    HW234431   2.147   1.350  11.538 -0.2194 -0.1465 -0.7220
 7657SOL     OW34432   2.351   0.519   7.151 -0.5510 -0.5813 -0.4111
 7657SOL    HW134433   2.424   0.493   7.208  0.1530  0.9836 -0.6020
 7657SOL    HW234434   2.326   0.442   7.100  1.5681 -1.5386 -0.0166
 7658SOL     OW34435   0.466   2.951   2.206 -0.2671 -0.4841 -0.0511
 7658SOL    HW134436   0.533   3.012   2.234 -1.0996 -1.0711  3.2277
 7658SOL    HW234437   0.505   2.867   2.232  1.5260  1.0407  2.2056
 7659SOL     OW34438   4.165   4.381  12.712  0.2871 -0.2117  0.1893
 7659SOL    HW134439   4.247   4.332  12.708 -0.4329 -1.2530 -1.6149
 7659SOL    HW234440   4.138   4.331  12.789  0.0116 -2.3136 -1.2896
 7660SOL     OW34441   1.166   0.908  14.219 -0.2780 -0.5764 -0.4454
 7660SOL    HW134442   1.208   0.893  14.303 -1.6469 -1.3933  0.0886
 7660SOL    HW234443   1.079   0.938  14.246 -0.4805 -0.5907 -1.0767
 7661SOL     OW34444   1.465   1.488   4.448 -0.0342  0.3843  0.1816
 7661SOL    HW134445   1.376   1.454   4.453  0.2316 -0.5090 -1.0484
 7661SOL    HW234446   1.494   1.492   4.539  0.2644 -3.9279  0.3075
 7662SOL     OW34447   2.452   2.159   5.407  0.4416 -0.1996 -0.1553
 7662SOL    HW134448   2.367   2.189   5.375  0.0510 -0.4790  0.6281
 7662SOL    HW234449   2.420   2.128   5.492 -0.5073 -0.8888 -0.7654
 7663SOL     OW34450   1.133   2.027   7.965  0.2274  0.6163  0.1856
 7663SOL    HW134451   1.078   1.961   7.923  0.2232  1.5005 -1.2114
 7663SOL    HW234452   1.065   2.087   7.996 -0.4203 -0.7348  1.3646
 7664SOL     OW34453   4.030   2.167   2.843  0.5441  0.0441 -0.0133
 7664SOL    HW134454   4.086   2.198   2.914  1.0396 -1.1090  0.0826
 7664SOL    HW234455   4.089   2.156   2.769  1.2175  1.8262  0.2677
 7665SOL     OW34456   1.077   3.893   6.901  0.0595 -0.0405  0.2278
 7665SOL    HW134457   1.085   3.976   6.948 -1.2731  0.2206 -0.0078
 7665SOL    HW234458   1.143   3.838   6.945 -1.6175 -0.8882  1.6662
 7666SOL     OW34459   3.726   0.851   5.894  0.5944 -0.0365  0.0643
 7666SOL    HW134460   3.740   0.826   5.986 -0.7887  1.2218  0.6151
 7666SOL    HW234461   3.648   0.801   5.871  0.0766  1.1537 -0.7400
 7667SOL     OW34462   0.073   2.684   9.870 -0.1585  0.1507 -0.1891
 7667SOL    HW134463   0.111   2.741   9.937  0.3254 -2.2629  1.5860
 7667SOL    HW234464   0.013   2.747   9.830  1.5565  2.1526  0.3749
 7668SOL     OW34465   4.291   1.503   3.788  0.0583 -0.6078  0.4998
 7668SOL    HW134466   4.238   1.536   3.861  1.2289  0.3379  0.9117
 7668SOL    HW234467   4.376   1.536   3.817 -0.4198  0.5791  0.5521
 7669SOL     OW34468   3.954   2.350   3.429  0.1777  0.4012  0.1630
 7669SOL    HW134469   3.936   2.413   3.499  0.1588 -0.5721  1.0357
 7669SOL    HW234470   3.901   2.271   3.440  1.2936 -0.1573  1.5449
 7670SOL     OW34471   3.156   3.384   4.682 -0.2217  0.1441  0.5934
 7670SOL    HW134472   3.152   3.425   4.769 -1.1433  0.5229  0.3741
 7670SOL    HW234473   3.244   3.346   4.681 -0.6686 -0.8561  0.0158
 7671SOL     OW34474   1.488   1.142   8.815 -0.2489  0.1598  0.0373
 7671SOL    HW134475   1.573   1.180   8.836 -0.9744  0.3965  2.5639
 7671SOL    HW234476   1.474   1.098   8.899  0.1644 -0.7612 -0.3693
 7672SOL     OW34477   2.916   3.614   4.430  0.0880 -0.3006  0.1262
 7672SOL    HW134478   2.823   3.634   4.435 -0.0724 -0.8922 -0.6005
 7672SOL    HW234479   2.918   3.524   4.401 -0.0570 -0.2425 -0.0569
 7673SOL     OW34480   1.845   4.583  13.850  0.4485 -0.2695  0.4174
 7673SOL    HW134481   1.906   4.571  13.777  1.5548  2.3791  0.9364
 7673SOL    HW234482   1.828   4.489  13.860 -0.5256 -0.2438 -0.9693
 7674SOL     OW34483   3.387   4.518  16.726 -0.0403 -0.2571  0.3112
 7674SOL    HW134484   3.394   4.425  16.744  0.2924  0.3337  3.3206
 7674SOL    HW234485   3.471   4.522  16.681  2.2397  2.8004  4.7770
 7675SOL     OW34486   2.175   0.932  16.694  0.7638  0.2880 -0.1004
 7675SOL    HW134487   2.089   0.914  16.655  0.3703 -0.6147  1.1971
 7675SOL    HW234488   2.228   0.904  16.619  0.8395 -0.0245  0.0687
 7676SOL     OW34489   3.370   3.858   8.207  0.1544  0.2295  0.1022
 7676SOL    HW134490   3.455   3.881   8.244  0.0623  0.7170  0.0239
 7676SOL    HW234491   3.382   3.764   8.201  1.5984  0.5115 -1.5856
 7677SOL     OW34492   0.575   2.769   1.132  0.1810  0.2704  0.2916
 7677SOL    HW134493   0.535   2.717   1.063 -0.0205 -1.2284  1.5281
 7677SOL    HW234494   0.601   2.695   1.187 -0.7150 -0.3495 -0.1134
 7678SOL     OW34495   4.271   1.924   8.674 -0.3127 -0.1881  0.6257
 7678SOL    HW134496   4.197   1.917   8.614  1.0507  0.9775 -1.2020
 7678SOL    HW234497   4.284   2.017   8.690  2.2913 -0.3137 -0.7847
 7679SOL     OW34498   1.246   1.368   8.327  0.1813  0.2010  0.1242
 7679SOL    HW134499   1.219   1.422   8.401 -2.4399  0.5758 -1.1308
 7679SOL    HW234500   1.303   1.312   8.380  1.9996  1.0465 -0.9384
 7680SOL     OW34501   0.163   4.551   1.493  0.0581  0.0704 -0.2029
 7680SOL    HW134502   0.161   4.623   1.429 -0.7535  0.0938 -0.1563
 7680SOL    HW234503   0.182   4.472   1.442 -1.0543 -1.2020  1.3601
 7681SOL     OW34504   0.949   3.195  10.780 -0.1537 -0.7125 -0.2086
 7681SOL    HW134505   1.012   3.198  10.852 -0.4641  1.1226 -0.0030
 7681SOL    HW234506   0.899   3.273  10.805  0.1390 -0.1224 -1.4836
 7682SOL     OW34507   3.530   0.726   3.696 -0.4042 -0.1549  0.7349
 7682SOL    HW134508   3.452   0.738   3.751 -0.7012 -2.0442  0.7298
 7682SOL    HW234509   3.571   0.809   3.719 -1.5079  0.7986 -0.8115
 7683SOL     OW34510   1.833   2.615  16.141 -0.2736 -0.1091  0.0811
 7683SOL    HW134511   1.782   2.611  16.222 -0.9122 -1.8187 -0.4131
 7683SOL    HW234512   1.798   2.543  16.089  0.8997 -1.2138  0.8203
 7684SOL     OW34513   1.518   4.225   1.501 -0.1040 -0.0805  0.2974
 7684SOL    HW134514   1.519   4.181   1.416  0.0603  1.8943 -0.7433
 7684SOL    HW234515   1.498   4.313   1.468  0.0548 -0.2248 -0.1772
 7685SOL     OW34516   0.938   3.649   0.668 -0.4658 -0.5202 -0.0735
 7685SOL    HW134517   0.872   3.581   0.656 -2.9220  1.9828 -0.7235
 7685SOL    HW234518   0.979   3.616   0.748 -1.4641 -2.9248 -0.5372
 7686SOL     OW34519   0.671   0.866   4.927  0.1968  0.1682 -0.0353
 7686SOL    HW134520   0.695   0.777   4.952  2.2401  0.6615 -0.2408
 7686SOL    HW234521   0.699   0.861   4.836  0.0627  0.8200 -0.1130
 7687SOL     OW34522   2.116   1.567  11.482 -0.0165 -0.1202  0.1022
 7687SOL    HW134523   2.129   1.661  11.464 -2.0620 -0.4220 -2.8695
 7687SOL    HW234524   2.140   1.560  11.574 -0.5559  1.1970  0.3397
 7688SOL     OW34525   3.078   3.869   4.104 -0.1007  0.0802 -0.4856
 7688SOL    HW134526   3.031   3.857   4.022 -1.3389 -0.6862  0.3417
 7688SOL    HW234527   3.057   3.783   4.140 -0.7153  0.7452  0.7477
 7689SOL     OW34528   0.325   2.469  13.010 -0.0613 -0.0578 -0.1444
 7689SOL    HW134529   0.317   2.408  13.083  1.3007  0.8914  0.8067
 7689SOL    HW234530   0.389   2.427  12.953  0.0205  0.5837 -0.5297
 7690SOL     OW34531   0.617   2.491   8.470  0.7267  0.3370  0.2690
 7690SOL    HW134532   0.554   2.552   8.508 -0.5152 -1.3176  0.8489
 7690SOL    HW234533   0.614   2.529   8.382 -1.3338  0.5803  0.4516
 7691SOL     OW34534   2.830   1.017   3.971  0.0251 -0.4840  0.3687
 7691SOL    HW134535   2.891   1.037   4.042  1.6479  1.2292 -1.4973
 7691SOL    HW234536   2.769   0.968   4.025 -0.6058 -1.1215 -0.9277
 7692SOL     OW34537   2.870   1.323   6.152 -0.1518 -0.2398 -0.3955
 7692SOL    HW134538   2.862   1.233   6.122  3.3661 -0.5801 -0.2910
 7692SOL    HW234539   2.942   1.344   6.094 -0.8428  0.5316 -0.9774
 7693SOL     OW34540   3.426   2.404   9.676 -0.2238  0.1127 -0.2111
 7693SOL    HW134541   3.430   2.320   9.630  2.0671  0.8549 -1.3572
 7693SOL    HW234542   3.441   2.370   9.764  0.5470 -0.2678 -0.4951
 7694SOL     OW34543   0.418   4.168   4.745  0.2188 -0.0959  0.2539
 7694SOL    HW134544   0.384   4.160   4.834 -1.5118  2.7962 -0.1385
 7694SOL    HW234545   0.420   4.076   4.720 -0.6922  0.0452 -0.3466
 7695SOL     OW34546   4.359   0.896   2.615  0.1247 -0.3444  0.1392
 7695SOL    HW134547   4.333   0.859   2.700 -2.4831 -1.4128 -1.1300
 7695SOL    HW234548   4.371   0.812   2.570 -1.0296 -0.9232  0.9009
 7696SOL     OW34549   3.801   4.453  17.666  0.3728  0.6121  0.3045
 7696SOL    HW134550   3.842   4.378  17.625 -0.1435  1.2145 -1.3238
 7696SOL    HW234551   3.758   4.485  17.587 -0.8817 -0.5186  0.5303
 7697SOL     OW34552   0.641   4.483  13.239 -0.3871  0.0358  0.0962
 7697SOL    HW134553   0.675   4.459  13.326  2.9022  0.7331 -0.9809
 7697SOL    HW234554   0.583   4.551  13.274 -1.7379 -1.8235  1.4686
 7698SOL     OW34555   0.994   0.223   3.662 -0.3722  0.1714 -0.1358
 7698SOL    HW134556   0.995   0.179   3.747 -0.5962  0.7149  0.1440
 7698SOL    HW234557   0.926   0.181   3.609  0.1295 -1.4168  0.4787
 7699SOL     OW34558   3.352   0.764   3.887  0.5569 -0.3353  0.0669
 7699SOL    HW134559   3.298   0.688   3.865 -0.9540  1.5536 -2.7219
 7699SOL    HW234560   3.284   0.831   3.881  0.3743 -1.0073 -5.4704
 7700SOL     OW34561   0.257   4.101   5.415 -0.1795 -0.1625 -0.6580
 7700SOL    HW134562   0.163   4.088   5.429 -0.0928  0.7529  0.7853
 7700SOL    HW234563   0.275   4.157   5.491 -2.5344  0.8204 -0.8183
 7701SOL     OW34564   4.529   2.140   9.153  0.2790 -0.3487  0.1514
 7701SOL    HW134565   4.624   2.140   9.160  0.3774 -1.0266 -1.1675
 7701SOL    HW234566   4.523   2.230   9.184  0.0650 -0.1857 -0.3633
 7702SOL     OW34567   2.553   1.953  15.258  0.0029  0.3180 -0.5716
 7702SOL    HW134568   2.588   2.030  15.214  0.6908  0.3182 -0.0159
 7702SOL    HW234569   2.481   2.001  15.300 -1.0935 -1.3694 -0.5156
 7703SOL     OW34570   3.937   0.669   1.495 -0.2656  0.5956  0.4830
 7703SOL    HW134571   3.986   0.611   1.553 -2.1133 -2.3161 -0.8818
 7703SOL    HW234572   3.991   0.674   1.417 -1.7290 -2.1142 -0.6967
 7704SOL     OW34573   0.226   3.143   1.038  0.0495 -0.3965  0.1185
 7704SOL    HW134574   0.202   3.055   1.066 -0.0179 -0.3287  0.2740
 7704SOL    HW234575   0.140   3.179   1.018  0.2353 -1.1524 -2.0162
 7705SOL     OW34576   2.298   2.678   8.624 -0.3678  0.2882 -0.3260
 7705SOL    HW134577   2.320   2.731   8.701  0.3142 -0.0404 -0.2934
 7705SOL    HW234578   2.293   2.591   8.665  1.8840  0.2585 -0.0867
 7706SOL     OW34579   1.115   2.975   8.972  0.4133  0.4164  0.3454
 7706SOL    HW134580   1.035   2.990   9.022 -0.5070  0.4046 -1.1340
 7706SOL    HW234581   1.103   2.882   8.952 -2.2417  0.5517  1.2913
 7707SOL     OW34582   2.173   1.627   0.283 -0.2140  0.1015  0.2034
 7707SOL    HW134583   2.224   1.703   0.254 -0.7654  1.0212  1.6391
 7707SOL    HW234584   2.164   1.653   0.375  0.7035 -0.0171  0.3244
 7708SOL     OW34585   4.239   0.380   1.944 -0.2501 -0.3382 -0.5758
 7708SOL    HW134586   4.289   0.460   1.961  1.4598 -1.5070 -0.1564
 7708SOL    HW234587   4.144   0.394   1.952 -0.3592 -0.9320 -0.7891
 7709SOL     OW34588   1.054   1.827   1.491 -0.0272  0.1771 -0.6244
 7709SOL    HW134589   1.016   1.913   1.475 -1.9916 -0.6896 -0.6010
 7709SOL    HW234590   1.147   1.847   1.501 -0.2663  1.6441 -1.3632
 7710SOL     OW34591   4.645   2.854  16.388 -0.6555  0.2585 -0.1312
 7710SOL    HW134592   4.680   2.817  16.469 -1.6428  0.0477  0.2093
 7710SOL    HW234593   4.676   2.790  16.324 -0.6670  0.1567 -0.0348
 7711SOL     OW34594   1.091   3.848  10.616  0.1184  0.3010  0.1394
 7711SOL    HW134595   1.001   3.823  10.594 -1.2547  4.4315  1.1189
 7711SOL    HW234596   1.118   3.781  10.680  1.2360 -0.5383 -1.1885
 7712SOL     OW34597   2.630   2.657   9.665  0.5358  0.2059 -0.8962
 7712SOL    HW134598   2.677   2.642   9.747 -2.2383  0.2087  0.6824
 7712SOL    HW234599   2.578   2.736   9.681  0.9114  0.6225 -1.7187
 7713SOL     OW34600   4.035   3.991   1.858  0.0432 -0.5098 -0.1055
 7713SOL    HW134601   4.005   3.970   1.947 -2.2490  1.7065 -0.3742
 7713SOL    HW234602   4.072   4.077   1.878  0.0569 -0.7941  1.1169
 7714SOL     OW34603   2.494   4.580   6.550 -0.5003  0.0612 -0.1988
 7714SOL    HW134604   2.481   4.632   6.470 -2.2652  0.8941  0.6285
 7714SOL    HW234605   2.427   4.512   6.541 -3.2294  2.6271  0.5207
 7715SOL     OW34606   1.868   1.798   3.417  0.1982 -0.9284 -0.0885
 7715SOL    HW134607   1.838   1.886   3.398 -2.4144 -1.2799  2.4080
 7715SOL    HW234608   1.786   1.749   3.419  0.9568 -2.2526 -1.0588
 7716SOL     OW34609   1.145   1.210   2.674  0.2985  0.0355 -0.1283
 7716SOL    HW134610   1.176   1.297   2.699 -0.3777  0.2170  0.0811
 7716SOL    HW234611   1.060   1.211   2.719  0.2427  0.0464 -0.2338
 7717SOL     OW34612   1.200   3.373   0.874  0.0215 -0.0311 -1.0139
 7717SOL    HW134613   1.256   3.320   0.931 -1.2622  0.6853  0.9219
 7717SOL    HW234614   1.170   3.298   0.823 -2.2871  0.0936  0.1647
 7718SOL     OW34615   1.344   1.606   6.813 -0.1336 -0.4316  0.1762
 7718SOL    HW134616   1.378   1.693   6.836 -1.3085 -0.2127  1.0562
 7718SOL    HW234617   1.424   1.557   6.797  1.3278  1.8886  0.2652
 7719SOL     OW34618   3.572   2.877   5.388 -0.0388 -0.1720 -0.4896
 7719SOL    HW134619   3.645   2.906   5.334 -0.0100  3.5963  1.5789
 7719SOL    HW234620   3.581   2.782   5.391 -2.3145 -0.3800 -0.6423
 7720SOL     OW34621   0.711   0.906  11.777  0.3605 -0.2402  0.4253
 7720SOL    HW134622   0.722   0.967  11.850  2.0495  1.4911 -1.2850
 7720SOL    HW234623   0.648   0.955  11.724 -2.1060 -2.4051  1.3202
 7721SOL     OW34624   2.262   0.603   6.217 -0.5374  0.3692  0.0316
 7721SOL    HW134625   2.297   0.620   6.305 -0.5382 -0.4925  0.2048
 7721SOL    HW234626   2.192   0.540   6.232 -0.0553 -0.4086 -0.9953
 7722SOL     OW34627   0.986   0.978   0.379  0.2194  0.0070 -0.4229
 7722SOL    HW134628   1.026   1.053   0.422 -0.7887 -0.5492  1.4766
 7722SOL    HW234629   1.063   0.943   0.335 -0.1132  0.3473 -1.2754
 7723SOL     OW34630   2.917   4.574   6.338 -0.3738  0.0893 -0.4927
 7723SOL    HW134631   2.861   4.564   6.415 -0.1854 -0.8240 -0.4858
 7723SOL    HW234632   2.956   4.487   6.338 -1.2073 -0.2913 -0.6196
 7724SOL     OW34633   0.564   0.401   7.287  0.2716 -0.5347 -0.0115
 7724SOL    HW134634   0.523   0.341   7.225  0.4320  2.5530 -3.1042
 7724SOL    HW234635   0.529   0.375   7.372  1.7988 -0.2802  0.6960
 7725SOL     OW34636   2.094   2.535   4.847 -0.0270 -0.6255 -0.4313
 7725SOL    HW134637   2.033   2.601   4.816 -1.0767 -2.1356 -1.5757
 7725SOL    HW234638   2.089   2.479   4.770  0.1644 -1.4990  0.1922
 7726SOL     OW34639   2.848   0.511   0.516  0.1518  0.6334 -0.0424
 7726SOL    HW134640   2.903   0.539   0.589 -0.9489 -1.4818  1.5708
 7726SOL    HW234641   2.902   0.443   0.474 -1.9175 -1.5756  0.8778
 7727SOL     OW34642   3.209   1.087   3.666 -0.3629 -0.1230 -0.2243
 7727SOL    HW134643   3.177   1.001   3.637  0.3258 -0.9923  1.6287
 7727SOL    HW234644   3.184   1.081   3.758 -2.3883 -0.5819 -0.8193
 7728SOL     OW34645   3.353   0.891   7.788  0.1711 -0.0101  0.1611
 7728SOL    HW134646   3.274   0.854   7.826 -0.2304  0.5758 -0.0966
 7728SOL    HW234647   3.415   0.856   7.852  0.0249  2.1906  1.5120
 7729SOL     OW34648   1.012   3.604   6.546 -0.7917 -0.2493  0.7585
 7729SOL    HW134649   0.920   3.618   6.569 -1.0092 -2.7982  1.4768
 7729SOL    HW234650   1.063   3.680   6.574 -0.1989 -0.6717  0.8268
 7730SOL     OW34651   3.123   2.564   5.405 -0.2723 -0.2269  0.3106
 7730SOL    HW134652   3.201   2.517   5.377  0.7457  1.6158  0.0569
 7730SOL    HW234653   3.156   2.654   5.405  0.0865 -0.3579  0.0716
 7731SOL     OW34654   2.970   1.919  10.747  0.7013 -0.4309  0.5307
 7731SOL    HW134655   2.954   1.888  10.836 -2.6340 -0.4667 -0.1026
 7731SOL    HW234656   2.881   1.915  10.714  1.1774 -1.1293 -0.6833
 7732SOL     OW34657   1.690   0.784   4.582 -0.4567  0.3718  0.1749
 7732SOL    HW134658   1.777   0.782   4.622  0.2259  1.2566 -1.2437
 7732SOL    HW234659   1.647   0.738   4.653 -0.0032 -1.4325 -0.7122
 7733SOL     OW34660   1.641   3.208   9.029 -0.1159 -0.0175  0.1010
 7733SOL    HW134661   1.559   3.167   9.058  1.0749 -0.8887  2.2067
 7733SOL    HW234662   1.618   3.219   8.936 -0.0899  0.7970  0.1887
 7734SOL     OW34663   0.267   2.704   4.935 -0.4195  0.1796 -1.1518
 7734SOL    HW134664   0.266   2.640   4.864  2.8443  0.8814 -1.8379
 7734SOL    HW234665   0.317   2.768   4.884 -0.1602  0.3730 -0.6523
 7735SOL     OW34666   2.192   4.014  13.428 -0.0584 -0.3739  0.3765
 7735SOL    HW134667   2.167   3.958  13.355  1.2641 -0.4323 -0.0257
 7735SOL    HW234668   2.105   4.026  13.467 -0.1816 -0.6555  0.1892
 7736SOL     OW34669   1.818   2.316   8.637 -0.4993  0.1134  0.4133
 7736SOL    HW134670   1.797   2.320   8.544  2.2043  0.7526 -0.1824
 7736SOL    HW234671   1.824   2.404   8.674 -0.1343 -0.5095  1.8320
 7737SOL     OW34672   1.781   2.519   2.971  0.6986  0.2467 -0.4103
 7737SOL    HW134673   1.690   2.547   2.976  0.7455  0.2087  0.5917
 7737SOL    HW234674   1.781   2.485   2.881 -0.0766  0.4525 -0.4864
 7738SOL     OW34675   1.777   2.542   3.660  1.1250  0.7099 -0.3507
 7738SOL    HW134676   1.774   2.470   3.597  0.0612 -1.2364  1.8886
 7738SOL    HW234677   1.684   2.541   3.683  1.7301 -1.5637  1.9320
 7739SOL     OW34678   0.293   4.273  12.775 -0.1409  0.1624 -0.3281
 7739SOL    HW134679   0.371   4.218  12.763  1.0133  1.1918  2.4170
 7739SOL    HW234680   0.328   4.336  12.838 -0.5789 -0.5050  0.5845
 7740SOL     OW34681   3.832   0.478   2.271 -0.2131  0.1127  0.1599
 7740SOL    HW134682   3.741   0.504   2.285 -0.0372  0.7382  0.1776
 7740SOL    HW234683   3.856   0.539   2.201  0.6195  0.0522  0.3885
 7741SOL     OW34684   3.687   2.492   4.766 -0.2634  0.2255 -0.4652
 7741SOL    HW134685   3.655   2.431   4.833  0.2597  1.2843  0.7345
 7741SOL    HW234686   3.722   2.439   4.694  0.1173  1.2795 -1.0541
 7742SOL     OW34687   1.127   2.501   7.434 -0.2817 -0.1920  0.0567
 7742SOL    HW134688   1.140   2.574   7.495  0.4951 -1.1792  1.0650
 7742SOL    HW234689   1.172   2.431   7.480 -2.0252 -1.1613  0.2660
 7743SOL     OW34690   1.546   0.259   6.559  0.8201 -0.5632 -0.2999
 7743SOL    HW134691   1.499   0.342   6.565  1.4475 -0.4517  2.8862
 7743SOL    HW234692   1.555   0.228   6.649  0.2074  0.9432  0.2761
 7744SOL     OW34693   2.677   2.410  15.412  0.0697 -0.1813 -0.2241
 7744SOL    HW134694   2.582   2.425  15.411  0.2550  1.1659  1.8757
 7744SOL    HW234695   2.700   2.479  15.474 -1.3623  0.8981 -0.8939
 7745SOL     OW34696   3.239   1.120  16.240 -0.6634  0.5950  0.3291
 7745SOL    HW134697   3.217   1.211  16.220  2.0372  0.8183 -1.5957
 7745SOL    HW234698   3.219   1.085  16.153  1.3926  0.7280 -0.1998
 7746SOL     OW34699   2.630   4.256  16.761  0.1827 -0.3641 -0.2542
 7746SOL    HW134700   2.622   4.342  16.801 -2.2059 -0.7843  0.1880
 7746SOL    HW234701   2.687   4.216  16.827  0.3153 -0.1944 -0.2666
 7747SOL     OW34702   3.944   1.982   5.518  0.2264  0.2359  0.1787
 7747SOL    HW134703   4.002   2.057   5.530  1.4489 -1.0949  2.4783
 7747SOL    HW234704   3.994   1.934   5.452 -1.7944 -0.6043 -0.7522
 7748SOL     OW34705   1.775   1.085   5.082 -0.7624 -0.5282  0.7983
 7748SOL    HW134706   1.729   1.168   5.091 -0.7721 -0.4577  0.0982
 7748SOL    HW234707   1.830   1.090   5.160  1.6770  0.2307 -0.9459
 7749SOL     OW34708   2.123   2.185  14.192 -0.3269  0.5344 -0.0951
 7749SOL    HW134709   2.145   2.255  14.131  0.7994  0.5262  0.2953
 7749SOL    HW234710   2.036   2.211  14.222 -0.8173 -1.4835  0.2301
 7750SOL     OW34711   1.816   4.472   8.797  0.1661 -0.0732 -0.0295
 7750SOL    HW134712   1.808   4.500   8.706  4.0108  0.1679 -0.3114
 7750SOL    HW234713   1.838   4.560   8.829 -0.7719  0.2083 -0.1680
 7751SOL     OW34714   2.402   3.620   5.256 -0.5055 -0.0403  0.4829
 7751SOL    HW134715   2.484   3.572   5.245 -1.5635 -1.4200 -1.3942
 7751SOL    HW234716   2.415   3.681   5.183 -1.0575  1.6506  1.7833
 7752SOL     OW34717   2.109   3.527   8.820 -0.4475  0.2283  0.0790
 7752SOL    HW134718   2.017   3.502   8.810 -0.9160  0.6501  3.1919
 7752SOL    HW234719   2.120   3.542   8.914 -0.9710 -2.0235  0.4976
 7753SOL     OW34720   1.093   1.053  16.952  0.4617  0.0259 -0.5336
 7753SOL    HW134721   1.100   1.146  16.931  0.6954  0.5247  1.7570
 7753SOL    HW234722   1.000   1.039  16.966  0.8187 -1.9609 -0.1534
 7754SOL     OW34723   2.298   3.832   2.860 -0.3933 -0.8574  0.0966
 7754SOL    HW134724   2.342   3.756   2.820 -0.7604 -0.2621 -1.4349
 7754SOL    HW234725   2.315   3.817   2.953  0.5533  0.8476  0.1870
 7755SOL     OW34726   2.340   1.643   5.381 -0.2717 -0.3488  0.5476
 7755SOL    HW134727   2.256   1.643   5.335 -0.8611 -0.0750  1.6206
 7755SOL    HW234728   2.342   1.737   5.400 -1.1044  0.0891 -1.4379
 7756SOL     OW34729   4.318   2.634  11.911 -0.6916  0.0800 -0.3893
 7756SOL    HW134730   4.228   2.652  11.939  0.6341  1.4170  3.0405
 7756SOL    HW234731   4.310   2.551  11.865  0.3212 -2.3300  3.8259
 7757SOL     OW34732   2.609   2.715   7.037  0.2049 -0.1054  0.2040
 7757SOL    HW134733   2.601   2.661   7.116  0.2719 -1.7909 -0.9469
 7757SOL    HW234734   2.556   2.671   6.971 -0.0673 -0.0518  0.3838
 7758SOL     OW34735   2.268   0.896   2.476  0.3470 -0.6541  0.3713
 7758SOL    HW134736   2.319   0.816   2.480 -0.0465 -0.7530  3.4491
 7758SOL    HW234737   2.301   0.946   2.401  2.1490  0.6119  2.0060
 7759SOL     OW34738   3.996   3.621   0.065  0.2261  0.7596  0.1278
 7759SOL    HW134739   4.086   3.645   0.044 -0.7805  2.9975 -1.7216
 7759SOL    HW234740   3.952   3.625  17.668 -1.2691 -0.3220  0.8374
 7760SOL     OW34741   1.834   1.523   5.041 -0.1198  0.5259  0.0111
 7760SOL    HW134742   1.775   1.447   5.034  1.9619 -1.3042  2.5465
 7760SOL    HW234743   1.787   1.588   5.093  1.0271  0.5302  1.0192
 7761SOL     OW34744   2.213   3.880   5.088  0.0663  0.1264  0.3812
 7761SOL    HW134745   2.181   3.969   5.100 -1.2262 -0.1865 -0.7606
 7761SOL    HW234746   2.209   3.843   5.177  1.4800 -0.7288  0.0862
 7762SOL     OW34747   1.929   4.498   3.517 -0.5004 -0.2015  0.0774
 7762SOL    HW134748   1.844   4.512   3.474 -0.7770  1.7267  1.2804
 7762SOL    HW234749   1.920   4.405   3.537  0.9272  0.1703  2.5050
 7763SOL     OW34750   2.987   3.959   3.104  0.2619  0.0300  0.1974
 7763SOL    HW134751   2.987   3.865   3.088 -0.5690  0.2108 -0.8780
 7763SOL    HW234752   2.934   3.963   3.184 -0.3657 -2.4539 -0.1129
 7764SOL     OW34753   2.260   1.663   3.650  0.3800  1.2037 -0.3201
 7764SOL    HW134754   2.338   1.639   3.599 -0.7485  0.9481 -1.9243
 7764SOL    HW234755   2.196   1.598   3.621  0.8943  0.2082  0.7521
 7765SOL     OW34756   1.666   2.012  12.376  0.0183 -0.2653  0.4735
 7765SOL    HW134757   1.635   1.931  12.416 -1.4182 -0.2307 -0.5747
 7765SOL    HW234758   1.603   2.072  12.416  0.1289  2.1660 -3.0023
 7766SOL     OW34759   0.610   1.249   8.660  0.6418 -0.4653  0.0244
 7766SOL    HW134760   0.528   1.286   8.693  0.3299  0.6382 -2.0306
 7766SOL    HW234761   0.642   1.318   8.602 -0.4523  0.0720  0.0770
 7767SOL     OW34762   4.220   3.591  13.766  0.1143 -0.0547 -0.2674
 7767SOL    HW134763   4.271   3.511  13.779 -1.2509 -1.0071 -0.8382
 7767SOL    HW234764   4.290   3.645  13.729  1.2892 -0.7213  0.9707
 7768SOL     OW34765   0.514   3.971  14.154 -0.4001 -0.1140  0.3507
 7768SOL    HW134766   0.422   3.998  14.154 -0.8743 -1.7080  1.0616
 7768SOL    HW234767   0.537   3.951  14.064  0.8034  0.5522  0.5072
 7769SOL     OW34768   3.793   1.227   6.431  0.0868  0.7074  0.0925
 7769SOL    HW134769   3.813   1.276   6.511  0.5109 -1.4079  1.2868
 7769SOL    HW234770   3.791   1.134   6.457  1.3850  1.1119  1.6311
 7770SOL     OW34771   3.483   3.651  12.673 -0.3165 -0.3985  0.0821
 7770SOL    HW134772   3.440   3.694  12.747 -0.7390 -0.9996  0.1887
 7770SOL    HW234773   3.487   3.562  12.709  2.2471 -0.3093  0.0403
 7771SOL     OW34774   0.112   4.690   6.999 -0.2347  0.0542  0.0156
 7771SOL    HW134775   0.085   4.643   6.920 -1.6926  2.8437 -1.1413
 7771SOL    HW234776   0.028   4.700   7.044  0.1886 -1.2477  1.0929
 7772SOL     OW34777   1.159   4.677   6.451 -0.1391  0.2830  0.3017
 7772SOL    HW134778   1.243   4.663   6.409 -0.1788  1.6117 -0.2138
 7772SOL    HW234779   1.136   4.585   6.465  1.3412  0.1430  1.7314
 7773SOL     OW34780   2.262   0.256   5.614  0.0496 -0.3322  0.0805
 7773SOL    HW134781   2.202   0.197   5.569 -0.4119  0.9481 -0.9607
 7773SOL    HW234782   2.237   0.245   5.706 -1.0633 -2.4289 -0.4727
 7774SOL     OW34783   1.152   0.927   6.044  0.6265  0.3468 -0.0494
 7774SOL    HW134784   1.071   0.878   6.059  0.3831  0.5401 -0.7391
 7774SOL    HW234785   1.179   0.868   5.973  1.5213  1.1056 -0.3356
 7775SOL     OW34786   4.580   0.980   0.282  0.2445  0.1822  0.3073
 7775SOL    HW134787   4.619   1.053   0.330  1.7041 -0.8969  0.7624
 7775SOL    HW234788   4.537   0.955   0.364 -0.7192 -1.8429 -0.8371
 7776SOL     OW34789   0.472   1.014   8.499 -0.2166  0.1124 -0.2792
 7776SOL    HW134790   0.433   1.092   8.539 -0.9620  0.0034 -0.8086
 7776SOL    HW234791   0.392   0.973   8.467 -0.0954 -0.5173  0.2221
 7777SOL     OW34792   2.758   3.032  12.309  0.3728  0.3993 -0.0683
 7777SOL    HW134793   2.740   2.973  12.383 -0.0729  0.3727 -0.1988
 7777SOL    HW234794   2.847   3.008  12.285  1.1061  0.5218  2.5387
 7778SOL     OW34795   0.158   3.398   8.698 -0.0073  0.1420  0.1299
 7778SOL    HW134796   0.201   3.362   8.776  1.0891 -0.7211 -0.8635
 7778SOL    HW234797   0.171   3.323   8.639  0.0855  0.1488  0.1417
 7779SOL     OW34798   2.847   1.490   2.796  0.6028  0.1736  0.0209
 7779SOL    HW134799   2.766   1.541   2.790  0.9597  0.4445 -2.4550
 7779SOL    HW234800   2.867   1.458   2.708 -0.6510 -1.4762  0.3294
 7780SOL     OW34801   4.228   4.261  14.079  0.0536  0.1803 -0.3542
 7780SOL    HW134802   4.270   4.191  14.129  0.1726 -0.5834 -1.5146
 7780SOL    HW234803   4.294   4.328  14.095  1.8492 -2.0812  1.7249
 7781SOL     OW34804   1.362   4.212   7.917  0.2465 -0.1815 -0.5652
 7781SOL    HW134805   1.396   4.259   7.841  1.1987  0.2773  0.1514
 7781SOL    HW234806   1.440   4.176   7.959  0.7787  1.4932 -0.1337
 7782SOL     OW34807   1.489   1.636  17.578 -0.1272 -0.0092  0.3157
 7782SOL    HW134808   1.462   1.600  17.494 -1.4611  1.7224 -0.0070
 7782SOL    HW234809   1.577   1.672  17.575 -0.8093  1.6144 -0.2109
 7783SOL     OW34810   2.060   2.967   4.436  0.1062  0.3014  0.3329
 7783SOL    HW134811   2.060   2.986   4.530 -0.9100  0.0641  0.3845
 7783SOL    HW234812   1.972   2.999   4.413 -0.0704 -0.8591 -0.5865
 7784SOL     OW34813   1.961   2.458   0.748 -0.2681  0.4336 -0.0706
 7784SOL    HW134814   1.943   2.381   0.802 -0.3585  0.9918  0.7043
 7784SOL    HW234815   1.892   2.521   0.769  0.4365  1.1536  0.0632
 7785SOL     OW34816   1.143   4.319   8.834  0.3650  0.5087 -0.1830
 7785SOL    HW134817   1.196   4.345   8.909  1.4058 -1.9630 -0.0768
 7785SOL    HW234818   1.191   4.246   8.796  0.4187 -0.4517  1.7576
 7786SOL     OW34819   3.557   0.189   4.084 -0.2874 -0.3582 -0.3397
 7786SOL    HW134820   3.651   0.206   4.088 -0.4892  0.4905  0.7848
 7786SOL    HW234821   3.556   0.097   4.111 -2.5037 -0.4184 -0.6814
 7787SOL     OW34822   3.436   2.334  13.792  0.6968  0.5102 -0.0030
 7787SOL    HW134823   3.435   2.415  13.843  0.3616  1.2070 -1.1210
 7787SOL    HW234824   3.382   2.274  13.842 -0.6786 -0.1007 -2.2585
 7788SOL     OW34825   3.392   1.030   8.649 -0.1139 -0.1151  0.9029
 7788SOL    HW134826   3.480   1.055   8.620  0.5113  0.2323  3.1395
 7788SOL    HW234827   3.347   1.109   8.618 -1.1212 -0.9646  0.2256
 7789SOL     OW34828   0.037   1.771  12.113  0.3405  0.2597 -0.2795
 7789SOL    HW134829   4.709   1.784  12.033  0.5156  1.4474 -0.2058
 7789SOL    HW234830   0.125   1.790  12.081  0.3497  1.2673  0.3176
 7790SOL     OW34831   2.864   2.752   1.034 -0.2115 -0.2539 -0.3947
 7790SOL    HW134832   2.958   2.739   1.024  0.0402 -2.1458  4.2651
 7790SOL    HW234833   2.827   2.693   0.968 -0.3680 -2.6242  1.8206
 7791SOL     OW34834   0.589   4.618   7.697 -0.0917  0.4078  0.0722
 7791SOL    HW134835   0.674   4.588   7.727 -1.3923 -1.5955  1.7545
 7791SOL    HW234836   0.597   4.613   7.602  0.0430 -1.0567  0.1603
 7792SOL     OW34837   0.589   2.149  16.237 -0.0240  0.5537 -0.0525
 7792SOL    HW134838   0.596   2.058  16.265 -1.3885  0.0847 -1.2549
 7792SOL    HW234839   0.617   2.198  16.315  2.0288 -0.0999 -0.3912
 7793SOL     OW34840   0.247   2.718   9.096 -0.0251  1.1147  0.3121
 7793SOL    HW134841   0.187   2.657   9.054 -1.7273  1.3869  2.3995
 7793SOL    HW234842   0.207   2.802   9.072 -0.0162  0.9982 -0.1228
 7794SOL     OW34843   0.680   3.370   6.075 -0.8807  0.2002 -0.2685
 7794SOL    HW134844   0.768   3.342   6.049 -1.3880  0.7855 -2.6557
 7794SOL    HW234845   0.652   3.300   6.133 -1.2837 -0.1881 -0.9334
 7795SOL     OW34846   3.005   2.137   4.368 -0.2245  0.3275  0.8127
 7795SOL    HW134847   2.983   2.221   4.407 -0.3063  1.2214 -1.1704
 7795SOL    HW234848   2.919   2.101   4.348 -1.4297  2.4643  2.1770
 7796SOL     OW34849   0.405   4.014   2.644 -0.1385 -0.4386  0.3888
 7796SOL    HW134850   0.425   3.970   2.562 -1.9918 -2.2661  0.9280
 7796SOL    HW234851   0.310   4.022   2.635  0.3912  1.5589 -3.0944
 7797SOL     OW34852   3.837   1.247   1.462 -0.2479 -0.0622  0.4210
 7797SOL    HW134853   3.816   1.180   1.396 -0.0500 -0.2468  0.5464
 7797SOL    HW234854   3.863   1.324   1.412  0.9716  0.5692  2.0376
 7798SOL     OW34855   1.552   2.250  12.849 -0.4685  0.3649  0.3919
 7798SOL    HW134856   1.474   2.234  12.795  0.1541  0.1004 -0.4257
 7798SOL    HW234857   1.617   2.206  12.794 -1.8541 -1.3079  0.0696
 7799SOL     OW34858   1.103   2.704   9.809  0.6339 -0.3629  0.2967
 7799SOL    HW134859   1.097   2.753   9.890  2.8128  2.0957 -1.0456
 7799SOL    HW234860   1.011   2.683   9.792 -0.1066  2.5605  0.7638
 7800SOL     OW34861   0.297   4.120   7.171 -0.0782  0.1254  0.2358
 7800SOL    HW134862   0.346   4.192   7.209  0.9569 -0.2959 -0.2854
 7800SOL    HW234863   0.237   4.165   7.111  2.2093  0.2026 -2.0303
 7801SOL     OW34864   1.743   2.658  13.300 -0.3808  0.3615  0.0060
 7801SOL    HW134865   1.660   2.619  13.272 -0.0757 -0.1875 -0.1384
 7801SOL    HW234866   1.741   2.640  13.394 -0.1566  1.8103  0.2775
 7802SOL     OW34867   3.306   2.654   9.119 -0.2556 -0.2132 -0.0585
 7802SOL    HW134868   3.325   2.691   9.205 -0.6810 -0.6812  0.2371
 7802SOL    HW234869   3.221   2.612   9.129 -0.2793  0.1099  1.1593
 7803SOL     OW34870   0.358   0.696   6.467 -0.0909 -0.1908  0.3574
 7803SOL    HW134871   0.449   0.720   6.453 -0.7573  1.2248 -1.6583
 7803SOL    HW234872   0.368   0.610   6.506  1.7715 -1.0891 -2.1117
 7804SOL     OW34873   2.988   0.661   8.316 -0.1457  0.2143  0.0377
 7804SOL    HW134874   2.920   0.728   8.308 -0.5835 -0.0712  1.3098
 7804SOL    HW234875   3.025   0.682   8.402 -1.4033  0.0092  0.6294
 7805SOL     OW34876   0.072   0.270   3.821 -0.4164  0.0623 -0.4577
 7805SOL    HW134877   0.162   0.278   3.790  0.1008  2.1303  1.5156
 7805SOL    HW234878   0.028   0.259   3.737 -1.1688  4.1626 -0.6354
 7806SOL     OW34879   3.905   1.478   4.191  0.2198 -0.1900  0.6068
 7806SOL    HW134880   3.951   1.436   4.264  1.4123  1.0048  0.5330
 7806SOL    HW234881   3.911   1.417   4.117  0.3302  0.6281 -0.0602
 7807SOL     OW34882   1.350   4.157   4.711  0.4642 -0.4654  0.2354
 7807SOL    HW134883   1.366   4.251   4.711  0.2598 -0.4351 -0.9945
 7807SOL    HW234884   1.443   4.137   4.705  0.8242  1.2299  0.2207
 7808SOL     OW34885   1.209   2.736  16.017  0.2328  0.1005  0.4713
 7808SOL    HW134886   1.170   2.776  15.939 -0.7222  0.8562  1.3316
 7808SOL    HW234887   1.196   2.642  16.011 -0.7964  0.3755 -1.8191
 7809SOL     OW34888   0.891   0.046  12.693  0.0198 -0.2892  0.1824
 7809SOL    HW134889   0.961   0.108  12.713 -0.2128 -0.4699  1.5427
 7809SOL    HW234890   0.949   4.704  12.650 -1.6427 -1.2086 -0.6893
 7810SOL     OW34891   4.469   1.122  14.001 -0.0484  0.2932 -0.2562
 7810SOL    HW134892   4.406   1.118  14.073  2.8419  0.1156  2.2713
 7810SOL    HW234893   4.495   1.030  13.989 -1.6579 -0.0014 -1.5775
 7811SOL     OW34894   3.173   3.510   4.916  0.6600  0.4497 -0.0288
 7811SOL    HW134895   3.242   3.575   4.922  0.1752  0.7040  2.5751
 7811SOL    HW234896   3.110   3.552   4.975  2.9086  2.4749  0.9267
 7812SOL     OW34897   3.984   1.310   7.096  0.1094 -0.2609 -0.3558
 7812SOL    HW134898   3.990   1.242   7.028  0.6670 -1.6505  1.1041
 7812SOL    HW234899   3.889   1.317   7.101  0.2376  1.1425  0.0894
 7813SOL     OW34900   1.450   4.546   3.689 -0.6591 -0.0420  0.0260
 7813SOL    HW134901   1.465   4.641   3.685 -1.3745  0.1139  0.9145
 7813SOL    HW234902   1.451   4.538   3.784 -3.6706  0.2172  0.0948
 7814SOL     OW34903   0.060   3.283   3.638 -0.0775  0.3031  0.8797
 7814SOL    HW134904   0.067   3.239   3.723  1.0045  0.1599  0.7074
 7814SOL    HW234905   0.148   3.259   3.611 -0.8845 -1.7688  0.0512
 7815SOL     OW34906   1.372   0.806   8.700 -0.0421 -0.4689  0.1412
 7815SOL    HW134907   1.319   0.757   8.763 -3.1922 -0.1029 -2.2361
 7815SOL    HW234908   1.312   0.868   8.658  2.3405  1.0909 -0.9914
 7816SOL     OW34909   1.654   4.456  15.001  0.3378 -0.6511  0.2298
 7816SOL    HW134910   1.678   4.386  15.060  0.0421 -0.1452  0.9475
 7816SOL    HW234911   1.608   4.403  14.935  0.9004  0.4105 -1.0274
 7817SOL     OW34912   1.651   3.398   6.497 -0.4758  0.3637  0.1509
 7817SOL    HW134913   1.597   3.440   6.564 -0.9315  1.0103 -0.6253
 7817SOL    HW234914   1.589   3.413   6.426  1.2462  0.1590 -1.3930
 7818SOL     OW34915   0.345   4.566   3.588  0.8234 -0.3812 -0.4710
 7818SOL    HW134916   0.340   4.620   3.509 -2.9879  1.0104  0.7015
 7818SOL    HW234917   0.263   4.516   3.578  0.8022 -0.5927  0.7060
 7819SOL     OW34918   4.207   4.228   4.480 -0.4233  0.0884 -0.0307
 7819SOL    HW134919   4.170   4.163   4.421  0.2025 -0.7567  0.5086
 7819SOL    HW234920   4.142   4.296   4.465 -0.7946 -0.1194  0.6400
 7820SOL     OW34921   4.409   1.578   5.189  0.2527  0.3633 -0.7252
 7820SOL    HW134922   4.481   1.579   5.252  1.9744 -2.6717 -2.6291
 7820SOL    HW234923   4.402   1.668   5.159  0.0557  1.6617  3.2127
 7821SOL     OW34924   1.110   4.277   6.168 -0.1404 -0.5862  0.1321
 7821SOL    HW134925   1.186   4.316   6.123  0.6495 -1.8757  0.3499
 7821SOL    HW234926   1.135   4.271   6.261 -1.4486 -1.4111  0.4177
 7822SOL     OW34927   1.621   2.051   7.669 -0.7494  0.5967  0.5054
 7822SOL    HW134928   1.658   2.057   7.758 -3.4788 -0.6566  1.7337
 7822SOL    HW234929   1.531   2.065   7.698  0.2038  0.6616  3.4730
 7823SOL     OW34930   0.234   3.672  16.507 -0.5298 -0.0435 -0.4632
 7823SOL    HW134931   0.256   3.674  16.413 -3.9457 -0.7646 -1.2545
 7823SOL    HW234932   0.282   3.749  16.537 -0.1589 -0.2634 -0.4803
 7824SOL     OW34933   3.407   4.314  14.137 -0.2331 -0.5626  0.3987
 7824SOL    HW134934   3.484   4.366  14.114 -0.5099 -1.2214 -2.0461
 7824SOL    HW234935   3.342   4.344  14.073  0.5635 -1.0098 -0.6201
 7825SOL     OW34936   2.918   4.397  12.168  0.2302 -0.4154  0.4683
 7825SOL    HW134937   3.008   4.367  12.165  0.7662  1.1877  0.4836
 7825SOL    HW234938   2.882   4.394  12.257  1.2288 -1.0752  0.8447
 7826SOL     OW34939   2.607   1.418  13.387 -0.6826  0.3538 -0.0726
 7826SOL    HW134940   2.655   1.496  13.415  0.8754 -0.7827  0.4080
 7826SOL    HW234941   2.648   1.400  13.303  1.4242  0.4339  0.9380
 7827SOL     OW34942   0.072   0.405  15.741 -0.6323  0.7067  0.2628
 7827SOL    HW134943   0.048   0.321  15.701  2.4095 -0.1514  0.2781
 7827SOL    HW234944   0.129   0.380  15.813  1.0529 -2.4312 -2.1469
 7828SOL     OW34945   4.095   1.833  10.850 -0.4341  0.4099  0.6212
 7828SOL    HW134946   4.115   1.843  10.943  0.9777  1.4698  0.2089
 7828SOL    HW234947   4.143   1.901  10.802  1.3959 -0.6374  1.0150
 7829SOL     OW34948   1.500   1.174  10.918  0.3407  0.7118  0.0397
 7829SOL    HW134949   1.419   1.209  10.880 -0.7748 -2.0133 -0.1315
 7829SOL    HW234950   1.517   1.099  10.860  1.4922 -0.0721  1.3988
 7830SOL     OW34951   4.683   1.382   5.651  0.0352  0.4481 -0.1679
 7830SOL    HW134952   0.041   1.330   5.659  0.6933  1.4032 -0.5241
 7830SOL    HW234953   4.644   1.365   5.565  0.2287  2.0675 -0.5837
 7831SOL     OW34954   3.140   0.275   4.672  0.5361 -0.1068  0.4222
 7831SOL    HW134955   3.167   0.307   4.586  0.9309 -0.1772  0.5230
 7831SOL    HW234956   3.131   0.181   4.655 -0.0359  0.3165 -1.6178
 7832SOL     OW34957   0.306   1.895   0.925  0.1967 -0.0454  0.2099
 7832SOL    HW134958   0.235   1.957   0.939  1.1382  1.2237 -0.5751
 7832SOL    HW234959   0.260   1.841   0.860 -0.8440  1.1927 -0.0932
 7833SOL     OW34960   3.594   1.550   6.999 -0.2062  0.1498 -0.5910
 7833SOL    HW134961   3.529   1.485   6.974 -0.6695  0.5369 -0.3757
 7833SOL    HW234962   3.557   1.605   7.068  0.4504 -0.3600  0.1682
 7834SOL     OW34963   3.929   3.451   7.296 -0.2976  0.3989  0.6067
 7834SOL    HW134964   3.916   3.455   7.390  2.7734 -0.5432  1.0673
 7834SOL    HW234965   3.906   3.359   7.283  1.4359 -0.0627  0.8126
 7835SOL     OW34966   2.883   0.786   3.586  0.2213 -0.2235 -0.3905
 7835SOL    HW134967   2.973   0.770   3.613  1.0037  0.4402 -2.6150
 7835SOL    HW234968   2.895   0.860   3.527  1.3466  0.7082  0.9892
 7836SOL     OW34969   2.602   1.980   3.660  0.4369 -0.1732  0.3161
 7836SOL    HW134970   2.571   2.045   3.596  0.1996 -2.6368 -2.0892
 7836SOL    HW234971   2.696   1.974   3.641  0.3733  0.7395 -0.3050
 7837SOL     OW34972   1.473   3.317   3.730  0.5550 -0.2480 -0.4095
 7837SOL    HW134973   1.506   3.230   3.754  2.7868 -0.0617 -2.8475
 7837SOL    HW234974   1.426   3.294   3.650 -1.4337 -0.5281  0.8435
 7838SOL     OW34975   0.995   2.609   3.759 -0.0782 -0.2273  0.1498
 7838SOL    HW134976   1.064   2.543   3.752 -0.5392 -1.1214  4.1870
 7838SOL    HW234977   0.908   2.568   3.757  0.1068 -0.6181  0.1972
 7839SOL     OW34978   2.367   3.477  17.637  0.1009 -0.3149  0.1375
 7839SOL    HW134979   2.391   3.414   0.016 -0.0963  0.3961  0.8665
 7839SOL    HW234980   2.443   3.465  17.580 -1.1824 -0.3528 -1.5637
 7840SOL     OW34981   2.741   2.629   1.266  0.0815 -0.3104 -0.2191
 7840SOL    HW134982   2.783   2.657   1.185 -0.7879 -0.1687 -0.6179
 7840SOL    HW234983   2.722   2.537   1.252 -1.5339 -0.2916  1.7877
 7841SOL     OW34984   2.210   2.460   6.877 -0.2300 -0.5115 -0.2779
 7841SOL    HW134985   2.144   2.392   6.861 -0.5066  0.1992 -2.1662
 7841SOL    HW234986   2.164   2.526   6.825  1.7320  0.9695 -0.1093
 7842SOL     OW34987   0.077   3.123  10.022  0.0551  0.2046 -0.4229
 7842SOL    HW134988   4.707   3.133   9.995 -1.0671  0.7302  3.6035
 7842SOL    HW234989   0.060   3.125  10.116  1.2799  3.2422 -0.2461
 7843SOL     OW34990   2.329   4.136  15.997 -0.0158  0.1068  0.2465
 7843SOL    HW134991   2.279   4.062  16.031  0.8099 -0.9248 -0.7793
 7843SOL    HW234992   2.312   4.135  15.903 -2.5927  2.3093  0.6893
 7844SOL     OW34993   0.451   2.570  17.462 -0.1067 -0.1180  0.0973
 7844SOL    HW134994   0.535   2.533  17.434 -0.4619 -2.4912  2.2079
 7844SOL    HW234995   0.443   2.508  17.534  0.2802  0.3152  0.5102
 7845SOL     OW34996   1.887   4.314   9.117  0.3146  0.1604  0.5164
 7845SOL    HW134997   1.880   4.242   9.179  1.3468 -0.2114  0.2089
 7845SOL    HW234998   1.883   4.266   9.034  1.8490  0.3795  0.3102
 7846SOL     OW34999   3.726   0.781  16.016 -0.2969 -0.0080 -0.1594
 7846SOL    HW135000   3.700   0.805  16.105 -1.1042  0.6257 -0.5636
 7846SOL    HW235001   3.780   0.858  15.997 -1.4644  1.2820  1.7304
 7847SOL     OW35002   0.403   2.330  14.516  0.5004 -0.3366  0.3642
 7847SOL    HW135003   0.402   2.403  14.454  0.1671  0.3766  1.2140
 7847SOL    HW235004   0.310   2.311  14.517  0.3165  0.4984 -1.4848
 7848SOL     OW35005   2.715   3.010   5.097  0.3412  0.4327  0.5269
 7848SOL    HW135006   2.670   3.030   5.179  1.0166  0.7273  0.8171
 7848SOL    HW235007   2.666   3.067   5.038  0.2829 -0.3646 -0.2062
 7849SOL     OW35008   3.875   4.406   7.458  0.1308 -0.1674 -0.2048
 7849SOL    HW135009   3.876   4.455   7.376 -1.4114  1.7477  0.9331
 7849SOL    HW235010   3.784   4.426   7.480  1.0530  3.1258  0.5685
 7850SOL     OW35011   0.671   0.765  10.485  0.5159 -0.4989 -0.3820
 7850SOL    HW135012   0.668   0.703  10.558 -0.2980  1.6559  1.3970
 7850SOL    HW235013   0.764   0.761  10.464  0.4365 -0.6064 -0.7068
 7851SOL     OW35014   2.796   1.694   1.254  0.7218 -0.1845 -0.2276
 7851SOL    HW135015   2.756   1.772   1.293 -0.7673 -1.1600  0.1797
 7851SOL    HW235016   2.851   1.675   1.330  0.0760  0.6448  0.4465
 7852SOL     OW35017   4.451   3.932  15.854 -0.3318 -0.3584 -0.0530
 7852SOL    HW135018   4.479   3.897  15.770 -0.1582  0.2168 -0.2353
 7852SOL    HW235019   4.366   3.887  15.850 -0.5463  0.1201 -0.9080
 7853SOL     OW35020   0.474   4.217   0.972 -0.5887  0.3363 -0.0526
 7853SOL    HW135021   0.496   4.152   1.039 -2.1516 -1.6957 -1.5149
 7853SOL    HW235022   0.412   4.274   1.019  0.1135  1.3772 -0.3918
 7854SOL     OW35023   3.904   4.343   8.988 -0.5910  0.1137  0.0226
 7854SOL    HW135024   3.903   4.435   9.012 -0.1980  0.3708 -0.9643
 7854SOL    HW235025   3.815   4.324   8.959 -1.8411 -0.3077  4.0589
 7855SOL     OW35026   3.171   2.314  11.730 -0.1745  0.7012  0.1786
 7855SOL    HW135027   3.110   2.255  11.773  0.8608  0.3727  1.1945
 7855SOL    HW235028   3.122   2.397  11.731  0.1268  0.8717  1.1728
 7856SOL     OW35029   3.181   1.015  13.898 -0.3099 -0.1142 -0.7848
 7856SOL    HW135030   3.100   1.062  13.876  1.7516  2.7148 -2.3793
 7856SOL    HW235031   3.248   1.070  13.858  0.5478 -0.2366  0.4863
 7857SOL     OW35032   4.292   2.703   7.989 -0.1387 -0.2518 -0.5469
 7857SOL    HW135033   4.332   2.759   7.922  0.9594 -0.6856 -0.2564
 7857SOL    HW235034   4.365   2.672   8.043  0.5362  1.1991 -0.6248
 7858SOL     OW35035   1.642   1.519   6.329 -0.5489  0.0505  0.6236
 7858SOL    HW135036   1.735   1.525   6.351 -0.2544 -1.0909 -0.2966
 7858SOL    HW235037   1.631   1.424   6.322 -2.1052  0.2236  0.6347
 7859SOL     OW35038   3.068   1.423  11.290 -0.4239 -0.4078 -0.3233
 7859SOL    HW135039   2.979   1.402  11.318  0.0682  0.0120  1.5660
 7859SOL    HW235040   3.058   1.517  11.282 -0.0772 -0.5766 -2.9838
 7860SOL     OW35041   0.290   1.361   2.664  0.2693  0.2082 -0.4393
 7860SOL    HW135042   0.320   1.319   2.744 -2.0206  0.0370  0.3208
 7860SOL    HW235043   0.196   1.361   2.678 -0.0747  0.7347 -2.6720
 7861SOL     OW35044   4.371   4.215   6.694 -0.1538 -0.6281  0.3513
 7861SOL    HW135045   4.352   4.251   6.608 -0.7827 -1.3542  0.1785
 7861SOL    HW235046   4.299   4.252   6.746 -0.6916 -1.7403  0.4093
 7862SOL     OW35047   0.844   2.631  16.251  0.0538 -0.0901  0.2249
 7862SOL    HW135048   0.789   2.699  16.213  1.1143  0.4527 -0.3337
 7862SOL    HW235049   0.925   2.681  16.265 -0.2172  0.2247  0.6422
 7863SOL     OW35050   1.217   1.740   2.898  0.3152  0.4147 -0.2125
 7863SOL    HW135051   1.187   1.773   2.813  0.0156 -1.5227 -0.8474
 7863SOL    HW235052   1.172   1.805   2.954 -1.0785  0.3449 -1.2469
 7864SOL     OW35053   2.566   2.002  15.938 -0.2748  0.9147  0.8276
 7864SOL    HW135054   2.523   1.936  15.992 -0.1447 -1.1739 -1.6086
 7864SOL    HW235055   2.642   1.950  15.910 -2.6659 -1.0101 -2.1130
 7865SOL     OW35056   4.489   2.069   6.349 -0.0607  0.2888  0.0209
 7865SOL    HW135057   4.433   1.993   6.366 -0.2491  0.0135 -1.9015
 7865SOL    HW235058   4.505   2.105   6.437  1.1196 -1.3432  0.4579
 7866SOL     OW35059   3.197   1.509  12.126  0.1635  1.0574 -0.1481
 7866SOL    HW135060   3.161   1.462  12.201  1.6386 -0.2725 -0.2915
 7866SOL    HW235061   3.116   1.536  12.082 -2.5431 -2.3452  2.6983
 7867SOL     OW35062   2.684   1.936  12.685  0.3392 -0.6246  0.0105
 7867SOL    HW135063   2.777   1.935  12.660  0.8494  0.5424  1.9392
 7867SOL    HW235064   2.650   2.019  12.653  2.6068  0.4888  0.4470
 7868SOL     OW35065   1.362   3.908   3.384 -0.0366  0.2633  0.0949
 7868SOL    HW135066   1.272   3.876   3.376  0.5353 -0.9994 -1.3507
 7868SOL    HW235067   1.381   3.890   3.476  3.2514  0.3309 -0.5571
 7869SOL     OW35068   4.485   0.763   6.055 -1.0210 -0.0487  0.2879
 7869SOL    HW135069   4.480   0.843   6.002  2.2894 -0.1051 -0.1412
 7869SOL    HW235070   4.437   0.786   6.134  1.4006  0.1447  1.7261
 7870SOL     OW35071   1.173   0.522   7.733 -0.1219  0.5558  0.0696
 7870SOL    HW135072   1.155   0.429   7.716  2.6098  0.5413 -2.6825
 7870SOL    HW235073   1.269   0.522   7.742 -0.1075  0.1864 -0.0646
 7871SOL     OW35074   2.546   2.915  13.717  0.0359  0.1972  0.1319
 7871SOL    HW135075   2.502   2.980  13.663 -0.6757  0.1129  0.6118
 7871SOL    HW235076   2.568   2.844  13.656  1.4028  0.5798  0.1798
 7872SOL     OW35077   2.195   1.943   8.177 -0.2733  0.7233 -0.1900
 7872SOL    HW135078   2.146   2.015   8.217  0.2822  1.3394 -0.6026
 7872SOL    HW235079   2.155   1.943   8.090  0.5063  2.1749 -0.5464
 7873SOL     OW35080   1.721   3.243   8.404  0.1605  0.3340 -0.3795
 7873SOL    HW135081   1.692   3.308   8.340 -0.8880  0.6371  0.4079
 7873SOL    HW235082   1.783   3.296   8.453 -0.4645 -0.5382  1.3738
 7874SOL     OW35083   3.767   3.468   4.980  0.0940 -0.4208  0.4835
 7874SOL    HW135084   3.817   3.547   4.999  2.0920 -1.6472  0.3490
 7874SOL    HW235085   3.825   3.401   5.017 -0.3373 -1.5683 -0.9289
 7875SOL     OW35086   0.524   2.763   3.277 -0.6803 -0.6001 -0.3939
 7875SOL    HW135087   0.497   2.703   3.208  0.5228 -0.8680 -0.6302
 7875SOL    HW235088   0.616   2.741   3.265  0.1188  2.5575 -0.0875
 7876SOL     OW35089   3.535   1.065   9.680  0.5393  0.7540 -0.5331
 7876SOL    HW135090   3.459   1.073   9.622  0.7070  0.4378 -0.7954
 7876SOL    HW235091   3.542   1.149   9.725  0.1529  0.8056 -0.5736
 7877SOL     OW35092   2.297   2.162  14.447 -0.4801  0.3518  0.6186
 7877SOL    HW135093   2.363   2.224  14.417 -0.8215 -0.1626 -1.2078
 7877SOL    HW235094   2.237   2.186  14.375  1.3964 -0.7750 -1.3261
 7878SOL     OW35095   3.695   3.517  13.431  0.0630  0.3523  0.2823
 7878SOL    HW135096   3.675   3.589  13.370  1.4553  0.5798  0.0816
 7878SOL    HW235097   3.701   3.571  13.510  0.4605  0.8620 -0.0927
 7879SOL     OW35098   3.219   0.229   2.302  0.4146  0.3579  0.1285
 7879SOL    HW135099   3.157   0.211   2.372  0.8189  0.9364  0.6369
 7879SOL    HW235100   3.181   0.313   2.276  0.9707  0.8868  1.0103
 7880SOL     OW35101   4.028   1.890   6.704  0.5825 -0.1967  0.0665
 7880SOL    HW135102   3.972   1.931   6.639 -3.2274 -2.3296  2.0302
 7880SOL    HW235103   4.037   1.966   6.761 -0.4409 -0.2652  0.3169
 7881SOL     OW35104   3.951   1.238   2.085  0.1014  0.2651 -0.2899
 7881SOL    HW135105   3.910   1.219   2.000  1.4821 -0.9088 -0.6954
 7881SOL    HW235106   4.039   1.208   2.062 -0.6722 -1.8957 -0.4223
 7882SOL     OW35107   0.534   4.245  14.907 -0.1401  0.0910  0.2182
 7882SOL    HW135108   0.531   4.319  14.967 -2.2666 -0.5791  0.9398
 7882SOL    HW235109   0.627   4.225  14.908 -0.2097 -0.4016 -2.3135
 7883SOL     OW35110   1.272   1.320  11.564 -0.1216  0.2422 -0.0876
 7883SOL    HW135111   1.311   1.407  11.565  1.1882 -0.3513 -0.3208
 7883SOL    HW235112   1.193   1.339  11.513  0.8641 -0.0864 -1.7175
 7884SOL     OW35113   1.597   2.661  10.058 -0.4444  0.0937 -0.0387
 7884SOL    HW135114   1.543   2.711   9.996 -0.8412 -0.2329  0.0364
 7884SOL    HW235115   1.586   2.577  10.012  1.1612 -1.0393  1.6885
 7885SOL     OW35116   3.916   2.234  11.826  0.2974  0.3721 -0.2972
 7885SOL    HW135117   3.966   2.314  11.809  1.5995 -0.0806  1.4068
 7885SOL    HW235118   3.862   2.238  11.747  1.3388  0.5556 -0.9927
 7886SOL     OW35119   0.643   1.199  10.202 -0.7710  0.3115  0.3034
 7886SOL    HW135120   0.634   1.279  10.255 -0.8638  1.7360 -1.8676
 7886SOL    HW235121   0.738   1.199  10.198 -0.7048 -0.7808  2.2348
 7887SOL     OW35122   0.343   4.200   3.287  0.0689 -0.3257  0.2095
 7887SOL    HW135123   0.314   4.145   3.215 -0.1996 -0.4076  0.3779
 7887SOL    HW235124   0.377   4.273   3.236  1.2493 -1.0635 -0.0439
 7888SOL     OW35125   4.644   3.186   0.975 -0.0870 -0.3058  0.1381
 7888SOL    HW135126   4.559   3.147   0.996 -0.8333  0.4257 -1.5155
 7888SOL    HW235127   4.657   3.256   1.038  0.8006 -0.9506  0.6572
 7889SOL     OW35128   3.982   1.727   1.673  0.0992  0.3080 -0.1591
 7889SOL    HW135129   4.075   1.750   1.669 -0.3639  2.0450 -0.9195
 7889SOL    HW235130   3.973   1.687   1.760  3.7746  0.9708  0.5360
 7890SOL     OW35131   0.757   3.004   5.389 -0.2258 -0.2770 -0.0046
 7890SOL    HW135132   0.753   3.076   5.452 -1.2991  0.9104 -1.4479
 7890SOL    HW235133   0.822   2.948   5.432 -0.4120  1.7803  2.9234
 7891SOL     OW35134   2.934   3.116   8.004 -0.3085  0.0607 -0.0802
 7891SOL    HW135135   3.019   3.151   7.979  0.0512 -0.5792  0.2235
 7891SOL    HW235136   2.961   3.025   8.017  0.9317  0.4362 -0.0673
 7892SOL     OW35137   1.208   0.738  13.310 -0.2428  0.7878  0.6741
 7892SOL    HW135138   1.139   0.680  13.280 -0.8220  1.5229  0.5752
 7892SOL    HW235139   1.262   0.677  13.360  1.0739 -0.1855 -1.9138
 7893SOL     OW35140   3.557   2.582   1.794  0.2298  0.4470 -0.1954
 7893SOL    HW135141   3.480   2.556   1.846 -0.5958  1.2754 -1.0076
 7893SOL    HW235142   3.521   2.612   1.711  1.3169 -0.0294 -0.8218
 7894SOL     OW35143   1.153   2.201   6.294 -0.3432  0.6352  0.0390
 7894SOL    HW135144   1.193   2.226   6.377  1.3307  0.5917 -0.7509
 7894SOL    HW235145   1.061   2.225   6.309 -0.5782  0.3120 -0.8740
 7895SOL     OW35146   4.248   0.463   4.076  0.4082  0.3196  0.4312
 7895SOL    HW135147   4.277   0.372   4.082 -2.3490 -0.5855  0.0581
 7895SOL    HW235148   4.328   0.514   4.091  0.2901  0.7211 -0.3085
 7896SOL     OW35149   0.655   2.773   4.018 -0.0088  0.2205 -0.7025
 7896SOL    HW135150   0.721   2.829   4.059 -0.9280 -1.0512  2.5115
 7896SOL    HW235151   0.646   2.825   3.938 -1.5476  1.1969  0.0919
 7897SOL     OW35152   0.145   1.408   8.822  0.6073  0.1604 -0.0280
 7897SOL    HW135153   0.083   1.419   8.894 -0.4178  1.6593 -1.1442
 7897SOL    HW235154   0.214   1.464   8.858  1.1054  0.6161 -1.7102
 7898SOL     OW35155   0.047   3.932   3.187  1.0608  0.0738  0.2608
 7898SOL    HW135156   0.088   3.857   3.144 -0.1975 -0.6718  0.3764
 7898SOL    HW235157   0.098   4.004   3.149  0.0017  1.5641  1.7107
 7899SOL     OW35158   4.086   3.411   2.120  0.2426  0.1235 -0.0744
 7899SOL    HW135159   4.162   3.450   2.078  1.0093 -1.6919 -0.3914
 7899SOL    HW235160   4.011   3.453   2.078  0.5817  0.2922 -0.5118
 7900SOL     OW35161   2.703   4.236   4.111  0.2609  0.4994  0.2062
 7900SOL    HW135162   2.623   4.188   4.135  1.8663 -0.7575  3.0768
 7900SOL    HW235163   2.670   4.279   4.032 -0.0851 -0.2057 -0.0341
 7901SOL     OW35164   0.128   3.476   4.976 -0.2458 -1.0146 -0.2604
 7901SOL    HW135165   0.106   3.522   4.896  0.0274 -0.4258  0.0044
 7901SOL    HW235166   0.057   3.503   5.035 -0.0512 -2.0324  0.4384
 7902SOL     OW35167   0.472   3.089   4.852 -0.5541  0.0697 -0.0129
 7902SOL    HW135168   0.420   3.014   4.823 -0.7791 -0.7494  2.5033
 7902SOL    HW235169   0.423   3.119   4.928 -0.1529  1.1410 -0.1894
 7903SOL     OW35170   3.157   3.447   1.980 -0.7343  0.4795  0.5879
 7903SOL    HW135171   3.219   3.518   1.967 -0.3328 -0.4154 -2.3565
 7903SOL    HW235172   3.099   3.492   2.041 -2.6485 -1.2838  0.0714
 7904SOL     OW35173   3.514   1.399  11.369  0.5111 -0.7059  0.2080
 7904SOL    HW135174   3.570   1.477  11.366 -0.1141 -0.2060  1.2569
 7904SOL    HW235175   3.497   1.398  11.275  1.1041  1.9279  0.0816
 7905SOL     OW35176   4.696   2.439  12.549 -0.3691 -0.3061  0.0947
 7905SOL    HW135177   4.699   2.504  12.479 -1.9147  0.9081  1.1519
 7905SOL    HW235178   0.003   2.354  12.515 -1.3099 -0.0205 -1.4121
 7906SOL     OW35179   3.649   3.522   4.702 -0.2111  0.3127 -0.1250
 7906SOL    HW135180   3.701   3.599   4.721 -0.3901  0.1029  1.2360
 7906SOL    HW235181   3.657   3.481   4.788 -0.4708 -1.3014 -0.8637
 7907SOL     OW35182   4.327   4.506   3.075 -0.1564  0.0662  0.4025
 7907SOL    HW135183   4.247   4.468   3.112 -0.0463  0.6771  1.2700
 7907SOL    HW235184   4.355   4.565   3.144  0.8961 -0.0567  0.0781
 7908SOL     OW35185   3.522   2.746   7.920  0.6430 -0.1859 -0.3642
 7908SOL    HW135186   3.604   2.791   7.900 -0.0283  1.9779  1.7889
 7908SOL    HW235187   3.561   2.660   7.902  0.0947 -0.8612  1.6070
 7909SOL     OW35188   2.514   3.232  14.387 -0.1471 -0.1266 -0.3802
 7909SOL    HW135189   2.590   3.217  14.331 -0.6222 -1.6716 -0.6182
 7909SOL    HW235190   2.504   3.327  14.381 -2.7034 -0.5884 -3.6467
 7910SOL     OW35191   4.051   2.383   6.133 -0.0996  0.6479 -0.1491
 7910SOL    HW135192   4.139   2.386   6.095 -0.0490 -1.3094 -0.1732
 7910SOL    HW235193   4.019   2.467   6.100  2.3539  1.8128  0.4040
 7911SOL     OW35194   4.595   2.411  17.229 -0.1228  0.3722  0.4191
 7911SOL    HW135195   4.649   2.431  17.306  0.8195  2.7685 -0.8579
 7911SOL    HW235196   4.531   2.351  17.267 -1.4111  2.4288  1.4669
 7912SOL     OW35197   0.086   2.447   2.928 -0.0028 -0.1142 -0.6988
 7912SOL    HW135198   0.177   2.426   2.949 -0.6174  0.1017  2.2173
 7912SOL    HW235199   0.084   2.542   2.939  1.6870 -0.3113  1.4222
 7913SOL     OW35200   0.194   1.712  10.860 -0.3991 -0.0290  0.7174
 7913SOL    HW135201   0.162   1.802  10.861  0.4011  0.2663  0.1937
 7913SOL    HW235202   0.151   1.677  10.782 -1.5130 -0.0476  1.3408
 7914SOL     OW35203   2.011   1.575   3.279 -0.2208 -0.2674 -0.0015
 7914SOL    HW135204   1.953   1.631   3.330  2.7968  1.4960  1.4601
 7914SOL    HW235205   2.092   1.621   3.301 -0.1965 -0.0428 -0.5524
 7915SOL     OW35206   1.520   1.347   6.983  0.0789 -0.6806 -0.1759
 7915SOL    HW135207   1.516   1.260   6.943 -0.8242 -0.3483 -0.8134
 7915SOL    HW235208   1.431   1.362   7.014 -0.3803 -1.6056 -1.0332
 7916SOL     OW35209   2.216   3.003  10.103 -0.3623 -0.5728 -0.1647
 7916SOL    HW135210   2.213   2.953  10.185 -0.0931 -0.8237 -0.3066
 7916SOL    HW235211   2.135   3.052  10.114 -0.7708 -1.0563 -1.0059
 7917SOL     OW35212   4.681   0.395   3.174 -0.8496 -0.0046 -0.5157
 7917SOL    HW135213   4.678   0.420   3.081  1.2495 -0.8052 -0.7918
 7917SOL    HW235214   4.678   0.300   3.161  0.4129 -0.3097  1.4358
 7918SOL     OW35215   1.323   3.153   7.285 -0.0796 -0.3868 -0.5150
 7918SOL    HW135216   1.332   3.243   7.319 -1.2273 -0.5497  0.2109
 7918SOL    HW235217   1.231   3.138   7.305  0.2048  1.2410  2.0610
 7919SOL     OW35218   4.082   3.106   4.743 -0.2374 -0.5489  0.4052
 7919SOL    HW135219   4.028   3.185   4.741  2.8393  1.5639  1.5147
 7919SOL    HW235220   4.022   3.036   4.768 -0.3991 -0.1239  1.2047
 7920SOL     OW35221   1.555   3.212  17.269  0.2418  0.4513 -0.4285
 7920SOL    HW135222   1.542   3.186  17.178 -1.5692 -2.6350  0.7272
 7920SOL    HW235223   1.478   3.170  17.309  0.0633  1.1242 -0.0526
 7921SOL     OW35224   4.292   2.026   1.407  0.3641 -0.2484  0.5556
 7921SOL    HW135225   4.211   2.072   1.385 -0.2478 -1.6197 -0.0569
 7921SOL    HW235226   4.343   2.033   1.326  0.5567  1.2407  0.8057
 7922SOL     OW35227   3.264   1.164   1.502 -1.0578 -0.0985  0.1599
 7922SOL    HW135228   3.241   1.177   1.410 -2.0311 -1.6149  0.1762
 7922SOL    HW235229   3.339   1.106   1.491  1.0499  3.3655 -3.4586
 7923SOL     OW35230   4.301   3.125  12.830 -0.1386  0.0385 -0.1204
 7923SOL    HW135231   4.375   3.086  12.876 -0.8100 -0.5064  0.4837
 7923SOL    HW235232   4.239   3.059  12.859  1.8114 -1.2737  1.0722
 7924SOL     OW35233   0.021   1.231   3.910  0.9379  0.1746 -0.4258
 7924SOL    HW135234   0.012   1.323   3.884  2.0566  0.6868  1.0130
 7924SOL    HW235235   4.660   1.199   3.948 -1.6090  3.5673 -3.0381
 7925SOL     OW35236   4.477   2.434   8.067 -0.2898 -0.2193  0.0971
 7925SOL    HW135237   4.393   2.391   8.086 -0.3906 -0.4038 -0.7597
 7925SOL    HW235238   4.533   2.397   8.136  0.4396 -1.8689 -1.3649
 7926SOL     OW35239   2.185   3.574   2.284  0.2813  0.2715  0.4198
 7926SOL    HW135240   2.117   3.629   2.321 -2.8086 -2.9431 -0.5002
 7926SOL    HW235241   2.156   3.491   2.323  1.3498 -0.7605 -0.9426
 7927SOL     OW35242   0.916   2.981   3.200 -0.1986  0.2631 -0.4452
 7927SOL    HW135243   0.893   2.961   3.109  2.1707 -0.0129 -1.0057
 7927SOL    HW235244   0.970   2.905   3.222 -0.3897  0.2041 -0.1858
 7928SOL     OW35245   0.232   1.591  10.319  0.2823 -0.7822  0.0917
 7928SOL    HW135246   0.149   1.603  10.364  0.7805  1.9836  0.2764
 7928SOL    HW235247   0.202   1.627  10.236 -1.5775  0.0269  1.1241
 7929SOL     OW35248   4.189   1.274   8.621 -0.1994  0.2681  0.4999
 7929SOL    HW135249   4.199   1.348   8.680 -1.3739  0.7363  0.1237
 7929SOL    HW235250   4.280   1.246   8.617 -0.7955 -1.5468 -0.2556
 7930SOL     OW35251   2.124   3.560   6.755 -0.1377  0.0968  0.0617
 7930SOL    HW135252   2.151   3.591   6.668  0.3382  0.3068  0.2820
 7930SOL    HW235253   2.205   3.560   6.806  1.0296  0.2741 -1.7948
 7931SOL     OW35254   2.188   0.293   4.954 -0.2876 -0.3151 -0.2724
 7931SOL    HW135255   2.135   0.339   5.019 -0.2579  2.6359 -2.3773
 7931SOL    HW235256   2.142   0.209   4.953 -2.4199  0.8583 -1.0424
 7932SOL     OW35257   4.009   1.337   8.002  0.0917  0.5929  0.3636
 7932SOL    HW135258   4.039   1.312   7.915 -1.1506 -0.3841  0.2154
 7932SOL    HW235259   3.998   1.252   8.045 -1.2333  0.0129 -1.1344
 7933SOL     OW35260   3.398   0.464   4.805 -0.3592  0.0661 -0.3356
 7933SOL    HW135261   3.483   0.444   4.766  0.7986  1.2903  1.5658
 7933SOL    HW235262   3.385   0.384   4.857 -2.0198 -1.1132 -2.5725
 7934SOL     OW35263   3.380   3.769  12.898 -0.0467 -0.1480 -0.5945
 7934SOL    HW135264   3.334   3.728  12.972  2.4079 -3.4178 -0.8774
 7934SOL    HW235265   3.412   3.847  12.944  0.6741  0.1573 -1.6136
 7935SOL     OW35266   1.350   1.692   7.165 -0.1044  0.3142  0.3136
 7935SOL    HW135267   1.263   1.732   7.176 -0.1490 -0.3948  2.5381
 7935SOL    HW235268   1.380   1.724   7.080 -0.7949  0.4805  0.1309
 7936SOL     OW35269   4.293   1.045   8.333  1.1294 -0.1872  0.0153
 7936SOL    HW135270   4.320   0.972   8.390 -0.3916 -0.8600 -0.1050
 7936SOL    HW235271   4.331   1.124   8.371 -0.4730  0.5008  0.2002
 7937SOL     OW35272   1.567   3.158   7.982  0.3038 -0.0256 -0.4357
 7937SOL    HW135273   1.585   3.186   7.892  0.2924  1.9363  0.1611
 7937SOL    HW235274   1.551   3.240   8.028  1.1259  0.2594 -0.6440
 7938SOL     OW35275   0.776   1.811   7.635  0.3874  0.4494 -0.3023
 7938SOL    HW135276   0.683   1.833   7.637  0.5258  1.4764 -5.7865
 7938SOL    HW235277   0.764   1.717   7.619 -1.5902  0.4614  1.1829
 7939SOL     OW35278   3.674   4.093  13.452 -1.2339  0.0590 -0.3657
 7939SOL    HW135279   3.755   4.106  13.401 -0.9759 -3.4838 -0.8521
 7939SOL    HW235280   3.671   4.173  13.504 -3.5131 -0.5273  0.3688
 7940SOL     OW35281   0.196   3.559  12.735  0.6728  0.0175  0.2939
 7940SOL    HW135282   0.137   3.632  12.756  2.4794  2.2130 -2.2547
 7940SOL    HW235283   0.134   3.487  12.727 -0.5898  1.2080 -0.6530
 7941SOL     OW35284   3.227   2.982   9.898  0.6969 -0.0071  0.1428
 7941SOL    HW135285   3.278   3.028   9.965  0.6093  2.6617 -1.6179
 7941SOL    HW235286   3.235   2.889   9.918 -1.1977 -0.4204 -1.0445
 7942SOL     OW35287   4.349   3.920  11.203  0.8324 -0.3971  0.1167
 7942SOL    HW135288   4.393   4.000  11.230  1.4384 -0.3975 -0.8608
 7942SOL    HW235289   4.341   3.870  11.285 -0.3433  0.5225  0.5652
 7943SOL     OW35290   1.461   4.229   4.380 -0.1627  0.0854  0.2423
 7943SOL    HW135291   1.433   4.302   4.435  1.9655  1.5868 -0.6353
 7943SOL    HW235292   1.378   4.186   4.361 -0.0817 -0.8470  2.0198
 7944SOL     OW35293   2.120   1.813   4.579  0.1723  0.7603 -0.0114
 7944SOL    HW135294   2.071   1.796   4.498  2.1937 -1.2822 -0.7852
 7944SOL    HW235295   2.077   1.751   4.637 -0.0125  2.0227  1.1987
 7945SOL     OW35296   2.131   4.175  16.890  0.1797 -0.4326 -0.0127
 7945SOL    HW135297   2.154   4.230  16.965  0.8130  0.8383 -1.1202
 7945SOL    HW235298   2.217   4.182  16.847  0.3144  0.0554  0.3311
 7946SOL     OW35299   3.069   0.933   5.789 -0.6075  0.8245 -0.2872
 7946SOL    HW135300   3.003   0.869   5.817 -1.3383  1.9026  0.4146
 7946SOL    HW235301   3.095   0.898   5.704 -0.6392 -2.0200  0.8701
 7947SOL     OW35302   4.003   3.643   5.021 -0.0240  0.0467  0.1177
 7947SOL    HW135303   4.059   3.575   5.058 -0.8594 -0.5874  0.2420
 7947SOL    HW235304   4.019   3.719   5.076  1.8233 -0.1371 -0.1869
 7948SOL     OW35305   4.077   0.954   0.100 -0.0221  0.0693  0.1847
 7948SOL    HW135306   4.065   0.874   0.049  0.7499  0.6992 -0.9813
 7948SOL    HW235307   4.020   1.013   0.051 -0.4561 -0.1341  0.4437
 7949SOL     OW35308   3.517   1.824   4.100 -0.0135  0.0505  0.8241
 7949SOL    HW135309   3.586   1.849   4.038 -2.0368  1.7228 -0.7788
 7949SOL    HW235310   3.442   1.817   4.041  0.6845  1.0299 -0.1835
 7950SOL     OW35311   4.650   3.082  12.714  0.0571 -0.0599 -0.0531
 7950SOL    HW135312   4.574   3.030  12.690  0.7611  0.3656 -3.2798
 7950SOL    HW235313   4.639   3.082  12.809  2.7576  0.4393  0.2581
 7951SOL     OW35314   1.740   0.708  17.653  0.2611  0.2935 -0.0365
 7951SOL    HW135315   1.774   0.765  17.585  0.4653 -0.2785 -0.4113
 7951SOL    HW235316   1.716   0.779   0.025 -2.8271 -1.7562  1.1284
 7952SOL     OW35317   1.259   2.887  10.077  0.5730 -0.9821 -0.7661
 7952SOL    HW135318   1.322   2.846  10.017  1.1778  0.7269 -1.2855
 7952SOL    HW235319   1.277   2.845  10.161 -0.9063 -1.5393 -0.7131
 7953SOL     OW35320   1.599   2.793   4.092  0.2604  0.3621  0.4936
 7953SOL    HW135321   1.557   2.713   4.124  0.3805  0.2420  0.3438
 7953SOL    HW235322   1.531   2.857   4.116  0.7400  1.4474 -1.0229
 7954SOL     OW35323   2.600   3.421   7.421  0.7482  0.0707 -0.4898
 7954SOL    HW135324   2.680   3.398   7.374 -0.8695 -4.1751 -1.1019
 7954SOL    HW235325   2.625   3.413   7.513 -0.9323 -0.5655 -0.0861
 7955SOL     OW35326   3.856   2.117   8.920 -0.3791  0.3025 -0.3870
 7955SOL    HW135327   3.859   2.162   9.004 -0.3496  0.0140 -0.2312
 7955SOL    HW235328   3.786   2.158   8.869 -0.4485  2.7149  1.6490
 7956SOL     OW35329   3.457   3.294   0.812 -0.6950 -0.2632  0.5167
 7956SOL    HW135330   3.379   3.341   0.840 -1.0698 -0.2206 -0.6132
 7956SOL    HW235331   3.514   3.365   0.782  0.2269 -0.4638  1.7886
 7957SOL     OW35332   2.430   2.785   6.650  0.5659  0.0604 -0.1978
 7957SOL    HW135333   2.392   2.736   6.578 -0.7391 -0.7530  1.0518
 7957SOL    HW235334   2.380   2.867   6.654 -0.8227 -0.7772 -0.6215
 7958SOL     OW35335   3.516   3.860   4.140 -0.2584  0.2896 -0.3283
 7958SOL    HW135336   3.431   3.878   4.101 -0.4156  4.2561  1.7944
 7958SOL    HW235337   3.572   3.935   4.115 -1.5580  0.2936 -3.1697
 7959SOL     OW35338   1.057   4.335   8.179  0.5898 -0.2513  0.7595
 7959SOL    HW135339   0.966   4.361   8.195  0.3685  0.3765 -1.4312
 7959SOL    HW235340   1.075   4.270   8.247  1.8320 -0.8194 -0.1133
 7960SOL     OW35341   2.098   0.710   3.374 -0.0436  0.1056  0.0591
 7960SOL    HW135342   2.088   0.714   3.469 -1.5758  0.6208 -0.1256
 7960SOL    HW235343   2.013   0.674   3.349 -0.0021 -0.3535  0.5788
 7961SOL     OW35344   2.206   1.700   4.982 -0.1403 -0.6404 -0.3308
 7961SOL    HW135345   2.283   1.648   5.003 -0.0680 -0.9249 -1.2702
 7961SOL    HW235346   2.152   1.639   4.931 -0.0840  0.0298 -1.1980
 7962SOL     OW35347   2.080   4.320  17.206  0.3043  0.3546 -0.9035
 7962SOL    HW135348   2.062   4.226  17.200  2.6829 -0.1462 -0.1180
 7962SOL    HW235349   2.068   4.320  17.301  1.4262  2.4104 -0.7645
 7963SOL     OW35350   0.463   4.471   7.035  1.0710 -0.0549 -0.1823
 7963SOL    HW135351   0.457   4.429   7.121 -0.9998 -3.1252 -1.8111
 7963SOL    HW235352   0.473   4.565   7.046 -1.2200  0.3715 -1.6929
 7964SOL     OW35353   1.161   1.562   0.218 -0.9251 -0.0351 -0.1207
 7964SOL    HW135354   1.219   1.553   0.294  1.9411  2.9721 -1.9405
 7964SOL    HW235355   1.220   1.616   0.166 -0.3963  0.3390  0.8555
 7965SOL     OW35356   1.050   2.878   4.722  0.1021  0.1841  0.5837
 7965SOL    HW135357   1.003   2.959   4.743  0.8364  0.3713  1.4993
 7965SOL    HW235358   0.980   2.816   4.700  0.5839 -0.3775  0.6431
 7966SOL     OW35359   2.103   4.626  14.906  0.0974  0.3612  0.3549
 7966SOL    HW135360   2.172   4.666  14.854 -0.7426  0.1284 -0.9310
 7966SOL    HW235361   2.110   4.532  14.887  0.3019  0.1771  1.3143
 7967SOL     OW35362   3.987   1.085   3.489  0.3295 -0.0701  0.0653
 7967SOL    HW135363   3.961   1.177   3.499  1.4774  0.3576 -0.8756
 7967SOL    HW235364   4.010   1.059   3.579 -0.4318  0.1858  0.3331
 7968SOL     OW35365   4.269   3.672   6.925  0.1145 -0.8600 -0.0195
 7968SOL    HW135366   4.348   3.725   6.915 -0.2841 -0.0722  0.9793
 7968SOL    HW235367   4.300   3.605   6.986 -2.7360 -2.2965 -0.1354
 7969SOL     OW35368   4.705   2.045   0.129 -0.6809  0.1862  0.0411
 7969SOL    HW135369   0.020   1.968   0.171 -1.2569 -0.5973 -0.9029
 7969SOL    HW235370   0.059   2.099   0.153 -2.1997  3.5933 -2.8540
 7970SOL     OW35371   1.997   2.749  17.406  0.1597 -0.4143 -0.1780
 7970SOL    HW135372   2.068   2.809  17.385 -1.0080  0.2475 -2.2422
 7970SOL    HW235373   2.024   2.665  17.369  0.7693 -0.6356  0.7711
 7971SOL     OW35374   3.185   3.087   0.750 -0.1224  0.4317  0.1893
 7971SOL    HW135375   3.172   3.023   0.820  1.7726  1.1411  1.1770
 7971SOL    HW235376   3.273   3.069   0.717  0.4079  0.3580  1.6449
 7972SOL     OW35377   4.282   2.754   1.205 -0.0261 -0.3267  0.1552
 7972SOL    HW135378   4.338   2.676   1.208 -0.8332 -0.9134  0.2281
 7972SOL    HW235379   4.203   2.715   1.168 -0.7418  0.5465  0.7687
 7973SOL     OW35380   0.021   1.789   9.438 -0.4483 -0.3035  0.3795
 7973SOL    HW135381   4.681   1.835   9.382  1.7746 -0.2413 -2.0004
 7973SOL    HW235382   0.040   1.851   9.508  0.8979 -0.1039 -0.1551
 7974SOL     OW35383   1.205   1.507   9.283 -0.4669 -0.0708 -0.2470
 7974SOL    HW135384   1.223   1.541   9.370  2.3215 -0.4067 -0.6906
 7974SOL    HW235385   1.271   1.438   9.285 -0.3104  0.0474 -1.1339
 7975SOL     OW35386   2.399   0.942  14.960 -0.3067  0.5500 -0.0348
 7975SOL    HW135387   2.412   1.012  15.023  0.3927  1.3927 -1.1141
 7975SOL    HW235388   2.368   0.985  14.881  0.1198  1.1605  0.1281
 7976SOL     OW35389   3.836   0.130  14.104  0.0793 -0.3944  0.0249
 7976SOL    HW135390   3.852   0.162  14.015 -0.5601  0.4746  0.2284
 7976SOL    HW235391   3.810   0.038  14.102 -0.2264 -0.2696 -1.9869
 7977SOL     OW35392   4.157   0.412   9.251  0.0480  0.3969 -0.0226
 7977SOL    HW135393   4.146   0.401   9.157  1.2989 -0.3359 -0.0830
 7977SOL    HW235394   4.207   0.494   9.250  0.9596 -0.1721 -0.9373
 7978SOL     OW35395   4.470   3.481   4.951 -0.5368  0.4386  0.0776
 7978SOL    HW135396   4.507   3.410   4.898 -2.2214  0.1906 -0.7726
 7978SOL    HW235397   4.399   3.427   4.985 -0.6936  1.1571  0.8907
 7979SOL     OW35398   3.632   4.215   3.157  0.1978 -0.5643  0.3290
 7979SOL    HW135399   3.691   4.238   3.085  1.4692 -1.8669  0.9467
 7979SOL    HW235400   3.571   4.289   3.165 -0.7321 -1.2059 -0.8763
 7980SOL     OW35401   4.307   2.461  16.061 -0.2541 -0.4005  0.0380
 7980SOL    HW135402   4.257   2.493  15.985 -0.0239  2.5142  1.1082
 7980SOL    HW235403   4.330   2.378  16.020 -3.9233 -1.5699  0.3766
 7981SOL     OW35404   3.339   0.002  13.960  0.3194 -0.8100 -0.4168
 7981SOL    HW135405   3.288   0.015  13.880 -0.9198 -2.3687  0.1196
 7981SOL    HW235406   3.317   0.079  14.012 -1.2325 -1.9816  0.6475
 7982SOL     OW35407   2.847   0.008   3.209  0.4099 -0.5486  0.3227
 7982SOL    HW135408   2.859   4.657   3.147 -2.5254  0.9477 -2.0048
 7982SOL    HW235409   2.833   4.675   3.286  0.0456  2.5579  2.4273
 7983SOL     OW35410   2.759   2.372  10.055 -0.3415 -0.0683 -0.1602
 7983SOL    HW135411   2.834   2.321  10.084 -0.6627 -0.2263  0.4055
 7983SOL    HW235412   2.706   2.386  10.134  0.1268  2.4224 -0.2798
 7984SOL     OW35413   1.629   4.413  17.533 -0.2643  0.7100  0.2578
 7984SOL    HW135414   1.720   4.419  17.505 -0.4553 -2.6923 -0.9995
 7984SOL    HW235415   1.577   4.402  17.454  0.9971 -0.2706 -0.4254
 7985SOL     OW35416   4.663   1.587   3.009  0.1309 -0.1328 -0.3166
 7985SOL    HW135417   4.636   1.666   2.963 -1.1953 -0.6186 -0.3493
 7985SOL    HW235418   0.035   1.590   2.988 -0.1218  1.4404 -1.1966
 7986SOL     OW35419   3.205   4.593   3.481 -0.3814  0.1416  0.0359
 7986SOL    HW135420   3.132   4.539   3.450  1.4245 -1.9421 -0.5961
 7986SOL    HW235421   3.267   4.534   3.522  2.1920  0.7617 -2.9931
 7987SOL     OW35422   1.774   3.828   0.783  0.0723 -0.4934 -0.6656
 7987SOL    HW135423   1.736   3.796   0.865  1.0357 -0.5284 -0.2308
 7987SOL    HW235424   1.856   3.780   0.780 -0.5843 -1.6677 -0.0273
 7988SOL     OW35425   2.566   2.035   9.118  0.3249 -0.5139  0.0549
 7988SOL    HW135426   2.556   2.101   9.187  0.2562  0.4150 -0.8298
 7988SOL    HW235427   2.474   2.016   9.102 -0.0889  2.4256 -1.0772
 7989SOL     OW35428   0.302   1.998  12.663  0.0031 -0.1096  0.3542
 7989SOL    HW135429   0.327   2.087  12.689 -2.3022  0.4558  0.6214
 7989SOL    HW235430   0.386   1.952  12.657  0.1740  0.2137  0.2986
 7990SOL     OW35431   3.980   1.582   2.616  0.0103  0.3814  0.5988
 7990SOL    HW135432   4.011   1.590   2.526  2.4592 -0.8395  1.3165
 7990SOL    HW235433   3.899   1.530   2.609  0.7509 -0.5953 -0.7662
 7991SOL     OW35434   3.770   4.664   6.564 -0.3802 -0.0146  0.0833
 7991SOL    HW135435   3.690   4.663   6.511  0.0674  1.6218 -0.6089
 7991SOL    HW235436   3.727   4.624   6.640 -0.5140 -0.5156 -0.2552
 7992SOL     OW35437   0.842   2.759   8.774  0.4559 -0.0295 -0.2436
 7992SOL    HW135438   0.929   2.780   8.808 -0.0000 -0.4206  1.1766
 7992SOL    HW235439   0.862   2.682   8.721  0.6970 -0.0073 -0.1833
 7993SOL     OW35440   4.717   4.603  16.509  0.1196 -0.0985 -0.0337
 7993SOL    HW135441   0.067   4.540  16.513  0.6907  0.5005 -0.7616
 7993SOL    HW235442   0.037   4.672  16.561 -0.2663 -1.0700  1.5429
 7994SOL     OW35443   2.413   0.854   5.242 -0.4820  0.2269  0.3130
 7994SOL    HW135444   2.354   0.920   5.204  1.4872  1.7580 -0.1110
 7994SOL    HW235445   2.427   0.797   5.166 -0.1909 -0.8607  1.1875
 7995SOL     OW35446   3.028   1.221   5.441  0.4111  0.3156  0.0529
 7995SOL    HW135447   2.943   1.223   5.396  1.8777 -0.6727 -2.7255
 7995SOL    HW235448   3.036   1.315   5.455 -0.3629  0.1887  1.4278
 7996SOL     OW35449   3.779   1.902   7.865  0.3393  0.0249 -0.0338
 7996SOL    HW135450   3.861   1.923   7.911  0.0385  1.6969 -0.2524
 7996SOL    HW235451   3.783   1.807   7.855 -0.1678 -0.1361  1.3484
 7997SOL     OW35452   3.457   1.505  17.021  0.5750  0.0016  0.2810
 7997SOL    HW135453   3.386   1.521  17.084 -0.9580 -1.0562 -1.1690
 7997SOL    HW235454   3.458   1.588  16.973  2.6599  0.7545  1.5979
 7998SOL     OW35455   0.581   4.547   9.214  0.0918 -0.0556 -0.6894
 7998SOL    HW135456   0.667   4.517   9.184  0.4373 -0.9871  1.2745
 7998SOL    HW235457   0.589   4.642   9.222  1.3008 -0.2640  0.5027
 7999SOL     OW35458   2.501   1.737  11.939 -0.0422 -0.2266  0.3748
 7999SOL    HW135459   2.536   1.656  11.976 -1.3267  0.5654  3.3528
 7999SOL    HW235460   2.540   1.806  11.993 -1.8694  2.0178 -1.2019
 8000SOL     OW35461   1.242   0.208   4.410 -0.1256  0.2029 -0.1513
 8000SOL    HW135462   1.214   0.116   4.411  1.1514 -0.2101 -3.2810
 8000SOL    HW235463   1.334   0.200   4.386  0.1241  1.1888  0.4641
 8001SOL     OW35464   4.306   0.622   3.829 -0.0345 -0.4273  0.1024
 8001SOL    HW135465   4.260   0.545   3.861  0.4902 -0.6838  0.2304
 8001SOL    HW235466   4.394   0.591   3.847 -0.5943 -0.5633  2.5982
 8002SOL     OW35467   1.926   1.158   5.329 -0.4003 -0.0934 -0.3073
 8002SOL    HW135468   2.001   1.215   5.314  0.7254 -1.5538 -0.2051
 8002SOL    HW235469   1.969   1.089   5.380 -0.0275  0.3336 -0.0547
 8003SOL     OW35470   1.775   2.998   8.342  0.6575 -0.0747 -0.0261
 8003SOL    HW135471   1.753   2.978   8.251  0.2689 -1.6790  0.4219
 8003SOL    HW235472   1.745   3.088   8.357  0.9815 -0.3433  2.3303
 8004SOL     OW35473   0.608   1.823   8.454  0.0783  0.3349  0.1908
 8004SOL    HW135474   0.531   1.786   8.496  1.3106 -3.0328 -0.5444
 8004SOL    HW235475   0.637   1.885   8.521 -0.3250  0.4456  0.2623
 8005SOL     OW35476   2.272   1.480  10.989 -0.6076 -0.7086  0.4624
 8005SOL    HW135477   2.245   1.562  10.949 -0.9148 -0.6898  0.7056
 8005SOL    HW235478   2.232   1.496  11.075 -0.3439 -2.0600  0.8341
 8006SOL     OW35479   1.433   3.016   9.042 -0.2128 -0.3162 -0.3222
 8006SOL    HW135480   1.457   2.927   9.016 -0.5756 -0.3534 -0.5315
 8006SOL    HW235481   1.381   2.986   9.116 -0.5717 -1.1430 -0.9002
 8007SOL     OW35482   1.805   2.566   1.438  0.3148 -0.3942 -0.4053
 8007SOL    HW135483   1.710   2.575   1.430  0.0023 -1.3610  2.2559
 8007SOL    HW235484   1.821   2.521   1.355 -0.9639  0.1694 -0.9673
 8008SOL     OW35485   3.285   0.593   3.660  0.2433  0.1630 -0.1384
 8008SOL    HW135486   3.269   0.502   3.683 -1.2765  0.0695 -1.5826
 8008SOL    HW235487   3.380   0.604   3.657  0.3896 -1.0385  0.2552
 8009SOL     OW35488   4.410   2.499   8.376 -0.1181 -0.4755 -0.5050
 8009SOL    HW135489   4.407   2.403   8.378  0.9831 -0.4857  0.2699
 8009SOL    HW235490   4.470   2.521   8.447  0.9480 -0.9886 -1.2331
 8010SOL     OW35491   1.180   2.536   4.241  0.5579 -0.4435  0.0227
 8010SOL    HW135492   1.153   2.565   4.154 -1.8702 -0.0547  0.9256
 8010SOL    HW235493   1.102   2.491   4.272  0.0154 -0.0091 -0.7037
 8011SOL     OW35494   3.094   4.177   5.253  0.5285  0.2506 -0.5703
 8011SOL    HW135495   3.066   4.182   5.344 -2.2907  0.5240 -1.4497
 8011SOL    HW235496   3.066   4.265   5.229 -0.8545 -0.1309 -0.3378
 8012SOL     OW35497   0.252   3.196   9.270 -0.1992 -0.1761 -0.5646
 8012SOL    HW135498   0.182   3.130   9.273 -0.9903  0.6660 -0.8170
 8012SOL    HW235499   0.325   3.139   9.247  0.0501  0.3523 -1.0618
 8013SOL     OW35500   3.712   1.435   5.336 -0.0807 -0.1262  0.0713
 8013SOL    HW135501   3.677   1.410   5.250  0.8104 -1.2327  0.0214
 8013SOL    HW235502   3.668   1.518   5.353  0.0733 -0.0183 -0.0548
 8014SOL     OW35503   3.253   2.599   1.878 -0.0416  0.4156  0.5935
 8014SOL    HW135504   3.211   2.533   1.934  0.9240 -1.2789 -0.6538
 8014SOL    HW235505   3.255   2.676   1.934 -2.2199  1.0212 -0.1716
 8015SOL     OW35506   0.814   3.682   0.403 -0.0513 -0.5472  0.8845
 8015SOL    HW135507   0.895   3.673   0.353 -0.5745  2.9043 -0.5893
 8015SOL    HW235508   0.860   3.671   0.487  0.2920  1.4200  0.9419
 8016SOL     OW35509   3.283   1.231   3.418 -0.3280 -0.5380 -0.6761
 8016SOL    HW135510   3.242   1.179   3.486 -1.7181 -0.6533 -1.6060
 8016SOL    HW235511   3.213   1.292   3.396  1.3422  1.2847 -1.0018
 8017SOL     OW35512   2.655   1.926   6.467 -0.3341 -0.0210  0.3682
 8017SOL    HW135513   2.591   1.996   6.452  0.7601  0.3943 -2.4419
 8017SOL    HW235514   2.669   1.906   6.374 -0.1880 -0.7663  0.5490
 8018SOL     OW35515   1.823   1.623   1.342 -0.3727  0.4117 -0.3320
 8018SOL    HW135516   1.860   1.629   1.254  0.7438  1.3905  0.2139
 8018SOL    HW235517   1.848   1.533   1.364 -1.1112  0.3000  0.0613
 8019SOL     OW35518   4.480   4.327   3.394  0.4209 -0.1463  0.0019
 8019SOL    HW135519   4.529   4.254   3.355  2.2048  0.0555  1.8968
 8019SOL    HW235520   4.429   4.280   3.460  0.5050 -0.0028  0.1670
 8020SOL     OW35521   0.281   4.268   9.420  0.5221 -0.3593  0.0186
 8020SOL    HW135522   0.200   4.262   9.471 -0.5649 -1.6697 -1.9052
 8020SOL    HW235523   0.353   4.239   9.477  0.8096 -0.0176 -0.1719
 8021SOL     OW35524   3.678   3.846   6.745  0.0463  0.1588  0.2058
 8021SOL    HW135525   3.701   3.773   6.802 -1.1851  0.7589  1.4777
 8021SOL    HW235526   3.759   3.858   6.695  0.3240  0.4044  0.7112
 8022SOL     OW35527   4.111   4.415   3.814  0.2831 -0.5716  0.2499
 8022SOL    HW135528   4.038   4.475   3.827  1.0339  0.0597  1.5166
 8022SOL    HW235529   4.102   4.412   3.719  1.2078  2.1800  0.0931
 8023SOL     OW35530   0.864   4.269   2.953 -0.4117 -0.0726 -0.2480
 8023SOL    HW135531   0.939   4.307   2.907 -0.4281 -0.4536 -0.5881
 8023SOL    HW235532   0.815   4.222   2.886  0.0065 -0.9661  0.0812
 8024SOL     OW35533   1.404   0.829   7.505 -0.1837  0.5665  0.5135
 8024SOL    HW135534   1.361   0.745   7.488  0.1069  0.9690 -2.3313
 8024SOL    HW235535   1.401   0.878   7.422 -1.9041 -0.0895  0.1842
 8025SOL     OW35536   4.060   3.902  12.418  0.4214  0.3355  0.1382
 8025SOL    HW135537   3.983   3.847  12.403  0.7950 -0.1653  0.0424
 8025SOL    HW235538   4.114   3.828  12.445 -1.4614 -0.7283  1.0250
 8026SOL     OW35539   1.360   0.495   5.409  0.3194  1.1082  0.0317
 8026SOL    HW135540   1.396   0.476   5.496  1.0658  2.1253 -0.0566
 8026SOL    HW235541   1.282   0.548   5.427  0.2251  1.6860 -2.1061
 8027SOL     OW35542   4.112   0.559   7.321 -0.4058 -0.1190 -0.0725
 8027SOL    HW135543   4.147   0.564   7.410 -1.3846  3.3658  0.1051
 8027SOL    HW235544   4.108   0.466   7.299  0.0227  0.4397 -2.4483
 8028SOL     OW35545   2.991   2.922   3.637 -0.0512 -1.1696  0.2736
 8028SOL    HW135546   2.959   2.944   3.550 -1.7129 -1.9427  0.6863
 8028SOL    HW235547   2.954   2.993   3.690  0.6225 -0.7348  0.1661
 8029SOL     OW35548   2.203   1.040   4.586 -0.1342  0.2849  0.0605
 8029SOL    HW135549   2.269   1.050   4.517  0.1876  0.9902  0.4743
 8029SOL    HW235550   2.256   1.039   4.667 -0.2213  0.6745  0.1222
 8030SOL     OW35551   3.344   4.420   5.664 -0.0016 -0.3598 -0.1994
 8030SOL    HW135552   3.310   4.507   5.645 -0.4146 -0.9132 -1.9428
 8030SOL    HW235553   3.380   4.398   5.578  1.3915  0.3714  0.1829
 8031SOL     OW35554   3.918   0.921   5.708 -0.1515 -0.0653 -0.3085
 8031SOL    HW135555   4.000   0.873   5.719 -0.2568 -0.1072  0.3196
 8031SOL    HW235556   3.866   0.878   5.777  0.1306 -1.7741 -1.1536
 8032SOL     OW35557   4.430   4.458   8.529  0.2961  0.4278 -0.0347
 8032SOL    HW135558   4.417   4.393   8.598  0.0778 -0.2948 -0.7583
 8032SOL    HW235559   4.351   4.449   8.476  0.8531  1.1184 -0.9858
 8033SOL     OW35560   1.685   3.311   2.155 -0.8969  0.4057  0.1232
 8033SOL    HW135561   1.722   3.232   2.194  2.8258  1.7861 -0.6803
 8033SOL    HW235562   1.729   3.374   2.212 -0.0711  0.6575 -0.8017
 8034SOL     OW35563   4.447   1.351   5.017 -0.1313  0.1993 -0.4119
 8034SOL    HW135564   4.437   1.430   5.070  0.7171  0.0853 -0.0704
 8034SOL    HW235565   4.400   1.284   5.067 -3.1483  1.5504 -1.4867
 8035SOL     OW35566   4.673   4.100   8.657 -0.0966  0.1054  0.3579
 8035SOL    HW135567   4.645   4.084   8.567  0.4760  0.3778  0.1364
 8035SOL    HW235568   0.019   4.034   8.675 -0.2776 -0.0050  0.6389
 8036SOL     OW35569   1.603   2.168   6.173 -0.0509 -0.0256 -0.5946
 8036SOL    HW135570   1.646   2.187   6.090  0.2614 -1.6462 -0.8103
 8036SOL    HW235571   1.620   2.256   6.207 -1.7537  0.5153 -1.1514
 8037SOL     OW35572   3.377   4.092  14.785  0.9280  0.3308 -0.1141
 8037SOL    HW135573   3.431   4.120  14.711  0.8325  3.0571  0.8189
 8037SOL    HW235574   3.430   4.019  14.817  1.1509 -0.2413 -1.8139
 8038SOL     OW35575   2.296   1.305  11.238 -0.1859  0.2303 -0.2218
 8038SOL    HW135576   2.274   1.360  11.164 -0.0812 -0.5282 -0.8241
 8038SOL    HW235577   2.288   1.219  11.195  0.7586 -0.7342  1.5264
 8039SOL     OW35578   0.482   0.754  10.045 -0.8549  0.2011  0.1286
 8039SOL    HW135579   0.492   0.820  10.114 -0.0288 -1.3339  1.4692
 8039SOL    HW235580   0.567   0.738  10.004 -0.8086  0.8364 -0.0242
 8040SOL     OW35581   3.571   3.489   8.070  0.2082  0.2366 -0.0782
 8040SOL    HW135582   3.636   3.516   8.005 -0.9544  2.9567 -0.1358
 8040SOL    HW235583   3.628   3.471   8.145  0.4658  0.5207 -0.2035
 8041SOL     OW35584   4.291   1.971   1.839 -0.2695 -0.1232 -0.0626
 8041SOL    HW135585   4.302   2.016   1.923 -1.9611  0.4710 -0.1597
 8041SOL    HW235586   4.309   1.882   1.867  2.3263  0.4278  0.0421
 8042SOL     OW35587   3.868   3.865   7.566 -0.0393  0.2281  0.2375
 8042SOL    HW135588   3.833   3.950   7.594 -1.0283  0.4856 -1.7954
 8042SOL    HW235589   3.834   3.849   7.478 -1.6609  1.3738  0.6409
 8043SOL     OW35590   3.791   0.327   2.822 -0.4254 -0.8636  0.5955
 8043SOL    HW135591   3.761   0.299   2.736 -2.4464  0.2253  0.9404
 8043SOL    HW235592   3.859   0.385   2.788 -0.5164 -0.7144  0.6674
 8044SOL     OW35593   2.590   1.032   6.766  0.0374  0.6067  0.1744
 8044SOL    HW135594   2.643   1.003   6.840 -2.3152  0.9072  1.9767
 8044SOL    HW235595   2.583   1.126   6.782  0.4527  0.8217 -0.8686
 8045SOL     OW35596   2.640   2.002  16.246  0.2437 -0.0824 -0.0784
 8045SOL    HW135597   2.667   2.080  16.198 -0.4998  2.1050  3.0347
 8045SOL    HW235598   2.559   1.993  16.195  1.0669  0.9839 -1.5592
 8046SOL     OW35599   2.813   1.812  15.173 -0.2101  0.5096 -0.0885
 8046SOL    HW135600   2.725   1.838  15.202 -1.1929 -1.2632 -1.4195
 8046SOL    HW235601   2.807   1.774  15.085 -1.3412 -1.5339  0.8578
 8047SOL     OW35602   1.998   4.525  12.369  0.0565  0.2254  0.0140
 8047SOL    HW135603   1.951   4.459  12.420  0.9814 -1.1378 -0.8948
 8047SOL    HW235604   1.957   4.606  12.399 -0.1121  0.4237 -0.7584
 8048SOL     OW35605   3.808   3.611   6.244  0.2640  0.0233  0.1691
 8048SOL    HW135606   3.879   3.671   6.219 -1.1459  1.2163 -0.9441
 8048SOL    HW235607   3.851   3.527   6.224  0.6485  1.3815 -4.7134
 8049SOL     OW35608   0.252   2.250   1.734 -0.0165  0.3210 -0.0712
 8049SOL    HW135609   0.187   2.192   1.772  0.2711 -1.7954 -2.7592
 8049SOL    HW235610   0.212   2.337   1.734 -1.5727 -0.4030  1.7975
 8050SOL     OW35611   4.033   2.361   2.566 -0.6514  0.0307 -0.0711
 8050SOL    HW135612   3.965   2.310   2.523  0.9252 -1.0024 -1.3207
 8050SOL    HW235613   4.078   2.281   2.594  0.2337  0.0022 -1.6018
 8051SOL     OW35614   1.791   3.813   6.971 -0.4834 -0.5140  0.0602
 8051SOL    HW135615   1.754   3.874   6.908  0.7599  2.2202  1.9955
 8051SOL    HW235616   1.836   3.878   7.026 -1.4956 -0.1252  0.4292
 8052SOL     OW35617   0.474   2.040   8.623 -0.4245  0.1351  0.3884
 8052SOL    HW135618   0.471   2.055   8.718 -1.3075  1.1502  0.2064
 8052SOL    HW235619   0.569   2.035   8.615 -0.4322  1.1323 -0.4230
 8053SOL     OW35620   2.490   0.681   7.679  0.1433 -0.0256  0.8396
 8053SOL    HW135621   2.550   0.724   7.740 -1.7116 -2.3644  4.3196
 8053SOL    HW235622   2.458   0.760   7.636  0.7437 -0.4111 -0.3198
 8054SOL     OW35623   1.227   4.685   5.415  0.5664 -0.1223 -0.2121
 8054SOL    HW135624   1.209   4.718   5.503 -1.3793  1.4176 -1.1775
 8054SOL    HW235625   1.237   0.047   5.370 -1.4810  0.7062  0.8550
 8055SOL     OW35626   2.064   0.522   8.847  0.5126 -0.4128 -0.2956
 8055SOL    HW135627   2.027   0.598   8.893  0.9629  0.7945 -1.9279
 8055SOL    HW235628   2.152   0.555   8.830 -0.1672  0.9899 -1.0777
 8056SOL     OW35629   2.352   0.403   5.997  0.0761 -0.5798 -0.5273
 8056SOL    HW135630   2.378   0.369   6.083 -2.8076 -1.3023  0.0659
 8056SOL    HW235631   2.373   0.496   6.004 -1.2827 -0.3420  0.4317
 8057SOL     OW35632   1.748   1.536   5.430  0.2233 -0.5075 -0.3166
 8057SOL    HW135633   1.664   1.523   5.385 -0.2647 -0.0386  0.4536
 8057SOL    HW235634   1.755   1.631   5.423 -0.7201 -0.5017 -1.1119
 8058SOL     OW35635   3.014   3.670   2.998 -0.6409  0.5510  0.0957
 8058SOL    HW135636   3.102   3.636   2.990 -1.3255 -1.2876  0.4769
 8058SOL    HW235637   2.981   3.682   2.909  0.6474 -0.4202 -0.5090
 8059SOL     OW35638   4.316   0.156  15.917 -0.1787 -0.1363  0.3469
 8059SOL    HW135639   4.338   0.111  15.999  0.4153  0.1059  0.3231
 8059SOL    HW235640   4.402   0.181  15.884 -0.0798 -0.8966  0.0280
 8060SOL     OW35641   3.136   4.204   4.467  0.1926  0.0686 -0.2227
 8060SOL    HW135642   3.079   4.168   4.399  0.1280  1.6366 -1.0017
 8060SOL    HW235643   3.111   4.146   4.539  2.5376 -0.3299  0.2670
 8061SOL     OW35644   2.858   2.692   7.902 -0.2737  0.0983  0.4474
 8061SOL    HW135645   2.791   2.699   7.970 -1.2164 -0.7947 -0.3892
 8061SOL    HW235646   2.933   2.737   7.940  2.0249 -0.9382 -2.9048
 8062SOL     OW35647   4.607   3.332  15.305  0.1372  0.5506  0.4033
 8062SOL    HW135648   4.549   3.261  15.275 -0.0718 -0.1029  2.3683
 8062SOL    HW235649   4.549   3.407  15.292 -0.0075  0.2627 -0.6164
 8063SOL     OW35650   2.039   1.108   7.445 -0.0148  0.3400  0.2158
 8063SOL    HW135651   2.098   1.180   7.423  0.7856 -0.1759  0.6480
 8063SOL    HW235652   2.092   1.065   7.512 -1.7333 -0.0484  1.3220
 8064SOL     OW35653   1.242   1.442   7.226 -0.1734  0.1352  0.1033
 8064SOL    HW135654   1.241   1.394   7.143  2.3750 -1.7472  1.1771
 8064SOL    HW235655   1.309   1.506   7.204 -1.5321  1.2818 -0.7164
 8065SOL     OW35656   0.674   1.528   4.403  0.1679 -0.3869  0.1472
 8065SOL    HW135657   0.607   1.576   4.355  1.2797 -0.2730 -1.2754
 8065SOL    HW235658   0.706   1.591   4.467  1.8348 -0.4791 -0.6084
 8066SOL     OW35659   4.347   3.892   1.860 -0.0981 -0.0715 -0.3861
 8066SOL    HW135660   4.288   3.964   1.840 -0.2719 -0.2677 -0.5857
 8066SOL    HW235661   4.435   3.921   1.880  0.1531 -0.1298 -1.3786
 8067SOL     OW35662   0.465   4.241   6.908  0.3963  0.0420 -0.5525
 8067SOL    HW135663   0.378   4.232   6.869  0.7880 -1.5496 -1.0305
 8067SOL    HW235664   0.473   4.332   6.939  0.4420 -0.6159  1.3305
 8068SOL     OW35665   4.272   4.003  14.691 -0.0193  0.5060 -0.5636
 8068SOL    HW135666   4.232   3.948  14.623 -1.3507 -0.7412  1.2141
 8068SOL    HW235667   4.290   4.087  14.648 -1.2872 -0.2781 -2.6307
 8069SOL     OW35668   1.112   1.676   1.762  0.0064  0.0962  0.7053
 8069SOL    HW135669   1.167   1.703   1.835 -0.7914  2.6345  0.3585
 8069SOL    HW235670   1.160   1.726   1.697 -0.1271 -0.5795  0.0830
 8070SOL     OW35671   1.023   3.175   3.609  0.5086 -0.8454  0.0274
 8070SOL    HW135672   0.957   3.108   3.591 -0.8681  0.2354  0.9878
 8070SOL    HW235673   1.076   3.163   3.531  1.1847  0.0274  0.3418
 8071SOL     OW35674   4.706   3.441   8.970  0.0867 -0.3655  0.6034
 8071SOL    HW135675   4.657   3.380   9.023  0.5338 -0.2546  1.1488
 8071SOL    HW235676   0.070   3.400   8.980  0.3169  0.2034  1.0035
 8072SOL     OW35677   0.286   0.267   4.729 -0.4919 -0.0784 -0.6908
 8072SOL    HW135678   0.311   0.184   4.688  2.3848 -0.9312  2.8466
 8072SOL    HW235679   0.242   0.228   4.805 -1.7585  2.3015 -0.2073
 8073SOL     OW35680   1.173   3.679   2.656 -0.5838 -0.5908 -0.4270
 8073SOL    HW135681   1.176   3.600   2.710 -4.5119  0.7527  1.7622
 8073SOL    HW235682   1.081   3.690   2.632 -0.6012  0.2736  0.0454
 8074SOL     OW35683   0.652   3.862   2.633  0.1601 -0.7505  0.2533
 8074SOL    HW135684   0.644   3.783   2.580 -1.5886  0.0669 -0.6842
 8074SOL    HW235685   0.660   3.930   2.566  1.2215 -0.4845  0.6535
 8075SOL     OW35686   3.201   0.421  10.808 -0.2848 -0.5837 -0.1716
 8075SOL    HW135687   3.216   0.368  10.886 -1.8738 -1.3312 -0.3763
 8075SOL    HW235688   3.259   0.494  10.831  1.3016 -1.9186 -0.0039
 8076SOL     OW35689   2.557   4.304   2.931  0.2309 -0.1762  0.0894
 8076SOL    HW135690   2.537   4.236   2.866  0.3519  0.7376 -0.8964
 8076SOL    HW235691   2.512   4.382   2.898  2.3450  1.3723  0.8735
 8077SOL     OW35692   0.348   2.861   4.722  0.0580  0.2156 -0.4491
 8077SOL    HW135693   0.269   2.885   4.674 -1.0190 -0.1049  1.1698
 8077SOL    HW235694   0.382   2.801   4.655 -0.4702 -0.6994  0.1160
 8078SOL     OW35695   3.802   4.610   3.000  0.4239  0.0330  0.4902
 8078SOL    HW135696   3.723   4.560   2.979 -0.5876  2.8910 -2.5029
 8078SOL    HW235697   3.803   4.596   3.095  2.5108  0.8193  0.5859
 8079SOL     OW35698   4.330   0.629  16.735 -0.2198 -0.1800  0.5877
 8079SOL    HW135699   4.312   0.664  16.822  1.3930  0.6358  0.6086
 8079SOL    HW235700   4.244   0.590  16.726  0.1065 -0.7951  0.1218
 8080SOL     OW35701   4.496   2.041   7.797  0.0822  0.1581  0.2637
 8080SOL    HW135702   4.503   2.004   7.709  2.4915  1.0192  0.0911
 8080SOL    HW235703   4.423   2.102   7.789 -1.6417 -1.9286  0.0211
 8081SOL     OW35704   0.021   1.787  11.090 -0.2766  0.3054 -0.2099
 8081SOL    HW135705   0.098   1.769  11.036 -0.8350 -2.8925  0.0858
 8081SOL    HW235706   0.051   1.859  11.145  2.8439 -0.4914 -0.8586
 8082SOL     OW35707   0.223   3.528  10.475  0.1454  0.2604 -0.0537
 8082SOL    HW135708   0.237   3.437  10.500  0.5937 -0.4920 -3.0588
 8082SOL    HW235709   0.218   3.528  10.379  0.4054 -0.1464 -0.0676
 8083SOL     OW35710   0.132   3.682   2.042 -0.2692 -0.8599 -0.0326
 8083SOL    HW135711   0.104   3.732   1.965 -1.4510 -2.2136 -0.4994
 8083SOL    HW235712   0.049   3.656   2.084 -0.1043 -0.2860  0.6465
 8084SOL     OW35713   4.387   3.626   5.416  0.3783 -0.6198  0.3238
 8084SOL    HW135714   4.444   3.591   5.347  0.8149 -2.7421  1.7892
 8084SOL    HW235715   4.372   3.547   5.467  0.5002 -0.0869  1.1770
 8085SOL     OW35716   2.368   2.326   8.902  0.1097 -0.6805 -0.0298
 8085SOL    HW135717   2.342   2.238   8.929 -3.2726  0.9807  2.2316
 8085SOL    HW235718   2.423   2.361   8.971  0.2300  0.8721 -0.9289
 8086SOL     OW35719   1.326   2.545   1.253  0.4307 -0.2361 -0.2909
 8086SOL    HW135720   1.285   2.514   1.172 -0.5350  0.2362  0.0104
 8086SOL    HW235721   1.413   2.566   1.221  0.3032  1.0933  0.2496
 8087SOL     OW35722   1.302   1.128   6.147 -0.2746  0.4198  0.8874
 8087SOL    HW135723   1.233   1.074   6.109  1.6541 -0.1118 -1.8156
 8087SOL    HW235724   1.374   1.065   6.155  2.1713  3.2140  1.0933
 8088SOL     OW35725   0.446   1.341   3.462 -0.0807  0.2560  0.4635
 8088SOL    HW135726   0.497   1.369   3.538  0.0711  1.2339 -0.0042
 8088SOL    HW235727   0.359   1.355   3.499  1.0551 -2.8928  4.3066
 8089SOL     OW35728   1.798   1.733   8.169  0.7169 -0.1141 -0.2591
 8089SOL    HW135729   1.856   1.807   8.189  1.3831 -0.7423  0.1278
 8089SOL    HW235730   1.727   1.770   8.117  0.6506 -0.2119 -0.2374
 8090SOL     OW35731   1.831   4.080   8.956 -0.0727  0.1436  0.0807
 8090SOL    HW135732   1.747   4.034   8.959 -0.1091  0.2594  0.6590
 8090SOL    HW235733   1.868   4.052   9.039 -1.5304  0.4159  0.8171
 8091SOL     OW35734   0.341   2.449   0.691 -0.5890 -0.1712  0.3200
 8091SOL    HW135735   0.367   2.358   0.705  1.1553  0.6593  2.3388
 8091SOL    HW235736   0.246   2.439   0.701 -0.8841  0.7060 -1.6464
 8092SOL     OW35737   3.864   0.536   5.779  0.3233  0.0659 -0.4270
 8092SOL    HW135738   3.936   0.596   5.757 -0.8172  1.9762  1.0406
 8092SOL    HW235739   3.791   0.558   5.722  1.5111  0.9543 -1.6007
 8093SOL     OW35740   2.532   4.080   3.332  0.7616  0.1928  0.2815
 8093SOL    HW135741   2.487   4.105   3.251  0.2914 -0.1333  0.4434
 8093SOL    HW235742   2.578   4.003   3.297  0.5379 -0.9940  2.6225
 8094SOL     OW35743   1.644   2.305   7.265  0.2191  0.3522  0.5318
 8094SOL    HW135744   1.563   2.300   7.316 -0.1287  1.0696  0.0476
 8094SOL    HW235745   1.699   2.278   7.339  0.2582 -0.9458  0.0389
 8095SOL     OW35746   2.628   2.144   4.196 -0.3578 -0.3496 -0.2572
 8095SOL    HW135747   2.686   2.073   4.226  0.9567  0.1172 -1.6898
 8095SOL    HW235748   2.681   2.220   4.219  0.7870 -0.7064 -1.7135
 8096SOL     OW35749   0.587   1.801   3.899  0.4536 -0.0184  0.1517
 8096SOL    HW135750   0.671   1.754   3.901  0.5429  0.0232 -2.3545
 8096SOL    HW235751   0.524   1.730   3.905  1.6729 -1.2625 -1.7921
 8097SOL     OW35752   3.384   1.792   2.369  0.6155 -0.2281  0.3981
 8097SOL    HW135753   3.361   1.760   2.456 -1.0651 -1.7783 -0.6119
 8097SOL    HW235754   3.296   1.812   2.337  0.3851 -0.9739  0.5662
 8098SOL     OW35755   3.936   3.355   6.114  0.0302 -0.0585 -0.0285
 8098SOL    HW135756   3.955   3.345   6.207 -2.5286  0.0379  0.4987
 8098SOL    HW235757   3.897   3.268   6.105  1.1334 -0.6185  0.6161
 8099SOL     OW35758   1.579   1.162   9.132 -0.0625  0.2421 -0.2682
 8099SOL    HW135759   1.657   1.107   9.138 -0.1258  0.0530 -1.0870
 8099SOL    HW235760   1.518   1.104   9.086  1.1046 -1.5245  0.4122
 8100SOL     OW35761   3.969   4.052  13.860 -0.3406  0.4724  0.2590
 8100SOL    HW135762   4.027   4.092  13.795 -0.7827  0.9091  0.1281
 8100SOL    HW235763   4.010   3.966  13.872  0.6125  1.1787  1.9728
 8101SOL     OW35764   0.168   3.399  17.296 -0.6097  0.1750 -0.0873
 8101SOL    HW135765   0.156   3.321  17.241 -2.3176 -1.3387  2.4291
 8101SOL    HW235766   0.180   3.350  17.378 -1.9563  1.4891  0.9070
 8102SOL     OW35767   2.260   2.048   7.686  0.1998 -0.0147  0.3132
 8102SOL    HW135768   2.230   2.125   7.638  1.5986 -0.1409 -0.7568
 8102SOL    HW235769   2.356   2.053   7.692  0.4538 -2.3500 -1.5506
 8103SOL     OW35770   0.002   0.658   8.085 -0.1575 -0.9058  0.2396
 8103SOL    HW135771   0.067   0.686   8.149 -1.4589  0.5320  0.9379
 8103SOL    HW235772   0.050   0.579   8.060 -0.0160 -0.8756  0.4171
 8104SOL     OW35773   0.430   3.776  12.571 -0.4890  0.5703  0.1485
 8104SOL    HW135774   0.484   3.843  12.528  0.6952 -0.0679  0.6341
 8104SOL    HW235775   0.460   3.788  12.661 -0.6386  1.3798  0.0956
 8105SOL     OW35776   2.848   3.619   3.278  0.1022  0.4914 -0.7788
 8105SOL    HW135777   2.829   3.525   3.276  1.5463  0.1632  0.8821
 8105SOL    HW235778   2.843   3.641   3.185  1.4900 -0.6943 -1.1251
 8106SOL     OW35779   3.939   4.141   3.626 -1.2984  0.2704 -0.1080
 8106SOL    HW135780   3.853   4.182   3.624 -0.5148  1.9041  0.4362
 8106SOL    HW235781   3.914   4.060   3.580 -0.1010  0.4731 -1.1025
 8107SOL     OW35782   0.605   3.791  11.844 -0.2364 -0.1484  0.6096
 8107SOL    HW135783   0.598   3.875  11.890  1.2546  1.0611 -1.3887
 8107SOL    HW235784   0.700   3.780  11.856  0.5507  1.6932 -3.8898
 8108SOL     OW35785   3.581   1.631   2.469  0.2959  0.3856 -0.5809
 8108SOL    HW135786   3.517   1.650   2.538 -0.5942 -2.1777 -0.6892
 8108SOL    HW235787   3.589   1.537   2.484 -1.6076  0.7047  2.4850
 8109SOL     OW35788   3.617   4.369   4.584 -0.3689 -0.4252 -0.8153
 8109SOL    HW135789   3.671   4.447   4.567 -0.1720 -0.3358  0.2559
 8109SOL    HW235790   3.537   4.409   4.549 -0.9974  1.0314  2.2931
 8110SOL     OW35791   2.099   1.263   8.943 -0.4708 -0.3532  0.0659
 8110SOL    HW135792   2.078   1.188   8.887 -0.0977  0.0328 -0.5906
 8110SOL    HW235793   2.049   1.335   8.904  0.0977  0.2452  0.4476
 8111SOL     OW35794   4.577   4.579   2.985 -0.7472 -0.1230  0.0721
 8111SOL    HW135795   4.635   4.511   3.019  0.1506  1.9639  2.6540
 8111SOL    HW235796   4.497   4.528   3.004  0.3838 -1.6313  0.8169
 8112SOL     OW35797   4.175   1.659   0.585 -0.2637  0.2940  0.0874
 8112SOL    HW135798   4.079   1.652   0.579 -0.1286 -0.6571 -0.9883
 8112SOL    HW235799   4.196   1.610   0.665  0.2031 -0.3867 -0.4507
 8113SOL     OW35800   1.858   4.203  11.285 -0.3704 -0.7379  0.2253
 8113SOL    HW135801   1.879   4.191  11.378 -0.0337 -2.1723 -0.0412
 8113SOL    HW235802   1.889   4.293  11.270  0.4537 -1.0691 -0.0433
 8114SOL     OW35803   1.913   0.175  11.326 -0.0220 -0.5524  0.0733
 8114SOL    HW135804   1.868   0.260  11.325  1.5141  0.2712 -0.6853
 8114SOL    HW235805   2.002   0.208  11.341 -1.1398  0.9351  3.3422
 8115SOL     OW35806   3.586   0.984   0.446 -0.1123 -0.1589  0.3261
 8115SOL    HW135807   3.521   0.962   0.379  0.5885  1.6439 -0.9582
 8115SOL    HW235808   3.551   0.941   0.524 -1.3573  0.8756  0.3470
 8116SOL     OW35809   2.190   4.171   6.766  0.0159 -0.1633  0.2195
 8116SOL    HW135810   2.167   4.247   6.820  0.6461  0.0410  0.1955
 8116SOL    HW235811   2.135   4.106   6.810  0.0034  1.2264  2.2426
 8117SOL     OW35812   4.029   4.070  16.453  0.3163 -0.7383  0.0687
 8117SOL    HW135813   4.098   4.109  16.399  0.1771  0.1592  0.5346
 8117SOL    HW235814   4.074   4.059  16.537  0.1582  1.1412  0.3913
 8118SOL     OW35815   1.837   2.847   3.976  0.5270  0.2835 -0.2564
 8118SOL    HW135816   1.859   2.755   3.988  0.7310  0.5199  1.1255
 8118SOL    HW235817   1.751   2.839   4.018  0.8592 -0.5807  0.2541
 8119SOL     OW35818   0.350   1.526   4.541  0.2284 -0.3686  0.4946
 8119SOL    HW135819   0.443   1.540   4.558 -0.2257  1.3611  1.5870
 8119SOL    HW235820   0.338   1.465   4.468  0.2655 -0.7011  0.7686
 8120SOL     OW35821   2.877   4.315   5.643 -0.3278  0.4793  0.5009
 8120SOL    HW135822   2.924   4.393   5.611 -0.4572 -0.5000 -2.0468
 8120SOL    HW235823   2.832   4.353   5.718 -1.3391 -0.7240  0.5012
 8121SOL     OW35824   1.366   4.331  10.230  0.9023 -0.2875  0.1732
 8121SOL    HW135825   1.361   4.359  10.321  0.3646  0.5335 -0.1147
 8121SOL    HW235826   1.307   4.256  10.230  0.7801 -0.1897 -0.1098
 8122SOL     OW35827   0.262   2.020   5.695  0.3151  0.1337  0.2619
 8122SOL    HW135828   0.170   2.019   5.668  0.2650 -3.1682  0.4600
 8122SOL    HW235829   0.272   2.108   5.729  2.5811  0.2454 -0.6853
 8123SOL     OW35830   4.041   2.405   9.210 -0.2403 -0.4547 -0.1317
 8123SOL    HW135831   3.974   2.460   9.252  0.8583  1.2478 -0.6280
 8123SOL    HW235832   4.009   2.319   9.238 -1.5637 -0.6306 -2.1805
 8124SOL     OW35833   0.305   3.394   8.335  0.5864 -0.2946 -0.0242
 8124SOL    HW135834   0.347   3.449   8.268 -0.2336 -0.8278 -0.9810
 8124SOL    HW235835   0.212   3.414   8.322  0.0640 -1.5556  1.8332
 8125SOL     OW35836   0.422   2.055   4.033 -0.0747 -0.2182  0.3703
 8125SOL    HW135837   0.447   2.008   4.112 -1.1915  0.1726  0.9705
 8125SOL    HW235838   0.461   1.994   3.971 -1.5325  0.2198 -0.9784
 8126SOL     OW35839   2.023   1.243   4.584 -0.2502  0.2414 -0.2957
 8126SOL    HW135840   2.086   1.172   4.573  0.1230  0.5857 -0.3684
 8126SOL    HW235841   1.971   1.198   4.651  0.3557 -1.8199 -1.2247
 8127SOL     OW35842   1.201   0.541   3.967  0.1353 -0.3827 -0.1276
 8127SOL    HW135843   1.227   0.581   4.050  0.5295  1.2054 -1.0178
 8127SOL    HW235844   1.139   0.601   3.926  0.7967  0.1895 -0.3012
 8128SOL     OW35845   0.463   1.799   4.661 -0.2629 -0.0574  0.4814
 8128SOL    HW135846   0.506   1.823   4.580  0.2934  2.3363  1.4708
 8128SOL    HW235847   0.541   1.766   4.706 -1.9804 -0.5043  3.1406
 8129SOL     OW35848   0.974   3.779   9.843  0.2732 -0.2851  0.3325
 8129SOL    HW135849   1.044   3.715   9.852  1.3590  0.9030  0.2633
 8129SOL    HW235850   0.905   3.718   9.816  0.4074  0.1008 -0.8730
 8130SOL     OW35851   0.994   2.041  10.467 -0.2789  0.2467 -0.4298
 8130SOL    HW135852   1.062   2.106  10.481  0.0582 -0.3410  0.5957
 8130SOL    HW235853   1.020   1.967  10.521  0.0169  0.4328 -0.3163
 8131SOL     OW35854   3.770   3.985   6.166 -0.2810 -0.1712 -0.1078
 8131SOL    HW135855   3.766   3.976   6.071 -0.6876 -1.9606  0.0794
 8131SOL    HW235856   3.683   3.957   6.194 -0.2363 -0.4519 -0.2520
 8132SOL     OW35857   3.428   2.626   3.242  0.1219  0.4166  0.0251
 8132SOL    HW135858   3.504   2.685   3.236  0.5399 -0.2630 -1.4031
 8132SOL    HW235859   3.471   2.541   3.243  0.2793  0.5037  0.5760
 8133SOL     OW35860   1.982   2.043  14.820  0.0703 -0.2573  0.0794
 8133SOL    HW135861   2.039   1.989  14.875  1.0411 -0.4711 -1.1256
 8133SOL    HW235862   2.039   2.053  14.744  0.6523  0.7654  0.6503
 8134SOL     OW35863   1.622   4.094  10.491 -0.0036 -0.9058  0.2616
 8134SOL    HW135864   1.601   4.157  10.560 -0.3979  0.5256 -1.1640
 8134SOL    HW235865   1.717   4.104  10.483 -0.3608  0.9408 -1.5766
 8135SOL     OW35866   3.736   3.824   2.287  0.2532 -0.1880 -0.0816
 8135SOL    HW135867   3.782   3.908   2.284 -1.3241  0.6163 -2.9732
 8135SOL    HW235868   3.777   3.780   2.361  1.1177  1.2352  0.2906
 8136SOL     OW35869   3.887   1.352  12.166  0.4481  0.0575 -0.0888
 8136SOL    HW135870   3.978   1.361  12.138  0.6063  0.7282  0.6497
 8136SOL    HW235871   3.891   1.258  12.183 -1.6782 -0.1504 -0.7262
 8137SOL     OW35872   2.542   0.363   2.853 -0.5688  0.0884 -0.0895
 8137SOL    HW135873   2.587   0.332   2.932  0.4356 -0.2831 -0.8197
 8137SOL    HW235874   2.590   0.315   2.786 -1.0194  1.0054 -1.0674
 8138SOL     OW35875   2.110   1.542  11.185 -0.8084  0.4691  0.2089
 8138SOL    HW135876   2.092   1.524  11.277 -0.6481 -0.2170  0.1040
 8138SOL    HW235877   2.089   1.635  11.187  1.0217  0.8893 -0.1933
 8139SOL     OW35878   2.073   1.392   6.575  0.0428 -0.2215  0.1535
 8139SOL    HW135879   2.127   1.316   6.552  0.4790  0.2316 -0.3163
 8139SOL    HW235880   2.136   1.457   6.606 -1.2554  1.9850 -1.8776
 8140SOL     OW35881   4.645   4.093  15.989  0.3210  0.0645  0.6756
 8140SOL    HW135882   4.568   4.058  15.945  0.7740  2.8354 -2.2655
 8140SOL    HW235883   4.605   4.113  16.074 -2.7162 -1.6225 -0.3628
 8141SOL     OW35884   4.321   3.476  11.363  0.0474 -0.0573 -0.3396
 8141SOL    HW135885   4.265   3.515  11.297 -0.6971 -0.0662  0.2888
 8141SOL    HW235886   4.400   3.479  11.309  0.3593 -0.8143  0.0665
 8142SOL     OW35887   0.184   3.269  12.690  0.0591 -0.3697  0.3200
 8142SOL    HW135888   0.117   3.208  12.657 -1.4800  1.6358 -0.2620
 8142SOL    HW235889   0.194   3.230  12.777  0.7037  2.1524  1.3645
 8143SOL     OW35890   1.981   1.865   8.917  0.1532  0.3099 -0.5821
 8143SOL    HW135891   2.004   1.780   8.956 -2.4039 -1.3204 -2.6446
 8143SOL    HW235892   1.962   1.838   8.827 -0.2681 -1.6107  0.0830
 8144SOL     OW35893   4.302   0.849   2.918 -0.0428 -0.1252  0.1686
 8144SOL    HW135894   4.226   0.798   2.945 -0.3194  0.2686  0.1438
 8144SOL    HW235895   4.294   0.927   2.974  1.9101  0.8865 -0.9741
 8145SOL     OW35896   3.805   3.184   1.967 -0.0210 -0.1190  0.0629
 8145SOL    HW135897   3.822   3.274   1.939 -1.9204 -0.2565 -1.5370
 8145SOL    HW235898   3.797   3.146   1.880  0.3690 -0.9556  0.3944
 8146SOL     OW35899   0.752   3.202  12.465  0.1820  0.1501  0.2019
 8146SOL    HW135900   0.784   3.246  12.545 -0.0500 -1.3108  1.0917
 8146SOL    HW235901   0.761   3.109  12.485 -0.2559  0.0185 -0.2399
 8147SOL     OW35902   0.454   2.917   7.219 -0.2581  0.0952  0.4480
 8147SOL    HW135903   0.518   2.986   7.200 -1.1748  0.4757 -1.2625
 8147SOL    HW235904   0.420   2.958   7.299  1.3909 -0.2343  1.3111
 8148SOL     OW35905   4.171   2.881  13.000 -0.4020  0.3799 -0.2769
 8148SOL    HW135906   4.075   2.882  12.996 -0.4902  0.1673  2.1379
 8148SOL    HW235907   4.184   2.914  13.089 -1.0373  0.7408 -0.3134
 8149SOL     OW35908   1.618   0.313  16.087  0.2321  0.2014 -0.0146
 8149SOL    HW135909   1.679   0.290  16.016  1.1783  2.8339 -0.0698
 8149SOL    HW235910   1.619   0.408  16.086  0.5881  0.2268  2.4244
 8150SOL     OW35911   1.875   0.155   4.614 -0.2555  0.4036 -0.1836
 8150SOL    HW135912   1.960   0.196   4.598 -0.1592 -0.8383 -2.7701
 8150SOL    HW235913   1.819   0.204   4.553 -0.7871  2.2232  1.7938
 8151SOL     OW35914   3.801   3.977   1.724  0.1107  0.1158  0.3507
 8151SOL    HW135915   3.769   4.039   1.790  0.9290  2.1779 -1.1852
 8151SOL    HW235916   3.888   3.971   1.763  0.6620  0.4255 -0.8269
 8152SOL     OW35917   2.284   2.832   8.861 -0.4349 -1.0280  0.3004
 8152SOL    HW135918   2.339   2.763   8.898 -0.2462 -1.2072 -0.3046
 8152SOL    HW235919   2.209   2.835   8.920 -0.7113  1.3761 -0.1577
 8153SOL     OW35920   2.814   1.431   3.845 -0.1160  0.7378 -0.2264
 8153SOL    HW135921   2.796   1.339   3.867  1.9578 -0.5674 -3.8878
 8153SOL    HW235922   2.810   1.476   3.929  0.3633  0.3842 -0.0143
 8154SOL     OW35923   4.611   3.501   8.707  0.0975  0.5966 -0.3693
 8154SOL    HW135924   4.688   3.448   8.686  0.1642  0.8685 -0.8262
 8154SOL    HW235925   4.605   3.491   8.802  1.7887  2.7422 -0.0267
 8155SOL     OW35926   0.685   4.370   4.573  0.3868  0.5394 -0.0109
 8155SOL    HW135927   0.596   4.403   4.586  0.4985  0.6508  0.4465
 8155SOL    HW235928   0.683   4.276   4.588  1.9247  0.6313  0.7950
 8156SOL     OW35929   4.398   0.866   4.089 -0.1748 -0.2931 -0.5490
 8156SOL    HW135930   4.461   0.905   4.028 -1.0892  2.2815  0.1447
 8156SOL    HW235931   4.424   0.775   4.104 -1.1604 -0.6435 -0.9690
 8157SOL     OW35932   3.247   1.425   6.119 -0.0483  0.7387 -0.3511
 8157SOL    HW135933   3.226   1.517   6.135 -1.2200  0.5640 -0.8613
 8157SOL    HW235934   3.295   1.421   6.036  1.1140  1.5826  0.2908
 8158SOL     OW35935   4.387   4.206  10.301 -0.6569 -0.1488  0.4049
 8158SOL    HW135936   4.427   4.197  10.388 -0.8303  1.6729  0.6682
 8158SOL    HW235937   4.316   4.142  10.311 -1.0351 -0.2849 -2.9557
 8159SOL     OW35938   4.416   1.434   0.592  0.2819  0.5465  0.6730
 8159SOL    HW135939   4.384   1.344   0.595  0.0129  0.6699  1.3563
 8159SOL    HW235940   4.386   1.456   0.503 -1.8987 -0.9771  1.0174
 8160SOL     OW35941   0.404   4.409   3.139 -0.1091  0.1434 -0.6007
 8160SOL    HW135942   0.442   4.454   3.063  1.4383  2.2583  1.4489
 8160SOL    HW235943   0.433   4.460   3.214 -0.3240 -0.7023  0.0548
 8161SOL     OW35944   3.160   2.835   4.876  0.3723  0.1393 -0.3056
 8161SOL    HW135945   3.162   2.881   4.792 -0.6557 -1.7569 -1.3620
 8161SOL    HW235946   3.096   2.886   4.927 -0.7377 -0.4573 -1.0901
 8162SOL     OW35947   3.997   1.137   5.207 -0.3560 -0.1531  0.2059
 8162SOL    HW135948   3.971   1.097   5.290 -1.6833 -0.8145 -0.5286
 8162SOL    HW235949   3.917   1.118   5.159  0.1226  1.0031 -1.0441
 8163SOL     OW35950   2.278   4.538   8.246  0.1859  0.2815 -0.2586
 8163SOL    HW135951   2.207   4.592   8.212 -0.1681 -0.1076 -0.1406
 8163SOL    HW235952   2.227   4.457   8.247  0.4744  0.0820 -1.5312
 8164SOL     OW35953   4.583   4.558   1.882  0.3481  0.0295 -0.1691
 8164SOL    HW135954   4.543   4.573   1.968 -1.8169 -0.0914 -1.1445
 8164SOL    HW235955   4.644   4.485   1.890  1.4958  0.8507 -1.3600
 8165SOL     OW35956   2.654   0.508   7.228  0.0634  0.8950 -0.2248
 8165SOL    HW135957   2.747   0.526   7.243 -0.1848  0.2456  2.0347
 8165SOL    HW235958   2.665   0.419   7.196 -2.0159 -0.6617  3.4717
 8166SOL     OW35959   3.211   4.359   8.248 -0.1303  0.3986  0.7276
 8166SOL    HW135960   3.164   4.307   8.314  0.0402  1.1625  1.4495
 8166SOL    HW235961   3.289   4.373   8.302 -1.0108  0.5823  1.9485
 8167SOL     OW35962   3.524   2.473   3.543  0.3170  0.9294 -0.3084
 8167SOL    HW135963   3.500   2.390   3.503  3.5101 -1.5233  2.9268
 8167SOL    HW235964   3.567   2.507   3.465 -0.0925  1.6502 -0.2288
 8168SOL     OW35965   4.269   3.806   2.410  0.5391 -0.1628  0.7718
 8168SOL    HW135966   4.224   3.743   2.465 -0.1917 -0.3167 -0.0196
 8168SOL    HW235967   4.257   3.886   2.462 -0.6779  0.7116 -0.8369
 8169SOL     OW35968   3.910   1.987   4.407  0.1186  0.4149  0.5561
 8169SOL    HW135969   3.897   2.026   4.320  2.3888  1.3630  0.6613
 8169SOL    HW235970   3.958   1.905   4.390  0.6727  0.5994  1.2585
 8170SOL     OW35971   3.776   0.499   6.734 -0.1618  0.1361  0.1156
 8170SOL    HW135972   3.797   0.592   6.729 -1.1225  0.2977 -1.0534
 8170SOL    HW235973   3.735   0.514   6.819 -0.4280 -1.5228  0.2946
 8171SOL     OW35974   0.798   2.398   6.893 -0.4531 -0.2467 -0.2483
 8171SOL    HW135975   0.799   2.484   6.935  0.3571 -0.2622 -0.2418
 8171SOL    HW235976   0.763   2.344   6.963 -0.9563 -0.2701 -0.5159
 8172SOL     OW35977   4.368   3.353   4.059 -0.4161  0.3019  0.2843
 8172SOL    HW135978   4.290   3.321   4.013 -0.3068  0.8859 -0.3178
 8172SOL    HW235979   4.370   3.445   4.032  0.7335  0.8680  2.3268
 8173SOL     OW35980   0.306   3.905   6.456 -0.5718 -0.2735 -0.6029
 8173SOL    HW135981   0.294   3.833   6.517  0.1992  0.3684  0.3000
 8173SOL    HW235982   0.340   3.974   6.513 -1.4424 -2.6216  2.7546
 8174SOL     OW35983   3.856   3.807  17.232 -0.2429 -0.2735  0.1046
 8174SOL    HW135984   3.785   3.843  17.284 -0.5444 -0.9745  0.1726
 8174SOL    HW235985   3.807   3.766  17.161  0.5721  0.0192 -0.6313
 8175SOL     OW35986   1.081   4.309   0.362 -0.1318  0.0609 -0.5049
 8175SOL    HW135987   1.104   4.324   0.454  0.4738 -2.2121 -0.2924
 8175SOL    HW235988   0.997   4.353   0.355 -0.4494 -0.1399  2.0278
 8176SOL     OW35989   3.939   3.172  15.094  0.0160  0.0249  0.2683
 8176SOL    HW135990   3.873   3.150  15.160  1.1747 -0.5408  1.2411
 8176SOL    HW235991   4.016   3.182  15.149 -0.6938  0.3910  1.2059
 8177SOL     OW35992   3.887   2.467  11.646 -0.3137 -0.1441 -0.3769
 8177SOL    HW135993   3.910   2.488  11.555  1.3402 -2.1415 -0.4141
 8177SOL    HW235994   3.791   2.469  11.642 -0.2110  1.5494 -2.3265
 8178SOL     OW35995   3.105   3.888  16.189  0.0034 -0.1978 -0.0556
 8178SOL    HW135996   3.125   3.966  16.240  0.3155 -0.8540  0.8329
 8178SOL    HW235997   3.195   3.860  16.173  0.3974  1.6514 -1.0264
 8179SOL     OW35998   0.242   3.092  10.668  0.1656  0.1057  0.1831
 8179SOL    HW135999   0.310   3.127  10.727  1.6560 -2.5982  0.0505
 8179SOL    HW236000   0.210   3.020  10.721  0.2561  2.1353  3.0429
 8180SOL     OW36001   2.256   2.894   9.418 -0.1465 -0.4376  0.1027
 8180SOL    HW136002   2.255   2.801   9.395 -1.5079 -0.6071  0.8708
 8180SOL    HW236003   2.211   2.885   9.502 -3.7250  1.2145 -1.6527
 8181SOL     OW36004   2.169   2.849  10.362  0.3779 -0.2501  0.6788
 8181SOL    HW136005   2.172   2.837  10.457  2.8466  0.4928  0.7036
 8181SOL    HW236006   2.129   2.765  10.339 -0.1494 -0.0359  0.8195
 8182SOL     OW36007   3.959   0.408   1.910 -0.0605 -0.7744  0.1870
 8182SOL    HW136008   3.925   0.410   1.821 -0.0833  0.3709  0.2125
 8182SOL    HW236009   3.923   0.492   1.940 -0.4492 -0.8884  0.0349
 8183SOL     OW36010   1.701   1.582  12.801  0.1821  0.2566 -0.2814
 8183SOL    HW136011   1.608   1.580  12.777  0.3892 -0.5654 -1.0521
 8183SOL    HW236012   1.758   1.586  12.724  1.3483 -2.2186  0.4409
 8184SOL     OW36013   1.640   0.372   0.578  0.2950 -0.0619 -0.0311
 8184SOL    HW136014   1.650   0.407   0.489 -1.3025 -0.4354 -0.3534
 8184SOL    HW236015   1.713   0.420   0.616 -0.5024 -0.1209  1.5729
 8185SOL     OW36016   1.001   3.372  15.685 -0.0639  0.2317  0.6221
 8185SOL    HW136017   0.986   3.461  15.718  0.6332  0.5236  0.1419
 8185SOL    HW236018   0.997   3.384  15.591  2.2843  0.7718  0.6058
 8186SOL     OW36019   1.233   2.757  11.424  0.0348 -0.5478  0.3474
 8186SOL    HW136020   1.223   2.775  11.330 -1.8139  2.3688  1.0838
 8186SOL    HW236021   1.222   2.848  11.451  0.1666 -0.0237 -1.3184
 8187SOL     OW36022   4.317   4.437   4.910  0.4904 -0.1239 -0.7490
 8187SOL    HW136023   4.224   4.450   4.893  0.2795 -0.0332  0.4711
 8187SOL    HW236024   4.350   4.392   4.832 -1.5880  0.9391 -2.2363
 8188SOL     OW36025   1.723   2.568   1.741 -0.1493  0.1756  0.2560
 8188SOL    HW136026   1.686   2.624   1.810  1.1181  2.4119 -0.8708
 8188SOL    HW236027   1.753   2.633   1.677  0.8969  0.2512  0.8213
 8189SOL     OW36028   4.536   0.483   8.357  0.2815  0.0450  0.1623
 8189SOL    HW136029   4.583   0.438   8.427  0.0364  0.4992  0.6174
 8189SOL    HW236030   4.594   0.555   8.332 -1.8466  1.2354 -1.3870
 8190SOL     OW36031   3.521   2.408   8.298 -0.3220  0.0788  0.0144
 8190SOL    HW136032   3.587   2.396   8.230  1.2060  0.6208  1.4005
 8190SOL    HW236033   3.587   2.442   8.359 -0.7942 -2.1914  1.8097
 8191SOL     OW36034   3.545   4.669   2.406 -0.5480 -0.2889 -0.2005
 8191SOL    HW136035   3.635   4.695   2.388 -0.9779  0.8224 -0.7831
 8191SOL    HW236036   3.552   4.575   2.387 -1.9780 -0.7182  1.4554
 8192SOL     OW36037   2.749   2.385   1.147 -0.1133 -0.3569 -0.0502
 8192SOL    HW136038   2.655   2.390   1.132 -0.3411  0.5057  1.6748
 8192SOL    HW236039   2.747   2.306   1.202  0.4292  0.4902  1.1892
 8193SOL     OW36040   1.021   0.471  13.426  0.0681  0.2231  0.1527
 8193SOL    HW136041   0.962   0.463  13.351  0.0292  1.7309  0.0205
 8193SOL    HW236042   1.079   0.397  13.413 -0.1098 -0.3347  2.5258
 8194SOL     OW36043   0.664   4.640   6.813 -0.1580  0.2381 -0.2292
 8194SOL    HW136044   0.582   4.642   6.864 -0.0162  0.0546  0.0068
 8194SOL    HW236045   0.715   4.714   6.846 -0.7559  0.1666  0.8750
 8195SOL     OW36046   3.200   4.696   6.992 -0.3165 -0.0761  0.0285
 8195SOL    HW136047   3.143   4.620   6.996 -2.0176  1.1674 -0.7244
 8195SOL    HW236048   3.244   4.706   6.908 -0.0607 -4.0710 -0.3176
 8196SOL     OW36049   3.520   3.188   1.037  0.8775 -0.4871  0.5049
 8196SOL    HW136050   3.515   3.278   1.069 -1.2030  0.3835 -2.3029
 8196SOL    HW236051   3.481   3.198   0.950  2.3393  4.0522  0.3979
 8197SOL     OW36052   0.824   0.869   6.297  0.1966 -0.1832  0.1727
 8197SOL    HW136053   0.874   0.846   6.219 -0.4032 -1.4739  0.1786
 8197SOL    HW236054   0.761   0.932   6.261  0.6285  1.0121  1.4955
 8198SOL     OW36055   2.933   4.434   1.414  0.2910 -0.4292 -0.9169
 8198SOL    HW136056   3.011   4.385   1.387 -0.1303 -0.9402 -1.2025
 8198SOL    HW236057   2.869   4.404   1.350 -2.6549  1.1148  1.2875
 8199SOL     OW36058   1.226   1.748  16.455  0.2292 -0.4853  0.2720
 8199SOL    HW136059   1.244   1.709  16.540 -0.9790  0.2240  0.8443
 8199SOL    HW236060   1.294   1.814  16.444  0.0786  0.2171  3.7069
 8200SOL     OW36061   2.006   1.639   7.630  0.1934  0.0479 -0.5394
 8200SOL    HW136062   2.042   1.609   7.714 -2.9228  2.9151  1.7826
 8200SOL    HW236063   2.011   1.734   7.641  0.7204 -0.0642  0.2211
 8201SOL     OW36064   3.573   1.433   9.433 -0.1868  0.3295  0.3545
 8201SOL    HW136065   3.648   1.374   9.434  0.1441  0.7335 -1.0238
 8201SOL    HW236066   3.512   1.407   9.502 -1.7060  1.4007 -0.5631
 8202SOL     OW36067   3.479   1.444  11.098 -0.2959  0.2690 -0.1699
 8202SOL    HW136068   3.522   1.509  11.042  1.4754 -0.6412  0.1238
 8202SOL    HW236069   3.423   1.404  11.031 -1.1665 -0.9116  1.2777
 8203SOL     OW36070   1.197   1.991  10.196 -0.2883  0.1896 -0.1193
 8203SOL    HW136071   1.190   2.012  10.289 -1.5655  1.1379 -0.4292
 8203SOL    HW236072   1.162   2.072  10.158  0.8690  1.1060  0.7855
 8204SOL     OW36073   1.717   0.249  12.995  0.1592  0.2075 -0.0947
 8204SOL    HW136074   1.634   0.235  13.039  0.7781  0.4244  1.1538
 8204SOL    HW236075   1.692   0.317  12.932 -3.2355 -1.9340 -1.0500
 8205SOL     OW36076   3.647   2.518   7.823 -0.0850 -0.0125  0.4953
 8205SOL    HW136077   3.709   2.445   7.817 -2.8490 -2.2601 -0.7885
 8205SOL    HW236078   3.711   2.587   7.839 -0.4256  0.3848  0.1161
 8206SOL     OW36079   0.418   2.919   8.220 -0.5685 -0.7640 -0.0076
 8206SOL    HW136080   0.336   2.965   8.237 -0.8802 -1.6418  0.8407
 8206SOL    HW236081   0.475   2.977   8.269  0.1846 -0.9945 -0.6018
 8207SOL     OW36082   2.422   4.352  13.306  0.0575 -0.6446 -0.1101
 8207SOL    HW136083   2.465   4.341  13.391 -2.7246  0.6895  1.4625
 8207SOL    HW236084   2.501   4.334  13.255 -0.2610  1.5624 -1.3564
 8208SOL     OW36085   4.234   2.255   4.841  0.3305  0.1882  0.3648
 8208SOL    HW136086   4.198   2.337   4.875 -0.7089  0.6205 -1.7305
 8208SOL    HW236087   4.163   2.218   4.787 -0.0501  1.0576  0.2660
 8209SOL     OW36088   2.450   4.414   2.158  0.0052  0.1251  0.1058
 8209SOL    HW136089   2.514   4.414   2.087 -0.4965 -0.6810 -0.3577
 8209SOL    HW236090   2.369   4.400   2.109 -0.1816  0.4068  0.3307
 8210SOL     OW36091   3.909   2.787   3.140  0.5510 -0.1956 -0.8091
 8210SOL    HW136092   3.908   2.787   3.236  0.9026 -0.9716 -0.8139
 8210SOL    HW236093   3.989   2.738   3.128  0.2566 -0.3471 -2.1233
 8211SOL     OW36094   4.619   1.484   6.008  0.0105  0.3997 -0.8638
 8211SOL    HW136095   4.579   1.403   5.979 -1.2810  1.0204 -0.8154
 8211SOL    HW236096   4.568   1.550   5.960 -0.0594  0.6682 -0.4234
 8212SOL     OW36097   4.046   4.437   4.852  0.0795 -0.2385 -0.6924
 8212SOL    HW136098   3.987   4.511   4.835  0.0346  0.0602  0.7609
 8212SOL    HW236099   3.996   4.402   4.925 -0.1439  0.2417 -0.6126
 8213SOL     OW36100   0.142   1.398   3.274 -0.0835 -0.2011  0.6530
 8213SOL    HW136101   0.173   1.343   3.202  1.3678 -0.5311  1.5277
 8213SOL    HW236102   0.219   1.445   3.308  1.0911 -0.2376 -1.9654
 8214SOL     OW36103   0.701   4.046   3.428 -0.3214 -0.6363 -0.4967
 8214SOL    HW136104   0.629   3.984   3.418 -1.9539  1.0606  0.6449
 8214SOL    HW236105   0.699   4.080   3.338 -1.5018 -0.9103 -0.5763
 8215SOL     OW36106   2.550   0.487   0.538  0.2623  0.1779  0.6474
 8215SOL    HW136107   2.638   0.469   0.572  0.9027  1.7952 -0.1477
 8215SOL    HW236108   2.498   0.465   0.615 -3.4282 -0.6747 -2.1151
 8216SOL     OW36109   4.571   0.669   7.840  0.2499  0.4739 -0.2029
 8216SOL    HW136110   4.527   0.584   7.849  0.3575  0.5762  1.2881
 8216SOL    HW236111   4.616   0.685   7.923  0.7563 -0.6310 -0.2622
 8217SOL     OW36112   4.127   1.637   2.399 -0.1704 -0.3121  0.4369
 8217SOL    HW136113   4.076   1.662   2.323  3.2281  1.5078 -1.2242
 8217SOL    HW236114   4.183   1.713   2.409 -1.0383  0.0745  2.5014
 8218SOL     OW36115   0.963   0.678   7.667 -0.1947  0.4877 -0.2739
 8218SOL    HW136116   0.916   0.627   7.733  1.4365  1.2124  1.4247
 8218SOL    HW236117   1.052   0.644   7.677 -0.6516  0.1284  2.5192
 8219SOL     OW36118   0.981   2.718   1.783 -0.1111  0.4565 -0.3739
 8219SOL    HW136119   0.898   2.719   1.831 -0.3358 -2.9125 -0.7011
 8219SOL    HW236120   0.980   2.633   1.739  0.1886  0.5957 -0.6428
 8220SOL     OW36121   1.460   0.274   3.336  0.3546 -0.3183 -0.1402
 8220SOL    HW136122   1.411   0.199   3.370 -0.7558  0.5441  0.1194
 8220SOL    HW236123   1.474   0.314   3.421 -0.3192 -1.4440  0.5020
 8221SOL     OW36124   3.459   3.395   6.144 -0.0882 -0.0335 -0.2659
 8221SOL    HW136125   3.508   3.369   6.222  1.1486  0.1491 -0.9915
 8221SOL    HW236126   3.408   3.463   6.189  1.7205  1.4854 -0.5355
 8222SOL     OW36127   2.329   2.276   3.290 -0.0191  0.0519  0.6910
 8222SOL    HW136128   2.286   2.315   3.213 -0.0520 -0.9770  0.1867
 8222SOL    HW236129   2.315   2.338   3.361 -0.8950  1.5496 -0.7966
 8223SOL     OW36130   3.370   2.095   7.505 -0.4031 -0.2867 -0.5602
 8223SOL    HW136131   3.419   2.164   7.549 -0.5491  0.3829 -1.4380
 8223SOL    HW236132   3.342   2.054   7.586 -0.6165 -1.4465 -1.2289
 8224SOL     OW36133   0.397   1.969  14.531  0.7311 -0.0844 -0.1488
 8224SOL    HW136134   0.473   2.019  14.562  2.5101 -0.0442 -4.5273
 8224SOL    HW236135   0.425   1.933  14.446 -0.6629 -1.2595 -0.1086
 8225SOL     OW36136   3.283   3.568   6.268 -0.0412  0.1083  0.6871
 8225SOL    HW136137   3.286   3.656   6.306 -0.8228 -0.7543  2.7211
 8225SOL    HW236138   3.192   3.552   6.245  0.4458 -3.0344  0.9945
 8226SOL     OW36139   3.839   1.933   2.815  0.4020  0.3813 -0.6708
 8226SOL    HW136140   3.884   1.920   2.732  0.4674 -0.0443 -0.5666
 8226SOL    HW236141   3.907   1.968   2.872 -3.5681  2.0335  3.0891
 8227SOL     OW36142   1.278   2.481   6.338 -0.1501  0.9734 -0.3067
 8227SOL    HW136143   1.344   2.438   6.392  0.3570  0.4176 -1.3676
 8227SOL    HW236144   1.205   2.451   6.392 -1.1002  2.5513 -0.7044
 8228SOL     OW36145   0.267   1.995   7.749 -0.0298 -0.2082 -0.7961
 8228SOL    HW136146   0.192   2.039   7.789  0.0907 -0.7522  0.0421
 8228SOL    HW236147   0.309   1.950   7.823  0.7856 -0.8671 -1.6659
 8229SOL     OW36148   4.024   2.014  13.776 -0.1877  0.1361  0.5177
 8229SOL    HW136149   3.969   1.950  13.821  1.0120 -0.9423  0.4535
 8229SOL    HW236150   4.044   2.071  13.850  0.7429  1.7081 -0.9599
 8230SOL     OW36151   4.230   0.364   6.331  0.5459 -0.1221 -0.0254
 8230SOL    HW136152   4.184   0.394   6.252  2.5642  0.8426 -0.8407
 8230SOL    HW236153   4.276   0.286   6.299  0.6681 -0.5622  1.2247
 8231SOL     OW36154   1.124   1.794   0.784  0.8482 -0.8910 -0.0331
 8231SOL    HW136155   1.155   1.862   0.725 -0.2816  0.1348  0.5556
 8231SOL    HW236156   1.181   1.719   0.771 -0.4310 -1.5474 -1.7291
 8232SOL     OW36157   3.852   2.027   3.682 -0.1083  0.2343  0.3177
 8232SOL    HW136158   3.792   2.095   3.654 -1.6982 -0.4595  2.0381
 8232SOL    HW236159   3.910   2.006   3.609 -1.4568 -0.4985 -0.5453
 8233SOL     OW36160   1.529   1.004  15.789 -0.2296 -0.7524 -0.1774
 8233SOL    HW136161   1.439   1.029  15.767 -0.7470 -0.9941  1.6134
 8233SOL    HW236162   1.503   0.926  15.840  0.6151 -2.2894 -2.1053
 8234SOL     OW36163   1.943   2.760   2.992 -0.5499  0.0833  0.0966
 8234SOL    HW136164   1.894   2.829   2.948 -1.7840 -0.6218  0.3676
 8234SOL    HW236165   1.894   2.678   2.990 -1.6951  0.7494  1.1257
 8235SOL     OW36166   2.566   2.352   5.740 -0.0537  0.4878 -0.1186
 8235SOL    HW136167   2.616   2.278   5.774  1.6489  1.0113 -1.5012
 8235SOL    HW236168   2.600   2.420   5.797  0.1062  0.8401 -0.6305
 8236SOL     OW36169   1.800   0.089  10.488 -0.4428  0.4716  0.0916
 8236SOL    HW136170   1.890   0.064  10.511 -0.8040 -0.5181  0.4558
 8236SOL    HW236171   1.769   0.096  10.578 -0.4347 -0.2125  0.1485
 8237SOL     OW36172   1.154   4.204   0.138  0.2569  0.2676  0.0917
 8237SOL    HW136173   1.133   4.255   0.217  0.1948  1.0093 -0.4064
 8237SOL    HW236174   1.109   4.121   0.156  2.3538 -0.4689  1.9509
 8238SOL     OW36175   2.942   2.562  16.908 -0.3039  0.4445 -0.2813
 8238SOL    HW136176   2.887   2.633  16.942  0.4051  0.7930  0.1443
 8238SOL    HW236177   2.990   2.606  16.837 -1.6428  0.3794 -1.2237
 8239SOL     OW36178   3.487   2.654   6.907  0.2531  0.1029 -0.1718
 8239SOL    HW136179   3.406   2.611   6.934  0.2595 -0.1183 -0.5049
 8239SOL    HW236180   3.536   2.658   6.989 -1.0526 -1.3964  0.6802
 8240SOL     OW36181   1.325   1.591   5.509 -0.6492 -1.1244  0.1223
 8240SOL    HW136182   1.292   1.662   5.565  1.9765 -0.0795  0.3425
 8240SOL    HW236183   1.329   1.519   5.571  1.1973 -0.4956  0.7416
 8241SOL     OW36184   2.673   1.723   4.087 -0.1929 -0.0646  0.4981
 8241SOL    HW136185   2.757   1.760   4.061 -1.2814  3.2354  1.6867
 8241SOL    HW236186   2.613   1.789   4.051  0.0166 -0.5207 -0.6862
 8242SOL     OW36187   0.191   4.453   4.486 -0.2844 -0.3724  0.2700
 8242SOL    HW136188   0.106   4.477   4.451 -1.3406 -0.0348  3.0415
 8242SOL    HW236189   0.170   4.390   4.555  0.3163 -0.9031 -0.0361
 8243SOL     OW36190   4.050   1.550  14.778 -0.3226 -0.6620  0.2152
 8243SOL    HW136191   4.081   1.492  14.848  3.0476  0.7735 -0.0921
 8243SOL    HW236192   4.107   1.624  14.795  0.0579 -0.5184 -1.6812
 8244SOL     OW36193   4.040   3.514   8.923  0.4070 -0.8554  0.1830
 8244SOL    HW136194   4.131   3.540   8.907  0.3200 -0.9792 -0.5116
 8244SOL    HW236195   4.000   3.596   8.896  1.9374 -0.8101 -1.9553
 8245SOL     OW36196   3.819   2.921   7.371  0.5327  0.3883 -0.3024
 8245SOL    HW136197   3.875   2.880   7.306  0.5640 -0.4099  0.2330
 8245SOL    HW236198   3.817   2.854   7.440  0.2381  1.3035  0.5871
 8246SOL     OW36199   3.545   1.274   3.534 -0.5847 -0.0835  0.5208
 8246SOL    HW136200   3.526   1.358   3.575 -2.3016  0.3853 -1.2218
 8246SOL    HW236201   3.476   1.259   3.470  1.7738  0.7861 -2.1801
 8247SOL     OW36202   0.167   3.834   9.818  0.0612 -0.4555  0.1440
 8247SOL    HW136203   0.206   3.774   9.881 -2.2958  0.5690  2.6131
 8247SOL    HW236204   0.241   3.851   9.760  1.4653 -1.3401  1.6723
 8248SOL     OW36205   2.822   4.018   4.005 -0.1835 -0.5933  0.5037
 8248SOL    HW136206   2.761   4.061   4.064  1.0618  1.9030 -0.0239
 8248SOL    HW236207   2.882   4.091   3.986 -1.3857  0.3728  0.4645
 8249SOL     OW36208   1.738   2.162  13.058 -0.1701 -0.5470 -0.2262
 8249SOL    HW136209   1.703   2.092  13.003 -1.3498 -1.6899  1.9462
 8249SOL    HW236210   1.764   2.114  13.137  1.1645  0.6918  0.0689
 8250SOL     OW36211   3.782   2.263   2.812  0.3211  0.5182  0.1387
 8250SOL    HW136212   3.753   2.174   2.793 -0.2399  0.5763  0.7219
 8250SOL    HW236213   3.876   2.247   2.814 -0.3533 -3.3741  1.4016
 8251SOL     OW36214   4.233   4.072   8.510 -0.0801  0.5177 -1.1594
 8251SOL    HW136215   4.142   4.041   8.504 -0.0014 -0.0280  0.5354
 8251SOL    HW236216   4.281   4.018   8.447  1.3576 -0.5312  0.8123
 8252SOL     OW36217   3.800   2.795  13.160 -0.6364 -0.5302 -0.1773
 8252SOL    HW136218   3.768   2.858  13.096 -0.4793 -0.5202 -0.2449
 8252SOL    HW236219   3.821   2.854  13.232 -1.4657  2.6637 -2.5767
 8253SOL     OW36220   3.434   1.149   7.829  0.1997  0.2344  0.0894
 8253SOL    HW136221   3.522   1.179   7.808  0.5188 -1.1471 -0.5313
 8253SOL    HW236222   3.430   1.057   7.803  1.6455 -0.4536  2.3312
 8254SOL     OW36223   0.886   0.136   5.903 -0.2862 -0.3909  0.3113
 8254SOL    HW136224   0.825   0.201   5.938 -1.5342 -1.5232  0.2138
 8254SOL    HW236225   0.966   0.163   5.949  0.9459 -0.4239 -1.8241
 8255SOL     OW36226   2.994   3.222  10.716 -0.2370 -0.4168  0.2639
 8255SOL    HW136227   2.929   3.153  10.730 -1.2075  0.8922  2.2129
 8255SOL    HW236228   2.944   3.292  10.674 -0.2977  0.1556  1.2691
 8256SOL     OW36229   2.824   0.300   2.325  0.2876 -0.0256  0.4873
 8256SOL    HW136230   2.908   0.343   2.306 -0.0157 -0.4048 -1.7785
 8256SOL    HW236231   2.802   0.261   2.240 -0.2895  1.9628 -0.2928
 8257SOL     OW36232   4.557   4.425   6.406  0.1871  0.0455 -0.4866
 8257SOL    HW136233   4.579   4.512   6.374  0.0864  0.2742  0.0698
 8257SOL    HW236234   4.529   4.443   6.495 -0.2340 -1.9899 -0.2122
 8258SOL     OW36235   3.149   3.088  11.846  0.3041  0.2076  0.3379
 8258SOL    HW136236   3.144   3.131  11.931  0.8411 -0.3771  0.6651
 8258SOL    HW236237   3.060   3.082  11.812  0.1478  0.8125  0.6386
 8259SOL     OW36238   3.329   1.557   8.188  0.3043  0.4849 -0.4939
 8259SOL    HW136239   3.275   1.622   8.233 -1.1828 -0.2467 -1.2227
 8259SOL    HW236240   3.382   1.522   8.259 -0.5220  1.3991  0.5773
 8260SOL     OW36241   0.305   2.128   1.501  0.0740  0.9098  1.0493
 8260SOL    HW136242   0.304   2.178   1.582 -3.0550 -0.0408  1.5980
 8260SOL    HW236243   0.354   2.053   1.533  1.2308  0.3537 -2.0058
 8261SOL     OW36244   1.210   2.845   3.603  0.1460  0.1954  0.1570
 8261SOL    HW136245   1.124   2.817   3.634 -0.4860  2.2199  0.2356
 8261SOL    HW236246   1.241   2.895   3.679  4.5322 -3.5662  0.8768
 8262SOL     OW36247   0.074   0.741   6.110  0.8163 -0.3971  0.2501
 8262SOL    HW136248   0.069   0.828   6.071 -1.6813 -1.1183 -1.0647
 8262SOL    HW236249   4.705   0.711   6.112  0.6183  0.1389 -1.0345
 8263SOL     OW36250   1.929   0.536  17.481  0.5040 -0.4580 -0.1776
 8263SOL    HW136251   1.894   0.556  17.394  2.9271  1.7253 -0.6622
 8263SOL    HW236252   2.018   0.507  17.461  0.6773 -1.4578  2.1137
 8264SOL     OW36253   1.354   1.589   6.443  0.1302 -0.5317 -0.7494
 8264SOL    HW136254   1.375   1.670   6.396 -0.6115 -0.0080 -0.1883
 8264SOL    HW236255   1.380   1.522   6.379 -1.1869  1.1565 -3.0576
 8265SOL     OW36256   3.694   4.042   0.323  0.0022 -0.4223 -0.1036
 8265SOL    HW136257   3.600   4.037   0.342  0.0259  0.3951  0.2400
 8265SOL    HW236258   3.728   4.131   0.334 -0.8788 -0.3474  2.1557
 8266SOL     OW36259   2.766   0.221   7.913 -0.3342 -0.4594  0.0407
 8266SOL    HW136260   2.713   0.250   7.987 -0.7265  2.4554 -1.3581
 8266SOL    HW236261   2.708   0.238   7.838  0.7527 -0.1762 -0.7380
 8267SOL     OW36262   2.188   1.678   6.351 -0.1415  0.3771 -0.3152
 8267SOL    HW136263   2.232   1.604   6.310 -0.5861 -0.3646  0.5537
 8267SOL    HW236264   2.096   1.673   6.324 -0.0200  0.2096 -0.7071
 8268SOL     OW36265   3.662   3.953  15.966  0.2133  1.0570 -0.0738
 8268SOL    HW136266   3.603   3.891  15.923  0.2224  1.2515 -0.3727
 8268SOL    HW236267   3.708   3.904  16.034 -0.5029  0.5158  0.0192
 8269SOL     OW36268   2.834   0.776  14.043  0.0933 -0.5628  0.1119
 8269SOL    HW136269   2.864   0.842  14.106 -1.0127  0.2307 -0.1996
 8269SOL    HW236270   2.744   0.795  14.017  0.7501  1.9247 -0.3206
 8270SOL     OW36271   0.794   3.785   7.063  0.2129 -0.1216 -1.0167
 8270SOL    HW136272   0.874   3.816   7.020  0.2382 -0.7657 -1.4161
 8270SOL    HW236273   0.729   3.784   6.993  2.5088 -0.9336 -3.1267
 8271SOL     OW36274   4.304   4.600  12.789  0.6597  0.2724  0.3343
 8271SOL    HW136275   4.270   4.611  12.878 -0.4712 -0.4107 -0.0081
 8271SOL    HW236276   4.280   4.510  12.768  1.5654 -0.1692  1.1764
 8272SOL     OW36277   0.772   3.597  10.233 -0.0934  0.7017  0.8007
 8272SOL    HW136278   0.840   3.529  10.232  0.5666  1.3923 -1.5440
 8272SOL    HW236279   0.813   3.683  10.230 -1.3950  1.4128  2.9727
 8273SOL     OW36280   1.163   3.008   8.690  0.0924  0.3363  0.4147
 8273SOL    HW136281   1.138   2.966   8.772  2.8577 -1.9902  0.0659
 8273SOL    HW236282   1.178   3.101   8.706  1.0323  0.2110  0.2532
 8274SOL     OW36283   2.263   1.970   3.195  0.1506 -0.2101  0.0964
 8274SOL    HW136284   2.315   1.970   3.115  3.2089  0.6834  2.1140
 8274SOL    HW236285   2.266   2.063   3.216 -0.7267 -0.2028  0.2240
 8275SOL     OW36286   0.935   3.984   2.507  0.3563  0.2174  0.1952
 8275SOL    HW136287   0.977   4.016   2.587  1.3279 -0.5965  0.0174
 8275SOL    HW236288   0.852   4.030   2.510 -1.2123 -2.6253 -0.1214
 8276SOL     OW36289   3.406   1.942   7.734 -0.0485 -0.0126  0.8654
 8276SOL    HW136290   3.333   1.906   7.784 -0.6974  2.8000  1.9380
 8276SOL    HW236291   3.460   1.994   7.794  0.1977 -0.8887  1.4136
 8277SOL     OW36292   3.587   4.253  11.195  0.5011 -0.2107  0.1746
 8277SOL    HW136293   3.494   4.271  11.211 -0.2540 -2.7036 -1.4957
 8277SOL    HW236294   3.638   4.290  11.267 -0.4168 -2.4198  1.9335
 8278SOL     OW36295   1.614   3.908  13.991 -0.3295 -0.3530  0.0493
 8278SOL    HW136296   1.547   3.955  13.941  1.7718  2.5106 -0.0327
 8278SOL    HW236297   1.692   3.962  13.979 -0.9843  0.4554 -0.5006
 8279SOL     OW36298   3.418   2.069   6.510 -0.5435  0.3380 -0.7886
 8279SOL    HW136299   3.379   1.998   6.560  0.6563  0.1814 -0.0778
 8279SOL    HW236300   3.335   2.116   6.501 -0.6469 -0.2880 -3.2747
 8280SOL     OW36301   0.136   1.227   1.435 -0.0853  0.2887  0.1205
 8280SOL    HW136302   0.172   1.315   1.434  0.3170  0.1264  0.5210
 8280SOL    HW236303   0.090   1.207   1.517  2.2069 -1.9670  0.8521
 8281SOL     OW36304   1.760   2.392   7.758 -0.1404 -0.2204 -0.0515
 8281SOL    HW136305   1.693   2.437   7.809 -0.5934 -0.3178 -0.5553
 8281SOL    HW236306   1.811   2.341   7.820  0.0537  0.0228 -0.0117
 8282SOL     OW36307   2.200   3.813   3.771 -0.0315  0.3223  0.0857
 8282SOL    HW136308   2.253   3.754   3.824  0.3726 -0.0955 -0.7911
 8282SOL    HW236309   2.267   3.871   3.734  0.6565 -0.9459 -0.6557
 8283SOL     OW36310   1.539   3.399   4.955  0.2669  0.1054 -0.3135
 8283SOL    HW136311   1.505   3.347   4.882 -3.3407 -1.5297  2.4988
 8283SOL    HW236312   1.632   3.394   4.933  0.0534  1.0171 -1.4281
 8284SOL     OW36313   2.140   0.991   5.765  0.4491  0.1710  0.7569
 8284SOL    HW136314   2.123   1.012   5.857 -0.4344 -0.4660  0.7488
 8284SOL    HW236315   2.096   1.062   5.720 -3.1146  0.0501  4.0157
 8285SOL     OW36316   0.026   3.050   8.979 -0.3663 -0.5843  0.0086
 8285SOL    HW136317   0.038   2.958   9.005  0.7725 -0.0456  1.3865
 8285SOL    HW236318   4.658   3.049   8.946  0.3127 -0.2167 -1.8422
 8286SOL     OW36319   2.079   1.081   2.820 -0.3138  0.2809 -0.2891
 8286SOL    HW136320   2.003   1.110   2.770 -1.0682  1.3678  1.4997
 8286SOL    HW236321   2.150   1.112   2.762  1.4731 -0.3856  1.5603
 8287SOL     OW36322   3.217   4.589   2.458  0.1745  0.2091 -0.9035
 8287SOL    HW136323   3.286   4.614   2.520  0.5186 -2.5510 -0.1731
 8287SOL    HW236324   3.153   4.547   2.515 -0.3470  2.1966 -0.0092
 8288SOL     OW36325   0.590   3.419   7.680 -0.5316 -0.0188  0.3545
 8288SOL    HW136326   0.499   3.389   7.687 -0.5056 -0.1101  0.3003
 8288SOL    HW236327   0.586   3.498   7.627 -0.3412 -0.2328  0.0212
 8289SOL     OW36328   0.481   0.804  15.829 -0.4625  0.3406  0.4066
 8289SOL    HW136329   0.471   0.828  15.921 -3.5146  0.9793 -0.0976
 8289SOL    HW236330   0.527   0.879  15.792 -1.0620  0.9390  0.8751
 8290SOL     OW36331   3.532   3.559  16.224 -0.1609 -0.7171 -0.3591
 8290SOL    HW136332   3.582   3.604  16.292 -1.2740 -0.5861  0.3681
 8290SOL    HW236333   3.551   3.468  16.245 -0.9363 -0.5007  1.2683
 8291SOL     OW36334   3.983   4.369   4.585  0.3584 -0.1389  0.2087
 8291SOL    HW136335   3.992   4.465   4.587  1.5534 -0.2091 -1.0838
 8291SOL    HW236336   3.999   4.350   4.677 -1.6955  2.4823  1.1158
 8292SOL     OW36337   2.534   2.592   9.277 -0.1394  0.2590 -0.0735
 8292SOL    HW136338   2.538   2.658   9.208  0.4986  0.1520 -0.1405
 8292SOL    HW236339   2.469   2.622   9.339  0.5805 -0.5056  1.0574
 8293SOL     OW36340   3.453   3.365  10.133 -0.4114  0.4249 -0.5079
 8293SOL    HW136341   3.475   3.456  10.152  0.2152  0.2458 -0.3832
 8293SOL    HW236342   3.532   3.325  10.097 -0.0896 -0.1799  0.8683
 8294SOL     OW36343   3.990   1.521   7.557 -0.4165  0.2609 -0.0300
 8294SOL    HW136344   3.910   1.567   7.533 -0.5259 -0.2330 -0.6170
 8294SOL    HW236345   3.995   1.466   7.479  1.0657 -1.1886  1.1007
 8295SOL     OW36346   0.490   3.509  11.772 -0.9810 -0.6166  0.4497
 8295SOL    HW136347   0.462   3.427  11.812  0.5605 -0.2373  2.3501
 8295SOL    HW236348   0.516   3.488  11.683  0.2408  3.4824 -0.1964
 8296SOL     OW36349   2.429   0.160   7.966  0.7493  0.0102  0.0150
 8296SOL    HW136350   2.445   0.232   7.904 -0.1519  1.3575  1.3228
 8296SOL    HW236351   2.350   0.116   7.936  1.6793 -1.3043 -0.4738
 8297SOL     OW36352   0.996   0.597  12.414  0.4037  0.2967 -0.2771
 8297SOL    HW136353   0.956   0.519  12.454  0.6777 -0.5255 -1.6174
 8297SOL    HW236354   0.918   0.633  12.373 -0.7732  0.7678  2.3920
 8298SOL     OW36355   2.429   2.338   4.029 -0.4685  0.0524 -0.2789
 8298SOL    HW136356   2.402   2.247   4.038  2.0795 -0.5442  1.4676
 8298SOL    HW236357   2.385   2.389   4.098  3.0659 -0.4539  2.3408
 8299SOL     OW36358   1.354   2.631   9.753 -0.2597  1.1873 -0.9551
 8299SOL    HW136359   1.395   2.695   9.811 -0.5779 -1.0875  1.7758
 8299SOL    HW236360   1.262   2.642   9.778 -0.4717  1.0492 -1.6574
 8300SOL     OW36361   0.614   3.250   8.139  0.7837  0.5166 -0.3702
 8300SOL    HW136362   0.670   3.320   8.173 -0.1060  0.5100  1.1224
 8300SOL    HW236363   0.542   3.300   8.101 -0.9940 -0.6029  1.5248
 8301SOL     OW36364   2.479   0.760  13.603  0.0804  0.7704 -0.0088
 8301SOL    HW136365   2.501   0.771  13.511 -0.3582  0.1275 -0.1889
 8301SOL    HW236366   2.533   0.832  13.634  0.2949  0.6054 -0.0004
 8302SOL     OW36367   3.654   0.265   7.299 -0.2157  0.2226 -0.2168
 8302SOL    HW136368   3.602   0.345   7.294 -2.2348 -0.9205  2.9150
 8302SOL    HW236369   3.714   0.295   7.367 -1.0847  1.1214  0.1552
 8303SOL     OW36370   3.401   3.055   6.459  0.1190 -0.6141 -0.4241
 8303SOL    HW136371   3.497   3.056   6.466 -0.0599 -1.8496  2.0103
 8303SOL    HW236372   3.397   3.079   6.367  1.9283 -0.3476 -0.4344
 8304SOL     OW36373   2.769   3.451  10.688 -0.0687 -0.0949 -0.0605
 8304SOL    HW136374   2.719   3.533  10.693 -2.3807 -1.5692  0.6536
 8304SOL    HW236375   2.729   3.398  10.757  1.0961 -2.6181 -1.3529
 8305SOL     OW36376   1.824   1.988   4.517  0.1831 -0.4374  0.5123
 8305SOL    HW136377   1.812   2.051   4.588 -1.2826  0.7503 -0.7819
 8305SOL    HW236378   1.900   2.032   4.477 -1.8887 -0.6059 -3.6639
 8306SOL     OW36379   3.609   3.466   5.422  0.7148 -0.1070  0.1451
 8306SOL    HW136380   3.654   3.410   5.358 -1.0775 -1.4046  0.0044
 8306SOL    HW236381   3.547   3.519   5.372 -1.1107 -0.3527  2.1597
 8307SOL     OW36382   3.654   2.985   4.218  0.6277  0.0069  0.1477
 8307SOL    HW136383   3.571   2.939   4.228  1.1040 -0.3807  2.3166
 8307SOL    HW236384   3.629   3.031   4.138  2.1032 -0.2459 -0.4572
 8308SOL     OW36385   0.024   2.679  10.779  0.5467  0.1896 -0.0894
 8308SOL    HW136386   0.036   2.646  10.868  0.8408  0.8004  0.1011
 8308SOL    HW236387   4.657   2.654  10.752 -0.3918  0.0010  3.1335
 8309SOL     OW36388   0.099   2.386   4.268 -0.0267 -0.9149  0.2893
 8309SOL    HW136389   0.089   2.389   4.173 -0.2430  2.3103  0.4138
 8309SOL    HW236390   0.019   2.338   4.289 -0.4448 -0.7474 -0.8944
 8310SOL     OW36391   1.260   3.387  12.087 -0.5154  0.0911  0.1812
 8310SOL    HW136392   1.312   3.428  12.018 -1.9522  0.9919 -0.3672
 8310SOL    HW236393   1.173   3.417  12.059 -0.2193  0.0222 -0.8258
 8311SOL     OW36394   0.165   4.290   4.706 -0.4033  0.0473 -0.0636
 8311SOL    HW136395   0.250   4.250   4.725 -0.0644  1.1924  0.8316
 8311SOL    HW236396   0.115   4.208   4.709 -2.0176  0.8994 -3.1944
 8312SOL     OW36397   3.411   0.557   6.867 -0.3271 -0.0103 -0.2936
 8312SOL    HW136398   3.408   0.461   6.861  1.3572 -0.1495  0.9649
 8312SOL    HW236399   3.499   0.557   6.906 -1.2156 -0.8547  1.6853
 8313SOL     OW36400   1.407   3.279   1.694  0.1031  0.2783  0.0140
 8313SOL    HW136401   1.324   3.319   1.720  0.5553  0.6966  0.8577
 8313SOL    HW236402   1.472   3.304   1.761 -2.0851  2.4653  1.3212
 8314SOL     OW36403   4.560   4.547   0.741  0.4903  0.6083  0.3671
 8314SOL    HW136404   4.517   4.576   0.822  0.6618  0.0967  0.6447
 8314SOL    HW236405   4.569   4.455   0.767 -0.7354  0.8727  1.7443
 8315SOL     OW36406   0.192   2.702   3.279  0.3629 -0.5409 -0.1838
 8315SOL    HW136407   0.226   2.772   3.335  1.6478 -0.1142 -1.4962
 8315SOL    HW236408   0.233   2.623   3.315 -2.0757 -1.8789 -0.3382
 8316SOL     OW36409   3.853   2.959   4.763 -0.0874 -0.0832 -0.0367
 8316SOL    HW136410   3.789   2.888   4.759  2.4832 -2.3545 -0.0952
 8316SOL    HW236411   3.818   3.010   4.689  0.4934  1.4975  0.7736
 8317SOL     OW36412   1.553   4.489   7.992 -0.3856  1.0953  0.2170
 8317SOL    HW136413   1.495   4.521   8.061 -1.8765  0.3756 -0.7122
 8317SOL    HW236414   1.542   4.397   8.014 -0.2304  0.8875 -0.5662
 8318SOL     OW36415   4.378   3.337   7.717 -0.0728  0.8321  0.3606
 8318SOL    HW136416   4.455   3.293   7.679  0.0863  0.4109  1.1941
 8318SOL    HW236417   4.338   3.349   7.631 -0.1014  0.3517  0.3086
 8319SOL     OW36418   2.244   2.071   0.218 -0.0019  0.1001 -0.0837
 8319SOL    HW136419   2.179   2.048   0.153  1.1883  1.1926 -1.6704
 8319SOL    HW236420   2.188   2.084   0.294  0.6245 -1.3056  0.6152
 8320SOL     OW36421   3.390   3.756   1.017  0.0242 -0.1559 -0.7681
 8320SOL    HW136422   3.299   3.786   1.007 -0.6712 -1.5303  1.5873
 8320SOL    HW236423   3.444   3.835   1.011  1.2973 -1.0897 -1.6271
 8321SOL     OW36424   2.189   3.088   9.234  0.0987  0.6973 -0.5013
 8321SOL    HW136425   2.272   3.082   9.187  1.9191  0.5894  2.7752
 8321SOL    HW236426   2.196   3.015   9.295 -1.0917  0.1472 -1.0168
 8322SOL     OW36427   4.386   0.742  13.107 -0.3504  0.0112 -0.4907
 8322SOL    HW136428   4.311   0.692  13.076 -1.0256 -0.1139  1.3377
 8322SOL    HW236429   4.438   0.730  13.028 -1.6117  0.1969 -1.3486
 8323SOL     OW36430   3.162   2.096   8.910  0.0961  0.4190  0.0734
 8323SOL    HW136431   3.224   2.103   8.838  0.1649  1.1754  0.2065
 8323SOL    HW236432   3.098   2.161   8.881 -2.1654 -1.7070  0.3559
 8324SOL     OW36433   1.474   0.122   3.645  0.1044 -0.2664  0.4964
 8324SOL    HW136434   1.563   0.158   3.646 -0.3573  0.9431 -2.0160
 8324SOL    HW236435   1.414   0.196   3.637  2.6167  1.5835 -1.4227
 8325SOL     OW36436   4.661   2.202   1.756  0.5161  0.2364  0.5899
 8325SOL    HW136437   4.567   2.194   1.740  0.6551 -1.2807  0.5953
 8325SOL    HW236438   4.680   2.294   1.775 -0.2088  0.1913  1.5703
 8326SOL     OW36439   1.356   4.147   6.359 -0.4227  0.1502  1.1508
 8326SOL    HW136440   1.342   4.069   6.412 -1.5607  0.1893  0.9072
 8326SOL    HW236441   1.346   4.110   6.271 -0.5239 -0.3113  1.3562
 8327SOL     OW36442   1.114   1.097   6.703  0.4281 -0.2811  0.1501
 8327SOL    HW136443   1.081   1.058   6.784 -0.6463 -1.3261 -0.7838
 8327SOL    HW236444   1.071   1.037   6.641  0.2008 -1.3098  1.3026
 8328SOL     OW36445   3.486   0.774   8.075 -0.3106 -0.5314 -0.1420
 8328SOL    HW136446   3.455   0.692   8.113  0.8499  0.0432  2.0419
 8328SOL    HW236447   3.478   0.842   8.142 -3.1024  0.4602 -1.4861
 8329SOL     OW36448   1.733   2.570   2.692 -0.0984  0.0783  0.2309
 8329SOL    HW136449   1.638   2.562   2.689 -0.1763  0.9130  0.5350
 8329SOL    HW236450   1.750   2.664   2.692  1.4342 -0.1894  1.2177
 8330SOL     OW36451   0.663   4.338  15.248 -0.1392 -0.3113  0.2696
 8330SOL    HW136452   0.703   4.298  15.171 -1.0852 -3.1584  1.2594
 8330SOL    HW236453   0.721   4.406  15.283 -2.1760  1.4763  0.1053
 8331SOL     OW36454   2.806   2.175   2.830 -0.1456  0.6888  0.2430
 8331SOL    HW136455   2.826   2.214   2.744 -3.0481 -2.2385 -1.7690
 8331SOL    HW236456   2.769   2.089   2.809  0.2777  0.2493  1.3032
 8332SOL     OW36457   2.980   3.039  10.024  0.6933  0.2740 -0.4619
 8332SOL    HW136458   3.058   2.995   9.990 -0.4239 -2.6013  0.7048
 8332SOL    HW236459   2.924   3.037   9.946  0.7795  1.4264 -0.5477
 8333SOL     OW36460   0.106   2.758   4.175  0.2071 -0.0800  0.3217
 8333SOL    HW136461   0.148   2.704   4.241  3.0634 -0.5735 -1.8716
 8333SOL    HW236462   0.039   2.793   4.234 -0.3323  0.7001 -0.7489
 8334SOL     OW36463   4.392   2.382  16.308  0.1385  0.2188  0.2836
 8334SOL    HW136464   4.354   2.424  16.231  0.9272  1.1449  0.3957
 8334SOL    HW236465   4.480   2.419  16.299 -0.1458  0.9301  0.3816
 8335SOL     OW36466   4.662   0.287   4.204  0.5432 -0.0301  0.2001
 8335SOL    HW136467   4.685   0.235   4.127  1.2683  1.6024 -0.6862
 8335SOL    HW236468   4.682   0.222   4.271 -1.9291 -0.4647  0.5172
 8336SOL     OW36469   2.800   0.790   0.502  0.2731 -0.2246 -0.0955
 8336SOL    HW136470   2.746   0.774   0.424 -0.9099  0.2854  0.6147
 8336SOL    HW236471   2.839   0.705   0.520 -1.6401 -0.9302  0.7565
 8337SOL     OW36472   0.215   3.256  15.589 -0.6272 -0.0614  0.5751
 8337SOL    HW136473   0.147   3.252  15.522  0.2904 -0.8727 -0.3100
 8337SOL    HW236474   0.285   3.202  15.552 -0.3979 -0.5214  1.6740
 8338SOL     OW36475   4.569   1.956   3.484  0.5615 -0.5410 -0.1878
 8338SOL    HW136476   4.477   1.972   3.465  0.6201 -0.7923 -0.6649
 8338SOL    HW236477   4.609   1.987   3.403 -0.4073 -0.0912 -0.4948
 8339SOL     OW36478   4.095   3.808  13.895  0.0295  0.6974 -0.6605
 8339SOL    HW136479   4.125   3.736  13.838 -1.7779 -0.8952  0.4152
 8339SOL    HW236480   4.073   3.760  13.975  5.0190  1.1519  1.0061
 8340SOL     OW36481   2.514   2.286   1.613  0.1396  0.1486 -0.1568
 8340SOL    HW136482   2.587   2.294   1.551  0.9391 -0.1203  0.7511
 8340SOL    HW236483   2.462   2.222   1.564  0.7124 -1.6488  1.5768
 8341SOL     OW36484   4.561   1.968  10.359 -0.0033 -0.1406  0.4274
 8341SOL    HW136485   4.588   1.977  10.450 -2.0494 -0.7171  1.1016
 8341SOL    HW236486   4.516   1.884  10.364  1.9785 -1.3193 -1.5805
 8342SOL     OW36487   1.040   1.138   7.433 -0.2894 -0.1045  0.3081
 8342SOL    HW136488   1.028   1.059   7.381  0.3755 -0.3047  0.4606
 8342SOL    HW236489   1.130   1.135   7.464 -0.5123 -1.4995  0.8292
 8343SOL     OW36490   4.587   4.485  15.619 -0.1419  0.1406  0.8021
 8343SOL    HW136491   4.528   4.561  15.616 -1.1116 -0.6113  0.8566
 8343SOL    HW236492   4.644   4.497  15.694 -0.9205 -1.6289  1.6793
 8344SOL     OW36493   2.447   0.840  10.610 -0.6472  0.1565  0.1520
 8344SOL    HW136494   2.365   0.812  10.569 -0.8721  1.1100 -0.0372
 8344SOL    HW236495   2.499   0.761  10.623 -1.9191 -0.7372 -0.2544
 8345SOL     OW36496   3.457   4.266   6.457  0.3460  0.4042  0.1413
 8345SOL    HW136497   3.537   4.260   6.509  0.2461 -2.0911  0.0196
 8345SOL    HW236498   3.425   4.356   6.456 -1.8256 -0.3630 -0.8342
 8346SOL     OW36499   4.644   4.291   3.067 -0.1366  0.0838  0.8869
 8346SOL    HW136500   4.593   4.281   2.987  1.2447  1.8753 -0.2029
 8346SOL    HW236501   4.587   4.239   3.124 -1.6360 -0.7480 -1.3996
 8347SOL     OW36502   3.595   1.238   8.812  0.7444  0.6306 -0.1869
 8347SOL    HW136503   3.516   1.196   8.845  0.1972  0.8977 -1.1628
 8347SOL    HW236504   3.599   1.316   8.867  0.4720 -0.3516  1.2328
 8348SOL     OW36505   2.354   2.733  10.849  0.1201 -0.3166  0.1934
 8348SOL    HW136506   2.354   2.799  10.918 -1.6785 -1.6144  1.4275
 8348SOL    HW236507   2.428   2.674  10.865 -0.1878 -1.1093 -1.3467
 8349SOL     OW36508   1.334   2.436  15.863 -0.0091 -0.1215 -0.5642
 8349SOL    HW136509   1.253   2.477  15.894 -1.5278 -2.5567 -1.3453
 8349SOL    HW236510   1.307   2.347  15.844 -1.9037  0.0875  1.1406
 8350SOL     OW36511   2.819   2.307   6.292  0.8556 -0.0083  0.4200
 8350SOL    HW136512   2.911   2.305   6.268  0.3723 -0.3298 -1.4223
 8350SOL    HW236513   2.775   2.274   6.213 -0.2864  0.5306  0.8294
 8351SOL     OW36514   2.801   2.661  12.246  0.5945  0.3630 -0.5960
 8351SOL    HW136515   2.794   2.705  12.331  1.3271 -2.7719  1.1049
 8351SOL    HW236516   2.713   2.627  12.232  0.7434 -0.2823 -0.0018
 8352SOL     OW36517   2.080   1.191  17.470  0.2749  0.2470  0.2359
 8352SOL    HW136518   2.030   1.151  17.541  0.3503  0.2494  0.2903
 8352SOL    HW236519   2.167   1.165  17.501  0.1077 -1.0763 -0.4066
 8353SOL     OW36520   2.134   1.531  10.417 -0.5900  0.0648 -0.8102
 8353SOL    HW136521   2.169   1.558  10.332 -2.2260  0.0997 -1.4704
 8353SOL    HW236522   2.140   1.436  10.405  0.5982 -0.2049  1.7082
 8354SOL     OW36523   3.352   0.210   4.264  0.0420  0.0668  0.0711
 8354SOL    HW136524   3.432   0.233   4.219 -1.2310  1.3734 -1.5182
 8354SOL    HW236525   3.310   0.148   4.204 -0.4867  0.5008 -0.0142
 8355SOL     OW36526   0.867   3.864  10.233 -0.3671 -0.4099 -0.7807
 8355SOL    HW136527   0.939   3.852  10.171  0.7997  1.5363  0.2055
 8355SOL    HW236528   0.817   3.919  10.173  0.2666 -1.0715 -1.9264
 8356SOL     OW36529   4.109   3.125   7.812 -0.5851 -0.0392 -0.0547
 8356SOL    HW136530   4.048   3.133   7.739 -1.0269  0.7137  0.3968
 8356SOL    HW236531   4.185   3.089   7.765 -0.2464 -1.0081  1.2390
 8357SOL     OW36532   2.208   3.707  11.892 -0.0127  0.3075 -0.8471
 8357SOL    HW136533   2.183   3.716  11.983  2.1247 -1.0711 -0.1239
 8357SOL    HW236534   2.297   3.675  11.904  0.7479  3.0756  0.9146
 8358SOL     OW36535   3.660   3.753   4.525 -0.0388  0.2965 -0.0861
 8358SOL    HW136536   3.592   3.786   4.466 -2.6535 -0.6892  2.3515
 8358SOL    HW236537   3.624   3.681   4.577  0.4203  0.4080  0.4002
 8359SOL     OW36538   3.221   0.432  15.953 -0.1118  0.2702  0.2372
 8359SOL    HW136539   3.312   0.458  15.963  0.1624 -0.3590 -0.5485
 8359SOL    HW236540   3.187   0.515  15.920  0.6576  0.6020  0.2915
 8360SOL     OW36541   1.459   2.341   7.492 -0.3289  0.4976 -0.0220
 8360SOL    HW136542   1.423   2.413   7.544  0.0429  0.2752  0.5532
 8360SOL    HW236543   1.546   2.338   7.533 -0.7747  0.0621  0.9069
 8361SOL     OW36544   2.394   3.331  16.707 -0.4930 -0.8487 -0.1356
 8361SOL    HW136545   2.329   3.400  16.714  2.6349  2.0516  0.4327
 8361SOL    HW236546   2.416   3.318  16.799 -1.1740 -1.5938 -0.0775
 8362SOL     OW36547   1.364   4.279   5.594 -0.1144  0.2894 -0.1492
 8362SOL    HW136548   1.292   4.338   5.619 -0.0966 -0.4118  1.5454
 8362SOL    HW236549   1.326   4.192   5.608  0.4290 -0.1375 -1.2944
 8363SOL     OW36550   4.188   3.075  16.263  0.4635  0.0906 -0.4382
 8363SOL    HW136551   4.246   3.012  16.218 -0.0912 -1.9922  1.7620
 8363SOL    HW236552   4.130   3.101  16.192  0.8332 -3.3468 -1.9966
 8364SOL     OW36553   1.155   2.615   2.784 -0.1681  0.2893 -0.3149
 8364SOL    HW136554   1.139   2.705   2.756  0.9140  0.8343  0.8012
 8364SOL    HW236555   1.084   2.576   2.734 -1.3293  1.4447  0.4194
 8365SOL     OW36556   3.394   3.461   6.735  0.7813 -0.0108  0.2534
 8365SOL    HW136557   3.483   3.431   6.713  0.0399 -1.8452 -0.2102
 8365SOL    HW236558   3.391   3.544   6.686  0.5308  0.5955  1.3016
 8366SOL     OW36559   0.389   1.607   5.743  0.3689 -0.0500 -0.3468
 8366SOL    HW136560   0.447   1.562   5.804  0.5405  1.5950  0.7228
 8366SOL    HW236561   0.363   1.534   5.687  0.2149 -0.1154 -0.1883
 8367SOL     OW36562   0.189   0.759   4.099  0.0171 -0.6292 -0.3060
 8367SOL    HW136563   0.149   0.841   4.072 -2.1992 -0.8377  2.4718
 8367SOL    HW236564   0.125   0.694   4.070  0.5302 -0.4394 -1.8566
 8368SOL     OW36565   0.205   3.503  10.195  0.6788  0.4503 -0.0968
 8368SOL    HW136566   0.113   3.508  10.223  0.2679 -0.0452 -1.3587
 8368SOL    HW236567   0.214   3.573  10.131  0.0084 -0.4380 -1.1636
 8369SOL     OW36568   1.474   4.379   0.859  0.2225  0.0586  0.0007
 8369SOL    HW136569   1.542   4.367   0.925  0.2133  1.1070  0.2004
 8369SOL    HW236570   1.508   4.333   0.782  0.2103 -3.4374  2.1344
 8370SOL     OW36571   0.199   2.269   4.492 -0.9782  1.2465  0.7757
 8370SOL    HW136572   0.185   2.310   4.406  0.5159  0.1466  0.0107
 8370SOL    HW236573   0.193   2.177   4.465 -0.1309  1.3159  0.3658
 8371SOL     OW36574   1.231   1.201   2.381  0.2159  0.0908  0.5475
 8371SOL    HW136575   1.211   1.294   2.388 -0.7929  0.0175 -1.4382
 8371SOL    HW236576   1.290   1.182   2.455  0.3785  1.3937  0.7470
 8372SOL     OW36577   4.507   3.113   0.258  0.1377 -0.3046  0.9279
 8372SOL    HW136578   4.453   3.135   0.181  0.0751 -0.3031  0.9720
 8372SOL    HW236579   4.587   3.142   0.215 -0.7985  0.1552 -0.5188
 8373SOL     OW36580   1.297   3.170  12.219  0.5283 -0.5851  0.1777
 8373SOL    HW136581   1.286   3.250  12.167 -2.6841  0.1344  2.0189
 8373SOL    HW236582   1.384   3.196  12.249  0.0482  0.0966  0.9459
 8374SOL     OW36583   0.316   0.333  14.897  0.8955 -0.3662 -0.1228
 8374SOL    HW136584   0.361   0.264  14.947 -0.4924 -1.2629 -0.1231
 8374SOL    HW236585   0.373   0.406  14.921  1.8985 -0.5350 -1.9862
 8375SOL     OW36586   0.133   0.498   7.444  0.0945 -0.4839 -0.0797
 8375SOL    HW136587   0.099   0.480   7.532 -0.2318 -4.1043 -0.9168
 8375SOL    HW236588   0.170   0.586   7.444  1.3168 -0.9938 -0.7846
 8376SOL     OW36589   2.144   0.049  11.743  0.7486  0.1700 -0.3672
 8376SOL    HW136590   2.071   0.030  11.684  3.0947 -1.4643 -2.6874
 8376SOL    HW236591   2.120   4.720  11.821 -2.4649  2.9875  0.4867
 8377SOL     OW36592   0.171   1.920   3.335 -0.0030 -0.2503  0.0379
 8377SOL    HW136593   0.264   1.901   3.317  0.2954  0.5925  0.6782
 8377SOL    HW236594   0.137   1.926   3.246 -0.3899  1.3062  0.2926
 8378SOL     OW36595   4.226   3.643  16.590  0.2991  0.0113  0.3729
 8378SOL    HW136596   4.146   3.672  16.633  0.6045 -0.3338  1.1779
 8378SOL    HW236597   4.271   3.727  16.574 -1.8816  0.8186 -1.5652
 8379SOL     OW36598   3.191   2.152   6.759 -0.2105  0.3047  0.0276
 8379SOL    HW136599   3.203   2.061   6.731 -1.3437  0.4754 -1.0238
 8379SOL    HW236600   3.196   2.190   6.672 -2.0313  0.2464 -0.1036
 8380SOL     OW36601   1.668   3.582   4.061 -0.0080  0.1295 -0.3633
 8380SOL    HW136602   1.760   3.606   4.049  0.2638 -0.5246  0.4008
 8380SOL    HW236603   1.631   3.611   3.977 -0.7961  3.6135  1.1997
 8381SOL     OW36604   0.739   0.877   3.781  0.7322 -0.2401  0.7534
 8381SOL    HW136605   0.707   0.815   3.716  1.8858 -0.0175 -0.0250
 8381SOL    HW236606   0.752   0.956   3.728  0.9547 -0.4025  0.5720
 8382SOL     OW36607   2.169   3.060   6.919 -0.1034  0.3161 -0.0133
 8382SOL    HW136608   2.158   2.968   6.939 -0.0961  0.2144 -0.4641
 8382SOL    HW236609   2.080   3.097   6.916  0.3400  1.0983 -3.5265
 8383SOL     OW36610   1.103   0.369   2.792 -0.0659  0.2494 -0.8917
 8383SOL    HW136611   1.088   0.322   2.874 -1.4470  0.8674 -0.7916
 8383SOL    HW236612   1.029   0.344   2.736 -0.3598 -4.0820  1.4814
 8384SOL     OW36613   3.113   4.429   7.008 -0.0044  0.5141 -0.0461
 8384SOL    HW136614   3.081   4.348   6.968 -0.4589  1.3863 -1.4195
 8384SOL    HW236615   3.130   4.403   7.099 -1.3359 -3.2211 -0.8493
 8385SOL     OW36616   2.107   3.368   3.095 -0.0953 -0.4674  0.0671
 8385SOL    HW136617   2.095   3.450   3.144 -0.5495  0.1848 -1.1408
 8385SOL    HW236618   2.187   3.338   3.138 -0.4822 -3.6971 -1.4911
 8386SOL     OW36619   3.586   0.365  15.489  0.5191 -0.2382  0.2322
 8386SOL    HW136620   3.666   0.336  15.531 -0.1296  0.7487  2.1536
 8386SOL    HW236621   3.528   0.383  15.563 -1.1639  0.4919 -1.2627
 8387SOL     OW36622   3.390   3.874  13.164 -0.5354 -0.2007 -0.3668
 8387SOL    HW136623   3.314   3.817  13.173  0.7000 -1.5476  1.5902
 8387SOL    HW236624   3.357   3.964  13.160 -1.6836 -0.6570 -1.0712
 8388SOL     OW36625   2.459   3.439   3.009 -0.0987  0.3004  0.0000
 8388SOL    HW136626   2.388   3.403   2.956  0.8170  1.5516 -2.0982
 8388SOL    HW236627   2.435   3.401   3.094 -1.3202  2.0886  0.4692
 8389SOL     OW36628   0.498   4.585   6.505  0.6095 -0.3794  0.1804
 8389SOL    HW136629   0.486   4.588   6.600  1.6216  0.9565  0.2772
 8389SOL    HW236630   0.408   4.582   6.472 -0.5992  0.4611  3.4262
 8390SOL     OW36631   3.382   2.831   8.279 -0.1243 -0.5019  0.4656
 8390SOL    HW136632   3.374   2.885   8.357  2.6105  1.1284 -0.3727
 8390SOL    HW236633   3.474   2.811   8.294 -0.6842 -1.9428  1.9288
 8391SOL     OW36634   1.971   3.903   0.398 -0.5131 -0.4690  0.3612
 8391SOL    HW136635   1.953   3.952   0.318 -1.4741 -0.0613  0.8196
 8391SOL    HW236636   1.969   3.812   0.369  0.3796 -0.0559 -0.9838
 8392SOL     OW36637   2.921   2.576   4.020  0.9026  0.1126  0.0290
 8392SOL    HW136638   2.999   2.551   3.970  1.3384  0.5683  0.4787
 8392SOL    HW236639   2.868   2.498   4.009 -1.1291  1.4742  0.2521
 8393SOL     OW36640   4.547   1.067   2.464 -0.4038  0.4063 -0.2347
 8393SOL    HW136641   4.620   1.068   2.525 -0.4079  0.7581 -0.2363
 8393SOL    HW236642   4.506   0.987   2.496  1.0622 -1.2376 -2.4362
 8394SOL     OW36643   1.985   2.995   6.249  0.3114 -0.8008  0.7836
 8394SOL    HW136644   2.039   3.022   6.175 -1.9162 -0.9225 -0.8920
 8394SOL    HW236645   2.038   3.030   6.321  0.7801 -0.9772  0.5215
 8395SOL     OW36646   1.134   2.813  11.951 -0.6492 -1.2346  0.1444
 8395SOL    HW136647   1.101   2.739  12.003  1.0163 -0.6172  2.0455
 8395SOL    HW236648   1.198   2.765  11.898  0.6827 -1.3917  1.9300
 8396SOL     OW36649   2.718   3.766   3.902 -0.4646 -0.2362 -0.4410
 8396SOL    HW136650   2.657   3.779   3.975 -1.9883 -0.4814 -1.6784
 8396SOL    HW236651   2.778   3.839   3.918 -2.4558  0.5125  3.5466
 8397SOL     OW36652   1.555   3.489   5.700  0.0168  0.3415  0.5405
 8397SOL    HW136653   1.629   3.550   5.707 -0.9299  1.2464  2.6322
 8397SOL    HW236654   1.514   3.482   5.786 -1.9048  1.7529 -0.2600
 8398SOL     OW36655   3.235   0.200   2.922  0.1030 -0.0437 -0.4740
 8398SOL    HW136656   3.194   0.183   3.007  1.4050  2.5880  0.7062
 8398SOL    HW236657   3.314   0.153   2.946  0.0880  0.2891  0.2384
 8399SOL     OW36658   2.949   3.005   4.971 -0.6254 -0.3944  0.8082
 8399SOL    HW136659   2.965   3.099   4.968 -1.8162 -0.2184 -0.3620
 8399SOL    HW236660   2.883   3.004   5.040 -1.5893 -1.3691 -0.1088
 8400SOL     OW36661   1.195   3.271   6.667  0.2342  0.3208  0.5557
 8400SOL    HW136662   1.206   3.185   6.707  1.6309 -0.1622 -0.8665
 8400SOL    HW236663   1.099   3.275   6.664  0.2049 -0.8283 -0.3410
 8401SOL     OW36664   2.154   3.718   1.491 -0.0507  0.0128  0.4741
 8401SOL    HW136665   2.118   3.798   1.529  1.3344  0.8856 -0.0424
 8401SOL    HW236666   2.124   3.651   1.553  2.3908 -0.6708  0.9345
 8402SOL     OW36667   3.425   0.598  10.877  0.4189  0.0485 -0.1740
 8402SOL    HW136668   3.515   0.568  10.865 -0.0479 -0.7610 -1.6677
 8402SOL    HW236669   3.424   0.611  10.972  0.5634  1.4670 -0.3739
 8403SOL     OW36670   2.258   3.058   4.264 -0.3348  0.5448  0.1090
 8403SOL    HW136671   2.191   3.024   4.324  2.4728 -1.1776  2.2414
 8403SOL    HW236672   2.247   3.153   4.275 -0.6683  0.5335 -0.1106
 8404SOL     OW36673   4.225   3.783  14.484  0.3021 -0.0213 -0.0804
 8404SOL    HW136674   4.222   3.833  14.403 -3.1316  0.9880  0.6934
 8404SOL    HW236675   4.245   3.698  14.444 -0.1153 -0.6056  0.9424
 8405SOL     OW36676   0.974   4.125  16.749  0.1532  0.0603  0.0052
 8405SOL    HW136677   0.895   4.160  16.707 -0.4726 -1.1171  0.2034
 8405SOL    HW236678   1.046   4.135  16.687  1.4490  0.8252  1.6120
 8406SOL     OW36679   1.707   0.362   4.478 -0.0414  0.0423 -0.1785
 8406SOL    HW136680   1.696   0.449   4.438 -1.1201 -0.4317 -0.9248
 8406SOL    HW236681   1.696   0.386   4.570 -1.2129  0.1849 -0.3475
 8407SOL     OW36682   2.355   0.308   8.752 -0.4835  0.2441  0.3172
 8407SOL    HW136683   2.436   0.265   8.778 -0.2411  0.8840  0.6144
 8407SOL    HW236684   2.297   0.250   8.801 -0.8734  2.5794  2.6330
 8408SOL     OW36685   1.698   1.688   7.564 -0.2000 -0.0999  0.3504
 8408SOL    HW136686   1.721   1.780   7.580  1.1217 -0.3676 -0.0145
 8408SOL    HW236687   1.784   1.646   7.560 -0.7413 -1.2430  0.7563
 8409SOL     OW36688   0.816   4.181  17.435  0.7975  0.1311  0.1153
 8409SOL    HW136689   0.876   4.223  17.496  1.8262  1.2501 -1.6557
 8409SOL    HW236690   0.870   4.158  17.359  0.9265  0.6303  0.0575
 8410SOL     OW36691   1.632   1.702   9.868 -0.3509 -0.2308 -0.1649
 8410SOL    HW136692   1.625   1.738   9.956 -0.5997 -4.7002  1.6477
 8410SOL    HW236693   1.543   1.678   9.842  0.0827 -0.5093 -1.3994
 8411SOL     OW36694   1.367   2.580   7.630  0.3756 -1.0776  0.1189
 8411SOL    HW136695   1.299   2.647   7.628  1.7137  0.2676 -0.4553
 8411SOL    HW236696   1.443   2.635   7.651  0.1531  0.1747 -2.3985
 8412SOL     OW36697   2.620   0.242  10.616 -0.6502  0.1814 -0.3931
 8412SOL    HW136698   2.637   0.159  10.572  2.3531  0.0717  0.9580
 8412SOL    HW236699   2.699   0.293  10.635 -1.3026  1.2175 -0.4757
 8413SOL     OW36700   3.166   1.284   4.182 -0.2676 -0.0119  0.4007
 8413SOL    HW136701   3.169   1.368   4.137 -1.2523  0.9930  2.2336
 8413SOL    HW236702   3.257   1.260   4.161 -0.9805 -2.5254  0.1922
 8414SOL     OW36703   0.821   1.589   2.673  0.0671  0.6075 -0.7586
 8414SOL    HW136704   0.795   1.504   2.710  0.1445  0.4920 -0.9658
 8414SOL    HW236705   0.757   1.652   2.704 -1.3124 -0.8120 -0.7266
 8415SOL     OW36706   2.954   1.112  11.306  0.2698  0.2082  0.2678
 8415SOL    HW136707   2.889   1.176  11.279 -0.0470  0.1854  0.9670
 8415SOL    HW236708   2.962   1.140  11.397 -0.8720 -1.4623  0.8973
 8416SOL     OW36709   2.465   4.375   1.513 -0.2445  0.0804 -0.5528
 8416SOL    HW136710   2.516   4.439   1.562 -1.6983 -0.8477  2.1504
 8416SOL    HW236711   2.527   4.351   1.443 -0.9880  0.0857 -1.2118
 8417SOL     OW36712   2.168   1.699   2.912  0.5478 -0.4380  0.4143
 8417SOL    HW136713   2.116   1.684   2.991  1.4690 -1.0073  0.9026
 8417SOL    HW236714   2.095   1.714   2.851 -1.7101 -2.2007  2.6545
 8418SOL     OW36715   1.318   3.700   2.202  0.3132 -0.1530  0.2803
 8418SOL    HW136716   1.399   3.664   2.167  0.8652  0.2401  1.1553
 8418SOL    HW236717   1.350   3.780   2.243 -0.0556  0.1523 -0.0252
 8419SOL     OW36718   3.944   1.080   5.483 -0.1995  0.0904 -0.3025
 8419SOL    HW136719   3.989   1.142   5.541 -0.3862 -0.3839  0.3489
 8419SOL    HW236720   3.899   1.031   5.552  0.7913 -0.5704 -0.1148
 8420SOL     OW36721   4.319   1.209   2.367 -0.1325  0.0469  0.7649
 8420SOL    HW136722   4.401   1.164   2.390 -0.3671  0.3598  2.2128
 8420SOL    HW236723   4.308   1.175   2.279  0.6006 -1.0839  1.1026
 8421SOL     OW36724   2.355   2.016   5.601  0.3750  0.4606  0.3084
 8421SOL    HW136725   2.334   2.005   5.694 -1.7040  2.2002  0.0475
 8421SOL    HW236726   2.285   1.965   5.560  1.1064  0.7521 -1.3091
 8422SOL     OW36727   1.248   1.755  10.089  0.5797 -0.2504 -0.2672
 8422SOL    HW136728   1.221   1.830  10.141  2.3515 -0.0191  0.3160
 8422SOL    HW236729   1.294   1.789  10.012  2.4788  0.2410  1.0612
 8423SOL     OW36730   3.280   1.745   7.865  0.3486 -0.0489  0.0922
 8423SOL    HW136731   3.315   1.657   7.851 -0.3437 -0.3666  0.3508
 8423SOL    HW236732   3.192   1.739   7.827  0.3548  0.7811 -0.0648
 8424SOL     OW36733   1.854   1.309  14.886 -0.2348  0.1734  0.3318
 8424SOL    HW136734   1.921   1.315  14.819 -0.0782 -0.8896  0.4015
 8424SOL    HW236735   1.905   1.255  14.947  0.8554  1.5482  0.6626
 8425SOL     OW36736   2.567   0.015   1.896  0.1402 -0.0894 -0.0224
 8425SOL    HW136737   2.595   4.647   1.915  1.8528  0.3387 -0.4838
 8425SOL    HW236738   2.474   0.012   1.874 -0.0125  0.6828  0.5372
 8426SOL     OW36739   2.721   4.261   7.788 -0.2476  0.8550  0.0566
 8426SOL    HW136740   2.629   4.243   7.807 -0.2115 -1.2627 -1.6903
 8426SOL    HW236741   2.757   4.193   7.730 -0.7998 -1.3841  2.3473
 8427SOL     OW36742   1.006   2.840   6.160 -0.7756 -0.4390  0.5802
 8427SOL    HW136743   1.096   2.810   6.147 -0.5723  0.4517 -0.0850
 8427SOL    HW236744   0.961   2.772   6.110 -0.9283 -0.0380  0.1690
 8428SOL     OW36745   0.313   3.721  14.214 -0.3906 -0.0723 -0.0452
 8428SOL    HW136746   0.386   3.760  14.262 -0.3260 -0.7122  0.3760
 8428SOL    HW236747   0.300   3.644  14.269 -0.0494  0.4003  0.6878
 8429SOL     OW36748   2.132   4.470   4.156  0.0719 -0.2433 -0.3287
 8429SOL    HW136749   2.134   4.534   4.085 -1.4824  1.5199  1.2155
 8429SOL    HW236750   2.052   4.426   4.127 -1.9010  2.4997  0.9957
 8430SOL     OW36751   2.941   4.084   6.675 -0.0262  0.3969 -0.2441
 8430SOL    HW136752   2.931   4.144   6.748  1.3709 -0.8021  0.9306
 8430SOL    HW236753   3.036   4.085   6.660  0.6604 -2.3783  3.8780
 8431SOL     OW36754   0.645   2.538  13.131 -0.3246 -0.4107 -0.1817
 8431SOL    HW136755   0.660   2.495  13.047  1.0740  0.6783 -0.4921
 8431SOL    HW236756   0.594   2.612  13.096 -0.3588 -1.8350 -3.1178
 8432SOL     OW36757   0.671   3.528   7.133 -0.0100  0.0404  0.0305
 8432SOL    HW136758   0.721   3.473   7.073 -1.1143 -1.5562  0.6002
 8432SOL    HW236759   0.617   3.579   7.073  1.1895  0.4809 -0.6867
 8433SOL     OW36760   1.975   1.163  16.107  0.1082  0.3688  0.5598
 8433SOL    HW136761   1.899   1.209  16.141 -0.9709 -0.1859 -1.0888
 8433SOL    HW236762   1.932   1.126  16.029 -0.5092  1.5881  0.3315
 8434SOL     OW36763   4.181   2.799  10.840 -0.4989  0.4902  0.0015
 8434SOL    HW136764   4.275   2.812  10.850 -0.2669  0.9332 -2.6118
 8434SOL    HW236765   4.164   2.801  10.934 -0.7989 -0.2743 -0.0348
 8435SOL     OW36766   2.444   2.094   6.387  0.0556 -0.4308  0.2685
 8435SOL    HW136767   2.363   2.050   6.412  0.3804 -0.6328  0.9697
 8435SOL    HW236768   2.446   2.093   6.292 -0.3676  1.6294  0.2415
 8436SOL     OW36769   0.204   3.130  12.931 -0.4697 -0.0043 -0.0017
 8436SOL    HW136770   0.231   3.059  12.989  3.0103  1.7469  0.4670
 8436SOL    HW236771   0.112   3.134  12.958  0.0981 -1.5915  2.1346
 8437SOL     OW36772   3.640   2.936   1.979  0.0649 -0.5150  0.2663
 8437SOL    HW136773   3.712   2.966   2.034  0.2265  0.2438 -0.3712
 8437SOL    HW236774   3.610   2.859   2.029 -0.6883 -0.6105 -0.3330
 8438SOL     OW36775   0.852   0.616   7.946 -0.4122  0.4164  0.3170
 8438SOL    HW136776   0.825   0.678   8.014 -2.5433 -0.7988  0.6032
 8438SOL    HW236777   0.930   0.659   7.912  0.1734 -0.4025  0.6370
 8439SOL     OW36778   0.564   0.798   9.668  0.0310 -0.3243  0.0443
 8439SOL    HW136779   0.550   0.737   9.596 -1.2980  0.1102 -0.0568
 8439SOL    HW236780   0.595   0.738   9.736 -1.4001 -1.6040 -0.4465
 8440SOL     OW36781   2.377   2.744   5.446 -0.4253 -0.2174  0.8835
 8440SOL    HW136782   2.365   2.654   5.478 -2.0674 -0.1351  0.4940
 8440SOL    HW236783   2.466   2.738   5.411 -0.7105 -0.9430  0.2847
 8441SOL     OW36784   2.760   3.136  13.746 -0.1094 -0.3294 -0.1525
 8441SOL    HW136785   2.755   3.046  13.780  1.8061  0.1668  1.4320
 8441SOL    HW236786   2.701   3.133  13.670  0.4342 -1.8011 -0.5316
 8442SOL     OW36787   1.878   3.391   4.374 -0.4245 -0.3687  0.4461
 8442SOL    HW136788   1.946   3.408   4.440  1.7418 -0.0808 -1.8720
 8442SOL    HW236789   1.797   3.418   4.417  0.7257  1.1781  1.6234
 8443SOL     OW36790   0.335   1.601  16.867  0.6004  0.1452 -0.1875
 8443SOL    HW136791   0.270   1.662  16.833  0.4368 -0.7035 -1.4079
 8443SOL    HW236792   0.418   1.648  16.871  1.6908 -1.7484 -0.8076
 8444SOL     OW36793   0.823   2.212  14.041  0.3180 -0.0235  0.1600
 8444SOL    HW136794   0.727   2.208  14.037  0.1562  1.9802  1.9056
 8444SOL    HW236795   0.859   2.190  13.955  2.4709  0.1365  1.0234
 8445SOL     OW36796   3.000   4.053   1.523  0.3522 -0.0783 -0.8369
 8445SOL    HW136797   2.925   4.054   1.582  1.9151  0.3566  1.1821
 8445SOL    HW236798   2.964   4.001   1.452  1.0780 -2.3591  0.4756
 8446SOL     OW36799   0.197   2.391  11.126  0.2901 -0.1026  0.5045
 8446SOL    HW136800   0.160   2.344  11.200 -0.0242  0.3857  0.6545
 8446SOL    HW236801   0.278   2.340  11.133  1.8969  1.8278 -4.0019
 8447SOL     OW36802   1.233   1.479   2.781 -0.8008  0.3689  0.4589
 8447SOL    HW136803   1.236   1.568   2.745 -0.2445  0.0086 -0.4097
 8447SOL    HW236804   1.163   1.495   2.844  0.3532  2.6385  1.1726
 8448SOL     OW36805   0.966   0.147   2.883 -0.6128 -0.4032  0.2497
 8448SOL    HW136806   0.887   0.157   2.829 -0.2237  0.4206 -0.1637
 8448SOL    HW236807   0.967   0.052   2.891 -0.5339 -0.2337  2.3647
 8449SOL     OW36808   3.078   4.581   5.871 -0.4818  0.3811 -0.7984
 8449SOL    HW136809   3.052   4.491   5.889  0.0323  0.3885 -0.0096
 8449SOL    HW236810   3.173   4.573   5.881 -0.4487  1.5393 -0.1377
 8450SOL     OW36811   4.624   3.615   5.933 -0.3742  0.1136  0.4657
 8450SOL    HW136812   4.653   3.559   6.004 -0.1328 -2.5414 -1.7382
 8450SOL    HW236813   4.571   3.676   5.985 -1.4262 -0.1524 -0.3002
 8451SOL     OW36814   3.663   2.028   6.822 -0.2582  0.4855  0.2904
 8451SOL    HW136815   3.577   1.996   6.796  0.0274  0.6384 -0.8310
 8451SOL    HW236816   3.635   2.107   6.869  0.6971  0.7579  0.4054
 8452SOL     OW36817   2.738   1.418   0.118 -0.7490 -0.7035 -0.2538
 8452SOL    HW136818   2.691   1.370   0.186 -0.4079 -1.7824 -0.7777
 8452SOL    HW236819   2.775   1.494   0.163 -1.4694 -0.8063  0.5127
 8453SOL     OW36820   4.124   2.782   7.526  0.3737  0.4088  0.7814
 8453SOL    HW136821   4.041   2.816   7.561  0.6122  1.7395  0.0629
 8453SOL    HW236822   4.190   2.833   7.572  0.9700 -1.3589  1.8879
 8454SOL     OW36823   3.956   3.278   5.682 -0.2813 -0.3203 -0.0011
 8454SOL    HW136824   3.873   3.317   5.710  0.0450  0.3166  0.0623
 8454SOL    HW236825   3.923   3.194   5.649 -0.8218 -0.0346 -0.1889
 8455SOL     OW36826   0.465   2.992   4.138 -0.4861 -0.2281  0.1025
 8455SOL    HW136827   0.484   2.899   4.123 -2.0598 -0.4753 -0.3846
 8455SOL    HW236828   0.409   3.010   4.062 -1.2589  1.3234  1.0413
 8456SOL     OW36829   3.042   1.841  14.895 -0.4048  0.3284  0.6972
 8456SOL    HW136830   3.067   1.933  14.905  1.7284 -0.4586  2.6357
 8456SOL    HW236831   3.119   1.788  14.877 -0.3370  0.7763 -0.3278
 8457SOL     OW36832   4.215   3.876   2.792  0.3023  0.1585 -0.5539
 8457SOL    HW136833   4.233   3.802   2.734  0.8014 -0.1964  0.0519
 8457SOL    HW236834   4.244   3.947   2.736 -0.4116  0.3188 -0.7209
 8458SOL     OW36835   2.724   2.623   5.083 -0.1670  0.2154  0.1309
 8458SOL    HW136836   2.789   2.560   5.116 -1.6460 -1.5232 -0.2146
 8458SOL    HW236837   2.768   2.664   5.009 -0.3138 -0.2219 -0.2015
 8459SOL     OW36838   2.471   2.186  11.958 -0.2799  0.2228  0.2416
 8459SOL    HW136839   2.411   2.188  12.033  1.3269  2.1798  1.4594
 8459SOL    HW236840   2.437   2.253  11.899 -2.8199 -0.9160  0.3987
 8460SOL     OW36841   3.417   4.244   5.452  0.2079 -0.3773  0.2427
 8460SOL    HW136842   3.392   4.152   5.466 -1.0941  0.1250  1.0944
 8460SOL    HW236843   3.404   4.270   5.361 -2.0809  0.7232  0.8813
 8461SOL     OW36844   1.854   3.943   3.935  0.7019 -0.2172  0.1587
 8461SOL    HW136845   1.788   3.925   4.002 -0.5448  3.0457 -0.1678
 8461SOL    HW236846   1.914   3.992   3.991  0.3301  0.2733  0.1383
 8462SOL     OW36847   2.503   3.632   7.063  0.3658 -0.9832 -0.1734
 8462SOL    HW136848   2.597   3.631   7.082  0.1910 -0.1863  0.6971
 8462SOL    HW236849   2.474   3.551   7.104  0.2402 -1.1573 -0.5997
 8463SOL     OW36850   1.624   4.271   4.039  0.2215 -0.1933 -0.1226
 8463SOL    HW136851   1.642   4.286   4.132  3.1233  0.3779 -0.7828
 8463SOL    HW236852   1.533   4.243   4.050  0.3592 -1.5900 -2.7183
 8464SOL     OW36853   3.335   2.058   6.132  0.2541 -0.5823 -0.3768
 8464SOL    HW136854   3.419   2.095   6.107 -0.2647 -0.1358 -1.4778
 8464SOL    HW236855   3.361   1.991   6.196  0.5623  0.9345  1.0957
 8465SOL     OW36856   0.115   2.895   7.413  0.4195  0.0909  0.0041
 8465SOL    HW136857   0.210   2.903   7.413  0.4817 -0.7055 -1.1691
 8465SOL    HW236858   0.100   2.858   7.326  1.7574  1.4602 -0.8093
 8466SOL     OW36859   1.513   1.944  15.225  0.0508 -0.7117  0.4586
 8466SOL    HW136860   1.427   1.927  15.263 -0.7620  2.0389 -0.1547
 8466SOL    HW236861   1.541   2.000  15.297 -0.9902 -0.9139  1.0185
 8467SOL     OW36862   0.446   2.820  16.923 -0.3959  0.0987 -0.2200
 8467SOL    HW136863   0.389   2.757  16.967 -0.7584 -0.3610 -1.3495
 8467SOL    HW236864   0.533   2.779  16.928 -0.5374  0.0722  1.8482
 8468SOL     OW36865   4.552   0.202   0.872 -0.1384 -0.1333 -0.1417
 8468SOL    HW136866   4.494   0.277   0.855  1.9076  1.5302  0.2125
 8468SOL    HW236867   4.642   0.236   0.873  0.0490 -0.7512  2.6414
 8469SOL     OW36868   1.849   3.223  10.119  0.4136 -0.0080 -0.3822
 8469SOL    HW136869   1.908   3.181  10.182 -0.8575 -1.1505  0.0613
 8469SOL    HW236870   1.834   3.307  10.163  0.1772  0.0541 -0.5815
 8470SOL     OW36871   4.499   1.322   7.757 -0.2124 -0.1167 -0.4784
 8470SOL    HW136872   4.511   1.280   7.672  0.1892 -1.6543  0.3264
 8470SOL    HW236873   4.518   1.248   7.815 -0.0107 -1.2321 -1.9607
 8471SOL     OW36874   4.548   1.365   8.780  0.0319  0.0381 -0.3090
 8471SOL    HW136875   4.537   1.445   8.833 -0.6707  0.8805 -1.7386
 8471SOL    HW236876   4.512   1.298   8.838 -1.4096  0.5769 -0.5635
 8472SOL     OW36877   0.154   1.522   5.938 -0.5564 -0.2258  0.1186
 8472SOL    HW136878   0.061   1.498   5.941 -1.0323  1.5638 -0.1784
 8472SOL    HW236879   0.150   1.601   5.884 -1.2382  0.1160  0.6701
 8473SOL     OW36880   3.526   1.034  16.337 -0.1152 -0.1947 -0.5144
 8473SOL    HW136881   3.565   1.053  16.252 -0.0829  1.3848 -0.1391
 8473SOL    HW236882   3.443   1.079  16.322 -0.7392 -0.7184  1.2873
 8474SOL     OW36883   0.423   2.309  10.449  0.5577 -0.2323  0.0781
 8474SOL    HW136884   0.506   2.264  10.434  0.5249  0.2886 -1.7342
 8474SOL    HW236885   0.374   2.240  10.494 -1.2429  0.4904 -0.7930
 8475SOL     OW36886   2.405   3.651  15.142 -0.1537  0.5040 -0.2692
 8475SOL    HW136887   2.464   3.580  15.118  0.2880  0.3643  1.2625
 8475SOL    HW236888   2.474   3.702  15.184 -0.1510  1.7585 -1.7918
 8476SOL     OW36889   2.987   1.253   3.178 -0.5692  0.0825  0.0190
 8476SOL    HW136890   3.008   1.274   3.087 -1.0522  1.0815  0.1442
 8476SOL    HW236891   3.000   1.159   3.190  0.6911  0.0763 -1.4448
 8477SOL     OW36892   3.737   3.936  13.951 -0.3238  0.2234  0.0947
 8477SOL    HW136893   3.705   3.918  13.862  0.5577  0.0114 -0.1785
 8477SOL    HW236894   3.804   3.999  13.923 -0.1148 -0.1471 -0.2428
 8478SOL     OW36895   4.265   3.407   7.487  0.3364  0.0983  0.2474
 8478SOL    HW136896   4.299   3.412   7.397  0.6283 -0.3188  0.3352
 8478SOL    HW236897   4.180   3.450   7.480 -0.6989 -1.9622  0.1832
 8479SOL     OW36898   2.930   4.163   8.891  0.2887 -0.0199  0.1029
 8479SOL    HW136899   2.838   4.186   8.887  0.7258  1.2015 -2.6527
 8479SOL    HW236900   2.966   4.234   8.945  0.4537  0.0523 -0.0993
 8480SOL     OW36901   3.994   2.107   9.248  0.0487 -0.2114 -0.6197
 8480SOL    HW136902   4.009   2.117   9.342 -2.8757 -1.2266 -0.0304
 8480SOL    HW236903   4.040   2.024   9.241  0.7165 -0.0116  1.4305
 8481SOL     OW36904   0.568   1.234   9.212  0.0943 -0.5789 -0.1126
 8481SOL    HW136905   0.484   1.237   9.166 -0.0851 -2.1162  0.1180
 8481SOL    HW236906   0.549   1.172   9.282  0.3863 -1.2762 -0.6408
 8482SOL     OW36907   0.245   4.622   2.598  0.4453  0.5327  0.1261
 8482SOL    HW136908   0.239   4.561   2.671  3.9144 -0.6923 -0.5955
 8482SOL    HW236909   0.206   4.569   2.527  2.8402  1.0713 -1.5897
 8483SOL     OW36910   2.565   0.748   4.371  0.2848  0.0993  0.3565
 8483SOL    HW136911   2.523   0.809   4.432 -2.0892 -2.3911  1.2444
 8483SOL    HW236912   2.609   0.697   4.440 -0.5931  1.3324  1.8404
 8484SOL     OW36913   0.672   4.708   5.166  0.2768 -0.2561 -0.7995
 8484SOL    HW136914   0.745   0.042   5.138 -0.4425 -0.0426 -2.2873
 8484SOL    HW236915   0.601   0.051   5.164 -0.1300 -0.6159  2.1666
 8485SOL     OW36916   2.543   3.278   1.797 -0.2764 -1.1063  0.2762
 8485SOL    HW136917   2.493   3.202   1.828 -0.1708 -1.4333 -0.3459
 8485SOL    HW236918   2.632   3.258   1.827  0.5269  1.8308 -0.1837
 8486SOL     OW36919   1.954   3.924   1.700  0.3050  0.1279 -0.0685
 8486SOL    HW136920   1.941   3.961   1.787 -2.3803 -1.3985  0.1869
 8486SOL    HW236921   1.930   3.834   1.720  2.0654 -0.1987  0.5167
 8487SOL     OW36922   4.178   4.026   5.949 -0.1032 -0.2211 -0.1914
 8487SOL    HW136923   4.125   4.013   6.027  0.7645 -0.8459  0.2936
 8487SOL    HW236924   4.111   4.064   5.893  0.0559  0.9547  0.4351
 8488SOL     OW36925   2.308   0.224   0.576  0.2112 -0.7605  0.3069
 8488SOL    HW136926   2.355   0.238   0.659  2.2004 -0.3879 -0.8869
 8488SOL    HW236927   2.298   0.312   0.540  0.9635 -0.6568  0.3492
 8489SOL     OW36928   0.668   4.477  17.602 -0.8123  0.0130 -0.1251
 8489SOL    HW136929   0.681   4.488   0.007 -0.2195 -0.9940 -0.0868
 8489SOL    HW236930   0.632   4.388  17.602 -1.6769  0.3607  0.9599
 8490SOL     OW36931   2.881   2.388   6.957 -0.1473 -0.0093  0.2864
 8490SOL    HW136932   2.963   2.419   6.919 -0.3164 -1.4821 -1.2617
 8490SOL    HW236933   2.830   2.379   6.877 -0.1157  0.0143  0.2637
 8491SOL     OW36934   4.686   2.608  16.250  0.4537 -0.2747  0.0134
 8491SOL    HW136935   4.668   2.548  16.322  0.3964 -1.7460 -1.2227
 8491SOL    HW236936   0.060   2.609  16.239  0.5675 -0.0252  0.9833
 8492SOL     OW36937   3.467   4.259   7.735 -0.9596  0.2216  0.0665
 8492SOL    HW136938   3.399   4.286   7.673 -1.3013  0.5806  0.5935
 8492SOL    HW236939   3.416   4.222   7.807 -1.0220 -1.5782 -0.9233
 8493SOL     OW36940   1.238   0.853   4.339  0.0572  0.5296  0.2245
 8493SOL    HW136941   1.260   0.772   4.293  1.6690 -0.4232  2.6286
 8493SOL    HW236942   1.319   0.876   4.385  0.2821  0.8624 -0.3330
 8494SOL     OW36943   1.068   2.430   5.003  0.0625 -0.3550 -0.1909
 8494SOL    HW136944   1.003   2.387   4.948 -0.8807 -1.6215  1.9157
 8494SOL    HW236945   1.114   2.485   4.939  0.7569  1.0959  1.5825
 8495SOL     OW36946   2.227   1.437   6.204  0.5813 -0.2815  0.1881
 8495SOL    HW136947   2.317   1.456   6.228  0.3363  0.9996  0.1082
 8495SOL    HW236948   2.233   1.439   6.109 -0.9743  1.0126  0.1163
 8496SOL     OW36949   3.124   0.761   7.853  0.0986  0.2639 -0.1602
 8496SOL    HW136950   3.053   0.821   7.877 -0.5710 -1.2950  1.7232
 8496SOL    HW236951   3.122   0.707   7.932  1.7129 -1.9149 -1.6005
 8497SOL     OW36952   4.550   4.153   4.710 -0.2955  0.0566  0.1152
 8497SOL    HW136953   4.507   4.096   4.774 -0.5992 -0.0997 -0.2258
 8497SOL    HW236954   4.638   4.116   4.705 -0.6616 -0.9830  1.4314
 8498SOL     OW36955   2.558   1.698   3.532  0.7436  0.2263  0.5541
 8498SOL    HW136956   2.558   1.772   3.592 -0.3406  0.2197  0.5633
 8498SOL    HW236957   2.600   1.744   3.460  0.2812  0.0572  0.1772
 8499SOL     OW36958   3.123   0.852   9.169  0.6105  0.0057 -0.7518
 8499SOL    HW136959   3.116   0.787   9.099  0.2324  1.1061 -1.7327
 8499SOL    HW236960   3.129   0.939   9.130 -0.8573  0.1164 -0.7480
 8500SOL     OW36961   1.638   2.231  15.160 -0.2066  0.2438  0.7408
 8500SOL    HW136962   1.649   2.176  15.238  2.2641 -0.2942 -0.0079
 8500SOL    HW236963   1.702   2.190  15.102  0.4938  2.1355  0.1790
 8501SOL     OW36964   1.777   1.934   1.580 -0.0004  0.0755 -0.2783
 8501SOL    HW136965   1.761   2.008   1.521  0.6636  0.0671 -0.4683
 8501SOL    HW236966   1.842   1.982   1.632 -1.0354  3.1643 -1.7968
 8502SOL     OW36967   3.739   4.592   4.511 -0.4910 -0.4441 -0.2256
 8502SOL    HW136968   3.810   4.570   4.450 -0.9597  0.7297 -1.2092
 8502SOL    HW236969   3.727   4.684   4.487 -0.0894 -0.3431 -0.0346
 8503SOL     OW36970   3.401   0.937   4.337 -0.2045 -0.1743  0.1227
 8503SOL    HW136971   3.479   0.900   4.296  0.6513 -0.5200  2.0533
 8503SOL    HW236972   3.446   1.000   4.394  0.0006  0.8142 -1.1367
 8504SOL     OW36973   2.181   0.775   4.468 -0.0911 -0.9594 -0.3896
 8504SOL    HW136974   2.257   0.735   4.511  0.6503 -0.3858 -1.1698
 8504SOL    HW236975   2.171   0.859   4.513 -1.2324 -1.6442  0.6236
 8505SOL     OW36976   1.189   4.705   5.046 -0.1860 -0.4305  0.0025
 8505SOL    HW136977   1.143   0.059   5.083 -0.1244  0.0530 -0.9176
 8505SOL    HW236978   1.132   4.636   5.081 -0.1703 -0.3827  0.1215
 8506SOL     OW36979   0.251   2.073  10.887  0.4435 -0.4772  0.0512
 8506SOL    HW136980   0.211   2.107  10.967 -0.1375  2.1052 -1.3481
 8506SOL    HW236981   0.168   2.039  10.853  0.2363 -1.2900  1.3794
 8507SOL     OW36982   1.336   2.503  11.422 -0.2844 -0.4664 -0.3314
 8507SOL    HW136983   1.334   2.599  11.429 -2.9649 -0.5486  0.2088
 8507SOL    HW236984   1.244   2.479  11.414 -0.0447 -0.7721 -2.1481
 8508SOL     OW36985   4.096   2.904  17.465  0.6330 -0.7401  0.5876
 8508SOL    HW136986   4.132   2.888  17.552  1.2996  0.3101  0.5081
 8508SOL    HW236987   4.114   2.996  17.446  0.5447 -0.8117  0.1445
 8509SOL     OW36988   4.018   3.319   9.109  0.6015 -0.8033 -0.9911
 8509SOL    HW136989   4.047   3.393   9.056  1.5414 -0.3069  0.2003
 8509SOL    HW236990   3.924   3.329   9.097  0.5732  1.6032  1.2406
 8510SOL     OW36991   4.578   3.681   3.286 -0.2685  0.8518 -0.0772
 8510SOL    HW136992   4.560   3.736   3.362 -3.6418  0.5776 -0.6652
 8510SOL    HW236993   4.672   3.695   3.275  0.3692 -2.4240  1.3155
 8511SOL     OW36994   3.934   0.989   6.046  0.2556  0.3246  0.1490
 8511SOL    HW136995   3.891   1.047   6.108  1.6763 -1.5394  2.8996
 8511SOL    HW236996   3.896   1.028   5.967 -0.4137 -0.7725 -0.0727
 8512SOL     OW36997   3.780   1.781   5.193  0.1918  1.0789  0.4058
 8512SOL    HW136998   3.707   1.737   5.237 -0.3252  2.0701  0.5393
 8512SOL    HW236999   3.848   1.728   5.234 -1.0111 -1.1314 -0.4595
 8513SOL     OW37000   1.510   3.851  10.502  0.3454 -0.2026 -0.2530
 8513SOL    HW137001   1.447   3.871  10.571 -0.1534 -0.7980 -0.5396
 8513SOL    HW237002   1.545   3.940  10.505  1.4084 -0.5954 -1.2364
 8514SOL     OW37003   2.115   0.104   5.209 -0.1726 -0.2922  0.6364
 8514SOL    HW137004   2.093   0.030   5.153  1.6269  0.3217 -0.8871
 8514SOL    HW237005   2.051   0.166   5.173 -0.7884 -2.5360 -2.0970
 8515SOL     OW37006   2.533   3.221   4.616  0.3826 -0.7351  0.2318
 8515SOL    HW137007   2.612   3.274   4.622 -1.0163  1.3655  0.3727
 8515SOL    HW237008   2.560   3.140   4.573  0.8136 -1.5253  1.9923
 8516SOL     OW37009   4.642   4.566   8.374  0.0828  0.0741  0.3833
 8516SOL    HW137010   4.558   4.534   8.405 -0.1352 -0.1167 -0.4028
 8516SOL    HW237011   4.694   4.586   8.452  1.4756 -0.6411 -0.3573
 8517SOL     OW37012   0.029   2.730   6.603 -0.5317  0.6486 -0.1218
 8517SOL    HW137013   0.102   2.789   6.622 -0.0611 -0.5001  1.5929
 8517SOL    HW237014   0.040   2.672   6.678 -1.7198  1.6719  0.8439
 8518SOL     OW37015   2.977   0.229   4.308  0.4520 -0.7349 -0.3963
 8518SOL    HW137016   2.887   0.225   4.339 -0.1787  0.0409 -2.1501
 8518SOL    HW237017   3.018   0.279   4.378 -1.4525  1.2076 -0.6564
 8519SOL     OW37018   2.235   0.475   3.419 -0.1002  0.2293  0.5074
 8519SOL    HW137019   2.177   0.414   3.374  0.9890 -0.6816  0.3450
 8519SOL    HW237020   2.191   0.553   3.385  0.8805  0.9064  0.7993
 8520SOL     OW37021   2.213   0.973   7.611 -0.3424 -0.2086  0.5175
 8520SOL    HW137022   2.300   0.966   7.572 -0.2486 -0.6146  0.7961
 8520SOL    HW237023   2.221   0.958   7.706 -1.5427 -0.1591  0.6209
 8521SOL     OW37024   1.516   1.192   2.165 -0.1956 -0.1684  0.2592
 8521SOL    HW137025   1.463   1.116   2.190 -0.8601 -0.7648 -2.9403
 8521SOL    HW237026   1.453   1.243   2.114  3.0633  1.2133 -2.3472
 8522SOL     OW37027   1.014   0.794   2.421 -0.0182  0.0792 -0.1012
 8522SOL    HW137028   1.087   0.798   2.359 -1.8150  1.5262 -2.0936
 8522SOL    HW237029   1.006   0.889   2.431  3.6809  0.1562  2.1250
 8523SOL     OW37030   0.339   0.581  15.740 -0.3004  0.0846  0.1412
 8523SOL    HW137031   0.256   0.602  15.783 -0.6917  0.1924 -0.6830
 8523SOL    HW237032   0.383   0.663  15.760  0.1868  0.4327 -2.4764
 8524SOL     OW37033   3.203   3.927   0.717  0.0329  0.1681  0.0277
 8524SOL    HW137034   3.158   3.914   0.801  2.1590  2.5924  1.5251
 8524SOL    HW237035   3.154   4.000   0.679 -0.9869  0.6828  2.3090
 8525SOL     OW37036   4.628   3.368   3.311  0.2492 -0.1377  0.0486
 8525SOL    HW137037   4.646   3.322   3.229 -1.5957 -0.0686 -0.3844
 8525SOL    HW237038   4.588   3.451   3.285  2.7230  0.5131 -1.7007
 8526SOL     OW37039   4.431   3.621   9.092 -0.6325 -0.0937  0.4215
 8526SOL    HW137040   4.382   3.572   9.026 -1.9786 -0.3087  1.6102
 8526SOL    HW237041   4.478   3.676   9.028 -0.9568 -0.3488 -0.0377
 8527SOL     OW37042   0.644   3.877   7.310  0.4762 -0.4793 -0.2205
 8527SOL    HW137043   0.656   3.805   7.372 -0.9866  0.7664  1.5292
 8527SOL    HW237044   0.717   3.844   7.258  0.3132 -0.4214 -0.4839
 8528SOL     OW37045   1.107   4.644   7.185 -0.2971 -0.4425 -0.0606
 8528SOL    HW137046   1.133   4.635   7.277  1.0607  1.5953 -0.2448
 8528SOL    HW237047   1.119   0.016   7.170  0.0128 -0.4613  0.0561
 8529SOL     OW37048   0.931   3.895   6.091  0.9549  0.2169  0.1361
 8529SOL    HW137049   0.944   3.874   5.999  1.0103  1.4144 -0.1264
 8529SOL    HW237050   0.900   3.985   6.094 -0.3569 -0.1442 -3.4897
 8530SOL     OW37051   1.946   2.733   1.594  0.7116 -0.4074  0.2176
 8530SOL    HW137052   2.007   2.664   1.618  0.3927 -1.7169 -2.7057
 8530SOL    HW237053   1.894   2.682   1.531  1.4414 -2.1617  1.0286
 8531SOL     OW37054   1.487   2.209  13.588 -0.2948  0.1411  0.8378
 8531SOL    HW137055   1.481   2.293  13.542  2.0215 -0.5716 -0.7852
 8531SOL    HW237056   1.476   2.233  13.680  2.4476  0.3673  1.1165
 8532SOL     OW37057   3.635   0.567   2.011  1.0325  0.2359  0.0116
 8532SOL    HW137058   3.595   0.592   2.094 -1.6625 -1.5866 -0.7567
 8532SOL    HW237059   3.558   0.546   1.959 -0.5165  2.6189  1.3238
 8533SOL     OW37060   1.646   0.028   8.535 -0.6985  0.1789 -0.0878
 8533SOL    HW137061   1.646   0.120   8.561 -3.0888  0.2566 -0.4321
 8533SOL    HW237062   1.585   4.707   8.596  0.6383 -0.7263  0.6252
 8534SOL     OW37063   2.847   3.492   0.753  0.1264 -0.0932 -0.6030
 8534SOL    HW137064   2.899   3.413   0.766  0.6099  0.3462  0.1089
 8534SOL    HW237065   2.910   3.564   0.758  0.7593 -0.6623 -0.4465
 8535SOL     OW37066   2.560   0.899   5.469 -0.6732  0.0309  0.3621
 8535SOL    HW137067   2.616   0.977   5.461  1.9418 -1.7276  1.3718
 8535SOL    HW237068   2.509   0.905   5.389  0.9336  0.3145 -0.6478
 8536SOL     OW37069   4.072   2.754  11.965 -0.2633 -0.0479  0.6099
 8536SOL    HW137070   4.027   2.745  12.049 -0.5421 -1.7664  0.2627
 8536SOL    HW237071   4.060   2.848  11.950 -1.1005 -0.1771  0.4674
 8537SOL     OW37072   4.319   3.479   8.874 -0.8815 -0.3909  0.1240
 8537SOL    HW137073   4.337   3.393   8.835 -0.5863 -0.5749  0.6585
 8537SOL    HW237074   4.305   3.528   8.793  0.0900 -0.7623 -0.2708
 8538SOL     OW37075   2.004   3.791  11.415  0.5705 -0.0770 -0.0283
 8538SOL    HW137076   2.028   3.816  11.504  0.8825 -0.5954  0.0371
 8538SOL    HW237077   1.918   3.827  11.395  0.4372 -1.1192 -1.3735
 8539SOL     OW37078   3.107   0.772   2.186 -0.6110 -0.2558 -0.2400
 8539SOL    HW137079   3.134   0.845   2.242 -0.7137  0.9698 -1.7973
 8539SOL    HW237080   3.107   0.811   2.099  1.0071  2.8969  1.1644
 8540SOL     OW37081   4.659   2.237  10.955  0.4018  0.0360 -0.3700
 8540SOL    HW137082   4.699   2.312  10.997  1.1358 -0.3787 -0.3243
 8540SOL    HW237083   4.688   2.242  10.864  0.6421  0.5050 -0.2645
 8541SOL     OW37084   4.020   0.120   8.992  0.3207  0.0235  0.3174
 8541SOL    HW137085   3.985   0.135   9.080  0.3020  1.2368  0.1046
 8541SOL    HW237086   4.007   0.209   8.958 -2.5600 -0.8164 -0.7860
 8542SOL     OW37087   1.848   2.699  10.131  0.2872  0.1145 -0.0589
 8542SOL    HW137088   1.755   2.685  10.116 -0.0935  1.4288  1.0580
 8542SOL    HW237089   1.870   2.787  10.099 -0.8691  1.1160  1.9031
 8543SOL     OW37090   1.820   2.632   7.192 -0.4221  0.8104 -0.0856
 8543SOL    HW137091   1.888   2.568   7.213 -1.2697 -0.3220 -0.7810
 8543SOL    HW237092   1.872   2.712   7.201 -0.8854  1.2194 -1.1297
 8544SOL     OW37093   2.635   3.736   6.643 -0.5948 -0.1195  0.2908
 8544SOL    HW137094   2.731   3.738   6.648 -0.4957 -0.2999 -1.5477
 8544SOL    HW237095   2.607   3.747   6.733 -1.9698 -2.1102  0.1012
 8545SOL     OW37096   4.237   1.728   1.217 -0.0585 -0.0455 -0.5448
 8545SOL    HW137097   4.153   1.696   1.186 -0.6493  1.1457 -0.1864
 8545SOL    HW237098   4.256   1.780   1.139 -0.8088  0.0508 -0.6628
 8546SOL     OW37099   3.731   4.346   3.611  0.1224 -0.3130 -0.3321
 8546SOL    HW137100   3.783   4.411   3.563 -0.2164  0.3460  0.1947
 8546SOL    HW237101   3.657   4.338   3.551 -0.1014 -0.7274  0.0021
 8547SOL     OW37102   2.057   4.581  13.374  0.3954  0.2224  0.1404
 8547SOL    HW137103   2.064   4.668  13.337  0.3884 -1.1381 -3.0249
 8547SOL    HW237104   2.091   4.530  13.301 -2.6499 -1.1165 -0.3659
 8548SOL     OW37105   4.388   4.366   4.663  0.1245 -0.0942 -0.3482
 8548SOL    HW137106   4.325   4.318   4.609 -0.3479 -0.6369  0.6651
 8548SOL    HW237107   4.458   4.300   4.661 -0.9875 -1.1969 -2.7095
 8549SOL     OW37108   2.143   4.712   3.256  0.2962  0.6136 -0.1131
 8549SOL    HW137109   2.081   4.654   3.213 -0.4193  0.7858  0.6807
 8549SOL    HW237110   2.107   0.075   3.230  1.4694  0.8941 -0.8021
 8550SOL     OW37111   4.097   4.269   7.851 -0.0288  0.2826 -0.1199
 8550SOL    HW137112   4.034   4.285   7.921  1.2164 -4.3510  2.0472
 8550SOL    HW237113   4.038   4.230   7.786  0.8844 -0.3757 -0.5571
 8551SOL     OW37114   0.978   4.595   7.541  0.1042 -0.0335 -0.3436
 8551SOL    HW137115   0.941   4.568   7.625  0.6421 -2.5843 -0.9314
 8551SOL    HW237116   1.073   4.593   7.552  0.3241  2.2129 -1.8477
 8552SOL     OW37117   0.497   3.859  14.662  0.0592  0.5001 -0.4495
 8552SOL    HW137118   0.587   3.880  14.686  0.4058 -1.6329  0.0980
 8552SOL    HW237119   0.509   3.843  14.569 -1.3917  0.7244 -0.6737
 8553SOL     OW37120   2.952   4.598  10.175 -0.0142 -0.1165 -0.5786
 8553SOL    HW137121   2.950   4.635  10.087  0.7910  0.2341 -0.4519
 8553SOL    HW237122   2.996   4.675  10.212  0.0563 -0.9909  1.1237
 8554SOL     OW37123   1.015   4.426   5.861  0.3044  0.3334 -0.4682
 8554SOL    HW137124   0.969   4.344   5.880 -0.7440  1.5525  2.2497
 8554SOL    HW237125   1.099   4.400   5.823  1.1796  0.7942  1.1788
 8555SOL     OW37126   4.440   2.839  12.739 -0.1155 -0.1805  0.0482
 8555SOL    HW137127   4.465   2.896  12.812  0.6181  0.0756 -0.4037
 8555SOL    HW237128   4.415   2.760  12.787 -1.9417  1.0395  1.1110
 8556SOL     OW37129   0.872   2.978   5.003 -0.0990  0.5505 -0.4447
 8556SOL    HW137130   0.862   3.069   5.033  1.3079  0.5447  0.0606
 8556SOL    HW237131   0.794   2.970   4.949  1.0225 -0.3656 -1.9367
 8557SOL     OW37132   0.808   1.296   2.828  0.3763 -0.3599 -0.0205
 8557SOL    HW137133   0.788   1.205   2.808  0.8440 -0.1525 -1.4416
 8557SOL    HW237134   0.791   1.285   2.921  1.2333 -0.2832  0.1446
 8558SOL     OW37135   1.361   3.675  13.210 -0.2759 -0.6238 -0.0176
 8558SOL    HW137136   1.295   3.723  13.261 -0.3759  0.7723 -1.4687
 8558SOL    HW237137   1.412   3.631  13.278 -4.5648 -3.2548  1.4602
 8559SOL     OW37138   2.008   2.480   7.648 -0.0623 -0.1885  0.1758
 8559SOL    HW137139   2.052   2.517   7.724 -0.4926  1.3313 -0.3142
 8559SOL    HW237140   1.923   2.444   7.674  0.7018 -0.9741  1.5659
 8560SOL     OW37141   1.971   2.142   7.459  0.7274 -0.1844 -0.1077
 8560SOL    HW137142   2.050   2.192   7.439 -0.2187  0.9330 -0.9654
 8560SOL    HW237143   1.902   2.207   7.471  2.1452  1.5338 -1.2974
 8561SOL     OW37144   3.971   3.674  14.104  0.4933  0.3958 -0.5189
 8561SOL    HW137145   3.930   3.751  14.142 -1.1153  0.6076 -2.7412
 8561SOL    HW237146   3.901   3.637  14.050 -0.5059  0.4446  0.7329
 8562SOL     OW37147   1.329   4.572   6.199  0.5312  0.1337  0.0522
 8562SOL    HW137148   1.398   4.574   6.265 -1.3118 -0.6249  2.0026
 8562SOL    HW237149   1.366   4.509   6.137  0.1292  0.6007 -0.6542
 8563SOL     OW37150   3.082   2.506   6.835 -0.1707 -0.4307  0.1603
 8563SOL    HW137151   3.064   2.600   6.836  2.1772  0.0003  2.1921
 8563SOL    HW237152   3.152   2.501   6.770 -1.2767  1.1628 -1.1494
 8564SOL     OW37153   0.951   3.708   4.853  0.0172 -0.8308  0.4317
 8564SOL    HW137154   0.979   3.789   4.808 -0.9615 -0.1372  1.0765
 8564SOL    HW237155   0.935   3.653   4.776 -2.1022 -3.4158  2.7751
 8565SOL     OW37156   1.758   1.387   3.150  0.3697 -1.0129 -0.0991
 8565SOL    HW137157   1.814   1.460   3.125 -0.1808 -1.0411 -1.4328
 8565SOL    HW237158   1.724   1.368   3.062 -2.6254 -0.1401  0.8940
 8566SOL     OW37159   3.901   0.944   7.444 -0.4622  0.3313 -0.0701
 8566SOL    HW137160   3.973   0.995   7.481 -1.6826  1.2985  0.9744
 8566SOL    HW237161   3.913   0.861   7.491  4.4681  1.9458  1.5960
 8567SOL     OW37162   0.254   2.735  17.571 -0.1448  0.1402  0.2163
 8567SOL    HW137163   0.317   2.667  17.549 -1.1908 -0.9971  0.7065
 8567SOL    HW237164   0.184   2.675  17.598 -1.3628  0.7851 -1.5229
 8568SOL     OW37165   1.513   4.716  11.463 -0.3239 -0.1640  0.1303
 8568SOL    HW137166   1.589   4.700  11.519  2.2476  0.4691 -3.1704
 8568SOL    HW237167   1.439   4.672  11.504 -1.6030  0.0271 -1.9784
 8569SOL     OW37168   2.311   2.636  17.502  0.6745 -0.0660 -0.4706
 8569SOL    HW137169   2.233   2.689  17.488 -0.6286 -1.4893  1.3735
 8569SOL    HW237170   2.280   2.546  17.506 -0.3645  0.3175 -0.0499
 8570SOL     OW37171   3.640   0.237   1.986 -0.4690 -0.3478  0.4445
 8570SOL    HW137172   3.569   0.283   2.031 -0.5454  0.5469 -0.5904
 8570SOL    HW237173   3.710   0.237   2.050  0.6399  1.1496 -0.7821
 8571SOL     OW37174   0.157   3.125   8.755 -0.6425 -0.6175  0.2199
 8571SOL    HW137175   0.135   3.096   8.843 -0.0769  0.3367  0.6675
 8571SOL    HW237176   0.065   3.135   8.732 -0.3509  0.9821 -0.2350
 8572SOL     OW37177   2.988   1.968   7.282 -0.4267  0.3188 -0.2677
 8572SOL    HW137178   2.940   2.020   7.217 -1.0375 -0.1486 -0.1893
 8572SOL    HW237179   2.914   1.948   7.340  0.0346  0.2896  0.3050
 8573SOL     OW37180   2.552   2.518   8.336 -0.2550 -0.7090 -0.6871
 8573SOL    HW137181   2.628   2.469   8.367  1.0623  1.2057 -0.9055
 8573SOL    HW237182   2.499   2.440   8.320  1.9568 -2.5490  0.9566
 8574SOL     OW37183   2.610   3.511   3.521 -0.3578  0.3199 -0.2980
 8574SOL    HW137184   2.679   3.448   3.500  1.1587  2.8447 -2.9435
 8574SOL    HW237185   2.646   3.549   3.601 -1.9845 -0.4562  0.7916
 8575SOL     OW37186   1.966   3.960   3.154  0.5965 -0.5748 -0.1214
 8575SOL    HW137187   1.915   4.016   3.212  1.7708  0.1714  0.1867
 8575SOL    HW237188   2.052   3.977   3.194 -1.2489  3.2873  2.1859
 8576SOL     OW37189   4.399   1.787   9.892 -0.4785 -0.0214 -0.3503
 8576SOL    HW137190   4.342   1.725   9.937  1.9164 -0.6260  1.8565
 8576SOL    HW237191   4.345   1.818   9.820 -0.0772 -0.3993 -0.8112
 8577SOL     OW37192   2.434   4.424   5.615  0.2823 -0.7416  0.4538
 8577SOL    HW137193   2.358   4.474   5.645 -1.3417 -1.4989 -2.4623
 8577SOL    HW237194   2.495   4.492   5.589 -0.5424 -0.3891 -0.5237
 8578SOL     OW37195   4.162   1.570   4.062  0.2239 -0.6070  0.2808
 8578SOL    HW137196   4.076   1.554   4.023 -0.2905 -0.0834  1.1859
 8578SOL    HW237197   4.172   1.506   4.133  0.6975 -0.0814  0.6960
 8579SOL     OW37198   1.535   3.531   8.579  0.2060 -0.3422 -0.0735
 8579SOL    HW137199   1.454   3.518   8.529  0.0528 -1.1968  0.4016
 8579SOL    HW237200   1.496   3.553   8.664  3.2980  2.0410  0.7126
 8580SOL     OW37201   1.060   3.173   0.784  0.1387 -0.2409  0.4619
 8580SOL    HW137202   1.001   3.200   0.713  0.6821  0.7441  0.3872
 8580SOL    HW237203   1.007   3.184   0.863 -0.0311 -0.3783  0.3679
 8581SOL     OW37204   3.363   4.659   8.340 -0.4495 -0.4672  0.2745
 8581SOL    HW137205   3.303   0.006   8.370 -0.2653 -0.7882  1.3862
 8581SOL    HW237206   3.397   4.623   8.422 -2.4131 -0.6192  1.0313
 8582SOL     OW37207   0.334   0.423   5.471  0.4945 -0.4096 -0.6863
 8582SOL    HW137208   0.265   0.363   5.444  1.7075 -2.0627 -0.1174
 8582SOL    HW237209   0.314   0.515   5.455 -1.6035 -0.7348  0.0690
 8583SOL     OW37210   0.881   3.340   9.558  0.0004 -0.0543 -0.1308
 8583SOL    HW137211   0.940   3.320   9.486 -0.7449  1.0467 -1.0390
 8583SOL    HW237212   0.793   3.328   9.523  0.5273  0.2925 -1.5714
 8584SOL     OW37213   4.279   2.726   3.782  0.0708  0.1860 -0.6440
 8584SOL    HW137214   4.203   2.757   3.832 -0.0950 -1.1027 -0.0851
 8584SOL    HW237215   4.253   2.635   3.799 -1.3286  1.1124  2.2225
 8585SOL     OW37216   4.578   4.547   2.165  0.1493  0.0828  0.0767
 8585SOL    HW137217   4.525   4.566   2.242 -1.9122  0.1108 -1.3559
 8585SOL    HW237218   4.664   4.584   2.186 -0.0537  1.1183 -0.9355
 8586SOL     OW37219   3.733   3.772   4.815 -0.2395  0.5758  0.3731
 8586SOL    HW137220   3.746   3.754   4.908  1.0468 -0.9183 -0.0823
 8586SOL    HW237221   3.782   3.854   4.809 -0.8291  0.6720 -3.3411
 8587SOL     OW37222   0.627   1.994  10.733 -0.1256 -0.4371  0.1716
 8587SOL    HW137223   0.661   2.008  10.821  0.4686  1.0855 -0.3128
 8587SOL    HW237224   0.644   2.079  10.693 -0.9303 -0.4513 -0.2130
 8588SOL     OW37225   3.127   3.903  12.365  0.6112 -0.2956 -0.2022
 8588SOL    HW137226   3.199   3.874  12.421 -1.1414 -0.9843  1.7107
 8588SOL    HW237227   3.117   3.985  12.414 -1.8110  0.0237 -1.2337
 8589SOL     OW37228   3.272   1.329  15.260 -0.0343 -0.5712  0.0913
 8589SOL    HW137229   3.193   1.364  15.300 -0.0858  0.8368 -1.2754
 8589SOL    HW237230   3.244   1.330  15.169  0.5287 -1.2424 -0.0926
 8590SOL     OW37231   3.948   2.929  17.108 -0.0485 -0.0989 -0.0982
 8590SOL    HW137232   3.890   2.975  17.046  1.5918 -0.5009 -1.9128
 8590SOL    HW237233   3.905   2.843  17.104  1.0059 -0.6868  1.6512
 8591SOL     OW37234   2.199   1.673   4.160  0.3561  0.5179  0.0073
 8591SOL    HW137235   2.239   1.651   4.076  0.0129  0.1188 -0.0536
 8591SOL    HW237236   2.107   1.653   4.141  0.0650  1.0332  0.8570
 8592SOL     OW37237   1.258   3.493   1.823  0.2106 -0.4537  0.2148
 8592SOL    HW137238   1.225   3.582   1.834  0.6422 -0.0794 -1.5063
 8592SOL    HW237239   1.310   3.489   1.904  2.5123 -0.2084 -1.2427
 8593SOL     OW37240   1.643   3.401   8.194 -0.3599 -0.2326  0.5451
 8593SOL    HW137241   1.724   3.443   8.164 -0.2111 -0.8615  0.0698
 8593SOL    HW237242   1.581   3.472   8.209  0.3772  0.3425  0.8763
 8594SOL     OW37243   0.074   4.566   8.615 -0.3696 -0.1907 -0.1446
 8594SOL    HW137244   0.042   4.540   8.701  1.8458  1.7641  1.2782
 8594SOL    HW237245   0.117   4.486   8.585  1.7488  1.2717 -1.0801
 8595SOL     OW37246   2.684   4.187   7.096  0.6152  0.4492  0.0252
 8595SOL    HW137247   2.614   4.163   7.035  0.1645 -3.7509  2.2069
 8595SOL    HW237248   2.704   4.272   7.058  0.0911  1.3102  1.6899
 8596SOL     OW37249   0.934   1.565   2.435  0.0307 -0.1070  0.5935
 8596SOL    HW137250   0.889   1.570   2.520 -0.9430  0.3006  0.0456
 8596SOL    HW237251   0.889   1.636   2.390 -0.2955 -0.7775 -0.1337
 8597SOL     OW37252   2.901   2.150   3.919  0.6256  0.2639 -0.2072
 8597SOL    HW137253   2.851   2.202   3.982  1.2945 -0.2043  0.7201
 8597SOL    HW237254   2.877   2.191   3.836  2.1684 -0.6834 -1.1251
 8598SOL     OW37255   2.091   1.973  17.014 -0.2206  0.6607 -0.8133
 8598SOL    HW137256   2.165   1.936  17.063 -1.1875 -0.7245 -0.3848
 8598SOL    HW237257   2.022   1.911  17.039  0.3317  0.6168  0.6039
 8599SOL     OW37258   4.483   0.158   7.494  0.2772  0.3912  0.1428
 8599SOL    HW137259   4.550   0.095   7.521  0.2464  0.8508  1.2694
 8599SOL    HW237260   4.544   0.216   7.448  1.6530  0.3401  1.9083
 8600SOL     OW37261   1.246   0.440   8.371  0.3191 -0.3591 -0.0379
 8600SOL    HW137262   1.226   0.514   8.314 -1.0854 -0.4562  0.3247
 8600SOL    HW237263   1.336   0.427   8.342  0.3773 -0.9927  0.4289
 8601SOL     OW37264   0.527   0.136   4.394  0.6186 -0.1269  0.0827
 8601SOL    HW137265   0.499   0.099   4.478 -2.4879  0.5320 -0.6940
 8601SOL    HW237266   0.618   0.111   4.410  1.3269  2.4437  0.0773
 8602SOL     OW37267   4.058   2.144   7.557  0.1614 -0.0335  0.8156
 8602SOL    HW137268   4.022   2.201   7.625  3.2104  2.1651  0.6371
 8602SOL    HW237269   4.038   2.199   7.481  2.5603  0.8315  0.8113
 8603SOL     OW37270   3.158   2.720   3.565 -0.1493  0.3076  0.1524
 8603SOL    HW137271   3.230   2.770   3.527  0.0936  0.6315  1.0443
 8603SOL    HW237272   3.097   2.789   3.593  0.0233  0.1343  0.9377
 8604SOL     OW37273   4.254   0.874   6.193 -0.5971 -0.3242 -1.2437
 8604SOL    HW137274   4.178   0.815   6.190  0.7964 -2.2446  0.9645
 8604SOL    HW237275   4.273   0.881   6.287  1.6342  1.9814 -1.8797
 8605SOL     OW37276   0.448   0.110   8.436  0.1184 -0.1842  0.4142
 8605SOL    HW137277   0.455   0.036   8.495 -1.7667  0.5376  1.5571
 8605SOL    HW237278   0.402   0.077   8.359 -0.1885  0.7931  0.1753
 8606SOL     OW37279   1.558   0.947   4.970  0.0138 -0.8313  0.6922
 8606SOL    HW137280   1.639   0.986   5.004 -0.6061  0.9033  0.2059
 8606SOL    HW237281   1.570   0.982   4.882  0.4394 -0.2312  0.9819
 8607SOL     OW37282   0.401   4.652   5.625  0.1469  0.7414 -0.3637
 8607SOL    HW137283   0.455   4.684   5.697 -0.5817  3.1771 -0.9333
 8607SOL    HW237284   0.333   4.601   5.669 -0.3464 -0.5999 -2.6520
 8608SOL     OW37285   1.212   3.434  11.272  0.2714 -0.6331  0.1982
 8608SOL    HW137286   1.166   3.516  11.291  3.7319  1.2015  0.5536
 8608SOL    HW237287   1.221   3.385  11.354  0.1406 -0.5861  0.2402
 8609SOL     OW37288   3.702   3.588  16.416  0.3271  0.4557  0.1684
 8609SOL    HW137289   3.691   3.658  16.480  2.1076  0.7024  0.1761
 8609SOL    HW237290   3.709   3.513  16.475  0.3525 -0.0402 -0.4686
 8610SOL     OW37291   3.594   2.526   6.253 -0.2345 -0.3711 -0.0486
 8610SOL    HW137292   3.581   2.449   6.309 -0.3398 -0.8242 -0.6978
 8610SOL    HW237293   3.569   2.486   6.169  0.1201  0.1436 -0.3965
 8611SOL     OW37294   3.806   1.850   7.038 -0.7438  0.5511  0.0165
 8611SOL    HW137295   3.878   1.795   7.007 -0.1497  0.7509  1.0428
 8611SOL    HW237296   3.761   1.880   6.959 -3.4530 -0.5040  1.1620
 8612SOL     OW37297   0.546   3.645   8.726  0.3279 -0.0856 -0.5021
 8612SOL    HW137298   0.531   3.593   8.646 -0.9369  0.1700 -0.4222
 8612SOL    HW237299   0.599   3.580   8.773  0.2795  0.9873  1.0024
 8613SOL     OW37300   1.182   1.770   7.507 -0.5652  0.0631  0.4597
 8613SOL    HW137301   1.114   1.705   7.495 -1.0329  0.5573  0.4465
 8613SOL    HW237302   1.252   1.704   7.516  2.8190  3.3187 -1.9485
 8614SOL     OW37303   4.050   1.642   5.228  0.1166 -0.2982  0.3311
 8614SOL    HW137304   4.060   1.563   5.280  3.0869 -0.3643 -0.3038
 8614SOL    HW237305   4.062   1.611   5.138  0.5385  0.6947  0.0391
 8615SOL     OW37306   0.782   2.433   3.473 -0.0178  0.1359 -0.0941
 8615SOL    HW137307   0.782   2.401   3.563 -1.2377 -0.0762 -0.1686
 8615SOL    HW237308   0.831   2.363   3.428  1.9299  0.4792  1.4912
 8616SOL     OW37309   0.868   3.428   8.580 -0.1335  0.1804  0.0348
 8616SOL    HW137310   0.827   3.419   8.666 -1.3139  2.0959 -0.3370
 8616SOL    HW237311   0.870   3.523   8.581  1.7354  0.1098  1.6122
 8617SOL     OW37312   3.194   3.676   5.573 -0.3854  0.3287  0.3343
 8617SOL    HW137313   3.224   3.642   5.657  3.0543  0.0286 -1.0166
 8617SOL    HW237314   3.199   3.604   5.510  3.9749  0.3338  0.7205
 8618SOL     OW37315   1.144   3.642  17.385 -0.2946 -0.1392 -0.1581
 8618SOL    HW137316   1.151   3.665  17.293  0.5073  1.3397  0.2684
 8618SOL    HW237317   1.053   3.658  17.411 -0.3359  0.5823 -0.7606
 8619SOL     OW37318   2.957   2.001  15.465 -0.0860 -0.1267  0.7979
 8619SOL    HW137319   2.995   1.984  15.378 -0.9491  0.9547  0.2021
 8619SOL    HW237320   2.879   2.054  15.445 -0.1980 -0.2803  0.8232
 8620SOL     OW37321   0.840   2.663   9.354  0.7309  0.2382  0.2559
 8620SOL    HW137322   0.880   2.585   9.316 -1.1983 -1.0000  0.7621
 8620SOL    HW237323   0.748   2.667   9.326  0.9599  0.7846 -0.4030
 8621SOL     OW37324   2.325   3.936   6.567 -0.9817  0.0974 -0.7820
 8621SOL    HW137325   2.341   3.947   6.660 -0.3914 -2.1589 -0.6081
 8621SOL    HW237326   2.262   4.004   6.545  0.1359  1.0465 -1.0762
 8622SOL     OW37327   1.527   0.021  16.008  0.2021 -0.2141 -0.2584
 8622SOL    HW137328   1.617   4.715  16.027  0.6773  1.7708  0.3280
 8622SOL    HW237329   1.527   0.023  15.912  2.1809 -1.1181 -0.2815
 8623SOL     OW37330   4.274   3.006   1.314  0.2150  0.1205 -0.1366
 8623SOL    HW137331   4.284   2.914   1.293  2.2891  0.4518 -0.6098
 8623SOL    HW237332   4.180   3.021   1.325 -0.4121 -1.9416 -2.7254
 8624SOL     OW37333   2.132   1.473   6.902  0.0576  0.1508  1.0752
 8624SOL    HW137334   2.205   1.458   6.842 -1.1194  0.3083 -0.4003
 8624SOL    HW237335   2.135   1.568   6.914  0.3746  0.2377  0.3370
 8625SOL     OW37336   2.959   1.925  12.889  0.3634  0.5238 -0.2218
 8625SOL    HW137337   3.013   1.999  12.918  0.5056  0.7225 -0.9829
 8625SOL    HW237338   2.928   1.959  12.805  0.8727  1.5564 -0.0004
 8626SOL     OW37339   1.497   0.156  10.630 -0.1158 -0.1458  0.4237
 8626SOL    HW137340   1.444   0.169  10.708  0.9500  1.8350  0.8179
 8626SOL    HW237341   1.521   0.063  10.637  2.6184  0.3456 -2.1971
 8627SOL     OW37342   1.920   3.518   7.547  0.0244  0.2712  0.2059
 8627SOL    HW137343   2.007   3.481   7.542 -0.0598  0.4184 -2.3456
 8627SOL    HW237344   1.909   3.547   7.456 -0.5036  0.4230  0.3177
 8628SOL     OW37345   0.738   4.037   4.568  0.1408  0.3280  0.2832
 8628SOL    HW137346   0.756   4.050   4.662 -1.0416  0.7843  0.4448
 8628SOL    HW237347   0.774   3.948   4.571 -1.6331 -0.3738  0.8723
 8629SOL     OW37348   4.447   2.878  14.500 -0.7181  0.2066 -0.1442
 8629SOL    HW137349   4.397   2.953  14.468 -0.8008 -0.2904 -1.1757
 8629SOL    HW237350   4.391   2.811  14.461 -0.3554  2.3223 -4.2534
 8630SOL     OW37351   3.327   2.917   3.460  0.2346  0.3327  0.1029
 8630SOL    HW137352   3.410   2.942   3.501 -0.4090  1.7924  0.5191
 8630SOL    HW237353   3.358   2.915   3.370  2.3562  0.3095  0.8306
 8631SOL     OW37354   3.258   4.194   7.898 -0.3416 -0.2373  0.0515
 8631SOL    HW137355   3.295   4.107   7.907  0.1483  0.0934  1.2127
 8631SOL    HW237356   3.164   4.180   7.889 -0.3527  0.8774 -1.6409
 8632SOL     OW37357   0.011   3.528   3.541  0.0343  1.0850  0.3205
 8632SOL    HW137358   0.041   3.438   3.551 -1.0887  0.8170  1.3145
 8632SOL    HW237359   4.678   3.509   3.464 -0.8328  0.4778  1.0817
 8633SOL     OW37360   1.773   3.988   7.283 -0.3454  0.0440  0.1994
 8633SOL    HW137361   1.813   3.922   7.340  0.3112  0.1129 -0.1854
 8633SOL    HW237362   1.680   3.964   7.279 -0.1866 -0.7697  1.2314
 8634SOL     OW37363   2.792   2.107   7.872 -0.3373  0.2097 -0.5279
 8634SOL    HW137364   2.862   2.158   7.832  0.3722 -0.0492  0.3821
 8634SOL    HW237365   2.738   2.175   7.913 -0.5054 -0.1815 -0.1089
 8635SOL     OW37366   2.327   2.450  14.871  0.0930  0.1142 -0.1497
 8635SOL    HW137367   2.283   2.371  14.905  0.8441 -0.4529 -0.4907
 8635SOL    HW237368   2.264   2.505  14.825 -0.7999 -0.7860  0.0051
 8636SOL     OW37369   0.057   0.410   9.968  0.2832  0.3560  0.6049
 8636SOL    HW137370   4.694   0.398   9.925  0.9766  0.4782 -0.8208
 8636SOL    HW237371   0.120   0.370   9.908 -1.8382  1.1436 -2.1808
 8637SOL     OW37372   2.284   1.632   6.601 -0.1895  0.2690  0.3043
 8637SOL    HW137373   2.239   1.665   6.523 -1.9935 -0.8867  0.8549
 8637SOL    HW237374   2.368   1.677   6.597  1.1427 -2.3862 -1.3328
 8638SOL     OW37375   4.358   1.527  17.192  0.2095 -0.3599 -0.3587
 8638SOL    HW137376   4.351   1.502  17.284 -0.9600 -1.2363 -0.6819
 8638SOL    HW237377   4.290   1.594  17.182  0.2011 -0.3467 -0.2112
 8639SOL     OW37378   0.004   1.519  12.265 -0.4704 -0.4389 -0.4908
 8639SOL    HW137379   0.098   1.518  12.283 -0.1244 -0.3842 -2.3305
 8639SOL    HW237380   0.004   1.601  12.216  3.6511  0.1842  0.5945
 8640SOL     OW37381   2.183   2.926   8.244  0.4091  0.4070 -0.1447
 8640SOL    HW137382   2.142   2.989   8.304  2.2298  1.0640  0.4101
 8640SOL    HW237383   2.180   2.848   8.300 -2.5411 -0.7693 -1.9757
 8641SOL     OW37384   1.337   2.595   2.074 -0.1691 -0.0148  0.5529
 8641SOL    HW137385   1.295   2.657   2.014  2.1073  1.6274  0.6228
 8641SOL    HW237386   1.263   2.537   2.091  0.3319 -0.1486  2.2282
 8642SOL     OW37387   1.220   3.997  10.963  0.3258  0.2971 -0.5086
 8642SOL    HW137388   1.169   3.944  11.024  4.2403 -1.6552  1.0248
 8642SOL    HW237389   1.296   4.025  11.014  1.5994 -2.4313 -0.9289
 8643SOL     OW37390   3.955   2.108   0.322  0.9929 -0.0333  0.2921
 8643SOL    HW137391   3.936   2.157   0.403 -0.6711 -0.6979  0.2855
 8643SOL    HW237392   3.915   2.166   0.258  0.0087 -0.1472  0.8048
 8644SOL     OW37393   4.128   1.284   4.763 -0.3933  0.5311  0.5482
 8644SOL    HW137394   4.093   1.195   4.765 -2.5806  1.4060  0.7088
 8644SOL    HW237395   4.063   1.338   4.719 -3.1702 -4.7605 -1.7702
 8645SOL     OW37396   3.950   3.153   7.580  0.2189  0.0026 -0.6262
 8645SOL    HW137397   3.968   3.159   7.486 -0.9225  1.7482 -0.7167
 8645SOL    HW237398   3.881   3.218   7.593  0.0185  0.2056 -2.6341
 8646SOL     OW37399   0.161   1.720   7.390  0.3437  0.3425  0.6939
 8646SOL    HW137400   0.238   1.777   7.391  0.0493  0.7429  0.5397
 8646SOL    HW237401   0.134   1.736   7.481 -0.4059  1.3872  0.2776
 8647SOL     OW37402   4.697   2.727  13.200 -0.3185  0.1095  0.0859
 8647SOL    HW137403   0.046   2.725  13.265 -1.0459 -5.3620  0.7502
 8647SOL    HW237404   4.633   2.679  13.252 -0.8967  0.6231 -0.1588
 8648SOL     OW37405   3.259   2.204   0.743 -0.3911  0.2639  0.5651
 8648SOL    HW137406   3.225   2.293   0.758 -0.1473  0.4311  0.1462
 8648SOL    HW237407   3.293   2.196   0.832 -0.5259 -0.0596  0.5857
 8649SOL     OW37408   0.875   0.624   2.876  0.5197 -0.0511  0.2941
 8649SOL    HW137409   0.970   0.632   2.885  0.9551 -2.3870 -2.0454
 8649SOL    HW237410   0.865   0.584   2.790 -0.8585 -1.1878  0.9841
 8650SOL     OW37411   0.368   3.345   5.421 -0.4812  0.1004  0.5164
 8650SOL    HW137412   0.457   3.348   5.454 -0.4725 -0.8879  0.5731
 8650SOL    HW237413   0.323   3.358   5.505 -1.2684 -0.6473  0.2147
 8651SOL     OW37414   1.732   4.178   6.440  0.0620  0.7660 -0.0941
 8651SOL    HW137415   1.697   4.120   6.372 -0.9143  1.2581 -0.0121
 8651SOL    HW237416   1.777   4.113   6.494  2.6815  1.9095 -0.8847
 8652SOL     OW37417   2.912   3.434  15.363  0.0734  0.4064 -0.3823
 8652SOL    HW137418   2.985   3.406  15.419 -1.5406  0.3182  1.6943
 8652SOL    HW237419   2.966   3.492  15.310  1.1308 -1.8223 -1.7322
 8653SOL     OW37420   3.881   1.797   4.708  0.2998 -0.4877 -0.5731
 8653SOL    HW137421   3.806   1.820   4.653 -0.3182  0.2758  0.5782
 8653SOL    HW237422   3.835   1.778   4.790  0.5520 -2.7084 -0.9547
 8654SOL     OW37423   2.073   3.279   3.876  0.0734  0.5781 -0.1650
 8654SOL    HW137424   2.002   3.218   3.896  0.6626  0.0901  0.4437
 8654SOL    HW237425   2.086   3.326   3.959  0.7427  1.2818 -0.6645
 8655SOL     OW37426   0.860   0.100  10.504 -0.4258  0.0685 -0.0414
 8655SOL    HW137427   0.871   0.007  10.519 -2.1306 -0.0012  0.7686
 8655SOL    HW237428   0.819   0.103  10.417 -0.2433 -0.0827 -0.1340
 8656SOL     OW37429   0.400   0.769  12.775  0.0328  0.4816 -0.2802
 8656SOL    HW137430   0.350   0.707  12.721 -0.2730 -0.0377  0.5946
 8656SOL    HW237431   0.342   0.844  12.787  1.3789  1.8918 -2.6512
 8657SOL     OW37432   2.683   1.406   7.740  0.2748 -0.2004  0.5331
 8657SOL    HW137433   2.772   1.410   7.776  0.7506  0.9876 -0.8067
 8657SOL    HW237434   2.634   1.442   7.814 -0.1389 -2.1189  1.2067
 8658SOL     OW37435   1.105   2.177   0.956  0.1345  0.2362 -0.0138
 8658SOL    HW137436   1.057   2.110   0.908 -0.3977  0.2351  0.5141
 8658SOL    HW237437   1.191   2.136   0.962 -1.2087 -2.4817  0.6833
 8659SOL     OW37438   3.324   4.508   6.412 -0.1695  0.0670  0.5659
 8659SOL    HW137439   3.259   4.503   6.482 -0.1205 -1.2282  0.5197
 8659SOL    HW237440   3.270   4.562   6.356 -0.3931  1.1156  1.7861
 8660SOL     OW37441   3.422   4.158   4.277  0.5097 -0.3101 -0.1187
 8660SOL    HW137442   3.449   4.082   4.329 -0.7290 -0.0923  0.8511
 8660SOL    HW237443   3.332   4.164   4.310 -0.0616  1.4801 -1.9804
 8661SOL     OW37444   1.848   3.203   6.528  0.4404  0.6690  0.8788
 8661SOL    HW137445   1.921   3.239   6.579  0.0596 -1.3625  2.8451
 8661SOL    HW237446   1.787   3.276   6.518  1.3550  1.3813  0.4880
 8662SOL     OW37447   2.236   0.149   8.940  0.4423  0.0353 -0.0498
 8662SOL    HW137448   2.182   0.091   8.994 -0.2862  1.2649  0.5277
 8662SOL    HW237449   2.320   0.106   8.955  1.6359  2.3996  0.0910
 8663SOL     OW37450   0.058   4.361   1.033 -0.0862 -0.2474 -0.5335
 8663SOL    HW137451   0.082   4.453   1.018 -1.0122  0.4705  2.3405
 8663SOL    HW237452   0.143   4.332   1.066 -0.0626 -1.0023 -1.2585
 8664SOL     OW37453   4.707   1.109   1.233  0.3030  0.5214 -0.0094
 8664SOL    HW137454   0.019   1.019   1.233 -2.7045 -0.6150 -1.8545
 8664SOL    HW237455   0.046   1.162   1.285 -0.4999  1.2839  0.1423
 8665SOL     OW37456   0.217   0.907   8.483  0.0883  0.2399 -0.6548
 8665SOL    HW137457   0.183   0.837   8.539 -2.9660  1.7005 -0.7413
 8665SOL    HW237458   0.172   0.984   8.516 -1.4288 -0.2168 -1.6484
 8666SOL     OW37459   2.773   3.639  14.335  0.4713  0.1993  0.6664
 8666SOL    HW137460   2.796   3.658  14.244  2.2212 -1.8303  0.6943
 8666SOL    HW237461   2.698   3.582  14.320  1.0990 -0.2108 -0.9580
 8667SOL     OW37462   3.340   0.824   6.455  0.4266  0.0192  0.1203
 8667SOL    HW137463   3.311   0.733   6.457 -0.8196  0.4368  1.0469
 8667SOL    HW237464   3.392   0.832   6.535 -0.1915 -2.0360  0.7342
 8668SOL     OW37465   1.372   2.596   6.984  0.3091  0.1157 -0.0698
 8668SOL    HW137466   1.441   2.660   6.996  1.3787 -0.6167 -2.2999
 8668SOL    HW237467   1.315   2.607   7.061 -0.5726  1.3983 -0.8986
 8669SOL     OW37468   2.062   1.027   4.100 -0.1080 -0.2895 -0.2158
 8669SOL    HW137469   2.103   0.950   4.138  0.4443  0.8781  1.5739
 8669SOL    HW237470   2.024   1.068   4.177  1.0326  0.3047  0.0451
 8670SOL     OW37471   3.696   2.247   9.422 -0.5439 -0.1749  0.6025
 8670SOL    HW137472   3.621   2.232   9.480 -0.4169 -0.2855  0.7382
 8670SOL    HW237473   3.735   2.329   9.452 -0.0696 -0.9311  2.0554
 8671SOL     OW37474   0.601   3.767   6.738 -0.0025 -0.0546 -0.0485
 8671SOL    HW137475   0.649   3.711   6.677 -0.8068  0.1519 -0.8744
 8671SOL    HW237476   0.661   3.841   6.745  0.5767 -0.6443  1.2399
 8672SOL     OW37477   3.240   4.115   6.759 -0.7649 -0.0210 -0.5920
 8672SOL    HW137478   3.326   4.080   6.735  0.0545  0.9934  0.8920
 8672SOL    HW237479   3.269   4.200   6.791  2.1983 -0.5892 -1.8137
 8673SOL     OW37480   0.821   4.265   9.498  0.3867 -0.3101 -0.0613
 8673SOL    HW137481   0.863   4.302   9.420  1.8258  1.9275  1.7928
 8673SOL    HW237482   0.775   4.347   9.518  2.7063  0.9299  0.1685
 8674SOL     OW37483   1.254   0.314  12.541 -0.5662  0.4116  0.9403
 8674SOL    HW137484   1.295   0.234  12.507  1.1011  1.1844  1.0947
 8674SOL    HW237485   1.292   0.383  12.487  0.0137 -1.1358 -0.6368
 8675SOL     OW37486   3.191   0.329  10.194  0.0941  0.2930  0.1197
 8675SOL    HW137487   3.144   0.385  10.132 -2.4100 -1.1338  0.7682
 8675SOL    HW237488   3.213   0.391  10.264  2.7188 -0.2963 -0.1698
 8676SOL     OW37489   3.144   4.617   6.214 -0.1747  0.7300  0.1091
 8676SOL    HW137490   3.141   4.558   6.139  0.5960 -0.1412  0.7583
 8676SOL    HW237491   3.055   4.607   6.249 -0.3559  0.0006 -0.5685
 8677SOL     OW37492   3.628   0.811  13.364 -0.5052 -0.1468  0.0744
 8677SOL    HW137493   3.689   0.820  13.291 -0.8844  0.4789 -0.1635
 8677SOL    HW237494   3.606   0.718  13.356  0.5707 -0.3192 -0.8239
 8678SOL     OW37495   1.043   2.474   6.539 -0.4006  0.2373  0.1019
 8678SOL    HW137496   1.104   2.411   6.578 -1.8751 -0.7465  0.8268
 8678SOL    HW237497   0.953   2.445   6.553  0.7674 -1.8603  3.1995
 8679SOL     OW37498   1.394   4.194   1.109 -0.2946  0.0464  0.1444
 8679SOL    HW137499   1.364   4.123   1.052 -1.7712  0.8802 -0.1473
 8679SOL    HW237500   1.403   4.266   1.047 -0.8212 -1.0409 -1.2034
 8680SOL     OW37501   1.266   2.597   3.439  0.1512  0.2206 -0.6620
 8680SOL    HW137502   1.227   2.661   3.499 -1.8941 -0.9346 -0.7659
 8680SOL    HW237503   1.239   2.512   3.474  0.6548 -0.5220 -2.0826
 8681SOL     OW37504   2.401   0.585   6.506  0.1928  0.0721  0.0808
 8681SOL    HW137505   2.412   0.664   6.559  3.1897 -0.9855  1.0160
 8681SOL    HW237506   2.322   0.547   6.545 -0.5621  0.9677 -0.5726
 8682SOL     OW37507   2.157   0.042   6.331 -0.2316 -0.0500  0.2746
 8682SOL    HW137508   2.251   0.060   6.331 -0.3274  0.4685 -0.5047
 8682SOL    HW237509   2.163   4.668   6.325 -0.7201  0.1617 -3.6898
 8683SOL     OW37510   1.553   3.123   6.500 -0.1672  0.1265 -0.1167
 8683SOL    HW137511   1.495   3.194   6.474 -0.7155 -0.0353  0.6841
 8683SOL    HW237512   1.642   3.156   6.486 -0.0601  0.1719  0.6779
 8684SOL     OW37513   1.571   2.494   9.822  0.2788 -0.4507  0.3467
 8684SOL    HW137514   1.592   2.419   9.766  0.1988 -0.1047 -0.1443
 8684SOL    HW237515   1.492   2.528   9.780  1.1364  0.7944 -0.2553
 8685SOL     OW37516   0.417   2.014   6.647  0.3507 -0.1440 -0.2241
 8685SOL    HW137517   0.351   2.061   6.698 -0.9531 -1.7909 -0.3931
 8685SOL    HW237518   0.362   1.993   6.572  1.0253  0.9183 -1.0013
 8686SOL     OW37519   2.128   2.207   8.159 -0.4677  0.3631 -0.2767
 8686SOL    HW137520   2.138   2.225   8.065 -2.8536  1.6489 -0.2826
 8686SOL    HW237521   2.046   2.251   8.183  0.0313 -0.6152  3.1180
 8687SOL     OW37522   2.165   3.756   5.315  0.2141  0.5018 -0.0529
 8687SOL    HW137523   2.120   3.692   5.371  1.5618  1.1460  1.7808
 8687SOL    HW237524   2.244   3.703   5.297  0.7006  1.1783  0.0925
 8688SOL     OW37525   4.147   3.793   6.656  0.3956  0.1607  0.5345
 8688SOL    HW137526   4.218   3.854   6.678  0.1492  0.4664  0.4799
 8688SOL    HW237527   4.158   3.724   6.721 -3.0798 -1.9268 -1.1022
 8689SOL     OW37528   2.947   1.975   4.672  0.1499  0.3590  0.1931
 8689SOL    HW137529   2.955   1.935   4.585 -1.6839  0.5292 -0.0360
 8689SOL    HW237530   3.029   2.025   4.676  0.4626 -0.0724 -0.6864
 8690SOL     OW37531   2.452   2.632   8.949 -0.2216  0.2152 -0.0852
 8690SOL    HW137532   2.524   2.693   8.967  1.9538 -2.0213 -1.2672
 8690SOL    HW237533   2.500   2.587   8.879 -0.9798 -0.3574 -0.2326
 8691SOL     OW37534   3.837   4.647  13.796  0.4334 -0.0765 -0.1263
 8691SOL    HW137535   3.761   4.688  13.837 -0.1287 -1.4871  0.2514
 8691SOL    HW237536   3.872   4.596  13.869  0.5819 -0.7488 -0.6621
 8692SOL     OW37537   1.570   0.123   9.617 -0.2848 -0.6096  0.2298
 8692SOL    HW137538   1.540   0.053   9.559 -1.2462  0.4274 -0.5188
 8692SOL    HW237539   1.503   0.190   9.603 -0.0948 -0.3328  0.6345
 8693SOL     OW37540   1.834   2.298  12.791  0.5558  0.4529 -0.1358
 8693SOL    HW137541   1.926   2.302  12.815  0.6028 -1.1850 -0.0462
 8693SOL    HW237542   1.798   2.336  12.871  0.9425  0.8108 -0.1345
 8694SOL     OW37543   1.683   3.718   1.584  0.3224  0.1675 -0.1054
 8694SOL    HW137544   1.639   3.799   1.558 -1.8396 -1.4450 -1.4579
 8694SOL    HW237545   1.660   3.704   1.676 -0.7479  0.7258 -0.2955
 8695SOL     OW37546   1.153   4.057   6.671 -0.5392 -0.0799 -0.1276
 8695SOL    HW137547   1.143   4.051   6.766 -0.3089 -0.7453 -0.1494
 8695SOL    HW237548   1.238   4.101   6.661 -0.6677  0.7706  2.4371
 8696SOL     OW37549   2.847   3.093   7.739 -0.0187  0.0154 -0.2819
 8696SOL    HW137550   2.882   3.105   7.827 -1.8064  1.8691  0.1956
 8696SOL    HW237551   2.921   3.049   7.697  0.7727  0.9288  0.1584
 8697SOL     OW37552   4.412   4.497   7.575 -0.5383  0.5089  0.2784
 8697SOL    HW137553   4.318   4.497   7.555 -0.6135 -0.5698  0.6664
 8697SOL    HW237554   4.452   4.492   7.488  1.5057 -0.5620  1.2922
 8698SOL     OW37555   2.004   0.705   5.400 -0.6445  0.3628 -0.3173
 8698SOL    HW137556   1.976   0.706   5.491 -0.8976 -2.7830 -0.3539
 8698SOL    HW237557   2.011   0.610   5.395  0.2746  0.3650  0.9132
 8699SOL     OW37558   1.404   0.632  10.645  0.1291  0.4056 -0.4873
 8699SOL    HW137559   1.338   0.691  10.683  0.4891  0.5712 -0.1228
 8699SOL    HW237560   1.399   0.553  10.699 -0.9884  0.8701  0.0961
 8700SOL     OW37561   2.491   2.418   4.839 -0.6379 -0.0354 -0.1699
 8700SOL    HW137562   2.556   2.349   4.854 -1.0621 -0.3898  0.0514
 8700SOL    HW237563   2.415   2.359   4.843 -1.8086  1.7614  4.0548
 8701SOL     OW37564   3.023   3.137   1.235  0.2329 -0.5611 -0.0185
 8701SOL    HW137565   2.934   3.138   1.200 -0.2550 -1.8823  1.1919
 8701SOL    HW237566   3.072   3.147   1.153  0.9855  0.5193  0.5614
 8702SOL     OW37567   0.306   3.700  10.038 -0.8303  0.5947 -0.4223
 8702SOL    HW137568   0.374   3.692  10.105 -0.4346 -0.6346 -0.9708
 8702SOL    HW237569   0.354   3.671   9.960  1.1579  0.7115  0.7487
 8703SOL     OW37570   1.154   0.649   5.494 -0.0085 -0.1590 -0.1433
 8703SOL    HW137571   1.089   0.595   5.449 -1.3003 -0.8950  2.5847
 8703SOL    HW237572   1.146   0.628   5.587 -1.5819  1.0672 -0.0110
 8704SOL     OW37573   0.025   1.705   2.366 -0.0549  0.2387  0.5825
 8704SOL    HW137574   4.689   1.721   2.291 -1.2662  0.5763  1.5835
 8704SOL    HW237575   4.694   1.732   2.442 -1.6945 -0.0410 -0.4336
 8705SOL     OW37576   2.371   1.326   3.882 -0.5441  0.7949  0.3355
 8705SOL    HW137577   2.429   1.320   3.806 -0.6461 -0.8067  0.3895
 8705SOL    HW237578   2.293   1.273   3.866 -0.3367  0.8182 -0.7616
 8706SOL     OW37579   0.908   1.394  16.213 -0.5765  0.1453 -0.6551
 8706SOL    HW137580   0.840   1.461  16.218  0.5541  1.1596  1.1702
 8706SOL    HW237581   0.989   1.441  16.194  0.1984 -0.0016  2.3750
 8707SOL     OW37582   1.554   4.415  11.510 -0.4039  0.2452 -0.2532
 8707SOL    HW137583   1.635   4.461  11.485 -0.5659  0.6260 -0.0835
 8707SOL    HW237584   1.554   4.423  11.605 -1.1353  1.0950 -0.3164
 8708SOL     OW37585   2.260   2.337  15.713 -0.2102 -0.6871 -0.0062
 8708SOL    HW137586   2.217   2.364  15.632 -1.0734 -0.3904  0.5524
 8708SOL    HW237587   2.331   2.284  15.677 -0.8505 -1.5570  0.0196
 8709SOL     OW37588   2.057   4.339   8.643  0.5229 -0.4690  0.2502
 8709SOL    HW137589   1.989   4.366   8.706  0.9465  0.9443  0.1172
 8709SOL    HW237590   2.021   4.388   8.569  0.7538  0.1929  0.5749
 8710SOL     OW37591   1.629   3.115   3.885 -0.1860 -0.7833  0.6588
 8710SOL    HW137592   1.630   3.169   3.964 -0.2087 -2.0275  1.5155
 8710SOL    HW237593   1.712   3.067   3.888  0.1492 -0.1743  1.2914
 8711SOL     OW37594   4.622   0.831  14.748 -0.5282  0.8750 -0.4396
 8711SOL    HW137595   4.555   0.765  14.730  0.2958 -1.1426  3.7746
 8711SOL    HW237596   4.587   0.853  14.833  1.2758  1.9425  0.0303
 8712SOL     OW37597   3.774   1.935   8.212  0.6120 -0.5385  0.0459
 8712SOL    HW137598   3.704   1.874   8.193  0.1915  0.2894 -1.0742
 8712SOL    HW237599   3.767   1.930   8.308  0.0316 -0.2115  0.0168
 8713SOL     OW37600   0.295   0.828   3.205 -0.1424  0.6318 -0.3304
 8713SOL    HW137601   0.364   0.773   3.169 -0.7934 -0.6786  0.3947
 8713SOL    HW237602   0.236   0.843   3.131 -0.3486  1.7460  0.0559
 8714SOL     OW37603   1.367   0.359  15.087  0.1130 -0.2115  0.2118
 8714SOL    HW137604   1.361   0.292  15.156  0.8150  0.2607  0.7295
 8714SOL    HW237605   1.344   0.437  15.138 -0.3845 -0.9978  1.1896
 8715SOL     OW37606   2.131   2.054   5.876 -0.0474 -0.4634  0.5481
 8715SOL    HW137607   2.070   2.030   5.946  0.0939 -2.6152 -0.0869
 8715SOL    HW237608   2.067   2.089   5.814 -1.4964 -2.0784  1.1354
 8716SOL     OW37609   0.145   3.597   2.900  0.2738 -0.0699  0.2174
 8716SOL    HW137610   0.148   3.630   2.810 -0.4528 -1.5817 -0.3547
 8716SOL    HW237611   0.135   3.503   2.887  0.8123 -0.0420 -0.4248
 8717SOL     OW37612   4.500   1.720   7.048  0.1133 -0.3264 -0.0195
 8717SOL    HW137613   4.575   1.723   7.108  0.6444  0.6519 -0.7363
 8717SOL    HW237614   4.451   1.795   7.079  1.9960  1.2447 -0.8279
 8718SOL     OW37615   3.909   4.216   8.058  0.1573  0.4268 -0.3120
 8718SOL    HW137616   3.854   4.194   7.983  1.3616 -0.1432 -1.0346
 8718SOL    HW237617   3.856   4.268   8.118 -1.2129  0.8836 -1.9115
 8719SOL     OW37618   3.545   2.674   4.412 -1.0712  0.1763  0.2245
 8719SOL    HW137619   3.486   2.733   4.365 -1.3467 -2.0106 -2.2107
 8719SOL    HW237620   3.631   2.710   4.388 -1.4444  2.6611  2.6405
 8720SOL     OW37621   0.420   4.324   9.148  0.6643  0.0230 -0.4657
 8720SOL    HW137622   0.351   4.313   9.214  1.0575  1.1824  0.1534
 8720SOL    HW237623   0.454   4.408   9.180  0.5917 -1.0490  2.4315
 8721SOL     OW37624   3.796   1.843   8.934 -0.9403 -0.3431  0.7773
 8721SOL    HW137625   3.709   1.881   8.927 -0.8177  0.0405  1.3549
 8721SOL    HW237626   3.845   1.917   8.899 -0.2388 -1.0036  0.3506
 8722SOL     OW37627   3.893   0.312   4.523 -0.0218 -0.2285  0.1560
 8722SOL    HW137628   3.979   0.269   4.525  0.9791  1.8401  1.8430
 8722SOL    HW237629   3.910   0.379   4.456 -1.3677  0.6254  0.6801
 8723SOL     OW37630   2.312   3.892  13.126  0.0979  0.6546  0.0597
 8723SOL    HW137631   2.301   3.818  13.185  1.1686 -0.2640 -0.8886
 8723SOL    HW237632   2.232   3.940  13.148 -0.5404  0.2175 -1.3438
 8724SOL     OW37633   1.960   0.577   6.406 -0.0579  0.3192 -0.0049
 8724SOL    HW137634   1.946   0.539   6.493  1.7270 -1.9205 -0.7080
 8724SOL    HW237635   1.976   0.498   6.355 -2.4324  0.2139 -0.5970
 8725SOL     OW37636   2.178   0.786   8.138  0.2135 -0.4026  0.1905
 8725SOL    HW137637   2.191   0.765   8.231 -0.6244 -0.4117  0.3083
 8725SOL    HW237638   2.101   0.841   8.155 -0.2956 -0.8634 -0.6090
 8726SOL     OW37639   0.855   0.076   8.357  0.2512  0.6028  0.1456
 8726SOL    HW137640   0.834   0.075   8.264 -2.7026  1.6712  0.7832
 8726SOL    HW237641   0.880   4.706   8.372 -0.8157  0.4049  0.7975
 8727SOL     OW37642   4.623   1.449   1.377  0.2582 -0.2410  0.3495
 8727SOL    HW137643   4.578   1.530   1.355 -1.0492 -0.8200  0.8221
 8727SOL    HW237644   4.626   1.409   1.290 -0.8851 -0.9611  0.6342
 8728SOL     OW37645   1.120   0.704   7.940  0.1907 -0.2199 -0.5820
 8728SOL    HW137646   1.153   0.629   7.890  0.2530 -0.2313 -0.5252
 8728SOL    HW237647   1.164   0.767   7.883  1.4183  0.2606  0.8676
 8729SOL     OW37648   3.579   1.676   6.303  0.2798 -0.3649 -0.1622
 8729SOL    HW137649   3.638   1.655   6.375 -1.1187  0.3693  1.1958
 8729SOL    HW237650   3.578   1.593   6.256  0.5443  0.2409 -1.2359
 8730SOL     OW37651   4.415   1.695   4.101  0.6260 -0.6265 -0.1628
 8730SOL    HW137652   4.320   1.704   4.107  0.6093  0.4081 -1.7998
 8730SOL    HW237653   4.446   1.777   4.062  2.0904 -1.5062 -0.8504
 8731SOL     OW37654   1.405   2.782   7.398  0.0655  0.4327  0.0701
 8731SOL    HW137655   1.361   2.720   7.456 -0.7431 -2.1035 -3.2419
 8731SOL    HW237656   1.495   2.750   7.401 -0.1031 -0.3840 -3.1933
 8732SOL     OW37657   0.023   1.013   8.913 -0.2091  0.5004  0.2329
 8732SOL    HW137658   0.060   1.077   8.974  0.6217  0.2983 -0.0494
 8732SOL    HW237659   0.073   1.033   8.834 -1.4236 -0.0212 -0.6562
 8733SOL     OW37660   3.494   0.414   5.673  0.5433  0.1291 -0.6315
 8733SOL    HW137661   3.570   0.364   5.642 -0.6671 -0.5238 -2.5657
 8733SOL    HW237662   3.494   0.473   5.598  0.0206 -1.8047 -2.1776
 8734SOL     OW37663   2.754   3.027   6.465  0.3911  0.0767 -0.5167
 8734SOL    HW137664   2.690   3.080   6.418 -0.8564 -1.9763 -1.1274
 8734SOL    HW237665   2.788   2.971   6.395 -1.3441 -1.3639 -0.2194
 8735SOL     OW37666   2.725   2.400  11.709  0.4547  0.0202 -0.0527
 8735SOL    HW137667   2.719   2.335  11.779 -1.3435  0.5741  0.2954
 8735SOL    HW237668   2.718   2.347  11.630  0.2570 -1.2343  0.8031
 8736SOL     OW37669   4.227   0.171  13.361 -0.2893 -0.3995  0.2181
 8736SOL    HW137670   4.299   0.153  13.421 -0.0461 -1.0167 -0.2490
 8736SOL    HW237671   4.159   0.209  13.415  0.0356  1.0005 -0.3576
 8737SOL     OW37672   2.139   0.768  14.894 -0.0985  0.5335 -0.8858
 8737SOL    HW137673   2.080   0.765  14.969 -0.1243  0.5110 -0.9069
 8737SOL    HW237674   2.139   0.679  14.860 -3.3975  1.1874 -2.5849
 8738SOL     OW37675   0.254   0.581   2.866 -0.5511 -0.2125 -0.6395
 8738SOL    HW137676   0.164   0.599   2.840 -0.5828  0.1943 -0.2513
 8738SOL    HW237677   0.292   0.601   2.781  1.1638  2.8188  0.8735
 8739SOL     OW37678   4.003   0.742   5.366 -0.2143  0.0162 -0.6092
 8739SOL    HW137679   3.912   0.770   5.371 -0.9592 -1.8317 -3.4663
 8739SOL    HW237680   4.000   0.664   5.311  0.7811 -0.8941  0.6305
 8740SOL     OW37681   0.305   0.052  10.608 -0.6328  0.9380  0.1011
 8740SOL    HW137682   0.347   0.091  10.686  2.4909 -0.6865 -0.7740
 8740SOL    HW237683   0.237   4.719  10.646  2.7645 -3.1829  0.2738
 8741SOL     OW37684   1.476   1.342   3.472 -0.1324  0.1956 -1.0415
 8741SOL    HW137685   1.455   1.250   3.487 -2.9759  0.8487 -1.0885
 8741SOL    HW237686   1.471   1.355   3.378 -1.0694 -2.6082 -1.3593
 8742SOL     OW37687   4.355   1.004   5.973 -0.2937 -0.1354  0.5113
 8742SOL    HW137688   4.304   0.957   6.039 -0.3564  1.4480  1.6059
 8742SOL    HW237689   4.301   1.011   5.894 -3.2315  2.4611  2.7684
 8743SOL     OW37690   3.965   4.453  10.768 -0.0852  0.1139 -0.0152
 8743SOL    HW137691   4.013   4.532  10.743  0.0196  0.9045  2.7536
 8743SOL    HW237692   3.985   4.446  10.861  1.0825  1.1658 -0.1907
 8744SOL     OW37693   0.918   1.676  11.679 -0.4007  0.4922 -0.2516
 8744SOL    HW137694   0.904   1.586  11.708  1.0858 -0.4890 -2.5802
 8744SOL    HW237695   0.828   1.710  11.680 -0.5369  0.1260  1.0985
 8745SOL     OW37696   4.301   4.282   9.675  0.3236 -0.2341 -0.4725
 8745SOL    HW137697   4.263   4.365   9.644 -0.8201 -0.5391  0.1059
 8745SOL    HW237698   4.376   4.276   9.616  1.3210  1.2453  0.6290
 8746SOL     OW37699   4.208   3.170  17.530  0.2068  0.1701 -0.6033
 8746SOL    HW137700   4.287   3.166  17.584  0.0075  2.7166 -0.1105
 8746SOL    HW237701   4.245   3.214  17.453 -0.3460  1.6438 -0.0139
 8747SOL     OW37702   0.030   3.546   7.395 -0.0890 -0.0478 -0.1107
 8747SOL    HW137703   4.667   3.578   7.364 -0.7610 -2.8892 -1.1999
 8747SOL    HW237704   0.086   3.583   7.326 -0.1674  1.6371  0.7080
 8748SOL     OW37705   1.509   0.584   4.489  0.3449 -0.2978  0.1245
 8748SOL    HW137706   1.545   0.667   4.522  0.6693 -0.1812 -0.5196
 8748SOL    HW237707   1.418   0.575   4.518  0.8923 -1.1403  1.5902
 8749SOL     OW37708   1.925   2.302   6.470 -0.0788 -0.6573 -0.2560
 8749SOL    HW137709   1.892   2.364   6.404  0.0166 -0.9200 -0.5520
 8749SOL    HW237710   1.859   2.299   6.539 -1.4320  1.8166 -1.4237
 8750SOL     OW37711   1.312   1.717   0.071 -0.1269 -0.5774  0.0310
 8750SOL    HW137712   1.344   1.804   0.093 -0.5817 -0.4857  0.3340
 8750SOL    HW237713   1.368   1.688  17.687  1.6246  0.1599  1.1064
 8751SOL     OW37714   4.129   0.738   6.532 -0.0576  0.2872 -0.1830
 8751SOL    HW137715   4.207   0.757   6.480  1.2285 -0.4250  1.4888
 8751SOL    HW237716   4.103   0.827   6.555 -4.4647 -0.6714 -1.4692
 8752SOL     OW37717   1.233   2.386   9.863 -0.4412  0.1639 -0.0273
 8752SOL    HW137718   1.229   2.446   9.937  4.4347  0.7087 -0.2322
 8752SOL    HW237719   1.310   2.416   9.814 -0.3792  1.5808  0.9541
 8753SOL     OW37720   1.957   4.027   4.454  0.2197  0.1681 -0.1435
 8753SOL    HW137721   1.935   4.116   4.480  3.8825  1.4003 -1.4027
 8753SOL    HW237722   1.899   4.001   4.383 -0.9388  1.3372  0.3798
 8754SOL     OW37723   4.140   0.138   8.383 -0.1183 -0.3901  0.5980
 8754SOL    HW137724   4.179   0.225   8.368  0.2368 -0.4754  1.0321
 8754SOL    HW237725   4.054   0.174   8.403 -1.0472 -1.6157 -1.2166
 8755SOL     OW37726   3.293   2.791   6.456 -0.7507  0.5072  0.2767
 8755SOL    HW137727   3.250   2.831   6.380 -1.7995 -0.1833  0.5073
 8755SOL    HW237728   3.343   2.865   6.492 -0.8238  0.4957  0.4009
 8756SOL     OW37729   4.228   4.505   2.571  0.0875 -0.0106  0.2178
 8756SOL    HW137730   4.198   4.414   2.576  2.0089 -0.7172 -1.1351
 8756SOL    HW237731   4.300   4.503   2.633 -0.1502  1.0912  0.5367
 8757SOL     OW37732   1.442   4.048  13.836 -0.0535  0.3874  0.0048
 8757SOL    HW137733   1.479   4.048  13.748 -1.3868 -0.0201 -0.5692
 8757SOL    HW237734   1.346   4.047  13.831 -0.2036 -0.6500  2.9547
 8758SOL     OW37735   2.140   0.942  11.343  0.0789 -0.5526 -0.0292
 8758SOL    HW137736   2.173   1.008  11.281 -1.4325  1.5322  1.3705
 8758SOL    HW237737   2.187   0.864  11.315  0.1463 -0.2359 -0.8046
 8759SOL     OW37738   0.553   2.627   2.899 -0.0187  0.4881  0.0911
 8759SOL    HW137739   0.475   2.643   2.952  0.6145  2.1475  0.5348
 8759SOL    HW237740   0.544   2.541   2.858 -0.4185  0.7546 -0.3900
 8760SOL     OW37741   1.317   4.115   5.913  0.1060 -0.7428  0.2008
 8760SOL    HW137742   1.270   4.097   5.832  0.3323 -3.3340  0.6286
 8760SOL    HW237743   1.292   4.045   5.974  0.9106 -0.3814  0.9430
 8761SOL     OW37744   2.636   1.458   9.803 -0.1245  0.0775 -0.1566
 8761SOL    HW137745   2.620   1.433   9.712  2.5615  0.1474 -0.6312
 8761SOL    HW237746   2.680   1.381   9.838  1.6815 -0.0679 -2.7892
 8762SOL     OW37747   1.143   3.520   8.565  0.1510 -0.0484 -0.2026
 8762SOL    HW137748   1.072   3.459   8.582 -0.4979  0.4415 -1.1350
 8762SOL    HW237749   1.215   3.457   8.573  1.1314  0.7669 -2.3985
 8763SOL     OW37750   4.583   3.846   7.674  0.2962 -0.3629 -0.2660
 8763SOL    HW137751   4.523   3.788   7.720 -1.4723  0.6727 -1.2743
 8763SOL    HW237752   4.665   3.796   7.673  0.6200  0.2093 -2.7602
 8764SOL     OW37753   3.388   2.696   3.863 -0.1977  0.0117 -0.3641
 8764SOL    HW137754   3.397   2.669   3.954  2.0565 -1.4574 -1.0203
 8764SOL    HW237755   3.461   2.758   3.864 -0.6158  0.5230 -1.3492
 8765SOL     OW37756   1.584   1.809   5.416  0.1294 -0.0318 -0.3826
 8765SOL    HW137757   1.517   1.754   5.375 -0.2500 -0.2731  0.5465
 8765SOL    HW237758   1.529   1.872   5.462  0.9342  1.1803 -1.1011
 8766SOL     OW37759   2.471   3.625  11.946  0.1060  0.3392  0.2002
 8766SOL    HW137760   2.524   3.643  11.868  1.0619 -0.5672  0.6474
 8766SOL    HW237761   2.547   3.594  11.995  1.1230 -0.7416 -2.0676
 8767SOL     OW37762   1.939   2.300  16.378 -0.4542 -0.6886  0.1333
 8767SOL    HW137763   1.844   2.311  16.377 -0.3696 -0.1684 -1.6101
 8767SOL    HW237764   1.941   2.206  16.400 -2.3934 -0.6243  0.6026
 8768SOL     OW37765   3.359   2.834   9.340  0.4535 -0.4351 -0.3214
 8768SOL    HW137766   3.298   2.904   9.361 -0.2820  0.0763 -4.1325
 8768SOL    HW237767   3.351   2.789   9.424 -3.6554  1.6015  0.3586
 8769SOL     OW37768   0.596   0.652  14.757 -0.2165  0.1491 -0.4549
 8769SOL    HW137769   0.558   0.602  14.829 -0.3220  2.6308  1.2398
 8769SOL    HW237770   0.524   0.714  14.742  0.2912  1.2316  1.5030
 8770SOL     OW37771   4.661   0.288   8.515 -0.0646  0.3040  0.1919
 8770SOL    HW137772   0.019   0.240   8.490  0.5486  1.3020  0.2068
 8770SOL    HW237773   4.626   0.232   8.584 -1.2701  0.3138 -0.4231
 8771SOL     OW37774   3.887   2.758   2.600  0.4426 -0.4318  0.2116
 8771SOL    HW137775   3.881   2.782   2.693  2.9727  2.6181 -0.4413
 8771SOL    HW237776   3.915   2.841   2.562  0.5078 -0.5961 -0.0954
 8772SOL     OW37777   0.406   2.808   0.272  0.2291 -0.2965 -0.7471
 8772SOL    HW137778   0.449   2.763   0.199 -1.6399 -0.8232 -1.5320
 8772SOL    HW237779   0.420   2.738   0.336  2.4586 -0.2158 -1.1609
 8773SOL     OW37780   1.750   0.383  11.412 -0.3970  0.3560 -0.8150
 8773SOL    HW137781   1.665   0.428  11.409 -1.2133 -1.0041  1.4938
 8773SOL    HW237782   1.789   0.414  11.493 -0.4327  0.0431 -0.6764
 8774SOL     OW37783   1.267   1.635   8.236  0.0739 -0.6689  0.3353
 8774SOL    HW137784   1.362   1.635   8.241  0.1158 -2.7057 -0.5436
 8774SOL    HW237785   1.240   1.544   8.248  2.3588 -1.4300 -0.3848
 8775SOL     OW37786   3.717   1.357   7.195  0.5160  0.1335  0.1986
 8775SOL    HW137787   3.667   1.432   7.162 -0.7952 -1.2091 -0.8593
 8775SOL    HW237788   3.694   1.368   7.287 -0.1067  1.8293 -0.1510
 8776SOL     OW37789   2.762   1.583   5.628  0.3176 -0.5745  0.0027
 8776SOL    HW137790   2.697   1.649   5.650 -1.5276 -1.8461 -1.6675
 8776SOL    HW237791   2.756   1.564   5.534  1.8068 -0.7109 -0.0599
 8777SOL     OW37792   0.895   1.855   7.339  0.0122 -0.7400  0.4212
 8777SOL    HW137793   0.927   1.944   7.353 -0.5201 -0.5097  0.1474
 8777SOL    HW237794   0.869   1.830   7.428  0.5282 -0.4062  0.6705
 8778SOL     OW37795   1.916   1.637  11.845 -0.3762 -0.1128  0.3606
 8778SOL    HW137796   1.865   1.622  11.925 -0.5871  0.1105  0.2683
 8778SOL    HW237797   1.847   1.674  11.790  0.0955 -0.2252 -0.3081
 8779SOL     OW37798   2.040   3.252   3.543 -0.5729 -0.2618 -0.2051
 8779SOL    HW137799   2.102   3.180   3.556  0.2489  0.4928  0.0728
 8779SOL    HW237800   2.003   3.230   3.457 -1.5904  2.8732 -0.5854
 8780SOL     OW37801   4.126   4.338   3.177 -0.8305 -0.1682  0.6652
 8780SOL    HW137802   4.089   4.265   3.127 -0.1829 -0.0315  0.0014
 8780SOL    HW237803   4.062   4.343   3.248 -1.5514  1.7199 -0.1114
 8781SOL     OW37804   1.361   3.495  15.018  0.5228  0.3391 -0.9363
 8781SOL    HW137805   1.454   3.497  15.040  0.1670 -0.7671  0.6512
 8781SOL    HW237806   1.353   3.416  14.964  0.8753  0.0332 -0.5337
 8782SOL     OW37807   0.798   1.910   6.205  0.0989  0.2506 -0.6107
 8782SOL    HW137808   0.846   1.841   6.251  2.6971  0.6791 -2.6648
 8782SOL    HW237809   0.851   1.913   6.125  1.0667  1.5276  0.0794
 8783SOL     OW37810   0.157   0.342   1.595  0.1020 -0.1508 -0.3895
 8783SOL    HW137811   0.195   0.257   1.575  0.7090  0.1530 -0.5445
 8783SOL    HW237812   0.235   0.396   1.579 -0.9755  1.2564 -0.9624
 8784SOL     OW37813   0.139   1.354   7.396 -0.2702 -0.5673  0.1031
 8784SOL    HW137814   0.104   1.423   7.452  0.0564  0.8048 -1.3936
 8784SOL    HW237815   0.071   1.354   7.329 -0.8918  2.5205  0.7148
 8785SOL     OW37816   0.343   2.894   1.255  0.6873 -0.3541 -0.4701
 8785SOL    HW137817   0.429   2.875   1.217  1.9982  0.2629  2.1818
 8785SOL    HW237818   0.291   2.836   1.200 -1.5339 -0.6851  1.9587
 8786SOL     OW37819   3.337   3.932  13.965  0.7804 -0.2107 -0.3330
 8786SOL    HW137820   3.325   4.000  13.899  1.3030  0.6097  0.4123
 8786SOL    HW237821   3.251   3.890  13.961  0.2749  0.6280  1.3528
 8787SOL     OW37822   2.558   2.366  13.989 -0.2062  0.1692 -0.5509
 8787SOL    HW137823   2.647   2.358  13.955 -0.3023  0.9565 -0.9621
 8787SOL    HW237824   2.517   2.310  13.923 -0.7103  1.1828 -1.0924
 8788SOL     OW37825   0.146   3.045   4.576 -0.5612 -0.4431 -0.2289
 8788SOL    HW137826   0.135   3.123   4.631 -1.4665 -0.2578 -0.6731
 8788SOL    HW237827   0.076   2.992   4.614  0.0701 -0.7081  0.5817
 8789SOL     OW37828   1.723   3.380   6.867  0.6088 -0.1939 -0.1216
 8789SOL    HW137829   1.645   3.342   6.907  1.3949 -1.6176  0.0605
 8789SOL    HW237830   1.773   3.302   6.846 -0.5518 -0.5921 -1.3621
 8790SOL     OW37831   2.338   1.516   3.284 -0.4425  0.6034 -0.0535
 8790SOL    HW137832   2.365   1.505   3.375  1.4232 -0.4672 -0.7347
 8790SOL    HW237833   2.295   1.602   3.281 -1.4327  0.1407  0.7806
 8791SOL     OW37834   3.278   4.110   2.917 -0.0344  0.5729  0.1142
 8791SOL    HW137835   3.278   4.054   2.995 -1.6331  0.3421 -0.0544
 8791SOL    HW237836   3.367   4.082   2.894 -1.2771 -3.3279  0.0182
 8792SOL     OW37837   2.809   2.707  14.933 -0.4014 -0.4576 -0.0184
 8792SOL    HW137838   2.828   2.628  14.983 -1.6934 -1.6257 -1.3577
 8792SOL    HW237839   2.728   2.723  14.981  0.1216 -1.7155  1.2512
 8793SOL     OW37840   3.164   2.558   9.976  0.4335 -0.5194 -0.0799
 8793SOL    HW137841   3.099   2.616  10.016  0.4816 -0.8980  0.5513
 8793SOL    HW237842   3.207   2.529  10.057 -1.8623 -1.4294  0.8217
 8794SOL     OW37843   2.312   1.064   7.088  0.2867 -0.0920  0.4984
 8794SOL    HW137844   2.237   1.121   7.072  0.5956 -0.2500 -1.5488
 8794SOL    HW237845   2.274   0.978   7.071  0.1743 -0.3518  2.0547
 8795SOL     OW37846   1.228   1.362   4.505 -0.1749 -0.1442 -0.2442
 8795SOL    HW137847   1.210   1.316   4.422  0.7673  1.3366 -1.2628
 8795SOL    HW237848   1.139   1.386   4.529 -0.2362 -0.3445 -0.2692
 8796SOL     OW37849   0.419   3.711   2.099  0.3341 -0.5562  0.3246
 8796SOL    HW137850   0.330   3.713   2.134 -0.1185 -1.0557 -0.8100
 8796SOL    HW237851   0.452   3.632   2.142 -0.3607 -0.9979  0.0396
 8797SOL     OW37852   0.861   2.929   9.336  0.2205  0.4084 -0.1639
 8797SOL    HW137853   0.829   2.970   9.417  2.7891 -0.7790  1.4392
 8797SOL    HW237854   0.840   2.837   9.353 -0.9610  0.6053 -0.5432
 8798SOL     OW37855   0.930   3.523   7.688 -0.4482  1.0893 -0.7983
 8798SOL    HW137856   0.902   3.596   7.743  0.7869  0.6455  0.4112
 8798SOL    HW237857   0.899   3.448   7.739  0.7535  1.9188  1.1360
 8799SOL     OW37858   1.482   2.772  15.958  0.2271 -0.6110 -0.2447
 8799SOL    HW137859   1.387   2.764  15.960  0.1697  0.2215  0.3625
 8799SOL    HW237860   1.502   2.800  16.047  0.5570 -3.2659  0.5168
 8800SOL     OW37861   0.980   1.062   2.410  0.2675 -0.0229 -0.7919
 8800SOL    HW137862   1.047   1.129   2.400 -0.3599  0.9509  1.5997
 8800SOL    HW237863   0.961   1.044   2.317  1.5393 -0.0345 -1.0417
 8801SOL     OW37864   0.960   0.993   9.322 -0.8966  0.7288  0.3000
 8801SOL    HW137865   1.024   0.980   9.391  0.5086 -0.2865 -1.1777
 8801SOL    HW237866   0.904   0.915   9.327 -0.4973  0.3547 -0.9996
 8802SOL     OW37867   2.242   2.289  13.186 -0.0411 -0.3660  0.5865
 8802SOL    HW137868   2.171   2.353  13.196  0.5968  0.4387 -0.0096
 8802SOL    HW237869   2.306   2.330  13.127 -0.3382 -1.4107 -0.4780
 8803SOL     OW37870   1.666   1.040   5.674 -0.1234  0.4144 -0.1270
 8803SOL    HW137871   1.647   1.096   5.599  0.3962  0.8065  0.0395
 8803SOL    HW237872   1.581   0.997   5.688  0.7267 -0.6182  1.9156
 8804SOL     OW37873   1.867   4.316  12.494 -0.3223  0.5188  0.1633
 8804SOL    HW137874   1.862   4.252  12.423  1.1734  0.2681  0.3032
 8804SOL    HW237875   1.842   4.257  12.566  1.8139  1.7605  1.9116
 8805SOL     OW37876   2.267   3.999   0.307  1.1501 -0.0420  0.0777
 8805SOL    HW137877   2.172   3.997   0.320  1.1024  1.4533 -0.1037
 8805SOL    HW237878   2.285   3.905   0.307  2.5557  0.2194  1.9425
 8806SOL     OW37879   0.408   3.480  12.584 -0.1438 -0.4729  0.3177
 8806SOL    HW137880   0.350   3.532  12.639 -0.1410  0.1209 -0.2433
 8806SOL    HW237881   0.493   3.482  12.628 -0.7527  0.7271  1.4354
 8807SOL     OW37882   4.518   2.667   9.390 -0.0373  0.0698  0.2646
 8807SOL    HW137883   4.536   2.590   9.444  0.0957 -0.3520 -0.3709
 8807SOL    HW237884   4.505   2.733   9.457  0.4324 -1.1178  1.5298
 8808SOL     OW37885   4.590   2.410   7.305  0.6711  0.7835 -0.7647
 8808SOL    HW137886   4.588   2.316   7.319 -1.6862  0.8385 -0.5812
 8808SOL    HW237887   4.550   2.438   7.388  1.3755  0.1056 -0.2040
 8809SOL     OW37888   4.364   1.387   7.149  0.0320  0.2177 -0.6518
 8809SOL    HW137889   4.307   1.429   7.085 -1.6089 -2.5836 -1.0272
 8809SOL    HW237890   4.378   1.303   7.105  1.7376 -1.0591  2.2447
 8810SOL     OW37891   1.675   3.917  11.292 -0.6955  0.1036  0.1902
 8810SOL    HW137892   1.667   3.822  11.292 -0.7334  0.1057  0.4389
 8810SOL    HW237893   1.666   3.937  11.199  1.0981 -0.1228 -0.0301
 8811SOL     OW37894   2.078   1.418   5.238 -0.3727  0.0748  0.4290
 8811SOL    HW137895   2.066   1.509   5.211  1.3642  0.8604  2.3372
 8811SOL    HW237896   2.153   1.398   5.182 -1.5858 -0.2310 -1.1006
 8812SOL     OW37897   0.803   2.008   3.491 -0.0440  0.1146 -0.1401
 8812SOL    HW137898   0.798   1.982   3.583 -0.6000 -1.4237 -0.5991
 8812SOL    HW237899   0.828   1.927   3.445 -1.5168 -1.2574  1.4547
 8813SOL     OW37900   4.282   0.180   8.623 -0.2015  0.2554 -0.0500
 8813SOL    HW137901   4.260   0.145   8.537 -4.4050 -0.6107  1.3939
 8813SOL    HW237902   4.258   0.273   8.621 -0.8294  0.1133  0.8153
 8814SOL     OW37903   1.398   0.214   8.526 -0.4952  0.0280  0.2431
 8814SOL    HW137904   1.409   0.273   8.451  0.2134 -1.1349 -0.5743
 8814SOL    HW237905   1.324   0.161   8.496 -0.7171 -0.8766  2.4033
 8815SOL     OW37906   3.055   3.090   2.401 -0.1917 -0.3477  0.0883
 8815SOL    HW137907   3.119   3.030   2.363  2.0946  2.8068 -1.1147
 8815SOL    HW237908   2.998   3.101   2.325 -0.4102 -1.8915  0.0367
 8816SOL     OW37909   4.657   0.998   0.693 -0.2259  0.0725 -0.1227
 8816SOL    HW137910   4.573   1.009   0.650 -0.3124 -1.4380 -0.3334
 8816SOL    HW237911   4.624   1.018   0.781 -1.1303 -1.6131 -0.0828
 8817SOL     OW37912   2.879   3.695  15.741 -0.3201  0.5483 -0.1983
 8817SOL    HW137913   2.949   3.718  15.802 -1.7060  1.8883  0.8972
 8817SOL    HW237914   2.805   3.744  15.776 -0.5293 -1.0264  1.6149
 8818SOL     OW37915   4.555   4.299  14.242 -0.2179 -0.5989  0.0418
 8818SOL    HW137916   4.495   4.372  14.228  0.3691 -0.6246 -2.6705
 8818SOL    HW237917   4.604   4.329  14.319 -1.4534 -0.3957  0.7456
 8819SOL     OW37918   2.310   0.029   5.391  0.4314  0.2606  0.0235
 8819SOL    HW137919   2.369   0.104   5.385 -0.5574  0.8750 -1.8905
 8819SOL    HW237920   2.256   0.052   5.315  0.8380  0.0562 -0.3315
 8820SOL     OW37921   0.068   2.952  15.529  0.0498  0.0147  0.4905
 8820SOL    HW137922   0.154   2.936  15.567  0.5306 -0.4242 -0.7888
 8820SOL    HW237923   0.024   2.884  15.580 -0.0189  0.5733  1.1751
 8821SOL     OW37924   1.103   0.288   0.672 -0.3208 -0.0861 -0.4519
 8821SOL    HW137925   1.074   0.342   0.745 -1.1902  0.1403 -0.9639
 8821SOL    HW237926   1.156   0.348   0.619 -4.8872  2.0263 -2.6007
 8822SOL     OW37927   3.093   0.744   6.725 -0.2716  0.4680 -0.3133
 8822SOL    HW137928   3.182   0.771   6.747 -0.0966  0.0307 -0.4824
 8822SOL    HW237929   3.107   0.649   6.733  2.3254  0.6564 -2.8298
 8823SOL     OW37930   0.540   1.676  13.974  0.0329 -0.3264 -0.0572
 8823SOL    HW137931   0.527   1.588  14.008  2.9786 -0.7799 -0.1365
 8823SOL    HW237932   0.499   1.673  13.887 -0.9055 -0.8202  0.4061
 8824SOL     OW37933   4.014   4.448  12.008 -0.8659 -0.5609  0.3533
 8824SOL    HW137934   4.014   4.491  12.094  1.4047 -1.3894  0.7847
 8824SOL    HW237935   3.930   4.472  11.969 -0.9523  0.8168  1.3996
 8825SOL     OW37936   0.375   1.806   7.133  0.1515  0.0098  0.1091
 8825SOL    HW137937   0.383   1.720   7.175  0.4701  0.0417  0.1193
 8825SOL    HW237938   0.335   1.777   7.052 -1.0880 -1.8962  1.3979
 8826SOL     OW37939   1.953   4.350   6.399  0.1658  0.3811 -0.6203
 8826SOL    HW137940   1.869   4.304   6.395  0.4842 -0.3127  0.4681
 8826SOL    HW237941   1.945   4.386   6.488  2.2250 -0.9725  0.1138
 8827SOL     OW37942   2.831   3.870   6.385 -0.1072  0.2873  0.0186
 8827SOL    HW137943   2.739   3.860   6.406 -0.1796  3.7920  1.4398
 8827SOL    HW237944   2.834   3.914   6.300 -0.2972 -0.9804 -0.6336
 8828SOL     OW37945   4.408   2.746   0.223 -0.4965 -0.1311  1.1384
 8828SOL    HW137946   4.484   2.698   0.256  0.4440 -0.5481 -1.6944
 8828SOL    HW237947   4.353   2.668   0.211  0.2031 -0.5007  0.4154
 8829SOL     OW37948   1.455   3.048   7.522 -0.5324  0.2392 -0.2831
 8829SOL    HW137949   1.429   2.968   7.476 -0.4312 -0.4812  0.9043
 8829SOL    HW237950   1.415   3.103   7.454 -0.2412  1.1952  0.3366
 8830SOL     OW37951   2.675   0.515   8.437  0.4698 -0.0472 -0.7370
 8830SOL    HW137952   2.733   0.585   8.406  1.5483  0.1646  1.8240
 8830SOL    HW237953   2.606   0.530   8.372  0.5295 -0.7826 -0.9730
 8831SOL     OW37954   1.122   3.159  10.334 -0.6766 -0.2791 -0.2770
 8831SOL    HW137955   1.143   3.065  10.330 -1.6818 -0.4960 -0.4926
 8831SOL    HW237956   1.034   3.162  10.295 -0.8637 -3.3067 -0.1243
 8832SOL     OW37957   2.147   2.722   8.416  0.3082 -0.6280 -0.4176
 8832SOL    HW137958   2.055   2.734   8.439  1.0209  0.9259  1.6140
 8832SOL    HW237959   2.184   2.701   8.501 -0.3648 -3.0879 -0.7308
 8833SOL     OW37960   0.197   1.846   4.633 -0.3638  0.1561 -0.0514
 8833SOL    HW137961   0.201   1.929   4.681 -0.6671 -0.0688  0.3711
 8833SOL    HW237962   0.289   1.823   4.633 -0.9624 -2.1782 -2.3025
 8834SOL     OW37963   2.804   1.553   4.565  0.1601  0.0779 -0.6701
 8834SOL    HW137964   2.761   1.609   4.501 -0.2591 -1.5289 -1.8131
 8834SOL    HW237965   2.789   1.469   4.520  0.7005 -0.9172  0.9949
 8835SOL     OW37966   4.024   0.347   7.710 -0.3009 -0.4234 -0.1506
 8835SOL    HW137967   4.033   0.397   7.791 -0.5099 -0.7767  0.0901
 8835SOL    HW237968   4.117   0.326   7.705  0.0341  0.8739  0.5849
 8836SOL     OW37969   3.025   2.764   4.220 -0.3291 -0.4368  0.3356
 8836SOL    HW137970   3.003   2.672   4.204 -0.1866 -0.0282 -2.1755
 8836SOL    HW237971   3.048   2.786   4.130  1.5243  0.0486  0.9172
 8837SOL     OW37972   2.481   2.940  13.186  0.1969  0.6621 -0.8005
 8837SOL    HW137973   2.502   3.030  13.212  0.9152  0.4308 -0.5778
 8837SOL    HW237974   2.509   2.886  13.261 -2.1673 -0.9688 -1.1013
 8838SOL     OW37975   4.195   1.593   9.931 -0.2092 -0.2732  0.0950
 8838SOL    HW137976   4.108   1.634   9.935  0.6073  1.2745  2.0202
 8838SOL    HW237977   4.170   1.501   9.941 -0.9680  0.0659  1.3516
 8839SOL     OW37978   2.548   3.165   3.756 -0.8811  0.4349  0.3104
 8839SOL    HW137979   2.589   3.125   3.833 -0.5508 -1.6846 -0.9593
 8839SOL    HW237980   2.622   3.220   3.730 -0.0399 -0.5830  0.5098
 8840SOL     OW37981   2.177   0.708   8.581  0.7588  0.3433 -0.1412
 8840SOL    HW137982   2.234   0.671   8.648  0.4652  2.0950  1.0552
 8840SOL    HW237983   2.113   0.637   8.579  0.0288  1.0361 -1.8866
 8841SOL     OW37984   3.264   4.330   7.536 -0.3581  0.2684 -0.0095
 8841SOL    HW137985   3.317   4.354   7.460 -1.3994  1.6350 -0.2975
 8841SOL    HW237986   3.197   4.397   7.548  0.2927  0.8050  0.5978
 8842SOL     OW37987   2.457   4.025  13.465  0.1247 -0.4128  0.4115
 8842SOL    HW137988   2.363   4.018  13.454 -0.0678  0.4570  1.5894
 8842SOL    HW237989   2.480   3.948  13.412  1.7536  1.2886 -1.3856
 8843SOL     OW37990   2.328   3.717   3.100  0.0937  0.3662 -0.2782
 8843SOL    HW137991   2.341   3.698   3.193  1.0817 -1.5241 -0.7810
 8843SOL    HW237992   2.359   3.632   3.068 -2.0051 -0.7658  0.6644
 8844SOL     OW37993   1.117   0.337   8.015  0.3104  0.4641  0.3011
 8844SOL    HW137994   1.196   0.283   8.017  1.7902  2.5685 -0.5671
 8844SOL    HW237995   1.096   0.320   7.923 -0.2611  0.1611  0.4890
 8845SOL     OW37996   2.803   1.448   5.028 -0.3564 -0.5818  0.1367
 8845SOL    HW137997   2.746   1.518   4.997  0.4458 -0.3979 -0.8868
 8845SOL    HW237998   2.830   1.406   4.946 -0.6215  3.5501 -2.0232
 8846SOL     OW37999   1.062   0.682  13.556  0.3441 -0.2166 -1.0365
 8846SOL    HW138000   1.095   0.744  13.491  1.4473 -1.1838 -1.3993
 8846SOL    HW238001   1.051   0.603  13.503 -0.0164 -0.7477 -0.1717
 8847SOL     OW38002   0.865   0.799   4.709 -0.4009  0.5798  0.1788
 8847SOL    HW138003   0.806   0.741   4.660 -1.6890  2.0784 -0.0542
 8847SOL    HW238004   0.842   0.887   4.677  3.5126  1.3031 -0.6279
 8848SOL     OW38005   1.872   0.914   2.625 -0.3513 -0.0423 -0.2538
 8848SOL    HW138006   1.875   0.858   2.547  0.3447  0.1712 -0.3789
 8848SOL    HW238007   1.817   0.854   2.677  1.7614  0.4296  2.4880
 8849SOL     OW38008   2.806   3.649   8.354  0.2160 -0.6217 -0.2358
 8849SOL    HW138009   2.877   3.694   8.307 -0.5056  1.0341  0.2660
 8849SOL    HW238010   2.831   3.686   8.439  2.4227  2.4295 -2.1881
 8850SOL     OW38011   4.326   0.119   7.274  0.2565  0.0879 -0.2021
 8850SOL    HW138012   4.364   0.141   7.359 -1.2062 -0.3520  0.5666
 8850SOL    HW238013   4.332   0.204   7.231 -1.9178  0.0300 -0.6006
 8851SOL     OW38014   2.946   0.128  10.563 -0.0193 -0.0136  0.0620
 8851SOL    HW138015   2.910   0.170  10.485  0.6575 -0.0656 -0.2804
 8851SOL    HW238016   3.037   0.157  10.557  0.5765 -1.9489 -0.1339
 8852SOL     OW38017   3.814   2.079   6.589  0.3893 -0.3603 -0.1323
 8852SOL    HW138018   3.849   2.168   6.581 -0.4715  0.0068  0.1334
 8852SOL    HW238019   3.763   2.076   6.670  0.3726  0.6072 -0.1023
 8853SOL     OW38020   0.912   4.619   8.922  0.2529 -0.1953 -0.2727
 8853SOL    HW138021   0.997   4.650   8.892 -0.2301  0.1226 -1.2879
 8853SOL    HW238022   0.854   4.638   8.849 -0.0598 -1.6739 -0.3971
 8854SOL     OW38023   1.500   2.204   1.702 -0.1992  0.0507 -0.7794
 8854SOL    HW138024   1.500   2.297   1.724  2.2016 -0.3968  1.0345
 8854SOL    HW238025   1.421   2.173   1.746 -0.3170  1.0385 -0.2977
 8855SOL     OW38026   4.672   4.369  14.492 -0.2742  0.1829 -0.1376
 8855SOL    HW138027   4.593   4.423  14.500 -0.9938 -0.9309  0.3134
 8855SOL    HW238028   4.680   4.331  14.579  3.1554 -0.6330 -0.8298
 8856SOL     OW38029   3.828   4.189  17.465 -0.0632  0.1464 -0.2018
 8856SOL    HW138030   3.870   4.103  17.477  1.7527  0.9845 -0.5258
 8856SOL    HW238031   3.899   4.242  17.500  0.6105 -1.2599  0.5674
 8857SOL     OW38032   1.308   0.793  15.847 -0.0165  0.0599 -0.6787
 8857SOL    HW138033   1.229   0.781  15.900  0.4953 -3.3940 -0.7176
 8857SOL    HW238034   1.358   0.715  15.869 -0.6196 -1.0042 -3.0411
 8858SOL     OW38035   1.109   3.988   4.188  0.1649  0.1288  0.4037
 8858SOL    HW138036   1.037   3.942   4.144 -0.7176  1.6236  0.2591
 8858SOL    HW238037   1.050   4.063   4.196  1.9319  1.5922 -0.4935
 8859SOL     OW38038   1.231   0.913   4.978 -0.4853  0.8250  0.3487
 8859SOL    HW138039   1.194   0.832   4.942 -1.1414  0.8509  0.9727
 8859SOL    HW238040   1.322   0.908   4.949 -0.6942 -0.0996 -0.1459
 8860SOL     OW38041   0.920   3.224   2.077 -0.2921  0.1071 -0.0205
 8860SOL    HW138042   1.014   3.228   2.097 -0.3879  1.3278  0.1974
 8860SOL    HW238043   0.910   3.285   2.004 -1.4774 -0.2796 -0.1768
 8861SOL     OW38044   1.612   2.942  11.120  0.1341 -0.2799  0.0890
 8861SOL    HW138045   1.622   2.916  11.212  0.8741  1.3850  0.4844
 8861SOL    HW238046   1.628   3.036  11.124 -0.0666 -0.3203  2.2048
 8862SOL     OW38047   0.282   2.329  13.247  0.3936 -0.4085  0.0964
 8862SOL    HW138048   0.226   2.258  13.280 -0.5145  0.3897  0.2523
 8862SOL    HW238049   0.248   2.401  13.299 -1.3109 -0.9152 -0.3061
 8863SOL     OW38050   2.775   2.251   9.114  0.4574  0.3342 -0.1940
 8863SOL    HW138051   2.699   2.194   9.124 -0.8817  1.7116 -2.5272
 8863SOL    HW238052   2.750   2.337   9.148  2.5567  0.7401  0.3121
 8864SOL     OW38053   0.830   0.466   6.909 -0.4834  0.0988  0.5181
 8864SOL    HW138054   0.736   0.476   6.893 -1.0779 -2.7632  2.1716
 8864SOL    HW238055   0.826   0.474   7.004  0.6362  0.2131  0.5469
 8865SOL     OW38056   3.366   0.253   3.530  0.3757  0.3826 -0.0626
 8865SOL    HW138057   3.339   0.286   3.616 -1.6816 -1.6457  0.0680
 8865SOL    HW238058   3.310   0.300   3.467  0.2990 -1.0665 -1.0579
 8866SOL     OW38059   2.889   3.021   4.489  0.0117 -0.0324  0.3765
 8866SOL    HW138060   2.968   3.074   4.490  0.9264 -1.5201  3.8653
 8866SOL    HW238061   2.824   3.077   4.445 -2.4634 -1.2762  2.4265
 8867SOL     OW38062   2.590   1.275   8.457  0.6615 -0.1403 -0.7250
 8867SOL    HW138063   2.522   1.341   8.457  1.6633  0.8943 -1.8100
 8867SOL    HW238064   2.659   1.316   8.405  0.7483  1.4065  0.6269
 8868SOL     OW38065   0.961   2.898   1.539  0.2401 -0.4500  0.1868
 8868SOL    HW138066   0.964   2.832   1.608 -1.0897  0.8681  1.5114
 8868SOL    HW238067   0.907   2.850   1.476  1.3742  1.3437 -2.1936
 8869SOL     OW38068   0.131   0.389  10.254  0.2052 -0.3246 -0.1087
 8869SOL    HW138069   0.088   0.470  10.281 -1.3265 -1.5493  1.1826
 8869SOL    HW238070   0.086   0.367  10.172 -1.3739 -1.0191  0.9312
 8870SOL     OW38071   1.828   2.954  10.002 -0.2837 -0.3517  0.0043
 8870SOL    HW138072   1.851   3.045  10.022 -3.2673  0.4877 -0.3795
 8870SOL    HW238073   1.733   2.962  10.007 -0.1952  2.4467 -2.5443
 8871SOL     OW38074   4.063   0.795   3.017  0.1635 -0.1907  0.0582
 8871SOL    HW138075   4.043   0.715   3.067  1.6111  0.1023  1.0872
 8871SOL    HW238076   4.052   0.856   3.090  0.8450 -1.4286  1.1881
 8872SOL     OW38077   2.790   3.299   8.682 -0.2147  0.3669  0.4821
 8872SOL    HW138078   2.849   3.230   8.651  1.0519  2.1737 -1.1182
 8872SOL    HW238079   2.822   3.303   8.773  0.6682  0.9060  0.1476
 8873SOL     OW38080   3.036   0.501  10.045 -0.2950 -0.7540 -0.4427
 8873SOL    HW138081   3.068   0.543   9.965 -0.4363  2.1241  1.0117
 8873SOL    HW238082   2.977   0.439  10.003 -2.0209  0.2886  0.4587
 8874SOL     OW38083   1.779   3.698   5.701  0.5099 -0.4961 -0.9460
 8874SOL    HW138084   1.796   3.786   5.735 -0.0663 -0.9595  0.5312
 8874SOL    HW238085   1.863   3.656   5.713 -0.3233 -1.9725 -0.3678
 8875SOL     OW38086   0.432   2.965   2.764  0.0317  0.4279  0.2018
 8875SOL    HW138087   0.346   2.923   2.761  0.5473 -0.6841  1.2545
 8875SOL    HW238088   0.473   2.916   2.692 -2.8384 -0.3518 -0.8875
 8876SOL     OW38089   4.000   3.913   2.554 -0.2142  0.3338  0.0574
 8876SOL    HW138090   3.940   3.974   2.598 -0.6033  0.7924 -1.1264
 8876SOL    HW238091   4.089   3.949   2.555 -0.1469  0.1401  1.4424
 8877SOL     OW38092   4.638   1.075   7.323 -0.2519 -0.2860 -0.0552
 8877SOL    HW138093   4.605   1.102   7.408  1.5584 -0.9449  0.8567
 8877SOL    HW238094   4.615   1.161   7.287  0.6940 -0.6269 -1.4529
 8878SOL     OW38095   1.286   1.241   8.096 -0.6434  0.0602 -0.4587
 8878SOL    HW138096   1.378   1.218   8.107 -0.6816  0.9671  1.7577
 8878SOL    HW238097   1.275   1.277   8.184 -0.4009 -1.4575  0.2001
 8879SOL     OW38098   1.092   2.942   0.317  0.0059 -0.4171 -0.2438
 8879SOL    HW138099   1.070   2.977   0.231 -0.8855  0.1149  0.2015
 8879SOL    HW238100   1.078   3.022   0.368  1.5766 -0.9331  1.0156
 8880SOL     OW38101   3.645   4.436   4.005 -0.1361 -0.1222 -0.2945
 8880SOL    HW138102   3.608   4.505   3.951 -0.9225 -0.3532 -0.0517
 8880SOL    HW238103   3.587   4.449   4.081  1.7160 -0.5984  1.2035
 8881SOL     OW38104   3.372   3.277   4.396 -0.5660 -0.1363  0.0171
 8881SOL    HW138105   3.458   3.289   4.437 -0.4821  1.7435 -0.6968
 8881SOL    HW238106   3.387   3.298   4.304  0.6076  0.3182  0.3103
 8882SOL     OW38107   2.038   3.963   6.834  0.7351 -0.0711  0.2114
 8882SOL    HW138108   2.115   3.924   6.875 -0.3304  0.1314  2.3500
 8882SOL    HW238109   1.991   3.980   6.915 -0.2459  1.7132 -0.7277
 8883SOL     OW38110   0.692   0.401   9.160 -0.8844  0.2384 -0.1837
 8883SOL    HW138111   0.659   0.369   9.076 -0.4642  0.1753 -0.3235
 8883SOL    HW238112   0.633   0.476   9.174 -1.9197 -0.3087 -1.6249
 8884SOL     OW38113   0.005   1.487   9.059  0.4976  0.4021  0.3997
 8884SOL    HW138114   0.010   1.436   9.140 -0.7026  0.6599  0.6277
 8884SOL    HW238115   4.640   1.523   9.079  0.2898 -0.5145  1.1637
 8885SOL     OW38116   4.163   2.906   9.006 -0.2607 -0.0112 -0.2864
 8885SOL    HW138117   4.116   2.948   8.934 -1.2008 -1.2702 -0.4144
 8885SOL    HW238118   4.102   2.834   9.023 -0.3029 -0.3039 -1.6637
 8886SOL     OW38119   1.782   3.970   5.061 -0.7495 -0.1716 -0.0690
 8886SOL    HW138120   1.830   4.049   5.033  1.9389 -1.6590  0.3734
 8886SOL    HW238121   1.835   3.941   5.135  0.7257  0.1180 -1.0122
 8887SOL     OW38122   4.026   1.504  12.810  0.0487 -0.0587 -0.0326
 8887SOL    HW138123   4.041   1.534  12.900 -1.4165  1.0472 -0.1534
 8887SOL    HW238124   4.038   1.410  12.818  0.1114 -0.2676 -2.6224
 8888SOL     OW38125   0.688   0.459  16.712 -0.5755  0.1795 -0.5938
 8888SOL    HW138126   0.747   0.534  16.718  0.5953 -0.7023 -1.2108
 8888SOL    HW238127   0.748   0.385  16.714 -1.2667 -0.4111 -1.3764
 8889SOL     OW38128   3.926   4.052  15.087  0.3115  0.3137 -0.2372
 8889SOL    HW138129   3.883   4.104  15.019  2.1575  1.0861 -0.8029
 8889SOL    HW238130   3.980   4.123  15.122  0.3807  0.3604 -0.4382
 8890SOL     OW38131   1.466   4.285   7.666  0.3724 -0.2537 -0.1858
 8890SOL    HW138132   1.512   4.246   7.592  1.3563  1.1120 -0.2939
 8890SOL    HW238133   1.374   4.274   7.644  0.1502  0.0461  0.6041
 8891SOL     OW38134   1.609   1.771  14.852  0.1847 -0.5579 -0.1283
 8891SOL    HW138135   1.568   1.843  14.899 -1.5404 -0.1474 -2.2551
 8891SOL    HW238136   1.587   1.691  14.900 -1.1680  0.2118  0.5186
 8892SOL     OW38137   1.505   0.959   6.117 -0.0720  0.3657  0.5907
 8892SOL    HW138138   1.576   0.995   6.170  1.0395 -1.7691  0.5572
 8892SOL    HW238139   1.548   0.895   6.060 -0.0539  0.7620  0.1614
 8893SOL     OW38140   3.700   0.381   4.718 -0.0760 -0.0236 -0.2341
 8893SOL    HW138141   3.777   0.360   4.665  0.7876 -0.4725  1.1770
 8893SOL    HW238142   3.659   0.297   4.740 -0.2241 -0.6199 -2.8440
 8894SOL     OW38143   1.954   4.309   1.744 -0.4827  0.4617 -0.1336
 8894SOL    HW138144   1.915   4.397   1.749  0.4003  0.6670  3.0536
 8894SOL    HW238145   1.876   4.260   1.718 -0.3149 -0.7328  1.6269
 8895SOL     OW38146   2.610   1.458  13.662  0.7425 -0.0922 -0.1146
 8895SOL    HW138147   2.584   1.550  13.673 -0.6848 -0.4359 -0.6394
 8895SOL    HW238148   2.587   1.447  13.570  0.0590 -1.7239  0.2527
 8896SOL     OW38149   4.250   1.099   3.080  0.2304 -0.2610  0.1521
 8896SOL    HW138150   4.177   1.057   3.126 -0.6331 -0.7652 -1.7021
 8896SOL    HW238151   4.218   1.188   3.066 -2.3929 -1.6999 -2.8794
 8897SOL     OW38152   0.657   2.939   7.954  0.0537 -0.1747  0.1168
 8897SOL    HW138153   0.572   2.973   7.981 -0.4324 -0.3877 -1.1782
 8897SOL    HW238154   0.675   2.989   7.875  1.5020  0.2244  0.6836
 8898SOL     OW38155   4.650   2.348   5.369 -0.1364  0.4883  0.5662
 8898SOL    HW138156   4.649   2.334   5.275 -2.6475 -3.7067  1.2381
 8898SOL    HW238157   4.675   2.439   5.384  0.7130  0.2733  0.4812
 8899SOL     OW38158   2.291   3.318   2.839  0.3947 -0.1999 -0.3781
 8899SOL    HW138159   2.221   3.262   2.804 -0.1922  0.2184  0.1175
 8899SOL    HW238160   2.365   3.270   2.803  0.0761 -0.3816 -0.7828
 8900SOL     OW38161   2.102   4.721  16.903  0.0622  0.2131  0.0266
 8900SOL    HW138162   2.073   4.665  16.975 -0.6758  0.7440  0.1416
 8900SOL    HW238163   2.195   0.004  16.924  0.5339 -2.2906 -1.4543
 8901SOL     OW38164   1.688   4.641  11.681  0.1618  0.9184 -0.1551
 8901SOL    HW138165   1.657   4.674  11.765 -0.5653  0.3719 -0.2119
 8901SOL    HW238166   1.783   4.650  11.696  0.3338  1.0162 -1.3493
 8902SOL     OW38167   1.233   3.980   2.131 -0.4662  0.0813 -0.0449
 8902SOL    HW138168   1.196   4.029   2.057 -1.5116  1.0799  1.1293
 8902SOL    HW238169   1.163   3.920   2.157 -0.7478  0.2545 -0.3962
 8903SOL     OW38170   2.603   3.859   2.956 -0.2161  0.4108  0.6122
 8903SOL    HW138171   2.647   3.916   2.893 -0.0850  0.4572  0.7472
 8903SOL    HW238172   2.512   3.858   2.924  0.0437 -0.2949 -0.1041
 8904SOL     OW38173   0.816   1.030   4.361  0.4524 -0.4177  0.1061
 8904SOL    HW138174   0.777   0.947   4.387 -0.7618  0.3355  0.6898
 8904SOL    HW238175   0.883   1.008   4.296  0.9854 -0.2929  0.6015
 8905SOL     OW38176   4.578   1.662   6.432  0.6531 -0.4385  0.3371
 8905SOL    HW138177   4.556   1.720   6.360 -2.0941 -1.2395  0.5101
 8905SOL    HW238178   4.495   1.671   6.479  1.0925  3.7919  0.2839
 8906SOL     OW38179   0.888   3.092   1.717 -0.3334 -0.2612 -0.7204
 8906SOL    HW138180   0.794   3.111   1.714 -0.4072 -0.4463  0.4608
 8906SOL    HW238181   0.895   3.042   1.636 -0.5452  1.2030 -1.6396
 8907SOL     OW38182   3.128   3.471  13.820  0.4626  0.7176  0.0157
 8907SOL    HW138183   3.163   3.486  13.907  1.7809 -1.1414 -0.1907
 8907SOL    HW238184   3.051   3.414  13.826  1.2461 -0.2488  0.9906
 8908SOL     OW38185   3.470   3.567   7.756 -1.0718 -0.5535 -0.0356
 8908SOL    HW138186   3.390   3.604   7.794 -0.7515 -0.3332  0.4335
 8908SOL    HW238187   3.501   3.643   7.705 -0.3424 -1.8032 -1.4408
 8909SOL     OW38188   2.878   2.303   0.917  0.0259 -0.7769 -0.5232
 8909SOL    HW138189   2.868   2.348   1.001 -0.9902 -0.6818 -0.6959
 8909SOL    HW238190   2.785   2.291   0.899 -0.3459  1.1838  0.1274
 8910SOL     OW38191   2.982   3.725   7.731  0.2815 -0.1651 -0.0889
 8910SOL    HW138192   2.998   3.647   7.678  0.7086 -0.2147  0.1142
 8910SOL    HW238193   2.960   3.789   7.663  0.8883  1.9810  1.7508
 8911SOL     OW38194   4.225   0.341   1.025 -0.4692 -0.2001 -0.3134
 8911SOL    HW138195   4.199   0.258   1.063  2.8452  0.5642  3.5797
 8911SOL    HW238196   4.139   0.380   1.010  0.1715  1.5912  0.6873
 8912SOL     OW38197   0.014   2.656   4.578  0.3432 -0.5728  0.4345
 8912SOL    HW138198   4.714   2.735   4.626 -0.1787  0.5058 -1.5749
 8912SOL    HW238199   4.649   2.615   4.577  0.6888 -1.3282  1.2753
 8913SOL     OW38200   2.316   1.518   8.900  0.0871 -0.4795  0.3937
 8913SOL    HW138201   2.314   1.462   8.978  0.1005 -0.9506  0.0592
 8913SOL    HW238202   2.224   1.527   8.876  0.4487 -1.2888 -1.2649
 8914SOL     OW38203   3.256   1.910   3.289 -0.0231  0.0591  0.9177
 8914SOL    HW138204   3.217   1.997   3.275  1.4464  0.7796  1.2327
 8914SOL    HW238205   3.188   1.854   3.325 -0.2335  0.6262  1.4152
 8915SOL     OW38206   2.633   1.175   3.438  0.6289 -0.4719 -0.4389
 8915SOL    HW138207   2.548   1.158   3.397 -0.3452  0.2434  1.2984
 8915SOL    HW238208   2.686   1.096   3.421 -1.4034 -1.0344 -4.1607
 8916SOL     OW38209   0.414   0.012   3.366  0.5084 -0.4883 -0.2418
 8916SOL    HW138210   0.506   4.714   3.353  0.4302 -0.0175 -1.4950
 8916SOL    HW238211   0.378   0.014   3.277  2.0711  1.2305 -0.8544
 8917SOL     OW38212   2.420   1.425   3.001 -0.0896  0.1168 -0.1832
 8917SOL    HW138213   2.412   1.486   3.074  0.9340  1.1141 -0.8799
 8917SOL    HW238214   2.489   1.364   3.027 -0.1216  0.8160  1.5273
 8918SOL     OW38215   3.465   4.546   2.082 -0.1023 -0.1917 -0.1886
 8918SOL    HW138216   3.411   4.603   2.136  0.4269 -0.7272  0.9093
 8918SOL    HW238217   3.467   4.591   1.998  0.3783 -0.7569 -0.4773
 8919SOL     OW38218   0.462   0.572   9.254  0.3208 -0.3162 -0.4983
 8919SOL    HW138219   0.415   0.537   9.179 -2.7756  1.2945  0.6816
 8919SOL    HW238220   0.437   0.664   9.249  0.7118 -0.0416  2.3716
 8920SOL     OW38221   1.613   2.192  14.254 -0.6160 -0.2033  0.4153
 8920SOL    HW138222   1.579   2.161  14.339 -0.3138  1.2693  1.0720
 8920SOL    HW238223   1.597   2.117  14.198 -0.5767 -0.5936  0.9240
 8921SOL     OW38224   2.868   3.022   9.791 -0.7747 -0.1401  0.4269
 8921SOL    HW138225   2.915   2.964   9.731  3.1583  3.1160  0.3887
 8921SOL    HW238226   2.839   3.078   9.719 -0.8489 -1.2364 -0.4016
 8922SOL     OW38227   0.822   1.513   6.556  0.3281 -0.0469 -0.7855
 8922SOL    HW138228   0.883   1.538   6.626 -0.1195  1.0947 -0.8070
 8922SOL    HW238229   0.739   1.502   6.601  1.2703 -3.7153  0.0828
 8923SOL     OW38230   3.491   1.071   3.752 -0.4781  0.0610 -0.0921
 8923SOL    HW138231   3.406   1.072   3.709  0.5492 -1.4547 -2.1370
 8923SOL    HW238232   3.554   1.097   3.684  0.9910  0.5639  1.4462
 8924SOL     OW38233   3.157   1.136   7.272 -0.3383  0.1766  0.3567
 8924SOL    HW138234   3.238   1.181   7.294  0.6114 -0.6825 -1.3879
 8924SOL    HW238235   3.198   1.074   7.212 -1.2524  0.5542 -0.6488
 8925SOL     OW38236   1.800   2.905   4.570  0.1097  0.1623  0.0951
 8925SOL    HW138237   1.769   2.994   4.590  2.0588  0.8351  0.1636
 8925SOL    HW238238   1.784   2.906   4.476 -1.4128 -0.6077  0.3431
 8926SOL     OW38239   1.819   0.961   3.528 -0.3336  0.1352  0.4068
 8926SOL    HW138240   1.866   0.889   3.486  1.6690  0.5090  2.0276
 8926SOL    HW238241   1.749   0.963   3.463  1.8933 -1.7864 -2.0555
 8927SOL     OW38242   4.152   0.484   4.856 -0.5773  0.8214 -0.2018
 8927SOL    HW138243   4.197   0.459   4.936  2.2360  0.2660 -1.9417
 8927SOL    HW238244   4.222   0.469   4.792 -0.0782  0.8889  0.3297
 8928SOL     OW38245   2.276   3.816   6.975 -0.1715  0.9746 -0.3559
 8928SOL    HW138246   2.265   3.862   7.058  0.3097 -0.3144  0.4181
 8928SOL    HW238247   2.295   3.725   6.996  1.3459  1.3979  0.1260
 8929SOL     OW38248   1.117   2.162   4.872 -0.1954 -0.3730  0.1299
 8929SOL    HW138249   1.178   2.236   4.866 -0.9593  0.1574 -1.0129
 8929SOL    HW238250   1.033   2.201   4.897  0.2015 -0.4992  1.6978
 8930SOL     OW38251   0.173   2.420   9.240  0.2237  0.0977 -0.0069
 8930SOL    HW138252   0.142   2.482   9.174  1.6799  2.4125  1.5119
 8930SOL    HW238253   0.150   2.467   9.320  0.7878  0.4499 -0.0509
 8931SOL     OW38254   2.775   1.949   4.334 -0.5734 -0.4263  0.5594
 8931SOL    HW138255   2.762   1.855   4.334  0.7940 -0.6158  2.3886
 8931SOL    HW238256   2.708   1.978   4.396 -0.6453  1.0223 -0.1865
 8932SOL     OW38257   0.804   3.198  12.197 -0.5226  0.6001 -0.6686
 8932SOL    HW138258   0.810   3.197  12.292 -2.8715 -3.1411 -0.5792
 8932SOL    HW238259   0.871   3.266  12.196 -0.8073  0.8931  0.3135
 8933SOL     OW38260   1.193   4.578  14.383 -0.6431 -0.2261  0.5000
 8933SOL    HW138261   1.101   4.555  14.376  0.0507 -2.5041 -1.0899
 8933SOL    HW238262   1.224   4.502  14.433 -0.8275 -0.8520 -0.3403
 8934SOL     OW38263   4.517   1.886   9.227 -0.1210 -0.1402  0.4471
 8934SOL    HW138264   4.515   1.976   9.196 -0.7264 -0.2690  0.1101
 8934SOL    HW238265   4.467   1.890   9.309 -2.1034 -0.0016 -0.7676
 8935SOL     OW38266   2.725   2.505   2.321  0.3322 -0.0110  0.1635
 8935SOL    HW138267   2.723   2.465   2.234 -0.6389  0.5005 -0.0485
 8935SOL    HW238268   2.820   2.500   2.327  0.3848  1.4353  0.3489
 8936SOL     OW38269   3.693   4.413   8.228 -0.2500  0.2535  0.1441
 8936SOL    HW138270   3.635   4.470   8.178 -2.7736  0.8761  3.7359
 8936SOL    HW238271   3.646   4.331   8.211 -0.8524  0.5716  0.2889
 8937SOL     OW38272   2.862   4.604   1.961  0.6802  0.0703 -0.0484
 8937SOL    HW138273   2.938   4.552   1.989  1.0418  1.6674  1.9619
 8937SOL    HW238274   2.852   4.652   2.043  1.3123  0.1465 -0.0122
 8938SOL     OW38275   0.781   3.232   5.095  0.2656 -0.6055  0.4028
 8938SOL    HW138276   0.818   3.225   5.183  1.9690 -1.1226 -0.3674
 8938SOL    HW238277   0.823   3.313   5.067 -1.2655  0.1535  0.2933
 8939SOL     OW38278   2.850   2.335   9.766 -0.8702 -0.3145  0.0276
 8939SOL    HW138279   2.824   2.344   9.858  1.2336 -0.1733  0.6089
 8939SOL    HW238280   2.945   2.327   9.780 -1.0135  1.7116  2.0933
 8940SOL     OW38281   0.613   1.105   7.700  0.3119  0.3798 -0.3531
 8940SOL    HW138282   0.656   1.175   7.651  2.0049  0.7662  1.7031
 8940SOL    HW238283   0.677   1.081   7.767 -0.0414  0.9876  0.2073
 8941SOL     OW38284   1.477   0.435  13.669  0.5513  0.2114 -0.0921
 8941SOL    HW138285   1.407   0.483  13.715  0.6032  0.6167 -0.4323
 8941SOL    HW238286   1.491   0.366  13.733  2.3644  0.3309 -0.3764
 8942SOL     OW38287   0.429   2.198   3.675  0.5514  0.2911 -0.1558
 8942SOL    HW138288   0.434   2.103   3.665 -4.9050 -0.0783  0.4976
 8942SOL    HW238289   0.387   2.225   3.593 -0.5761  1.0547  0.6674
 8943SOL     OW38290   0.984   1.356   3.342  0.2589 -0.3655 -0.2325
 8943SOL    HW138291   0.999   1.278   3.395 -0.1465  0.5415  1.2250
 8943SOL    HW238292   1.049   1.422   3.367  1.7117 -1.1012 -2.0147
 8944SOL     OW38293   2.159   3.225  16.883 -0.5085 -0.2293 -0.2740
 8944SOL    HW138294   2.093   3.279  16.926  0.2247 -0.8040  1.5782
 8944SOL    HW238295   2.135   3.237  16.791  0.0510  0.2208 -0.3596
 8945SOL     OW38296   2.633   4.147   4.632  0.5122  0.5166 -1.0694
 8945SOL    HW138297   2.587   4.084   4.686  1.9886 -0.2093 -0.6612
 8945SOL    HW238298   2.719   4.125   4.668  0.2724  1.0969 -0.1347
 8946SOL     OW38299   4.249   3.326   2.360 -0.4660 -0.1560  0.0446
 8946SOL    HW138300   4.169   3.346   2.311  0.3620  0.5817 -0.9864
 8946SOL    HW238301   4.303   3.403   2.351 -0.5250 -0.0909  0.2464
 8947SOL     OW38302   3.312   2.180   8.695  0.3698  0.1514  0.0812
 8947SOL    HW138303   3.221   2.186   8.667  0.5639 -0.9778 -0.7733
 8947SOL    HW238304   3.346   2.110   8.639 -0.8662  1.8988 -2.8606
 8948SOL     OW38305   3.164   0.147   5.367 -0.0456 -0.1883 -0.3345
 8948SOL    HW138306   3.071   0.138   5.389  0.7108 -0.8817  2.5158
 8948SOL    HW238307   3.154   0.156   5.272 -2.2778  0.6871 -0.0222
 8949SOL     OW38308   0.780   0.547   6.638  0.3913  0.5532  0.3249
 8949SOL    HW138309   0.869   0.581   6.643  0.4908  0.0712  1.8836
 8949SOL    HW238310   0.789   0.469   6.582 -1.4939 -0.6723  1.7159
 8950SOL     OW38311   2.094   1.861   8.449  0.3247 -0.2829  0.2254
 8950SOL    HW138312   2.125   1.900   8.368  0.1095 -0.7004 -0.0603
 8950SOL    HW238313   2.029   1.797   8.419  1.3337 -0.7585 -0.9454
 8951SOL     OW38314   0.910   2.619  17.615 -0.0304 -0.2585 -0.3436
 8951SOL    HW138315   0.884   2.687  17.554 -0.3976 -0.5476 -0.5061
 8951SOL    HW238316   0.964   2.563  17.559 -1.5887  0.3676 -2.4475
 8952SOL     OW38317   4.067   1.489   8.496  0.0752  0.4120 -0.3054
 8952SOL    HW138318   4.138   1.425   8.503 -0.6499 -0.1907  1.4908
 8952SOL    HW238319   4.013   1.435   8.438 -1.4497 -0.6044  2.1056
 8953SOL     OW38320   4.173   2.020   0.488  0.1061 -0.6209 -0.2048
 8953SOL    HW138321   4.206   2.096   0.440  0.3689 -0.5383  0.1070
 8953SOL    HW238322   4.088   1.997   0.451 -0.6380  1.4721  0.1966
 8954SOL     OW38323   0.858   1.605  15.978 -0.4416  0.8756  0.0870
 8954SOL    HW138324   0.876   1.670  16.045 -3.2766 -0.3252  2.0031
 8954SOL    HW238325   0.801   1.544  16.025 -0.5792  0.8851 -0.0649
 8955SOL     OW38326   3.583   2.597   5.428 -0.4057 -0.2779  0.3340
 8955SOL    HW138327   3.635   2.524   5.462  2.2732  2.5253  2.1547
 8955SOL    HW238328   3.514   2.597   5.494 -2.7446  0.8168 -2.1005
 8956SOL     OW38329   3.154   1.475   7.951 -0.2708 -0.3941  0.5045
 8956SOL    HW138330   3.219   1.503   8.016  1.9360 -2.2007 -0.9194
 8956SOL    HW238331   3.118   1.405   8.006  0.5895 -0.6591  0.7229
 8957SOL     OW38332   1.570   3.063   2.576  0.4067 -0.0953 -0.3191
 8957SOL    HW138333   1.536   3.098   2.659  0.6119 -3.2523  1.1151
 8957SOL    HW238334   1.520   3.111   2.511  0.9957 -0.1254 -0.7986
 8958SOL     OW38335   2.585   2.067   4.525  0.7165  0.0482 -0.2421
 8958SOL    HW138336   2.624   2.154   4.540  3.5372 -1.4704  1.1638
 8958SOL    HW238337   2.499   2.092   4.491  0.6654 -2.5975 -2.0380
 8959SOL     OW38338   0.849   4.487   7.774 -0.2665  0.1546  0.2152
 8959SOL    HW138339   0.857   4.551   7.844  0.8719 -0.5387  0.7323
 8959SOL    HW238340   0.814   4.411   7.821  0.4627 -0.2570  0.0897
 8960SOL     OW38341   1.712   0.251   7.944 -0.5078 -0.7778  0.2254
 8960SOL    HW138342   1.658   0.203   7.881  0.5129 -2.0233  0.2939
 8960SOL    HW238343   1.652   0.301   8.000 -0.3329 -0.7661  0.4047
 8961SOL     OW38344   1.777   2.180  11.461  0.0191  0.9113 -0.2196
 8961SOL    HW138345   1.700   2.160  11.408  0.6333 -1.6151 -0.1950
 8961SOL    HW238346   1.785   2.273  11.442 -0.0552  0.7634 -0.9783
 8962SOL     OW38347   0.942   3.537   9.743 -0.2475  0.1306 -0.6597
 8962SOL    HW138348   0.966   3.488   9.822 -0.3942  0.9258 -0.1325
 8962SOL    HW238349   0.905   3.475   9.680  0.1161 -0.5303 -0.2224
 8963SOL     OW38350   2.922   3.670   3.538  0.3083  0.1801  0.3216
 8963SOL    HW138351   2.871   3.670   3.457 -1.5398 -0.2589  1.4969
 8963SOL    HW238352   3.000   3.616   3.522 -1.4823 -1.5917 -2.3557
 8964SOL     OW38353   2.890   2.072   5.139 -0.3011  0.0186 -0.5410
 8964SOL    HW138354   2.827   2.101   5.205  1.5373  2.4656  0.1372
 8964SOL    HW238355   2.962   2.087   5.200 -1.3313  0.6501  0.5379
 8965SOL     OW38356   0.173   0.427  11.123  0.4825 -0.0128 -0.2012
 8965SOL    HW138357   0.148   0.403  11.034 -0.0831  0.4784 -0.1744
 8965SOL    HW238358   0.267   0.414  11.120  0.0601 -2.7063 -2.6706
 8966SOL     OW38359   0.166   1.361   9.291  0.8206 -0.1209  0.3575
 8966SOL    HW138360   0.193   1.302   9.360 -3.1689 -1.1764  0.9843
 8966SOL    HW238361   0.203   1.435   9.339  1.3986  0.3163 -0.7538
 8967SOL     OW38362   2.265   0.352   4.346  0.0249 -0.2369  0.0031
 8967SOL    HW138363   2.319   0.338   4.268 -0.6076  0.0678 -0.5002
 8967SOL    HW238364   2.197   0.411   4.314 -0.0323  0.7313  1.9114
 8968SOL     OW38365   3.651   1.385   6.127  0.2151 -0.2981  0.1910
 8968SOL    HW138366   3.643   1.387   6.031 -2.1169  1.8882  0.4291
 8968SOL    HW238367   3.567   1.342   6.140 -0.2846  1.0649  1.3904
 8969SOL     OW38368   0.883   1.352   4.261  0.2120 -0.8643 -0.5428
 8969SOL    HW138369   0.850   1.315   4.178 -2.7329 -1.2195  0.7792
 8969SOL    HW238370   0.804   1.394   4.295 -0.0312 -0.5623 -1.4589
 8970SOL     OW38371   4.335   4.166   7.799 -0.5958 -0.5917 -0.6875
 8970SOL    HW138372   4.309   4.086   7.753 -1.4512 -0.2125 -0.8494
 8970SOL    HW238373   4.249   4.204   7.817 -0.4417  0.1939 -1.6119
 8971SOL     OW38374   4.231   1.382   2.998 -0.6804  0.2005 -0.7509
 8971SOL    HW138375   4.231   1.475   3.022 -1.0503  0.5695 -2.2300
 8971SOL    HW238376   4.211   1.388   2.905 -0.5734 -0.1212 -0.7949
 8972SOL     OW38377   2.548   2.815   4.070  0.9607 -0.1921 -0.2037
 8972SOL    HW138378   2.455   2.832   4.055  1.2613  1.1342 -0.6214
 8972SOL    HW238379   2.566   2.903   4.103 -1.4672 -0.3543  1.6009
 8973SOL     OW38380   0.720   1.993  15.987 -0.2971 -0.0369 -0.2051
 8973SOL    HW138381   0.741   2.086  15.997 -1.2985  0.1877 -0.1836
 8973SOL    HW238382   0.692   1.988  15.895  0.8713  0.6765 -0.5925
 8974SOL     OW38383   3.627   1.632   1.908  0.3533 -0.6201 -0.3718
 8974SOL    HW138384   3.629   1.606   1.816  0.3039 -0.4248 -0.4267
 8974SOL    HW238385   3.536   1.608   1.928 -0.1292  1.0333 -0.5562
 8975SOL     OW38386   3.231   3.875  17.684  0.5086  0.5773  0.4661
 8975SOL    HW138387   3.260   3.810   0.060  0.7618 -0.6359 -0.8803
 8975SOL    HW238388   3.138   3.856   0.007  0.8316 -0.5595  1.2130
 8976SOL     OW38389   1.320   2.462   3.175 -0.8795  0.0017  0.5161
 8976SOL    HW138390   1.271   2.483   3.254  1.9102  1.1639  1.9313
 8976SOL    HW238391   1.252   2.484   3.111 -0.4172  0.1229  0.0602
 8977SOL     OW38392   4.690   1.203  14.129  0.2646  0.4501 -0.0030
 8977SOL    HW138393   4.633   1.199  14.206  2.2851 -1.0170  1.4219
 8977SOL    HW238394   4.638   1.159  14.062  0.0392 -0.1237  0.5415
 8978SOL     OW38395   1.257   1.506  13.530  0.0325 -0.3659 -0.3101
 8978SOL    HW138396   1.351   1.490  13.520 -0.3620 -1.5715 -2.0170
 8978SOL    HW238397   1.221   1.417  13.537 -0.9220  0.2524  2.9235
 8979SOL     OW38398   0.686   3.645   7.551 -0.3644  0.2233  0.1177
 8979SOL    HW138399   0.778   3.617   7.554  0.0501  1.7263  1.3388
 8979SOL    HW238400   0.677   3.684   7.637  0.0077  0.7581 -0.0832
 8980SOL     OW38401   0.862   0.302   9.565  0.4522  0.1531  0.0426
 8980SOL    HW138402   0.866   0.347   9.481 -1.1282 -0.2558 -0.2518
 8980SOL    HW238403   0.928   0.232   9.561 -0.0992 -0.2475 -1.6486
 8981SOL     OW38404   0.706   2.224   7.104 -0.1398 -0.0457 -0.5458
 8981SOL    HW138405   0.677   2.238   7.194  2.2006 -0.1913  0.2405
 8981SOL    HW238406   0.644   2.163   7.064  1.3362 -1.9309  0.0895
 8982SOL     OW38407   4.588   3.927  10.407 -0.2251  0.0352  0.0233
 8982SOL    HW138408   4.542   3.898  10.485 -1.2469 -2.3069 -1.4298
 8982SOL    HW238409   4.669   3.876  10.401  1.6598  2.6740  3.3854
 8983SOL     OW38410   4.299   3.025  15.360 -0.4156  0.0220 -0.2981
 8983SOL    HW138411   4.283   3.114  15.394 -1.3288 -0.4291  0.4512
 8983SOL    HW238412   4.389   3.034  15.328 -0.5973  2.6415 -0.1213
 8984SOL     OW38413   0.972   3.193   2.930  0.1357 -0.3078 -0.2336
 8984SOL    HW138414   0.945   3.219   3.018 -0.1830  0.6909 -0.6223
 8984SOL    HW238415   0.929   3.255   2.871 -0.0662 -0.4094 -0.1941
 8985SOL     OW38416   0.834   2.686   6.516 -0.0134 -0.1751 -0.5848
 8985SOL    HW138417   0.751   2.653   6.550  1.1528 -1.1820  1.2711
 8985SOL    HW238418   0.796   2.751   6.456  2.4443 -0.1641 -2.1537
 8986SOL     OW38419   3.799   0.296   7.575  0.5963  0.2641 -0.4938
 8986SOL    HW138420   3.887   0.304   7.612  0.6317 -0.7585 -0.3700
 8986SOL    HW238421   3.759   0.235   7.636  0.3894  0.4163 -0.4780
 8987SOL     OW38422   1.677   4.549   0.561  0.4513  0.2086  0.1083
 8987SOL    HW138423   1.605   4.529   0.501  1.2959  1.7374 -1.4127
 8987SOL    HW238424   1.715   4.462   0.554  0.2945  0.1655 -0.2300
 8988SOL     OW38425   1.597   3.213  13.946 -0.0584  0.4944 -0.1526
 8988SOL    HW138426   1.562   3.166  13.871  0.1338 -0.6075  0.4445
 8988SOL    HW238427   1.530   3.281  13.952  1.8830  2.0892  3.3781
 8989SOL     OW38428   3.081   0.505   3.013  0.0841  0.2636  0.6652
 8989SOL    HW138429   3.175   0.510   3.001  0.2498 -2.4511  0.6696
 8989SOL    HW238430   3.059   0.456   2.934  0.7030  1.6079 -0.3222
 8990SOL     OW38431   2.213   2.443   8.726 -0.2934  0.5976 -0.6566
 8990SOL    HW138432   2.151   2.486   8.785 -2.0030  0.2203 -2.1770
 8990SOL    HW238433   2.267   2.403   8.793 -0.1765  2.6128  0.4487
 8991SOL     OW38434   3.596   4.473   4.841  0.3071  0.3411  0.4131
 8991SOL    HW138435   3.515   4.520   4.818 -1.1734 -3.2618 -1.7632
 8991SOL    HW238436   3.594   4.388   4.799  0.0971 -0.1446  1.3996
 8992SOL     OW38437   3.749   4.389   1.414  0.3713  0.2658 -0.4102
 8992SOL    HW138438   3.777   4.312   1.463  2.5185  0.8082 -0.7873
 8992SOL    HW238439   3.798   4.376   1.332 -1.0342  1.7914 -1.4933
 8993SOL     OW38440   1.626   1.866  14.437  0.0470 -0.0301  0.0843
 8993SOL    HW138441   1.647   1.807  14.365 -2.4258 -1.9159  0.9007
 8993SOL    HW238442   1.685   1.837  14.507  0.6287 -0.0459 -0.4075
 8994SOL     OW38443   1.176   2.021   1.273  0.0466  0.4131  0.1639
 8994SOL    HW138444   1.230   1.970   1.212 -0.4144  0.2274 -0.0883
 8994SOL    HW238445   1.233   2.082   1.319  0.7602  1.1010 -1.6135
 8995SOL     OW38446   3.166   1.535   2.822 -0.2709 -0.2976  0.0205
 8995SOL    HW138447   3.153   1.479   2.746 -0.7790  0.4672 -0.4540
 8995SOL    HW238448   3.162   1.472   2.895 -0.1569 -1.0893 -0.6582
 8996SOL     OW38449   0.204   1.821   5.283  0.1705 -0.3958 -0.2424
 8996SOL    HW138450   0.240   1.737   5.311 -1.8579 -0.5201  1.9630
 8996SOL    HW238451   0.159   1.791   5.204  0.4991 -2.1944  0.2404
 8997SOL     OW38452   4.644   4.215   6.197  0.0458 -0.2683 -0.1215
 8997SOL    HW138453   4.713   4.282   6.196 -0.4191  0.2710  2.6575
 8997SOL    HW238454   4.571   4.266   6.230  0.6206 -0.4628  1.4550
 8998SOL     OW38455   1.390   3.148   3.523 -0.5033  0.5287  0.1402
 8998SOL    HW138456   1.335   3.085   3.570 -1.5131  1.9622  0.8582
 8998SOL    HW238457   1.474   3.103   3.513 -1.3854 -0.5001 -2.7502
 8999SOL     OW38458   1.790   3.316   3.652 -0.5513  0.0905  0.0380
 8999SOL    HW138459   1.883   3.293   3.648 -0.3957  1.5006 -4.2965
 8999SOL    HW238460   1.777   3.236   3.702 -2.0859 -0.9170 -1.9742
 9000SOL     OW38461   1.488   2.873  16.208  0.0583 -0.7036 -0.3938
 9000SOL    HW138462   1.524   2.961  16.192 -2.9924  0.0637 -2.9222
 9000SOL    HW238463   1.469   2.875  16.302  1.9929  1.0536 -0.0393
 9001SOL     OW38464   2.724   3.290  15.821  0.2645  0.5410  0.4453
 9001SOL    HW138465   2.741   3.360  15.885  3.5085  0.2790 -0.1050
 9001SOL    HW238466   2.715   3.354  15.750  0.3998  1.3590  1.1499
 9002SOL     OW38467   2.493   4.162   6.509  0.5187 -0.1425  0.0570
 9002SOL    HW138468   2.578   4.143   6.469  0.2413 -0.2885 -0.4605
 9002SOL    HW238469   2.484   4.092   6.573  0.0625 -1.2139 -1.1711
 9003SOL     OW38470   0.889   4.433  10.819  0.2673 -0.5086 -0.0560
 9003SOL    HW138471   0.802   4.458  10.850  1.0891  0.9981  1.0217
 9003SOL    HW238472   0.952   4.461  10.885 -0.9099  0.0529  0.8343
 9004SOL     OW38473   1.396   0.866  12.383  0.1535 -0.2939  0.5350
 9004SOL    HW138474   1.303   0.857  12.401 -0.2007  1.3728 -0.4373
 9004SOL    HW238475   1.412   0.960  12.387 -2.3793  0.2268 -1.7527
 9005SOL     OW38476   1.904   0.762   6.852 -0.7856  0.4315 -0.2602
 9005SOL    HW138477   1.817   0.784   6.820 -0.8399 -0.2125 -0.5584
 9005SOL    HW238478   1.940   0.850   6.841 -1.9189  0.6872 -1.7830
 9006SOL     OW38479   1.489   3.648   6.369 -0.4280  0.0261 -0.1053
 9006SOL    HW138480   1.507   3.737   6.401  4.7723 -0.7069 -0.8905
 9006SOL    HW238481   1.394   3.645   6.361 -0.7266  0.0002  3.3987
 9007SOL     OW38482   4.454   2.968  16.125 -0.5640  0.1075  0.5982
 9007SOL    HW138483   4.513   2.995  16.055 -0.1446  0.4407  1.0857
 9007SOL    HW238484   4.457   2.872  16.122 -0.8395  0.0178  3.1749
 9008SOL     OW38485   2.263   0.925  13.676  0.2260  0.2745  0.4379
 9008SOL    HW138486   2.188   0.922  13.617  2.1797 -3.0496 -1.9058
 9008SOL    HW238487   2.315   0.855  13.636  1.1780  1.9473 -1.2935
 9009SOL     OW38488   4.560   2.928   3.644 -0.0162 -0.3877  0.0942
 9009SOL    HW138489   4.655   2.919   3.642  0.0052  0.6599 -3.7194
 9009SOL    HW238490   4.555   3.020   3.620  2.5958 -0.3152 -0.1084
 9010SOL     OW38491   2.642   2.131  12.268  0.0303  0.5918  0.3590
 9010SOL    HW138492   2.668   2.072  12.339  1.8877  0.8057 -0.1522
 9010SOL    HW238493   2.730   2.144  12.233  0.3412 -3.1616 -0.3157
 9011SOL     OW38494   1.823   1.430   8.721  0.2263  0.0222 -0.6344
 9011SOL    HW138495   1.818   1.342   8.683 -0.0196 -0.5892  0.7953
 9011SOL    HW238496   1.742   1.461   8.680  0.0157 -0.1030 -0.3178
 9012SOL     OW38497   3.785   4.171   6.380 -0.3806  0.3362  0.2370
 9012SOL    HW138498   3.756   4.115   6.308 -1.5550  1.1744  0.0586
 9012SOL    HW238499   3.726   4.152   6.453 -0.0479  1.7281  0.8638
 9013SOL     OW38500   0.751   1.851  14.005 -0.1675  0.3667 -0.2390
 9013SOL    HW138501   0.675   1.815  13.960  0.4827  1.3281 -2.1193
 9013SOL    HW238502   0.707   1.923  14.051  0.9414  1.0058 -0.1691
 9014SOL     OW38503   1.729   3.421   9.908  0.2591  0.3172  0.3222
 9014SOL    HW138504   1.773   3.361   9.968  0.2086 -0.3714 -0.3295
 9014SOL    HW238505   1.734   3.378   9.822 -0.0563 -2.5759  1.7641
 9015SOL     OW38506   2.435   0.073   5.958  0.1283  0.8243  0.2337
 9015SOL    HW138507   2.425   0.154   6.008  2.8871  1.4650 -0.2465
 9015SOL    HW238508   2.530   0.080   5.950  0.3439 -1.7579  0.5743
 9016SOL     OW38509   1.490   0.160   6.295 -0.0079 -0.4999  0.1577
 9016SOL    HW138510   1.511   0.182   6.386 -0.1818 -0.2261  0.1313
 9016SOL    HW238511   1.446   0.076   6.307 -0.7080 -0.2070 -0.3315
 9017SOL     OW38512   2.035   4.050   7.997 -0.0042 -0.7381  0.1495
 9017SOL    HW138513   2.009   3.999   7.920  0.4469  0.2788 -0.6758
 9017SOL    HW238514   2.127   4.026   7.998 -0.1554 -1.3518 -0.2822
 9018SOL     OW38515   1.701   2.853  11.664  0.9714 -0.3409 -0.1257
 9018SOL    HW138516   1.607   2.857  11.684  0.2857 -1.8214 -3.0456
 9018SOL    HW238517   1.707   2.782  11.600  2.6917 -2.6854  2.6413
 9019SOL     OW38518   2.923   3.792  14.072  0.1363  0.2299  0.1618
 9019SOL    HW138519   3.004   3.767  14.030  1.1979  2.5522  0.7851
 9019SOL    HW238520   2.861   3.751  14.012 -0.6162 -1.3801  2.0126
 9020SOL     OW38521   1.276   1.092  15.694 -0.1705 -0.0869  1.0474
 9020SOL    HW138522   1.183   1.069  15.696 -0.7483  2.0511 -1.6050
 9020SOL    HW238523   1.274   1.159  15.626  1.2017 -2.3346 -1.2368
 9021SOL     OW38524   0.212   1.809   3.878  0.1391 -0.2354  0.3568
 9021SOL    HW138525   0.193   1.835   3.787  2.9211  1.2291  0.1928
 9021SOL    HW238526   0.261   1.729   3.859 -0.8239 -0.6386 -0.4416
 9022SOL     OW38527   2.599   0.966  13.705 -0.3450  0.0365  0.5109
 9022SOL    HW138528   2.684   0.931  13.678  0.2237  0.1845  2.0731
 9022SOL    HW238529   2.625   1.059  13.701  1.5332 -0.5941 -1.8983
 9023SOL     OW38530   1.646   0.472  12.820  0.0829 -0.3855  0.6917
 9023SOL    HW138531   1.556   0.474  12.790  0.2125  1.0260  0.4214
 9023SOL    HW238532   1.636   0.551  12.873 -1.3106 -1.6164  2.2576
 9024SOL     OW38533   1.730   4.302   5.265 -0.0006  0.1927  0.3883
 9024SOL    HW138534   1.739   4.219   5.217  1.4249  0.3595  0.3649
 9024SOL    HW238535   1.707   4.261   5.348  3.8847 -2.3619  0.1945
 9025SOL     OW38536   2.497   1.049  17.211 -0.3368 -0.0323  0.4609
 9025SOL    HW138537   2.590   1.068  17.199 -0.7834 -1.2178 -4.7955
 9025SOL    HW238538   2.497   0.980  17.278 -1.4436 -2.4344 -1.9943
 9026SOL     OW38539   3.902   2.064  10.698  0.0369  0.0578 -0.8306
 9026SOL    HW138540   3.912   2.132  10.632 -1.3358 -0.9404 -2.0420
 9026SOL    HW238541   3.994   2.049  10.720 -0.3612  1.6404  1.9054
 9027SOL     OW38542   0.732   1.107  11.988 -0.0678 -0.3258  0.0537
 9027SOL    HW138543   0.819   1.148  11.989 -0.8758  1.3975  1.0228
 9027SOL    HW238544   0.687   1.180  12.032 -0.7439 -0.4562 -0.4145
 9028SOL     OW38545   1.192   3.853   5.453 -0.1646 -0.4733 -0.7412
 9028SOL    HW138546   1.210   3.759   5.452 -0.1082 -0.4746  0.1828
 9028SOL    HW238547   1.266   3.888   5.403 -0.9712 -1.2201 -2.4776
 9029SOL     OW38548   1.637   0.872   7.831  0.3273 -0.0124  0.0463
 9029SOL    HW138549   1.729   0.893   7.814  0.1663 -0.7306 -1.6223
 9029SOL    HW238550   1.595   0.956   7.811  1.0331  0.9371  2.5634
 9030SOL     OW38551   4.156   1.383  12.050  0.0476 -0.7541  0.5522
 9030SOL    HW138552   4.184   1.399  11.960  1.6507  0.4540  1.2460
 9030SOL    HW238553   4.221   1.319  12.079  0.0889 -0.1736  1.7507
 9031SOL     OW38554   0.610   2.490  16.218 -0.0326 -0.3031 -0.4766
 9031SOL    HW138555   0.693   2.523  16.251 -1.5758  1.4338  1.6437
 9031SOL    HW238556   0.555   2.492  16.296  0.4486  3.2988 -0.2287
 9032SOL     OW38557   3.560   3.851   1.701  0.3535 -0.0718 -0.3144
 9032SOL    HW138558   3.640   3.895   1.729  0.6577 -1.5029  1.0098
 9032SOL    HW238559   3.532   3.892   1.618 -2.6433 -0.1820  0.6282
 9033SOL     OW38560   1.477   1.843   8.640 -0.2296  0.1911 -0.3902
 9033SOL    HW138561   1.539   1.828   8.711  0.6050 -0.2097 -1.2100
 9033SOL    HW238562   1.442   1.754   8.629  2.4885 -0.8782 -0.2806
 9034SOL     OW38563   2.003   0.133  17.524  0.1316  0.1385  0.4273
 9034SOL    HW138564   1.983   0.220  17.558 -0.2608  0.6962 -1.2275
 9034SOL    HW238565   1.920   0.087  17.537  0.4187  0.7174  4.2420
 9035SOL     OW38566   0.024   3.715   5.298  0.0183 -0.4471  0.1255
 9035SOL    HW138567   4.713   3.682   5.214 -3.3080  2.0210  0.4753
 9035SOL    HW238568   0.106   3.756   5.269 -0.7591  1.1522  0.1519
 9036SOL     OW38569   0.533   3.826  12.810  0.1946 -0.3448  0.6816
 9036SOL    HW138570   0.601   3.880  12.851 -0.0353  0.0748  0.5100
 9036SOL    HW238571   0.519   3.764  12.883 -2.2293  0.3488  0.8236
 9037SOL     OW38572   3.092   0.910   2.848  0.2542  0.8038  0.0940
 9037SOL    HW138573   3.002   0.891   2.877  0.4915  1.0654  1.0110
 9037SOL    HW238574   3.140   0.878   2.924  2.3020  1.3919 -0.9653
 9038SOL     OW38575   4.646   3.730   4.562  0.4379  0.7912 -0.3154
 9038SOL    HW138576   4.607   3.733   4.474  1.2926 -0.1571 -0.7306
 9038SOL    HW238577   4.572   3.750   4.619  0.1301  0.8392 -0.7327
 9039SOL     OW38578   4.263   2.876   0.025  0.0780 -0.5019 -0.0891
 9039SOL    HW138579   4.357   2.871   0.044 -0.3213 -1.8285  1.5381
 9039SOL    HW238580   4.219   2.819   0.088  0.8155 -0.7661  0.1950
 9040SOL     OW38581   2.985   2.185   1.858 -0.0851 -0.1015 -0.3125
 9040SOL    HW138582   3.006   2.264   1.908  1.9221  0.0133 -1.3283
 9040SOL    HW238583   2.896   2.207   1.831  0.5261 -0.1312 -2.4173
 9041SOL     OW38584   3.656   3.900   6.452 -0.2984 -0.6166 -0.1335
 9041SOL    HW138585   3.747   3.913   6.479 -0.5781  1.7631 -0.3343
 9041SOL    HW238586   3.649   3.805   6.453 -0.3752 -0.6120 -0.4216
 9042SOL     OW38587   2.259   2.616  13.780 -0.3791  0.0754  0.1157
 9042SOL    HW138588   2.341   2.579  13.749 -0.2641  0.8856 -0.5508
 9042SOL    HW238589   2.262   2.711  13.767 -0.6472  0.2097  0.9904
 9043SOL     OW38590   2.182   0.515   5.586  0.2543  0.5780  0.5895
 9043SOL    HW138591   2.119   0.524   5.657 -1.3954 -1.8440 -0.5501
 9043SOL    HW238592   2.223   0.432   5.612 -2.2509 -0.5246  1.0086
 9044SOL     OW38593   4.395   2.786   6.364  0.6538 -0.4862 -0.5995
 9044SOL    HW138594   4.490   2.784   6.352  0.8184  1.7156  0.3217
 9044SOL    HW238595   4.365   2.750   6.281  0.1069 -1.1517 -0.1083
 9045SOL     OW38596   1.190   0.148  10.752  0.1691  0.2151 -0.5209
 9045SOL    HW138597   1.238   0.110  10.826  1.4373 -1.1116 -2.0151
 9045SOL    HW238598   1.216   0.240  10.759 -0.3528  0.5179 -2.4398
 9046SOL     OW38599   0.311   1.663   3.274 -0.1458  0.7524  0.0400
 9046SOL    HW138600   0.325   1.631   3.363 -0.1408  1.0225  0.1369
 9046SOL    HW238601   0.367   1.741   3.278  2.3325 -0.9283 -2.2361
 9047SOL     OW38602   2.023   2.164   8.882  0.1530 -0.3227  0.2264
 9047SOL    HW138603   2.040   2.147   8.789 -0.2575  1.9233 -0.2663
 9047SOL    HW238604   2.012   2.076   8.919  0.0090 -0.9492 -1.2838
 9048SOL     OW38605   4.054   3.640  12.633 -0.1567  0.5920  0.3906
 9048SOL    HW138606   4.032   3.592  12.553  0.1887  0.8122  0.1645
 9048SOL    HW238607   4.149   3.652  12.622 -0.7392  1.5204 -3.4463
 9049SOL     OW38608   2.990   4.429   7.359  0.1540 -0.0045 -0.0606
 9049SOL    HW138609   2.975   4.523   7.362 -1.6043 -0.3192  1.0735
 9049SOL    HW238610   2.927   4.391   7.421 -1.2782 -0.1507 -1.5945
 9050SOL     OW38611   0.070   0.246   7.146  0.0069 -0.3776 -0.0289
 9050SOL    HW138612   0.001   0.306   7.176  1.0454  0.7960 -0.0081
 9050SOL    HW238613   0.010   0.171   7.153  0.5184 -0.8075 -0.3146
 9051SOL     OW38614   3.654   1.547   4.203  0.1092  1.3170 -0.0636
 9051SOL    HW138615   3.746   1.523   4.193 -0.1286 -0.7826  2.6785
 9051SOL    HW238616   3.606   1.506   4.132 -1.8011  2.5436  0.5166
 9052SOL     OW38617   0.338   3.088   5.770  0.1531  0.6154 -0.0732
 9052SOL    HW138618   0.270   3.138   5.726 -0.9376  0.3789  1.3783
 9052SOL    HW238619   0.411   3.142   5.740  0.7999 -0.4866 -0.4805
 9053SOL     OW38620   4.120   0.073  11.229  0.3600 -0.4816  0.0820
 9053SOL    HW138621   4.157   0.116  11.307 -2.2136  1.0710  0.4302
 9053SOL    HW238622   4.196   0.026  11.193 -1.3098 -1.2492 -2.3807
 9054SOL     OW38623   4.183   0.741   2.171 -0.3862  0.4275  0.2700
 9054SOL    HW138624   4.171   0.662   2.224  1.2741  1.2439  1.8672
 9054SOL    HW238625   4.254   0.722   2.110 -0.4421 -0.1513  0.3757
 9055SOL     OW38626   1.412   3.995   0.583 -0.9671 -0.4280 -0.0934
 9055SOL    HW138627   1.409   4.084   0.549 -1.8730 -0.3535  0.1727
 9055SOL    HW238628   1.322   3.965   0.569 -1.2505  0.6670 -0.5935
 9056SOL     OW38629   4.710   2.451   7.063  0.0845 -0.0768  0.6019
 9056SOL    HW138630   0.013   2.361   7.042 -2.7847  0.0035 -3.0190
 9056SOL    HW238631   4.673   2.439   7.150  1.9044  0.6845  1.4818
 9057SOL     OW38632   4.229   3.272   2.920 -0.0137 -0.2061  0.1220
 9057SOL    HW138633   4.220   3.197   2.862 -0.5988 -0.5699  0.6863
 9057SOL    HW238634   4.149   3.323   2.911  1.4246  1.7838 -1.5678
 9058SOL     OW38635   3.337   1.586   5.748  0.0743 -0.4874  0.1986
 9058SOL    HW138636   3.271   1.587   5.679 -1.7385  0.1779  1.9349
 9058SOL    HW238637   3.387   1.511   5.717 -1.2072 -1.3700  0.2691
 9059SOL     OW38638   2.469   2.483  13.675 -0.9356 -0.4315  0.5133
 9059SOL    HW138639   2.561   2.495  13.700 -0.6860  0.2592 -0.7350
 9059SOL    HW238640   2.478   2.477  13.580 -1.5640 -2.3261  0.5605
 9060SOL     OW38641   1.625   3.483   3.163 -0.3904  0.0420 -0.4294
 9060SOL    HW138642   1.626   3.571   3.202  2.2869 -0.8059  1.4687
 9060SOL    HW238643   1.645   3.432   3.242 -0.7620  0.8852  0.2199
 9061SOL     OW38644   4.155   4.522  11.552  0.3355  0.0642 -0.0122
 9061SOL    HW138645   4.153   4.517  11.648  1.7848  0.8454  0.0616
 9061SOL    HW238646   4.128   4.436  11.520 -0.3188  0.4972 -0.5997
 9062SOL     OW38647   2.613   3.029   8.622 -0.5042  0.2347 -0.6427
 9062SOL    HW138648   2.580   3.010   8.535 -0.8183 -0.8772 -0.2860
 9062SOL    HW238649   2.684   2.965   8.629  0.8838  1.6180 -1.9445
 9063SOL     OW38650   0.919   2.582   7.265  0.2394 -0.5356 -0.1233
 9063SOL    HW138651   0.980   2.534   7.321  0.8402  1.3376  0.8392
 9063SOL    HW238652   0.832   2.570   7.303  0.0489 -2.5074 -1.2150
 9064SOL     OW38653   3.358   1.887  10.679  0.4327 -0.2151  0.8922
 9064SOL    HW138654   3.450   1.902  10.657  0.5106  2.0735  2.6834
 9064SOL    HW238655   3.378   1.795  10.693  1.7637 -0.0987 -0.1710
 9065SOL     OW38656   2.997   0.791   4.890  0.1653 -0.2879 -0.6706
 9065SOL    HW138657   3.016   0.700   4.911 -0.2425 -0.7836 -2.4291
 9065SOL    HW238658   3.053   0.801   4.813 -1.4706 -0.3790 -1.8664
 9066SOL     OW38659   0.901   4.537  10.558  0.1770  0.0641  0.2788
 9066SOL    HW138660   0.926   4.447  10.538  0.3340  0.0771  0.4194
 9066SOL    HW238661   0.858   4.520  10.641 -2.3913 -2.7245 -1.6310
 9067SOL     OW38662   2.159   3.154  12.516 -0.1769 -1.0247 -0.1709
 9067SOL    HW138663   2.166   3.085  12.583  2.1983 -1.5102 -0.9241
 9067SOL    HW238664   2.169   3.102  12.436  0.5942  2.4944 -2.3437
 9068SOL     OW38665   0.964   2.298   4.196  0.2487 -0.3592  0.5681
 9068SOL    HW138666   1.027   2.227   4.184  1.1798  0.4641  0.5851
 9068SOL    HW238667   0.908   2.266   4.266 -2.3658  2.9636 -0.0450
 9069SOL     OW38668   2.370   0.615  13.231 -0.0009  0.2585  0.0490
 9069SOL    HW138669   2.407   0.633  13.144  3.0486 -2.4777  0.7783
 9069SOL    HW238670   2.453   0.588  13.269 -1.7607 -1.7366  2.4663
 9070SOL     OW38671   0.072   1.019   3.714 -0.2306  0.3571 -0.1152
 9070SOL    HW138672   0.097   0.996   3.803 -0.1266  0.0394 -0.2282
 9070SOL    HW238673   0.146   1.058   3.668  0.2952 -0.6334 -0.0971
 9071SOL     OW38674   0.209   2.536  10.127  0.2378  0.3226 -0.3092
 9071SOL    HW138675   0.293   2.568  10.160  0.2080 -1.1481  1.2248
 9071SOL    HW238676   0.145   2.597  10.164  1.1997  0.4212  1.1905
 9072SOL     OW38677   0.302   0.689   4.324  0.1436 -0.3293  0.4631
 9072SOL    HW138678   0.259   0.713   4.242 -0.3678  0.8820  1.0897
 9072SOL    HW238679   0.225   0.675   4.379 -1.6471  0.0331 -1.9746
 9073SOL     OW38680   4.357   0.714   8.750  0.0667  0.0207 -0.0446
 9073SOL    HW138681   4.360   0.755   8.664 -0.1931 -1.1209 -0.5970
 9073SOL    HW238682   4.447   0.682   8.755 -0.3122 -0.9981  0.3009
 9074SOL     OW38683   4.307   1.435   6.052  0.3683 -0.4113  0.4379
 9074SOL    HW138684   4.237   1.377   6.082  1.3503 -1.9222 -0.2142
 9074SOL    HW238685   4.342   1.456   6.139 -2.2579 -1.0065  1.6209
 9075SOL     OW38686   0.998   0.066   1.829  0.3122  0.0610 -0.5581
 9075SOL    HW138687   0.918   0.087   1.878 -0.1035 -3.3262  0.2371
 9075SOL    HW238688   0.995   0.129   1.757 -0.8534  1.8452  1.0621
 9076SOL     OW38689   1.375   4.610   4.212 -0.8659  0.0368  0.3275
 9076SOL    HW138690   1.336   4.523   4.211 -0.9715  0.0947 -0.8535
 9076SOL    HW238691   1.313   4.657   4.268  0.8403  1.5193  0.9515
 9077SOL     OW38692   2.781   2.505   9.236 -0.2818  0.1123  0.1929
 9077SOL    HW138693   2.693   2.540   9.222 -0.7456 -1.3528 -0.5012
 9077SOL    HW238694   2.787   2.507   9.332  1.3307  0.6813  0.0821
 9078SOL     OW38695   1.644   4.332   7.199  0.1558  0.1274 -0.3042
 9078SOL    HW138696   1.616   4.409   7.248 -3.5921 -1.2812 -0.2786
 9078SOL    HW238697   1.561   4.284   7.195 -0.6934  1.5716  0.2731
 9079SOL     OW38698   3.528   0.590  16.705 -0.6087 -0.4380 -0.1697
 9079SOL    HW138699   3.449   0.537  16.716  0.1187 -1.1094  1.6900
 9079SOL    HW238700   3.547   0.570  16.613  1.6988  0.3440  0.1345
 9080SOL     OW38701   2.153   2.638  15.516  0.2799  0.3083 -0.0639
 9080SOL    HW138702   2.112   2.719  15.485 -1.7226 -1.1095 -1.0829
 9080SOL    HW238703   2.206   2.688  15.578 -0.4590  1.2387 -0.1894
 9081SOL     OW38704   2.396   4.389  11.005 -0.0327  0.3502 -0.1198
 9081SOL    HW138705   2.332   4.319  10.996 -0.0081  0.2807  0.2545
 9081SOL    HW238706   2.471   4.335  11.027 -0.5729 -0.6837 -0.7980
 9082SOL     OW38707   0.928   3.772   8.221  0.6853  0.2371 -0.0210
 9082SOL    HW138708   1.002   3.768   8.282 -0.0353 -2.0114  0.7067
 9082SOL    HW238709   0.954   3.703   8.161 -0.5937 -0.2900  0.0431
 9083SOL     OW38710   1.880   4.463   7.448  0.1409  0.3131 -0.1877
 9083SOL    HW138711   1.806   4.428   7.498 -1.8853  1.1502 -2.5543
 9083SOL    HW238712   1.917   4.523   7.512 -2.0481  0.8126  0.6307
 9084SOL     OW38713   2.464   3.012  10.316 -0.4202  0.5615 -0.0407
 9084SOL    HW138714   2.426   2.924  10.323  2.9582 -1.0226 -1.6658
 9084SOL    HW238715   2.457   3.042  10.407 -0.8987  0.0017  0.1123
 9085SOL     OW38716   3.018   2.253   7.767  0.9455  0.1980 -0.0592
 9085SOL    HW138717   3.104   2.234   7.804  1.8232  1.5834 -1.3624
 9085SOL    HW238718   2.996   2.345   7.782  2.9367  0.7970 -0.8008
 9086SOL     OW38719   0.654   3.033   1.169  0.0359  0.2611 -0.0591
 9086SOL    HW138720   0.664   2.945   1.134  0.3897  0.3621 -0.2138
 9086SOL    HW238721   0.589   3.075   1.113 -1.1481  0.0742  1.1821
 9087SOL     OW38722   2.181   2.535   8.148 -0.3435 -0.9305 -0.4262
 9087SOL    HW138723   2.175   2.585   8.229  0.7953  0.0993 -0.9588
 9087SOL    HW238724   2.187   2.444   8.176  1.7309 -1.1998 -1.6769
 9088SOL     OW38725   2.846   4.385  12.422  0.2401  0.0246  1.0960
 9088SOL    HW138726   2.797   4.305  12.446  1.6703 -0.2159  3.1909
 9088SOL    HW238727   2.918   4.383  12.484  0.7685  0.3545  0.4860
 9089SOL     OW38728   2.893   0.767   7.360  0.4531 -0.1207  0.4531
 9089SOL    HW138729   2.942   0.785   7.279  0.6079  0.9036  0.7757
 9089SOL    HW238730   2.895   0.672   7.356  0.9984 -0.0091 -2.0782
 9090SOL     OW38731   2.588   1.953   8.125  0.3689  0.0822 -0.0418
 9090SOL    HW138732   2.632   2.000   8.196  1.6731 -0.8559 -0.2280
 9090SOL    HW238733   2.661   1.896   8.101  0.3858  0.4667 -0.8950
 9091SOL     OW38734   3.653   0.814   8.901 -0.2711 -1.1451 -0.2380
 9091SOL    HW138735   3.563   0.840   8.880  0.1242  0.6073  0.2373
 9091SOL    HW238736   3.686   0.877   8.965 -1.1532 -0.4341 -0.4798
 9092SOL     OW38737   1.127   0.928   5.655 -0.7287  0.0727  0.0176
 9092SOL    HW138738   1.063   0.871   5.698  0.7209 -0.6889  1.1770
 9092SOL    HW238739   1.149   0.881   5.575  1.7115  1.6540 -0.2345
 9093SOL     OW38740   2.401   3.291   0.137 -0.0630 -0.0054 -0.0239
 9093SOL    HW138741   2.411   3.196   0.140 -1.9888 -0.2063 -0.2353
 9093SOL    HW238742   2.387   3.319   0.227 -1.6038  2.2705 -0.9723
 9094SOL     OW38743   4.079   2.156   9.517  0.6517 -0.4143  0.3869
 9094SOL    HW138744   4.086   2.221   9.587  1.2950 -1.5368  1.3519
 9094SOL    HW238745   4.170   2.132   9.502  0.2375 -1.9080  0.1869
 9095SOL     OW38746   3.012   1.668  13.430 -0.3248 -0.4132 -0.0198
 9095SOL    HW138747   3.050   1.584  13.453  0.4352  0.0462  0.3904
 9095SOL    HW238748   3.046   1.716  13.355 -0.3335  0.4647  0.5328
 9096SOL     OW38749   2.913   3.731   1.843 -0.4473  0.2765 -0.0664
 9096SOL    HW138750   2.845   3.798   1.829 -0.0421  0.7224  0.1273
 9096SOL    HW238751   2.875   3.650   1.807  0.2051  0.1709 -0.5051
 9097SOL     OW38752   0.258   0.973   9.716  0.0577 -0.1204 -0.1200
 9097SOL    HW138753   0.313   1.048   9.736 -1.7634  1.3464 -0.6453
 9097SOL    HW238754   0.229   0.922   9.792  0.8776  1.1408  1.0470
 9098SOL     OW38755   4.470   1.210   4.043 -0.1989 -0.2585  0.0873
 9098SOL    HW138756   4.391   1.156   4.045 -1.0062  0.8325 -2.1469
 9098SOL    HW238757   4.452   1.292   4.090 -2.3950 -0.2441 -0.7822
 9099SOL     OW38758   4.061   3.506  15.583  0.5497  0.0620 -0.0311
 9099SOL    HW138759   4.001   3.438  15.612  2.0536 -1.3606 -0.2064
 9099SOL    HW238760   4.104   3.519  15.668 -0.6543 -0.0781  0.5954
 9100SOL     OW38761   2.523   4.177   1.817 -0.0326  0.1095  0.4494
 9100SOL    HW138762   2.463   4.118   1.862  2.6579 -1.9607  1.2776
 9100SOL    HW238763   2.456   4.226   1.770 -0.4933 -1.9272 -1.0109
 9101SOL     OW38764   2.319   2.507   3.483  0.1202 -0.1451 -0.1033
 9101SOL    HW138765   2.385   2.575   3.467  0.0181  0.0049  0.1135
 9101SOL    HW238766   2.245   2.553   3.523 -0.3504 -0.6469 -0.3934
 9102SOL     OW38767   4.505   4.371   8.109  0.6385 -0.1298  0.4442
 9102SOL    HW138768   4.481   4.390   8.018 -0.4696 -0.5055  0.6509
 9102SOL    HW238769   4.524   4.464   8.122  1.0283 -0.2879  1.0068
 9103SOL     OW38770   0.812   2.680  10.268 -0.4838  0.3826  0.0561
 9103SOL    HW138771   0.805   2.634  10.352 -0.8288  2.3883  1.1506
 9103SOL    HW238772   0.848   2.760  10.307 -1.1982  0.3891  0.7136
 9104SOL     OW38773   4.084   3.416  16.409 -0.4109  0.1400 -0.6002
 9104SOL    HW138774   4.023   3.343  16.416  0.3848 -0.4269  0.5875
 9104SOL    HW238775   4.025   3.464  16.351  1.8552  0.8588 -2.2968
 9105SOL     OW38776   3.605   3.605   3.625 -0.3139  0.5812  0.0902
 9105SOL    HW138777   3.539   3.537   3.614 -1.0587  1.0848  1.4770
 9105SOL    HW238778   3.579   3.663   3.554  0.3016  1.8863  0.9362
 9106SOL     OW38779   0.534   1.540   9.641 -0.9416 -0.1085  0.2945
 9106SOL    HW138780   0.602   1.607   9.651 -0.8551 -0.4355  1.9772
 9106SOL    HW238781   0.582   1.459   9.657 -0.7098  0.0923  0.6114
 9107SOL     OW38782   2.790   0.191   0.305  0.0684 -0.0926  0.1371
 9107SOL    HW138783   2.844   0.265   0.277 -0.3489 -0.6579 -2.1483
 9107SOL    HW238784   2.805   0.186   0.399 -1.5973 -0.7248  0.3685
 9108SOL     OW38785   2.064   1.491   4.848 -0.0346 -0.4636  0.1925
 9108SOL    HW138786   1.998   1.454   4.908 -2.0821  1.2097 -1.0114
 9108SOL    HW238787   2.015   1.502   4.766 -1.0322 -1.1566  0.6900
 9109SOL     OW38788   4.572   0.677   4.654 -0.5004 -0.2322 -0.1319
 9109SOL    HW138789   4.581   0.773   4.649 -0.7249 -0.0939  2.2602
 9109SOL    HW238790   4.651   0.655   4.704 -0.4696  1.4651  0.5785
 9110SOL     OW38791   2.645   2.609   4.208 -0.1886  0.5772  0.0385
 9110SOL    HW138792   2.658   2.669   4.281  3.5821  0.9527 -0.9518
 9110SOL    HW238793   2.639   2.680   4.144  1.7511  1.2543  0.6158
 9111SOL     OW38794   0.856   2.382   0.900 -0.3041 -0.0595  0.0380
 9111SOL    HW138795   0.807   2.345   0.974  3.2871 -0.0902  2.4174
 9111SOL    HW238796   0.821   2.471   0.896  0.9506  0.5644  2.2729
 9112SOL     OW38797   4.056   3.982   5.680  0.2746 -0.1843 -0.4975
 9112SOL    HW138798   4.149   3.958   5.683  0.6126  1.0816 -0.8732
 9112SOL    HW238799   4.065   4.067   5.636  2.9367  0.4006  1.1760
 9113SOL     OW38800   2.881   0.399   1.970  0.0382 -0.1395  0.2583
 9113SOL    HW138801   2.857   0.319   2.018  1.0961 -0.3212  0.4816
 9113SOL    HW238802   2.795   0.440   1.971 -0.0728 -0.3416 -0.9577
 9114SOL     OW38803   0.316   4.147   6.009  0.1413  0.7875  0.3237
 9114SOL    HW138804   0.234   4.160   5.961 -0.3304 -1.2033  0.5917
 9114SOL    HW238805   0.337   4.061   5.971  0.9903  0.6040  1.2055
 9115SOL     OW38806   1.151   4.381   3.898  0.1526  0.1061  0.3421
 9115SOL    HW138807   1.220   4.438   3.932 -0.1898  0.1862  0.9065
 9115SOL    HW238808   1.085   4.386   3.966  1.2940 -2.5400  1.6642
 9116SOL     OW38809   0.869   4.175   7.064  0.0671  0.0582  0.7020
 9116SOL    HW138810   0.824   4.185   6.981 -0.5221 -0.6791  0.9350
 9116SOL    HW238811   0.926   4.252   7.070 -1.5628  1.4451 -1.5992
 9117SOL     OW38812   2.834   3.299   5.121 -0.6386 -0.0241 -0.3446
 9117SOL    HW138813   2.859   3.248   5.198 -0.2386  0.9172  0.1376
 9117SOL    HW238814   2.904   3.278   5.058  1.8363  4.4025  0.9214
 9118SOL     OW38815   3.763   0.532   8.972  0.2432  0.3501  0.0116
 9118SOL    HW138816   3.741   0.625   8.959  0.7793  0.6898  1.6084
 9118SOL    HW238817   3.710   0.495   8.901  0.7994  0.5185 -0.4894
 9119SOL     OW38818   0.399   3.770  10.571 -0.1671  0.0006 -0.1177
 9119SOL    HW138819   0.398   3.765  10.666  0.4134 -1.7971 -0.2079
 9119SOL    HW238820   0.337   3.702  10.546 -0.9319  1.0609 -1.0642
 9120SOL     OW38821   4.072   3.694   5.851 -0.2073 -0.1671 -0.3448
 9120SOL    HW138822   4.102   3.603   5.845  2.4585  0.5752  1.5581
 9120SOL    HW238823   4.033   3.700   5.764  0.4268 -3.4078 -0.8587
 9121SOL     OW38824   4.308   1.191   5.183  0.1213 -0.0046 -0.0032
 9121SOL    HW138825   4.214   1.176   5.167 -0.0577  0.4331  0.6795
 9121SOL    HW238826   4.297   1.237   5.266 -1.8350  0.6910 -0.6359
 9122SOL     OW38827   0.198   2.895   6.736  0.3056  0.4637  0.0695
 9122SOL    HW138828   0.189   2.990   6.727  1.3391  0.5199 -0.3483
 9122SOL    HW238829   0.288   2.884   6.764  0.3972  2.8701  0.7088
 9123SOL     OW38830   3.508   0.442   8.384  0.0361  0.3282 -0.0904
 9123SOL    HW138831   3.544   0.400   8.462  1.2093 -0.7418 -1.2036
 9123SOL    HW238832   3.414   0.431   8.396  0.1864  0.8046  1.4899
 9124SOL     OW38833   0.060   2.178   9.227 -0.1856 -0.1164  0.1870
 9124SOL    HW138834   0.085   2.270   9.215  0.6224 -0.2608  0.7795
 9124SOL    HW238835   0.037   2.175   9.320  0.0142  1.9885  0.3168
 9125SOL     OW38836   3.291   1.073   6.701  0.1564 -0.2744 -0.0869
 9125SOL    HW138837   3.344   1.134   6.650  1.3274  1.0091  2.6712
 9125SOL    HW238838   3.363   1.013   6.717 -0.0491 -0.4750  0.0899
 9126SOL     OW38839   4.520   0.607   7.466 -0.0678  0.1074 -0.0894
 9126SOL    HW138840   4.537   0.675   7.401 -1.0490 -1.2902 -1.7953
 9126SOL    HW238841   4.606   0.611   7.509 -1.0255 -1.1740  1.9077
 9127SOL     OW38842   3.060   0.861  17.040  0.8213 -0.4002 -0.2078
 9127SOL    HW138843   3.119   0.929  17.006  0.0093  0.5156  0.2261
 9127SOL    HW238844   3.014   0.912  17.106  0.7246 -0.0891 -0.5134
 9128SOL     OW38845   0.017   1.949  10.801  0.0595 -0.7302 -0.3204
 9128SOL    HW138846   4.707   1.958  10.711  1.2577  0.7520 -0.6035
 9128SOL    HW238847   4.664   1.895  10.828  0.5063 -1.8022 -1.1922
 9129SOL     OW38848   1.021   1.284   5.328 -0.0507 -0.7570  0.4323
 9129SOL    HW138849   0.950   1.251   5.272  0.2394  0.4083 -0.6127
 9129SOL    HW238850   0.970   1.332   5.392 -0.0402 -0.6044  0.3276
 9130SOL     OW38851   4.218   3.831   3.912 -0.4553 -0.1846  0.4731
 9130SOL    HW138852   4.243   3.834   3.820 -1.1548 -1.9735  0.2329
 9130SOL    HW238853   4.125   3.827   3.893 -0.9695 -1.1191  3.1407
 9131SOL     OW38854   0.825   1.057  17.003  0.4437 -0.1272 -0.2324
 9131SOL    HW138855   0.740   1.100  16.992  2.0039  2.7989 -0.8368
 9131SOL    HW238856   0.840   1.059  17.098  0.3798  2.7594 -0.2918
 9132SOL     OW38857   1.060   0.087   9.501 -0.8622  0.0718  0.4599
 9132SOL    HW138858   1.048   4.721   9.537 -1.2723  0.7916  2.0655
 9132SOL    HW238859   1.048   0.061   9.409  0.1416 -0.5926  0.5138
 9133SOL     OW38860   0.378   3.799   3.098  0.0696  0.7868  0.6657
 9133SOL    HW138861   0.329   3.717   3.086  0.2354  0.4918  2.0385
 9133SOL    HW238862   0.421   3.807   3.013  1.0640  1.9219  1.2834
 9134SOL     OW38863   2.939   1.285  10.223  0.3486 -0.5627 -0.1880
 9134SOL    HW138864   2.859   1.309  10.175 -0.3494  1.5251  2.0279
 9134SOL    HW238865   2.906   1.231  10.295 -1.6444  2.2303  0.9971
 9135SOL     OW38866   4.369   3.831   5.802  0.2666  0.0867 -0.4231
 9135SOL    HW138867   4.311   3.900   5.835 -0.8189 -0.8818 -0.2956
 9135SOL    HW238868   4.338   3.761   5.861 -0.2255  0.3321 -0.3899
 9136SOL     OW38869   3.563   0.558   7.268 -0.0982  0.6008  0.0429
 9136SOL    HW138870   3.588   0.572   7.360  0.8475 -1.0041  0.0401
 9136SOL    HW238871   3.519   0.639   7.243  0.2113  0.8305  0.2480
 9137SOL     OW38872   3.674   3.518   2.091 -0.1118  0.1519 -0.0607
 9137SOL    HW138873   3.625   3.527   2.173  2.2450 -2.5356  1.6493
 9137SOL    HW238874   3.724   3.600   2.083 -1.1996  0.7636 -0.5662
 9138SOL     OW38875   1.718   0.753  10.998 -0.2274 -0.1397  0.2723
 9138SOL    HW138876   1.764   0.696  11.060  2.3255 -0.7723 -2.2175
 9138SOL    HW238877   1.677   0.816  11.057 -1.4141 -0.9689  0.3326
 9139SOL     OW38878   1.510   2.179  12.482 -0.7189  0.0622 -0.7601
 9139SOL    HW138879   1.540   2.266  12.455  0.0243  0.0815  0.0961
 9139SOL    HW238880   1.466   2.198  12.565  0.1833  1.1335 -0.5269
 9140SOL     OW38881   3.983   0.882   0.781  0.2844  0.0496 -0.1880
 9140SOL    HW138882   3.935   0.934   0.716 -1.7524 -0.4518  0.9161
 9140SOL    HW238883   3.994   0.947   0.850 -1.2703  1.3723 -1.1694
 9141SOL     OW38884   0.152   3.683   6.893 -0.2482  0.3184  0.1099
 9141SOL    HW138885   0.136   3.719   6.981  1.5007  2.1215 -0.3150
 9141SOL    HW238886   0.140   3.589   6.911 -1.0234  0.3275 -0.3552
 9142SOL     OW38887   0.463   2.048   7.011  0.7776  0.0033  0.0941
 9142SOL    HW138888   0.523   2.030   6.939 -0.3981 -0.5203 -0.7499
 9142SOL    HW238889   0.465   1.967   7.063  0.2188  1.2249  2.0290
 9143SOL     OW38890   2.847   0.859   5.630 -0.1911  0.0865  0.3182
 9143SOL    HW138891   2.804   0.806   5.697 -1.1206  2.9300  1.9804
 9143SOL    HW238892   2.823   0.948   5.654 -3.2405 -0.7598  0.4117
 9144SOL     OW38893   4.076   2.052   2.355 -0.8482 -0.3281 -0.9866
 9144SOL    HW138894   4.070   2.108   2.278 -0.7722 -0.5326 -1.1396
 9144SOL    HW238895   4.006   2.082   2.412  1.2693  0.8095  1.0303
 9145SOL     OW38896   2.717   0.554   3.503  0.3048 -0.9918  0.3540
 9145SOL    HW138897   2.760   0.627   3.546 -1.6924  0.3212  0.1351
 9145SOL    HW238898   2.783   0.489   3.528  0.0968 -0.3983  2.4938
 9146SOL     OW38899   4.476   4.503   6.996 -0.1076  0.5222  0.3957
 9146SOL    HW138900   4.409   4.540   7.053 -0.1009 -1.2621  1.5625
 9146SOL    HW238901   4.526   4.582   6.976 -0.2488  0.9133  1.5927
 9147SOL     OW38902   4.229   3.399   8.188 -0.2168 -0.2836 -0.1640
 9147SOL    HW138903   4.177   3.472   8.220 -1.6013 -1.6320  0.7035
 9147SOL    HW238904   4.166   3.344   8.141  0.0126  0.6104 -1.5220
 9148SOL     OW38905   2.561   2.162   7.016  0.5590  0.4246 -0.2310
 9148SOL    HW138906   2.549   2.222   6.943  0.7699  1.5821  0.6952
 9148SOL    HW238907   2.596   2.089   6.965  1.9991  2.4101 -2.0810
 9149SOL     OW38908   3.973   3.033   6.747 -0.3460  0.1506  0.1391
 9149SOL    HW138909   3.977   3.128   6.735  0.5863 -0.0231 -0.9769
 9149SOL    HW238910   4.026   3.025   6.826  1.3928 -1.5774 -1.2100
 9150SOL     OW38911   0.807   0.854   3.039 -0.0705 -0.5078 -0.0982
 9150SOL    HW138912   0.879   0.794   3.056  0.3223 -0.0809 -0.2809
 9150SOL    HW238913   0.747   0.801   2.986  1.9505 -3.3607  0.4244
 9151SOL     OW38914   0.594   0.627   8.904  0.2887 -0.1407 -0.6236
 9151SOL    HW138915   0.617   0.712   8.944  0.6313 -0.7309  0.4431
 9151SOL    HW238916   0.623   0.650   8.816  0.0184  0.1936 -0.6278
 9152SOL     OW38917   0.361   1.537   8.982 -0.4610 -0.0301 -0.2276
 9152SOL    HW138918   0.312   1.612   9.014  0.7701  0.5900  0.1946
 9152SOL    HW238919   0.427   1.530   9.050 -0.3531 -1.4786 -0.4889
 9153SOL     OW38920   3.065   4.022   5.037  0.2590 -0.5118  0.0540
 9153SOL    HW138921   2.971   4.041   5.034  0.6935  1.8540  1.1906
 9153SOL    HW238922   3.082   4.081   5.111  0.4579 -0.8565  0.2850
 9154SOL     OW38923   0.795   2.096   9.321  0.0507  0.0635  0.5915
 9154SOL    HW138924   0.731   2.035   9.284  1.9914  0.0728 -2.7078
 9154SOL    HW238925   0.861   2.044   9.367 -1.1161 -0.6794  1.4273
 9155SOL     OW38926   0.105   3.952   2.895  0.1845  0.0482 -0.4530
 9155SOL    HW138927   0.171   3.994   2.950 -0.3750  1.4024 -0.8321
 9155SOL    HW238928   0.135   3.965   2.805 -0.1607  2.5654 -0.1888
 9156SOL     OW38929   2.098   0.150   6.069 -0.2699 -0.6209 -0.1689
 9156SOL    HW138930   2.112   0.111   6.155 -0.6190 -0.0970  0.1215
 9156SOL    HW238931   2.101   0.065   6.024 -1.5152  0.2706 -1.9312
 9157SOL     OW38932   2.635   1.614   1.069 -0.2169 -0.1197 -0.3212
 9157SOL    HW138933   2.709   1.625   1.128  0.6430  1.4000 -1.6515
 9157SOL    HW238934   2.571   1.670   1.112  0.0368  0.0197 -0.1237
 9158SOL     OW38935   3.762   1.472  15.081 -0.1943  0.2002  0.5219
 9158SOL    HW138936   3.694   1.449  15.017  0.1558  0.6059  0.0074
 9158SOL    HW238937   3.713   1.514  15.152  0.5337  2.4886 -0.3577
 9159SOL     OW38938   3.375   1.097  13.680 -0.3858 -0.0410 -0.3765
 9159SOL    HW138939   3.411   1.096  13.592 -0.4447 -0.0799 -0.4002
 9159SOL    HW238940   3.353   1.190  13.676  2.8010  0.8384  2.4278
 9160SOL     OW38941   2.372   1.051   4.383  0.0369  0.3678 -0.2161
 9160SOL    HW138942   2.466   1.065   4.387 -0.0340  0.9553 -0.6189
 9160SOL    HW238943   2.354   1.047   4.289  1.0900 -0.3806 -0.3800
 9161SOL     OW38944   2.920   3.111  11.715  0.1481  0.1403 -0.0992
 9161SOL    HW138945   2.830   3.083  11.700  0.0606  0.9320 -1.0621
 9161SOL    HW238946   2.929   3.162  11.634 -1.6521 -1.2557 -1.1714
 9162SOL     OW38947   2.117   3.813   6.192 -0.8160 -0.6240  0.1914
 9162SOL    HW138948   2.051   3.838   6.256 -0.7205 -0.7775  0.3489
 9162SOL    HW238949   2.110   3.720   6.212  1.9064 -0.8255  0.2124
 9163SOL     OW38950   2.360   1.812   0.214 -0.1425  0.5042 -0.2964
 9163SOL    HW138951   2.442   1.844   0.252 -1.2801  1.1624  1.6495
 9163SOL    HW238952   2.338   1.891   0.165 -0.0720  1.0616  0.5720
 9164SOL     OW38953   3.255   3.209   3.892  0.2456  0.2881 -0.2673
 9164SOL    HW138954   3.192   3.226   3.962  0.8403  0.1737  0.3045
 9164SOL    HW238955   3.248   3.118   3.862  1.0831  0.3862 -0.7432
 9165SOL     OW38956   1.077   4.587   6.864 -0.1658  0.1603 -0.4804
 9165SOL    HW138957   1.163   4.561   6.832  1.2524  1.5976  2.1672
 9165SOL    HW238958   1.099   4.666   6.913  3.4275 -0.9058 -0.4102
 9166SOL     OW38959   3.868   4.586   4.083  0.3413 -0.0703  0.2930
 9166SOL    HW138960   3.902   4.563   4.169  3.1938  1.4223 -0.4291
 9166SOL    HW238961   3.802   4.517   4.078  1.9846 -1.6137  0.0260
 9167SOL     OW38962   4.330   2.256  14.741  0.0529  0.0806 -0.3271
 9167SOL    HW138963   4.249   2.206  14.739  0.5809 -0.8289  0.8874
 9167SOL    HW238964   4.382   2.206  14.803  0.4003  0.1440 -0.5689
 9168SOL     OW38965   2.445   3.787   5.468  0.2094 -0.1026  0.1080
 9168SOL    HW138966   2.464   3.871   5.427  1.9322 -0.8939 -0.7183
 9168SOL    HW238967   2.445   3.732   5.389  2.3109  0.0987 -0.0068
 9169SOL     OW38968   4.399   1.956   8.223 -0.8266 -0.6494  0.4619
 9169SOL    HW138969   4.361   1.923   8.141  2.8602  0.1283 -1.5610
 9169SOL    HW238970   4.478   1.902   8.231  1.1242  2.0835 -0.2104
 9170SOL     OW38971   3.565   0.382   7.916  0.5615  0.5819 -0.0004
 9170SOL    HW138972   3.490   0.379   7.975 -0.7596 -0.2453 -1.7316
 9170SOL    HW238973   3.537   0.463   7.873  0.0488  0.3334 -0.1325
 9171SOL     OW38974   0.109   3.185   7.313 -0.3368 -0.4931 -0.1563
 9171SOL    HW138975   0.136   3.234   7.391  0.3983 -0.4932 -0.4120
 9171SOL    HW238976   0.104   3.097   7.350  0.7286  0.1125  1.4717
 9172SOL     OW38977   1.609   3.059   6.789 -0.0185 -0.0463  0.3255
 9172SOL    HW138978   1.645   3.022   6.709  1.5198 -1.0947  1.4935
 9172SOL    HW238979   1.516   3.045   6.769  0.1409 -0.3099 -0.2333
 9173SOL     OW38980   3.555   3.580   2.995 -0.9705  0.2047 -0.0663
 9173SOL    HW138981   3.546   3.485   3.002  0.1289  0.1057 -0.0302
 9173SOL    HW238982   3.614   3.583   2.920 -1.7402  0.7878 -0.6473
 9174SOL     OW38983   1.785   2.174   3.652 -0.3400  0.4132  0.1016
 9174SOL    HW138984   1.771   2.230   3.575  1.8541 -0.9391 -1.2861
 9174SOL    HW238985   1.845   2.224   3.707  1.0779 -3.1339  1.7593
 9175SOL     OW38986   2.059   1.251   1.226 -0.4305  0.2338 -0.4286
 9175SOL    HW138987   2.105   1.263   1.143 -1.2464 -1.7536 -1.1714
 9175SOL    HW238988   2.039   1.158   1.219 -0.9979  0.3497 -0.3003
 9176SOL     OW38989   1.357   0.433   6.636  0.4278  0.0517 -0.5101
 9176SOL    HW138990   1.349   0.411   6.729  0.4371  0.3953 -0.4288
 9176SOL    HW238991   1.263   0.442   6.619  0.5948  0.1705 -1.3595
 9177SOL     OW38992   4.403   3.373   6.265  0.1492  0.5493 -0.2271
 9177SOL    HW138993   4.455   3.433   6.318  0.4188  1.8519 -1.9413
 9177SOL    HW238994   4.324   3.426   6.263 -1.1588 -1.4516 -1.8572
 9178SOL     OW38995   3.304   1.582   3.793 -0.1469 -0.2085 -0.0974
 9178SOL    HW138996   3.233   1.536   3.747  0.8235 -2.3284  0.5707
 9178SOL    HW238997   3.289   1.671   3.759 -0.5512 -1.5996 -3.5338
 9179SOL     OW38998   0.278   3.906   1.859  0.3615  0.1953 -0.3406
 9179SOL    HW138999   0.272   3.966   1.785 -2.3794 -1.0541 -1.1571
 9179SOL    HW239000   0.306   3.826   1.815  0.3311 -1.1536  2.0901
 9180SOL     OW39001   1.874   1.517   6.767 -0.3335 -0.0997 -0.5636
 9180SOL    HW139002   1.942   1.460   6.730 -2.3815 -0.7839 -3.2420
 9180SOL    HW239003   1.917   1.536   6.850  0.0106  2.1935 -1.2639
 9181SOL     OW39004   0.672   2.299  15.469 -0.6758  0.1112 -0.3749
 9181SOL    HW139005   0.666   2.375  15.410  1.9262 -0.1494 -0.9572
 9181SOL    HW239006   0.659   2.332  15.558  1.1760  1.3558 -0.5753
 9182SOL     OW39007   0.993   1.349   6.853 -0.5641 -0.0651 -0.6224
 9182SOL    HW139008   0.898   1.338   6.857 -0.7977  2.2230  0.3265
 9182SOL    HW239009   1.011   1.280   6.789 -1.2001  0.5918 -1.5141
 9183SOL     OW39010   4.111   2.652  11.601  0.2143 -0.2741 -0.3941
 9183SOL    HW139011   4.052   2.616  11.534  1.3400  1.4459 -2.2853
 9183SOL    HW239012   4.107   2.747  11.589 -0.5436 -0.3802 -0.9787
 9184SOL     OW39013   0.332   3.863   7.256 -0.0459  0.2436  0.8935
 9184SOL    HW139014   0.322   3.951   7.220 -0.1467 -0.1309  0.0195
 9184SOL    HW239015   0.426   3.848   7.246 -0.0088  0.8559  0.3316
 9185SOL     OW39016   0.073   0.665   9.128  0.4609  0.1611 -0.2365
 9185SOL    HW139017   0.002   0.637   9.071 -0.1440  2.5657 -0.6706
 9185SOL    HW239018   0.119   0.585   9.152  0.6048  0.5424  0.7435
 9186SOL     OW39019   2.138   2.597   1.704  0.5376 -0.5613  0.5293
 9186SOL    HW139020   2.229   2.623   1.715  0.1638  0.4601  1.2100
 9186SOL    HW239021   2.126   2.521   1.761 -2.1659  0.7772  1.7412
 9187SOL     OW39022   4.621   0.863  17.246  0.4356 -0.5383 -0.1870
 9187SOL    HW139023   4.576   0.908  17.175  1.2574  2.0053  0.9170
 9187SOL    HW239024   4.669   0.927  17.298 -1.9668  1.4748 -0.4821
 9188SOL     OW39025   3.413   1.207   4.145 -0.3338 -0.1172  0.2956
 9188SOL    HW139026   3.507   1.221   4.157  0.0066 -1.0691 -1.1541
 9188SOL    HW239027   3.424   1.119   4.109 -1.3340  0.8901 -2.4505
 9189SOL     OW39028   2.433   1.119   3.260 -0.5801  0.1016  0.1843
 9189SOL    HW139029   2.350   1.159   3.238 -0.6664 -0.6807 -0.9033
 9189SOL    HW239030   2.415   1.032   3.223  1.5583  0.3560 -1.4313
 9190SOL     OW39031   0.932   1.488   8.141 -0.1848  0.2759 -0.3754
 9190SOL    HW139032   0.991   1.510   8.069 -0.3734 -1.6854 -1.1281
 9190SOL    HW239033   0.940   1.394   8.153  1.9593  0.3022 -1.5628
 9191SOL     OW39034   4.359   3.086   4.754  0.1938  0.1930 -0.2473
 9191SOL    HW139035   4.351   3.053   4.665  0.3940  0.6329 -0.4266
 9191SOL    HW239036   4.267   3.113   4.765  0.3000  0.0376  1.0114
 9192SOL     OW39037   1.297   3.887   6.091 -0.0971  0.2639  0.5006
 9192SOL    HW139038   1.250   3.806   6.069 -0.6308 -0.2360  3.5062
 9192SOL    HW239039   1.341   3.859   6.170 -1.2087 -0.9667  0.6915
 9193SOL     OW39040   4.229   2.195   8.713  0.3452  0.2948 -0.1352
 9193SOL    HW139041   4.212   2.290   8.714  1.1492  0.4268  0.8337
 9193SOL    HW239042   4.292   2.197   8.785 -0.6180  1.7418  0.6652
 9194SOL     OW39043   4.487   4.231   2.861  0.4018 -0.3806 -0.1399
 9194SOL    HW139044   4.407   4.232   2.809  0.1107  1.5321  0.3610
 9194SOL    HW239045   4.509   4.138   2.857 -1.0888 -0.7536  0.5179
 9195SOL     OW39046   0.241   3.108   1.369  0.5436 -0.0900  0.1264
 9195SOL    HW139047   0.279   3.030   1.328 -0.0147 -0.6599  0.7031
 9195SOL    HW239048   0.155   3.103   1.326 -0.0927  0.9000  1.2973
 9196SOL     OW39049   2.380   2.267   9.746  0.1067 -0.1033  0.6113
 9196SOL    HW139050   2.465   2.243   9.783  0.0784  0.6075  1.1427
 9196SOL    HW239051   2.315   2.221   9.801 -0.3588  2.4720  2.2175
 9197SOL     OW39052   4.170   3.003   6.948 -0.9791 -0.0920  0.0832
 9197SOL    HW139053   4.225   3.051   7.010  0.3494 -0.0505 -1.1333
 9197SOL    HW239054   4.234   2.952   6.899  1.4368  0.5009  2.6299
 9198SOL     OW39055   0.208   1.134   5.428 -0.3270 -0.5173  0.5990
 9198SOL    HW139056   0.295   1.146   5.464  0.1210  0.2060 -0.6982
 9198SOL    HW239057   0.166   1.153   5.511  0.7411  1.5919  0.6576
 9199SOL     OW39058   2.073   2.833   9.029  0.5920  0.0747 -0.0293
 9199SOL    HW139059   2.009   2.904   9.038 -0.1684 -0.6133  0.0289
 9199SOL    HW239060   2.057   2.789   9.112 -0.8956  2.7194  1.1025
 9200SOL     OW39061   3.091   2.724   7.368 -0.5846 -0.5248  0.0165
 9200SOL    HW139062   3.092   2.658   7.300  0.3655  0.1391 -0.6273
 9200SOL    HW239063   3.126   2.803   7.327  4.0969 -1.4376  2.2003
 9201SOL     OW39064   0.034   0.726  11.793 -0.2689 -0.0492 -0.1029
 9201SOL    HW139065   4.715   0.796  11.742 -0.1303  0.3344  0.3104
 9201SOL    HW239066   0.032   0.655  11.728 -0.9648 -0.1265  0.0032
 9202SOL     OW39067   2.140   0.804  10.110 -0.2423  0.1083 -0.0064
 9202SOL    HW139068   2.179   0.755  10.038 -0.0625  0.1513  0.0604
 9202SOL    HW239069   2.047   0.783  10.102 -0.2323  0.2511 -0.5161
 9203SOL     OW39070   4.431   1.009  15.447 -0.2249 -0.2015 -0.1746
 9203SOL    HW139071   4.410   1.040  15.535 -1.3268 -2.8631  0.5067
 9203SOL    HW239072   4.454   1.093  15.409  1.1574  0.1167  1.3606
 9204SOL     OW39073   1.771   2.065   2.119  0.0482 -0.0361  0.0383
 9204SOL    HW139074   1.681   2.079   2.147 -1.3275  1.1505 -5.0821
 9204SOL    HW239075   1.816   2.125   2.178  2.3579 -1.8563  0.1470
 9205SOL     OW39076   3.273   3.061  11.545 -0.1903  0.4525 -0.0227
 9205SOL    HW139077   3.222   3.048  11.625  0.1816  1.4374  0.3669
 9205SOL    HW239078   3.342   2.996  11.557  0.1716  0.9576  0.5902
 9206SOL     OW39079   4.325   1.894   6.677 -0.5281 -0.2345 -0.0405
 9206SOL    HW139080   4.237   1.875   6.645 -1.0856  1.2132  0.5950
 9206SOL    HW239081   4.318   1.868   6.769  1.1278  0.2131  0.2122
 9207SOL     OW39082   3.234   0.929   7.075 -0.3452 -0.3389  0.1101
 9207SOL    HW139083   3.261   0.842   7.045 -0.7486 -1.0155  1.7148
 9207SOL    HW239084   3.295   0.990   7.033  0.0773 -0.7889  0.0621
 9208SOL     OW39085   1.629   4.318   8.357 -0.1427  0.6914 -0.6069
 9208SOL    HW139086   1.675   4.242   8.392  0.5032  0.3723 -2.1485
 9208SOL    HW239087   1.650   4.379   8.428  2.6399 -0.1364 -0.7180
 9209SOL     OW39088   4.045   1.053   4.468 -0.0087  0.3545 -0.1389
 9209SOL    HW139089   3.984   1.058   4.394 -0.3528 -0.5622  0.0898
 9209SOL    HW239090   4.126   1.016   4.434  0.0191  1.2802 -1.1038
 9210SOL     OW39091   1.949   2.892  11.087 -0.4465 -0.1826 -0.4445
 9210SOL    HW139092   1.944   2.930  10.999 -0.3694 -1.2480 -0.9048
 9210SOL    HW239093   1.911   2.805  11.075  0.4484 -0.3329 -2.1659
 9211SOL     OW39094   3.400   2.586   5.619 -0.6184  0.0959 -0.3857
 9211SOL    HW139095   3.372   2.675   5.641 -2.4552 -0.9566  1.5754
 9211SOL    HW239096   3.321   2.549   5.580 -2.3097  2.1656  1.0716
 9212SOL     OW39097   4.023   4.310   1.627  0.1434  0.4514 -0.2544
 9212SOL    HW139098   4.076   4.291   1.704 -0.3912 -0.6008 -0.1440
 9212SOL    HW239099   4.072   4.382   1.586 -0.0243  0.2406 -0.8209
 9213SOL     OW39100   0.736   3.654   6.524 -0.8333  0.1833 -0.2528
 9213SOL    HW139101   0.714   3.738   6.484  0.3981  0.9011  0.6036
 9213SOL    HW239102   0.751   3.594   6.451 -1.2599 -0.7438  0.4161
 9214SOL     OW39103   4.514   1.699  12.793  0.0216 -0.3996 -0.4629
 9214SOL    HW139104   4.552   1.701  12.705 -2.6701  1.0294 -1.6083
 9214SOL    HW239105   4.454   1.773  12.782 -0.4346 -0.4177  1.9626
 9215SOL     OW39106   3.514   0.194   1.529 -0.2510  0.3878  0.0900
 9215SOL    HW139107   3.603   0.200   1.563  0.8428  0.2071 -2.6756
 9215SOL    HW239108   3.458   0.223   1.601  0.0467 -0.4271  0.6479
 9216SOL     OW39109   0.855   0.062   9.203 -0.5889 -0.6478  0.0483
 9216SOL    HW139110   0.930   0.093   9.152 -0.3472 -2.1205 -0.4740
 9216SOL    HW239111   0.892   4.713   9.256  0.7981 -0.6215 -0.8865
 9217SOL     OW39112   0.723   4.401   0.191 -0.5718 -0.0843 -0.7332
 9217SOL    HW139113   0.724   4.432   0.282  1.7997 -0.3087 -0.6834
 9217SOL    HW239114   0.743   4.308   0.200  0.5905  0.1091 -1.4282
 9218SOL     OW39115   1.129   1.763  16.173 -0.2507  0.1035  0.3883
 9218SOL    HW139116   1.035   1.766  16.185 -0.2750  2.1038 -0.2254
 9218SOL    HW239117   1.154   1.750  16.264  1.7977 -0.7706 -0.2868
 9219SOL     OW39118   0.634   1.306   8.291 -0.2786 -0.6644 -0.4620
 9219SOL    HW139119   0.680   1.224   8.306  1.3543  0.9445  3.4050
 9219SOL    HW239120   0.683   1.367   8.346 -1.6812 -0.1891  0.2702
 9220SOL     OW39121   0.128   3.291   7.560 -0.6625  0.0103 -0.3723
 9220SOL    HW139122   0.149   3.381   7.535  0.1743  0.2436  1.1953
 9220SOL    HW239123   0.033   3.302   7.568 -0.6854  0.6766 -1.5376
 9221SOL     OW39124   1.338   0.419   6.924 -0.3464  0.3642 -0.1467
 9221SOL    HW139125   1.348   0.329   6.955 -1.5230  0.5941  0.8839
 9221SOL    HW239126   1.242   0.424   6.927 -0.2928 -0.4964  2.6113
 9222SOL     OW39127   0.742   3.120   2.591 -0.5306 -0.4573 -0.3697
 9222SOL    HW139128   0.722   3.053   2.658 -0.4378 -1.8810 -1.7666
 9222SOL    HW239129   0.772   3.191   2.647 -1.4917  1.1247 -1.8946
 9223SOL     OW39130   3.997   2.522   8.046 -0.4477 -0.0801 -0.4369
 9223SOL    HW139131   4.035   2.605   8.073 -0.6690 -0.1075 -0.0477
 9223SOL    HW239132   4.009   2.514   7.951  1.5855  0.4411 -0.2196
 9224SOL     OW39133   2.288   4.188   8.964 -0.4435 -0.0047 -0.0235
 9224SOL    HW139134   2.240   4.126   9.019 -1.2729 -2.0684 -3.0550
 9224SOL    HW239135   2.266   4.151   8.878  0.3720 -1.5787  0.4392
 9225SOL     OW39136   3.292   3.012  12.426  0.2605 -0.2026 -0.6639
 9225SOL    HW139137   3.356   2.948  12.395 -0.3105 -0.5682 -1.0901
 9225SOL    HW239138   3.345   3.077  12.472 -1.9486  0.6528  0.6687
 9226SOL     OW39139   2.783   1.838   7.414 -0.9350  0.0640  0.1515
 9226SOL    HW139140   2.787   1.761   7.471 -0.0378  1.2519  1.7043
 9226SOL    HW239141   2.737   1.806   7.337  0.2028 -2.5304  0.5557
 9227SOL     OW39142   0.060   3.125   3.840 -0.8344 -0.0429  0.2384
 9227SOL    HW139143   0.048   3.059   3.771  0.4829  0.7806 -0.7830
 9227SOL    HW239144   0.095   3.085   3.919  0.4484  2.6388  1.0221
 9228SOL     OW39145   1.610   1.293  15.832  0.0652 -0.3624  0.3397
 9228SOL    HW139146   1.555   1.261  15.903 -0.1348  1.0339  0.8208
 9228SOL    HW239147   1.625   1.214  15.780  2.4064 -0.1013  0.5879
 9229SOL     OW39148   1.355   3.903   4.444  0.4921  0.5497 -0.5667
 9229SOL    HW139149   1.315   3.988   4.461  1.3861  0.9954 -0.7136
 9229SOL    HW239150   1.277   3.859   4.410  0.9568  0.9570 -2.1523
 9230SOL     OW39151   3.933   3.297   2.907 -0.3764 -0.0113 -0.2717
 9230SOL    HW139152   3.949   3.238   2.981  1.3028 -0.3824 -0.9347
 9230SOL    HW239153   3.842   3.271   2.891 -0.5490  1.8984 -2.4237
 9231SOL     OW39154   3.907   0.241  15.578  0.3071 -0.1174 -0.4843
 9231SOL    HW139155   3.959   0.220  15.656  0.3874  1.6440 -0.0563
 9231SOL    HW239156   3.879   0.153  15.553 -1.9416  0.5388 -0.2776
 9232SOL     OW39157   3.483   3.052   0.672  0.2565 -0.1677  0.1639
 9232SOL    HW139158   3.504   3.109   0.598  0.6739 -2.3551 -1.4292
 9232SOL    HW239159   3.489   3.114   0.744  1.4409  0.9101 -0.8717
 9233SOL     OW39160   1.362   0.595   4.884  0.1959  0.1574 -0.4488
 9233SOL    HW139161   1.378   0.595   4.978 -0.2604 -1.7766 -0.3617
 9233SOL    HW239162   1.275   0.631   4.874  0.5221  0.6160 -1.6053
 9234SOL     OW39163   0.246   0.876   7.971  0.1558 -0.3184 -0.1463
 9234SOL    HW139164   0.288   0.961   7.958  4.9730 -2.1186  3.7014
 9234SOL    HW239165   0.238   0.841   7.882  0.3029  0.9866 -0.6614
 9235SOL     OW39166   0.827   1.141  13.530  0.3946  0.8955  0.3926
 9235SOL    HW139167   0.738   1.165  13.506  1.4760  3.1785 -1.3728
 9235SOL    HW239168   0.825   1.046  13.526  1.2079  0.8786  0.4002
 9236SOL     OW39169   0.199   3.063   8.043  0.2375 -0.1657  0.3124
 9236SOL    HW139170   0.212   3.121   8.118 -2.5817 -0.9114  1.3880
 9236SOL    HW239171   0.121   3.014   8.068 -0.0333  0.4038  0.5654
 9237SOL     OW39172   4.699   0.345  13.775 -0.2762 -0.5430 -0.4927
 9237SOL    HW139173   4.647   0.293  13.837 -0.0012  0.2870  0.4290
 9237SOL    HW239174   4.633   0.369  13.709 -0.2484 -0.6210 -0.5490
 9238SOL     OW39175   1.505   1.184   7.524 -0.2172 -0.0067 -0.1971
 9238SOL    HW139176   1.576   1.119   7.533  0.3612  0.6075 -0.3013
 9238SOL    HW239177   1.552   1.263   7.498 -1.2727  1.3719  2.0419
 9239SOL     OW39178   0.474   2.098  15.504  0.3630 -0.4569 -0.0282
 9239SOL    HW139179   0.520   2.169  15.458 -0.0080 -1.4007 -1.8594
 9239SOL    HW239180   0.477   2.041  15.427 -0.2228  1.6498 -1.6367
 9240SOL     OW39181   1.160   2.730   7.579  0.9705 -0.2253  0.3465
 9240SOL    HW139182   1.110   2.769   7.507 -0.6026 -0.9158  1.0613
 9240SOL    HW239183   1.127   2.793   7.644  2.3801 -1.1137  1.9134
 9241SOL     OW39184   3.091   4.126   3.313 -0.1149 -0.4901 -0.0874
 9241SOL    HW139185   3.006   4.087   3.334  0.1764  0.1923  2.3774
 9241SOL    HW239186   3.122   4.081   3.234 -4.1717 -0.6462 -1.5425
 9242SOL     OW39187   1.840   1.882   5.460  0.0950  0.5182 -0.8477
 9242SOL    HW139188   1.826   1.968   5.421 -0.5902  0.7591 -0.0791
 9242SOL    HW239189   1.749   1.853   5.455  0.5444 -0.9125 -0.6233
 9243SOL     OW39190   1.490   0.015   5.975 -0.1859 -0.2220 -0.1339
 9243SOL    HW139191   1.423   0.057   5.922 -2.2070 -0.1652  2.4436
 9243SOL    HW239192   1.450   0.019   6.062 -0.9168  0.1845 -0.4937
 9244SOL     OW39193   0.170   2.525   6.021 -1.1098  0.1971 -0.0010
 9244SOL    HW139194   0.089   2.527   6.072 -0.3296 -2.3993  1.3457
 9244SOL    HW239195   0.229   2.584   6.069 -2.8921  0.3370  2.0115
 9245SOL     OW39196   3.109   2.102   5.325 -0.3350 -0.3621  0.0714
 9245SOL    HW139197   3.097   2.023   5.377 -2.0055  0.0917  0.3838
 9245SOL    HW239198   3.201   2.090   5.304  0.3589 -0.7423  3.3617
 9246SOL     OW39199   2.912   0.078  16.134  0.0839 -0.0118  0.1250
 9246SOL    HW139200   3.001   0.107  16.116 -0.4896  2.5989  1.4136
 9246SOL    HW239201   2.872   0.159  16.102 -0.7008 -1.6844 -3.1036
 9247SOL     OW39202   0.103   1.413   9.717  0.5158  0.1775  0.3319
 9247SOL    HW139203   0.168   1.476   9.688 -0.7877  1.6350  0.5982
 9247SOL    HW239204   0.088   1.447   9.805 -0.2068 -0.9676  0.6496
 9248SOL     OW39205   0.663   2.527  15.293  0.0860  0.5476 -0.3789
 9248SOL    HW139206   0.655   2.616  15.325  1.8799  0.3505  0.5565
 9248SOL    HW239207   0.574   2.514  15.258  0.5219 -1.1331 -0.8622
 9249SOL     OW39208   1.123   4.364   2.897 -0.6060 -0.0605  0.0758
 9249SOL    HW139209   1.116   4.418   2.819 -2.1852 -0.7095 -0.2346
 9249SOL    HW239210   1.217   4.355   2.913 -0.7115 -1.3373  0.0015
 9250SOL     OW39211   0.615   0.362  15.172  0.4356 -0.1912 -0.1572
 9250SOL    HW139212   0.612   0.287  15.112  2.7303 -1.3127  1.1063
 9250SOL    HW239213   0.706   0.379  15.146  1.0553  0.3993  2.4224
 9251SOL     OW39214   3.808   0.730   4.038 -0.2446 -0.0536  0.1983
 9251SOL    HW139215   3.765   0.756   3.956  0.4696 -0.7163 -0.3830
 9251SOL    HW239216   3.898   0.749   4.011 -1.1454  2.0140 -1.3741
 9252SOL     OW39217   4.459   0.439   7.838 -0.2015 -0.2222  0.1004
 9252SOL    HW139218   4.383   0.396   7.798 -0.2331 -0.5532  0.5118
 9252SOL    HW239219   4.454   0.410   7.930  0.8116  1.2682  0.6099
 9253SOL     OW39220   0.860   2.305   4.873 -0.2267 -0.0648  0.4898
 9253SOL    HW139221   0.784   2.351   4.908  0.3069  2.1608 -1.3126
 9253SOL    HW239222   0.822   2.280   4.789 -0.6251 -2.2684  1.3110
 9254SOL     OW39223   3.705   4.190  15.846 -0.1237  0.6351 -0.5394
 9254SOL    HW139224   3.717   4.123  15.913 -1.1005  0.5148 -0.4718
 9254SOL    HW239225   3.679   4.138  15.770  1.7069 -0.7330 -0.2108
 9255SOL     OW39226   0.359   2.525   6.408  0.4812 -0.2105  0.4993
 9255SOL    HW139227   0.264   2.524   6.420  0.3949 -0.8622 -0.2748
 9255SOL    HW239228   0.389   2.492   6.493  0.3627 -0.0515  0.6048
 9256SOL     OW39229   3.479   4.017   3.302  0.3960 -0.4049 -0.1852
 9256SOL    HW139230   3.422   3.988   3.231 -0.4224  2.7511 -0.8251
 9256SOL    HW239231   3.551   4.055   3.251  1.0954  0.6497  1.6116
 9257SOL     OW39232   2.913   1.095   8.649 -0.1891 -0.1558  0.5360
 9257SOL    HW139233   2.935   1.108   8.741  1.5996 -0.5482  0.1630
 9257SOL    HW239234   2.826   1.136   8.653 -0.8034 -1.2049 -2.0203
 9258SOL     OW39235   1.779   0.058   3.270 -0.2587  0.6735 -0.1026
 9258SOL    HW139236   1.815   0.040   3.183  0.4772  1.4372  0.0518
 9258SOL    HW239237   1.752   4.692   3.299 -2.1247  1.4795  0.6137
 9259SOL     OW39238   4.115   2.744   3.990 -0.0386  0.1475 -0.2576
 9259SOL    HW139239   4.096   2.678   4.057 -2.1329  1.0103  0.0173
 9259SOL    HW239240   4.048   2.808   4.015 -0.4380  0.0148 -0.9737
 9260SOL     OW39241   0.559   4.655  10.495  0.3945  0.2937  0.8073
 9260SOL    HW139242   0.467   4.653  10.523  0.0569 -3.2939 -0.6001
 9260SOL    HW239243   0.593   4.598  10.563 -0.5798 -0.3641  0.7532
 9261SOL     OW39244   0.314   3.118   5.299 -0.2716 -0.1010 -0.1398
 9261SOL    HW139245   0.331   3.207   5.332 -0.1848 -0.5417  1.0117
 9261SOL    HW239246   0.408   3.108   5.284 -0.1471 -0.3424  0.8083
 9262SOL     OW39247   3.644   0.669   3.248 -0.2617  0.0348 -0.2633
 9262SOL    HW139248   3.645   0.764   3.254  2.1238 -0.0662  0.6318
 9262SOL    HW239249   3.552   0.662   3.276  0.2683  0.5819  1.6143
 9263SOL     OW39250   0.903   2.024  10.049 -0.0414  0.0639 -0.3063
 9263SOL    HW139251   0.988   2.015  10.093  0.2607 -0.2675 -0.9514
 9263SOL    HW239252   0.914   1.965   9.974  1.6040 -0.0521  0.0262
 9264SOL     OW39253   0.190   4.016   3.742 -0.0679 -0.2246  0.8163
 9264SOL    HW139254   0.129   3.977   3.680 -2.2606  1.5989  1.8140
 9264SOL    HW239255   0.233   4.073   3.678 -0.3760 -0.0088  0.8041
 9265SOL     OW39256   4.162   4.147   4.900 -0.1103 -0.1293 -0.1483
 9265SOL    HW139257   4.210   4.215   4.853 -0.0051  2.2418  3.3838
 9265SOL    HW239258   4.124   4.194   4.975 -1.1083 -4.5148  2.0670
 9266SOL     OW39259   4.374   2.235   3.325 -0.0607 -0.2145 -0.8173
 9266SOL    HW139260   4.332   2.162   3.371 -0.4988  1.3275  1.2297
 9266SOL    HW239261   4.365   2.309   3.385 -0.5597 -0.3100 -0.7759
 9267SOL     OW39262   1.215   0.562  14.150 -0.0939  0.0280  0.0029
 9267SOL    HW139263   1.133   0.604  14.176 -0.1996 -0.1279 -0.0786
 9267SOL    HW239264   1.186   0.503  14.080 -0.0188 -0.8349  0.6914
 9268SOL     OW39265   4.641   4.138  15.437 -0.0926 -0.2327 -0.2323
 9268SOL    HW139266   4.599   4.221  15.417 -0.6558 -0.1924  1.0888
 9268SOL    HW239267   4.693   4.147  15.517  0.1119 -1.1052 -0.2591
 9269SOL     OW39268   0.925   2.679  14.774 -0.1103 -0.4083  0.4328
 9269SOL    HW139269   0.859   2.745  14.796 -1.6147 -2.2089  1.4184
 9269SOL    HW239270   0.999   2.732  14.804  1.6988 -2.5550 -0.2198
 9270SOL     OW39271   2.624   2.867  11.839 -0.0711  0.5224 -0.5824
 9270SOL    HW139272   2.636   2.950  11.793  1.6961  0.8344  0.4584
 9270SOL    HW239273   2.618   2.908  11.925 -0.0715 -1.3002  0.2871
 9271SOL     OW39274   4.438   3.706   4.781 -0.1607  0.6972  0.3359
 9271SOL    HW139275   4.346   3.729   4.786  0.4133  2.2721  3.4011
 9271SOL    HW239276   4.452   3.633   4.841 -0.1588 -1.2173 -2.0182
 9272SOL     OW39277   4.455   2.928   4.957 -0.1700 -0.1368 -0.3913
 9272SOL    HW139278   4.402   2.974   4.892  1.7827  2.2433 -0.2862
 9272SOL    HW239279   4.391   2.885   5.013  0.9298 -4.0288 -2.0849
 9273SOL     OW39280   3.644   2.175   7.559  0.0016 -0.7068  0.7215
 9273SOL    HW139281   3.682   2.088   7.553  0.1957 -0.6872  1.5954
 9273SOL    HW239282   3.704   2.217   7.498  0.5521 -1.1457  0.9704
 9274SOL     OW39283   1.429   2.304  16.837  0.4119 -0.4964 -0.4216
 9274SOL    HW139284   1.515   2.267  16.858  0.3278 -0.9055 -0.7977
 9274SOL    HW239285   1.396   2.228  16.789  2.0161 -0.5868 -1.3588
 9275SOL     OW39286   1.899   0.448   4.235 -0.4649 -0.5032 -0.8234
 9275SOL    HW139287   1.887   0.363   4.276 -0.3279 -0.6782 -1.1531
 9275SOL    HW239288   1.914   0.500   4.314  1.1843 -1.8265 -0.2780
 9276SOL     OW39289   0.930   0.956  16.427  0.6364  0.2354 -0.2424
 9276SOL    HW139290   0.953   0.968  16.519  1.8405 -1.3707 -0.3292
 9276SOL    HW239291   0.973   0.875  16.399 -0.1360  0.7055 -2.8071
 9277SOL     OW39292   3.740   1.778   4.930  0.4264 -0.0557  0.1273
 9277SOL    HW139293   3.775   1.800   5.016  1.4805  1.5874 -0.7101
 9277SOL    HW239294   3.647   1.798   4.928  0.3658 -0.1994  2.1489
 9278SOL     OW39295   2.808   3.686  17.174  0.6522  0.4017 -0.1742
 9278SOL    HW139296   2.819   3.728  17.260 -0.0431 -0.1470  0.1866
 9278SOL    HW239297   2.734   3.741  17.147 -0.9127 -1.0939  1.0534
 9279SOL     OW39298   2.727   0.681   6.874  0.3022 -0.3665 -0.3277
 9279SOL    HW139299   2.662   0.747   6.899 -0.5494 -0.5083 -2.1610
 9279SOL    HW239300   2.783   0.735   6.820 -0.5121  2.2096  1.4057
 9280SOL     OW39301   0.893   4.193   5.778 -0.0360 -0.5270 -0.0546
 9280SOL    HW139302   0.900   4.267   5.718 -2.4136 -0.7250 -0.5791
 9280SOL    HW239303   0.856   4.124   5.724 -0.0768 -1.3209  0.9791
 9281SOL     OW39304   0.074   3.600   5.588  0.4169  0.3631 -0.4506
 9281SOL    HW139305   0.085   3.624   5.495  1.1696  0.0456 -0.4448
 9281SOL    HW239306   0.072   3.688   5.627 -3.4704 -0.3588  0.8938
 9282SOL     OW39307   0.354   3.024   3.857  0.3046  0.3056  0.0324
 9282SOL    HW139308   0.290   3.050   3.791 -0.8315  0.0864  1.0516
 9282SOL    HW239309   0.413   3.100   3.859  2.3047 -1.2985  2.5138
 9283SOL     OW39310   1.892   0.715   2.430 -0.0869  0.8530 -0.4775
 9283SOL    HW139311   1.817   0.669   2.469  2.1810 -3.2487 -0.9486
 9283SOL    HW239312   1.963   0.677   2.481 -1.2021 -0.4624  0.1098
 9284SOL     OW39313   4.059   1.398  13.273 -0.4343 -0.2572  0.5679
 9284SOL    HW139314   4.053   1.307  13.245 -1.1088 -0.1168  0.2556
 9284SOL    HW239315   4.153   1.401  13.290 -0.6859 -1.2865  2.1436
 9285SOL     OW39316   1.748   3.348   1.854 -0.3362 -0.1682 -0.1455
 9285SOL    HW139317   1.837   3.316   1.868 -1.1363 -1.8380  1.1897
 9285SOL    HW239318   1.745   3.393   1.939 -0.8275 -1.7937  0.6908
 9286SOL     OW39319   4.165   4.402   6.956  0.1799  0.2223  0.2952
 9286SOL    HW139320   4.173   4.496   6.939  0.7918 -0.2802 -2.1834
 9286SOL    HW239321   4.237   4.395   7.019  0.7213 -2.9517 -0.6660
 9287SOL     OW39322   3.427   2.178  15.215  0.3015 -0.4566  0.3163
 9287SOL    HW139323   3.387   2.105  15.262 -0.0268 -0.7823 -0.4733
 9287SOL    HW239324   3.472   2.226  15.285  1.0641 -1.6711  0.6621
 9288SOL     OW39325   4.527   1.227   9.037  0.3932  0.6121  0.1204
 9288SOL    HW139326   4.622   1.235   9.046  0.5246  1.1552 -1.6998
 9288SOL    HW239327   4.514   1.140   8.999  3.8408  0.1702 -0.0255
 9289SOL     OW39328   4.590   2.336  15.021 -0.0688 -0.8657  0.0619
 9289SOL    HW139329   4.519   2.397  14.998 -0.2942 -1.5724 -1.1090
 9289SOL    HW239330   4.594   2.341  15.117  1.3328  0.8036 -0.0866
 9290SOL     OW39331   1.109   2.400   2.064 -0.4919 -0.0058 -0.5788
 9290SOL    HW139332   1.104   2.399   1.968 -1.0146  0.2014 -0.5540
 9290SOL    HW239333   1.111   2.306   2.084 -0.9573  0.1770  0.2980
 9291SOL     OW39334   3.309   3.432  10.635 -0.4431 -0.2009 -0.2469
 9291SOL    HW139335   3.387   3.452  10.582 -0.5795 -2.3209 -1.2855
 9291SOL    HW239336   3.297   3.337  10.641 -0.8958  0.1718  4.2903
 9292SOL     OW39337   0.900   4.047  14.350 -0.2259  0.0669 -0.2728
 9292SOL    HW139338   0.917   4.139  14.366  0.0079 -0.2983  1.5131
 9292SOL    HW239339   0.844   4.026  14.424  1.1019  0.3719  0.8010
 9293SOL     OW39340   1.611   4.110   4.676 -0.0891  0.1809 -0.3657
 9293SOL    HW139341   1.620   4.150   4.590  0.8720 -0.6915 -0.6641
 9293SOL    HW239342   1.681   4.045   4.679  0.5111  0.7370 -2.7114
 9294SOL     OW39343   0.708   1.053   2.566 -0.1303  0.6240 -0.1711
 9294SOL    HW139344   0.800   1.062   2.542 -0.4318  0.0739 -1.5401
 9294SOL    HW239345   0.680   1.009   2.485 -2.8378  1.8927  0.0868
 9295SOL     OW39346   0.566   1.755  16.852 -0.1048  0.0677 -0.4035
 9295SOL    HW139347   0.643   1.755  16.794 -1.9046 -0.3829 -2.7984
 9295SOL    HW239348   0.557   1.849  16.869  0.9496  0.0794  0.1153
 9296SOL     OW39349   3.358   0.678  17.424 -0.0703  0.2534 -0.0285
 9296SOL    HW139350   3.436   0.686  17.368  0.7905 -0.7693  1.0297
 9296SOL    HW239351   3.349   0.583  17.428 -3.1791  0.5098 -0.8911
 9297SOL     OW39352   1.790   2.690  10.509 -0.3280 -0.2393  0.4043
 9297SOL    HW139353   1.737   2.686  10.589 -0.2421 -1.3555  0.4031
 9297SOL    HW239354   1.851   2.619  10.531 -0.6255 -0.5212  0.3239
 9298SOL     OW39355   0.639   4.032   5.379 -0.1359 -0.0437  0.2070
 9298SOL    HW139356   0.579   4.032   5.453  1.9132 -0.5194  1.8562
 9298SOL    HW239357   0.639   4.125   5.355  1.3796 -0.3752 -1.0990
 9299SOL     OW39358   3.097   1.629  11.003  0.2301 -0.3051 -0.4423
 9299SOL    HW139359   3.004   1.652  11.013  0.0899 -2.1273  2.4294
 9299SOL    HW239360   3.143   1.712  10.994 -2.2800  1.2905  1.3052
 9300SOL     OW39361   0.039   3.499   8.267  0.0899 -0.2788 -0.4790
 9300SOL    HW139362   0.074   3.487   8.178  0.6024 -1.3231 -0.1423
 9300SOL    HW239363   0.052   3.593   8.277  0.9899 -0.5260  0.6366
 9301SOL     OW39364   0.613   1.023   2.158 -0.0034  0.3342 -0.6949
 9301SOL    HW139365   0.550   1.095   2.154  2.9199  2.8630 -0.7609
 9301SOL    HW239366   0.656   1.033   2.073 -0.5388  0.8962 -0.9015
 9302SOL     OW39367   1.246   3.328   3.397  0.2658  0.3452  0.3473
 9302SOL    HW139368   1.302   3.282   3.460  0.6749  0.6273  0.1910
 9302SOL    HW239369   1.289   3.413   3.385 -0.1364  0.3385 -1.1744
 9303SOL     OW39370   3.807   2.701   4.331 -0.4540  0.5826 -0.4369
 9303SOL    HW139371   3.868   2.745   4.390  0.3858  0.5219 -1.2697
 9303SOL    HW239372   3.835   2.611   4.345  1.4040  1.2162 -0.1531
 9304SOL     OW39373   1.035   4.323   8.462  0.0919 -0.2479 -0.3670
 9304SOL    HW139374   1.072   4.235   8.464 -0.7200 -0.6273 -1.8804
 9304SOL    HW239375   1.080   4.365   8.536 -1.5530 -0.3921  0.7152
 9305SOL     OW39376   0.235   2.569   1.287 -0.2501 -0.2994  0.3580
 9305SOL    HW139377   0.244   2.596   1.195  0.0996 -1.1726  0.1382
 9305SOL    HW239378   0.174   2.635   1.319  1.3676  2.1478 -1.5963
 9306SOL     OW39379   1.622   0.577  13.987 -0.0274 -0.2084 -0.0173
 9306SOL    HW139380   1.661   0.569  13.900 -0.4206 -0.0236 -0.2136
 9306SOL    HW239381   1.694   0.541  14.037  0.2297  2.0778  1.2483
 9307SOL     OW39382   1.991   3.952  17.379 -0.8450 -0.6197 -0.2945
 9307SOL    HW139383   1.900   3.961  17.408 -1.2630  1.2085 -2.1697
 9307SOL    HW239384   1.990   3.994  17.292  0.3897  0.6631  0.3075
 9308SOL     OW39385   2.204   3.433   3.672 -0.0920 -0.0117 -0.1772
 9308SOL    HW139386   2.161   3.405   3.591  0.4277  1.1403 -0.8519
 9308SOL    HW239387   2.158   3.373   3.731 -0.3076 -2.3428 -2.6897
 9309SOL     OW39388   4.679   4.514   7.808  0.5430  0.3597 -0.0160
 9309SOL    HW139389   4.622   4.510   7.885  1.6209 -0.4591  0.7262
 9309SOL    HW239390   0.017   4.442   7.828  3.1172  2.2435 -0.8535
 9310SOL     OW39391   4.664   2.919   9.798  0.4872 -0.1721 -0.2002
 9310SOL    HW139392   4.681   2.975   9.722 -0.0583 -1.1889 -1.0708
 9310SOL    HW239393   4.622   2.974   9.864  1.4128  0.4702 -0.1502
 9311SOL     OW39394   1.400   4.618   8.192  0.4891 -0.5214  0.4897
 9311SOL    HW139395   1.361   4.574   8.267  2.9769  0.4533  2.3504
 9311SOL    HW239396   1.486   4.645   8.224  0.2249  0.3283  0.4933
 9312SOL     OW39397   0.054   1.440   2.310  0.0511 -1.0127 -0.2708
 9312SOL    HW139398   0.061   1.533   2.332 -0.3537 -0.8884 -0.6659
 9312SOL    HW239399   4.710   1.438   2.240  0.5483  2.3818 -0.8102
 9313SOL     OW39400   0.426   4.285   7.772  0.2625  0.3677 -0.8734
 9313SOL    HW139401   0.479   4.351   7.818 -0.9525  1.3732 -0.8981
 9313SOL    HW239402   0.425   4.208   7.827  1.2156 -0.2401 -1.6939
 9314SOL     OW39403   2.857   3.946  14.294 -0.2195 -0.6070 -0.0344
 9314SOL    HW139404   2.837   3.870  14.350 -0.7366 -0.2957  0.2046
 9314SOL    HW239405   2.886   3.906  14.212 -2.9601 -0.0785 -1.2514
 9315SOL     OW39406   1.396   0.400  12.780  0.0936 -0.6459  0.2889
 9315SOL    HW139407   1.361   0.318  12.814 -2.5977 -0.3280 -1.7222
 9315SOL    HW239408   1.380   0.386  12.687  1.6340 -0.3310 -0.0266
 9316SOL     OW39409   3.834   0.806   2.319 -0.5159  0.3643  0.1152
 9316SOL    HW139410   3.906   0.763   2.365 -1.0477 -0.6701 -0.0067
 9316SOL    HW239411   3.870   0.794   2.231 -1.1589 -2.4706  0.2452
 9317SOL     OW39412   0.473   3.463   4.760 -0.4052  0.3095  0.4060
 9317SOL    HW139413   0.399   3.454   4.820 -0.6093  1.3737  0.3176
 9317SOL    HW239414   0.440   3.433   4.675  1.0935  1.3528 -0.5394
 9318SOL     OW39415   0.036   2.175   1.423  0.0820  0.1836 -0.5805
 9318SOL    HW139416   4.691   2.110   1.445  1.3910 -0.8189  0.4245
 9318SOL    HW239417   0.106   2.151   1.484 -0.5003 -0.5298 -0.1952
 9319SOL     OW39418   4.380   1.104  15.701 -0.2493  0.7535 -0.2051
 9319SOL    HW139419   4.351   1.036  15.762  2.4247 -0.9677 -0.8705
 9319SOL    HW239420   4.467   1.121  15.738 -0.4124  1.2551 -0.0432
 9320SOL     OW39421   0.284   1.445   2.092  0.0058  0.0297 -0.1014
 9320SOL    HW139422   0.300   1.517   2.153 -0.9610 -0.9257  1.2438
 9320SOL    HW239423   0.208   1.488   2.052 -0.3908 -0.5354  0.0637
 9321SOL     OW39424   1.022   1.866   4.779  0.0216  0.1485  0.4789
 9321SOL    HW139425   1.091   1.845   4.842  0.3148 -0.1963  0.0383
 9321SOL    HW239426   0.950   1.827   4.829 -0.2461  1.4129  1.0964
 9322SOL     OW39427   0.679   2.235   0.476  0.0645  0.1847  0.2133
 9322SOL    HW139428   0.735   2.292   0.528  1.1483 -0.5284 -0.1815
 9322SOL    HW239429   0.660   2.166   0.540  0.0762  1.4548  1.5913
 9323SOL     OW39430   2.375   3.039  13.552 -0.4981  0.0664 -0.2614
 9323SOL    HW139431   2.309   3.021  13.485 -0.4988  1.8793 -0.7255
 9323SOL    HW239432   2.334   2.984  13.619 -0.7044 -0.0840 -0.5077
 9324SOL     OW39433   4.063   3.315  11.238  0.0241  0.0690 -0.2802
 9324SOL    HW139434   3.981   3.267  11.222  0.1921 -0.0023 -0.9326
 9324SOL    HW239435   4.128   3.252  11.207 -0.2676 -0.0907 -0.5759
 9325SOL     OW39436   3.366   1.682   2.666  0.5015  0.2846 -0.5872
 9325SOL    HW139437   3.279   1.673   2.706  0.6067  0.8554 -0.2276
 9325SOL    HW239438   3.416   1.725   2.735 -0.1712  0.3794 -0.1589
 9326SOL     OW39439   1.167   1.790   8.718 -0.0838  0.1437  0.3990
 9326SOL    HW139440   1.250   1.750   8.691 -1.0642 -2.5969  1.4583
 9326SOL    HW239441   1.125   1.798   8.633 -0.5712 -2.0385  0.4328
 9327SOL     OW39442   1.190   4.451  16.540 -0.0194 -0.3362 -0.5032
 9327SOL    HW139443   1.107   4.479  16.580  0.1373  1.4977 -1.4296
 9327SOL    HW239444   1.196   4.495  16.455 -2.3977 -0.9748 -1.0128
 9328SOL     OW39445   2.753   2.946  10.151  0.6072 -0.2221  0.1588
 9328SOL    HW139446   2.668   2.989  10.155  0.4627 -0.8714  3.6063
 9328SOL    HW239447   2.801   3.018  10.109  0.9923 -1.5214 -1.6648
 9329SOL     OW39448   1.886   3.231   0.991  0.2709  0.4453  0.2883
 9329SOL    HW139449   1.939   3.176   0.934 -1.9192 -0.0695 -1.2352
 9329SOL    HW239450   1.895   3.188   1.076  1.8666 -0.9981 -0.6293
 9330SOL     OW39451   3.395   3.803  13.660  0.7453  0.2081 -0.2402
 9330SOL    HW139452   3.349   3.878  13.698 -0.7345 -0.3143 -1.0427
 9330SOL    HW239453   3.319   3.746  13.665 -0.1361  1.2462 -1.7111
 9331SOL     OW39454   2.379   3.395   8.887  0.4980  0.4159  0.5601
 9331SOL    HW139455   2.406   3.357   8.804  1.7542  0.7665  0.8137
 9331SOL    HW239456   2.292   3.419   8.854  0.8231  0.4331 -0.2644
 9332SOL     OW39457   1.275   1.259   4.028 -0.1978  0.0712  0.0557
 9332SOL    HW139458   1.300   1.170   4.004 -0.9799 -0.8922  2.8660
 9332SOL    HW239459   1.343   1.294   4.086  0.4860  1.9177 -1.8738
 9333SOL     OW39460   0.300   3.900   5.806 -0.2946  0.3462 -0.0125
 9333SOL    HW139461   0.213   3.862   5.819  0.5799 -1.8544 -0.6928
 9333SOL    HW239462   0.364   3.838   5.842  0.8332  0.9289 -1.0175
 9334SOL     OW39463   3.149   0.696  15.498 -0.7034  0.5463  0.0300
 9334SOL    HW139464   3.221   0.687  15.436  1.5231 -2.7170  3.1031
 9334SOL    HW239465   3.182   0.718  15.585 -1.8234 -1.5563  0.9754
 9335SOL     OW39466   3.901   3.755  13.396  0.3685  0.7718 -0.2252
 9335SOL    HW139467   3.949   3.746  13.314  0.6032 -2.9413  0.3403
 9335SOL    HW239468   3.815   3.765  13.355  0.4919 -0.0609 -0.6780
 9336SOL     OW39469   3.029   3.402   6.264 -0.4389 -0.0317  0.4035
 9336SOL    HW139470   2.959   3.402   6.199  0.5642  0.8875 -0.6741
 9336SOL    HW239471   3.011   3.482   6.313  2.2682  1.7803 -1.5801
 9337SOL     OW39472   1.377   4.306   8.523  0.5826  0.8624 -0.0770
 9337SOL    HW139473   1.360   4.401   8.523  2.8005  1.2597 -1.5325
 9337SOL    HW239474   1.424   4.284   8.442 -1.9967 -1.1567 -1.0297
 9338SOL     OW39475   3.698   1.004   9.902 -0.5183 -0.1537 -0.3531
 9338SOL    HW139476   3.641   1.001   9.825  0.3616  0.8023 -1.0488
 9338SOL    HW239477   3.750   0.925   9.890  0.6991  0.5889  0.0427
 9339SOL     OW39478   2.149   3.937  15.443  0.2383 -0.1388 -0.0902
 9339SOL    HW139479   2.221   3.988  15.406 -0.0495  0.3308 -0.0003
 9339SOL    HW239480   2.089   4.009  15.464  2.5596  1.8032 -0.0563
 9340SOL     OW39481   0.182   2.299   5.859 -0.2199  0.0288  0.0819
 9340SOL    HW139482   0.179   2.391   5.886  0.9638  0.7493 -2.2930
 9340SOL    HW239483   0.142   2.312   5.773  0.5549  1.7886 -0.0166
 9341SOL     OW39484   3.763   3.231   0.889 -0.8101  0.4786 -0.1273
 9341SOL    HW139485   3.813   3.215   0.968 -1.0022 -1.7924 -0.4865
 9341SOL    HW239486   3.675   3.218   0.924 -0.4058  2.5345  1.6521
 9342SOL     OW39487   0.186   0.940   6.399  0.1123 -0.2255 -0.1159
 9342SOL    HW139488   0.214   0.855   6.435 -0.2703  0.5578  2.0203
 9342SOL    HW239489   0.267   0.982   6.427 -0.0621 -0.2012  0.3486
 9343SOL     OW39490   0.515   1.536   8.747 -0.7962  0.4727  0.0718
 9343SOL    HW139491   0.602   1.546   8.785 -1.8501  2.6317  1.8971
 9343SOL    HW239492   0.465   1.534   8.828 -0.2708  0.3667  0.3917
 9344SOL     OW39493   1.082   4.115   2.719  0.0265  0.0417  0.4044
 9344SOL    HW139494   1.108   4.182   2.782  1.2932  1.8808 -2.0849
 9344SOL    HW239495   1.151   4.133   2.655 -1.1194  0.4345 -0.7312
 9345SOL     OW39496   4.399   3.911   8.024 -0.0083  0.0798 -0.0423
 9345SOL    HW139497   4.358   3.997   8.041 -2.0195 -1.0458  0.8202
 9345SOL    HW239498   4.487   3.946   8.014 -0.6915  2.3240  1.7553
 9346SOL     OW39499   3.302   4.458   1.763 -0.7466  0.6443  0.5906
 9346SOL    HW139500   3.223   4.428   1.718 -0.4018 -0.7426  0.9333
 9346SOL    HW239501   3.260   4.529   1.812 -1.6827  1.5027 -1.4662
 9347SOL     OW39502   4.633   2.785   5.469  0.3825 -0.3722  0.0524
 9347SOL    HW139503   4.547   2.818   5.443  0.3027 -0.2381  0.4953
 9347SOL    HW239504   4.677   2.852   5.416  0.4704 -1.7243 -1.5630
 9348SOL     OW39505   1.196   0.811   7.114  0.5541  0.6242 -0.6875
 9348SOL    HW139506   1.198   0.906   7.102  0.2186  0.2699 -3.4083
 9348SOL    HW239507   1.246   0.790   7.035  0.0820 -1.4643 -0.4273
 9349SOL     OW39508   1.655   2.300   8.058  0.1227  0.4181  0.0798
 9349SOL    HW139509   1.666   2.388   8.023  0.5316  0.9770  1.6042
 9349SOL    HW239510   1.744   2.290   8.092 -0.1449  1.1172  0.9856
 9350SOL     OW39511   2.122   3.110   6.004  0.0482 -0.0809 -0.3347
 9350SOL    HW139512   2.192   3.169   5.977 -0.7731  1.4936  0.9421
 9350SOL    HW239513   2.104   3.048   5.933 -0.9298 -0.2551  0.0636
 9351SOL     OW39514   1.884   4.222   5.038  0.4691  0.8215  0.2906
 9351SOL    HW139515   1.879   4.312   5.006 -1.4685  1.0381  1.2126
 9351SOL    HW239516   1.979   4.216   5.046  0.4529  0.2411  0.0610
 9352SOL     OW39517   3.717   3.609  14.027  0.5800 -0.1051 -0.2011
 9352SOL    HW139518   3.646   3.656  13.984  1.4112  1.8392  0.5446
 9352SOL    HW239519   3.704   3.521  13.992 -2.6761  0.8265 -1.3416
 9353SOL     OW39520   2.861   1.873   3.896  0.7239  0.1976  0.5392
 9353SOL    HW139521   2.887   1.964   3.910  0.3207  0.5019 -0.6456
 9353SOL    HW239522   2.769   1.878   3.872  0.7402  1.0930  0.6502
 9354SOL     OW39523   3.891   3.632   3.006 -0.5187  0.0331  0.2445
 9354SOL    HW139524   3.862   3.608   2.918 -0.5851 -1.0732  0.5665
 9354SOL    HW239525   3.899   3.545   3.047 -1.4302 -0.6528 -1.0331
 9355SOL     OW39526   1.532   0.372   5.925 -0.4909  0.3336  0.1851
 9355SOL    HW139527   1.609   0.362   5.982  0.0912  0.2293 -0.6122
 9355SOL    HW239528   1.467   0.365   5.995  0.8095  1.3238  1.4978
 9356SOL     OW39529   3.526   3.532   3.921 -0.0832  0.3198 -0.0865
 9356SOL    HW139530   3.481   3.449   3.907 -0.2441  0.1957  1.1580
 9356SOL    HW239531   3.496   3.582   3.846  0.1409 -1.3069 -1.2544
 9357SOL     OW39532   1.072   3.298   6.984 -0.3525  0.8254  0.0182
 9357SOL    HW139533   1.113   3.336   7.061 -0.1180  0.4494  0.0806
 9357SOL    HW239534   1.143   3.315   6.922  1.1805  0.7223  1.7422
 9358SOL     OW39535   1.807   4.079   3.373  0.4451  0.0143  0.6096
 9358SOL    HW139536   1.713   4.090   3.357  0.2224 -2.4532  0.3035
 9358SOL    HW239537   1.812   4.079   3.469 -0.3902 -2.6158  0.6431
 9359SOL     OW39538   2.474   4.358   8.064 -0.7291  0.2804 -0.0997
 9359SOL    HW139539   2.489   4.300   8.138  0.8452  2.5037  1.3137
 9359SOL    HW239540   2.431   4.431   8.108  1.2888  1.9607 -0.9126
 9360SOL     OW39541   1.040   2.434  10.394 -1.0707 -0.1116 -0.5925
 9360SOL    HW139542   0.956   2.467  10.425 -0.2496  0.7751  0.6937
 9360SOL    HW239543   1.056   2.505  10.332  1.2218  0.3160  0.4967
 9361SOL     OW39544   3.305   2.441   2.607  0.0613  0.2623 -0.4672
 9361SOL    HW139545   3.336   2.370   2.663  0.4287  0.6235 -0.2112
 9361SOL    HW239546   3.258   2.392   2.539 -0.2997  1.9974 -1.4578
 9362SOL     OW39547   3.611   2.334  12.939 -0.9518  0.0754  0.4978
 9362SOL    HW139548   3.582   2.249  12.971 -1.0331  0.9282  2.7224
 9362SOL    HW239549   3.562   2.345  12.858  1.3041  1.3897 -0.6972
 9363SOL     OW39550   3.732   3.936   0.056  0.5694 -0.4646  0.1875
 9363SOL    HW139551   3.647   3.949   0.014  1.1467 -0.8232 -1.0947
 9363SOL    HW239552   3.713   3.956   0.148  0.4871  1.9357 -0.3584
 9364SOL     OW39553   0.903   2.829   2.675 -0.2707 -0.1391 -0.0769
 9364SOL    HW139554   0.994   2.858   2.684 -0.5900  0.5967  0.7358
 9364SOL    HW239555   0.903   2.812   2.581  1.4474 -1.3061  0.1144
 9365SOL     OW39556   0.499   2.054   8.019  0.5392 -0.5492 -0.5573
 9365SOL    HW139557   0.513   2.041   8.113  1.3357 -1.6514 -0.8333
 9365SOL    HW239558   0.553   1.978   8.000  2.6631  1.6418 -3.3197
 9366SOL     OW39559   0.774   3.969   5.665 -0.2458  0.0857  0.0859
 9366SOL    HW139560   0.680   3.967   5.651 -0.0715 -2.6141 -0.8558
 9366SOL    HW239561   0.808   3.908   5.599  2.3258  2.5919 -0.8882
 9367SOL     OW39562   0.615   0.946  12.788  0.4897  0.5194  0.3670
 9367SOL    HW139563   0.539   0.894  12.764 -0.4964  2.5519 -0.9025
 9367SOL    HW239564   0.685   0.893  12.751 -0.2853 -0.8889  0.9180
 9368SOL     OW39565   1.919   1.290   3.401 -0.6225  0.5616  0.1313
 9368SOL    HW139566   1.863   1.316   3.328 -0.6069  1.5662  0.4720
 9368SOL    HW239567   1.865   1.218   3.432  2.3124 -0.8700  1.9037
 9369SOL     OW39568   1.435   1.569   3.896  0.0242 -0.2547  0.0917
 9369SOL    HW139569   1.413   1.487   3.851 -0.3854  0.2371 -0.6247
 9369SOL    HW239570   1.393   1.556   3.981  1.5896 -0.1378  0.8665
 9370SOL     OW39571   1.551   3.263  12.316 -0.4176 -0.0229 -0.0533
 9370SOL    HW139572   1.617   3.278  12.384 -0.1750  0.1907 -0.3369
 9370SOL    HW239573   1.581   3.317  12.243 -0.8272  0.7770  0.3703
 9371SOL     OW39574   2.208   4.089   2.825 -0.2164  0.4224 -0.5365
 9371SOL    HW139575   2.252   4.007   2.846 -1.3520  0.4409  1.9569
 9371SOL    HW239576   2.266   4.147   2.775 -1.3961  0.6630 -1.6297
 9372SOL     OW39577   0.057   1.293  13.751 -0.2452 -0.4828 -0.4218
 9372SOL    HW139578   0.061   1.299  13.846 -1.0976  1.4506 -0.5093
 9372SOL    HW239579   4.687   1.270  13.738 -0.2572 -0.5247 -0.2540
 9373SOL     OW39580   4.333   1.799   5.021  0.4415 -0.2466  0.4573
 9373SOL    HW139581   4.271   1.867   4.996  0.4954  0.6133  2.6190
 9373SOL    HW239582   4.326   1.732   4.953  0.4236  0.8218 -0.5757
 9374SOL     OW39583   3.273   3.376   7.649 -0.2419 -0.3160  0.4117
 9374SOL    HW139584   3.339   3.446   7.649 -0.5652 -0.0103  1.0709
 9374SOL    HW239585   3.314   3.309   7.594  0.8395  1.8258 -1.3749
 9375SOL     OW39586   0.771   2.900   7.288  0.0497  0.2759  0.0132
 9375SOL    HW139587   0.819   2.872   7.366  0.4820 -0.5837 -0.5593
 9375SOL    HW239588   0.683   2.860   7.287  0.1333  0.0119  2.1426
 9376SOL     OW39589   2.502   2.782   3.700 -0.3977 -0.6440 -0.5074
 9376SOL    HW139590   2.452   2.719   3.752 -0.0353 -1.7565 -1.5305
 9376SOL    HW239591   2.583   2.798   3.749  0.0237  0.2372 -1.4846
 9377SOL     OW39592   3.249   1.342  13.718 -0.7968 -0.2996  0.2508
 9377SOL    HW139593   3.192   1.373  13.788 -0.4864  0.1730  0.2944
 9377SOL    HW239594   3.207   1.371  13.638 -0.9617 -0.7146  0.1871
 9378SOL     OW39595   1.495   0.313  16.369 -0.4769 -0.4753  0.0007
 9378SOL    HW139596   1.505   0.268  16.453  0.0533 -0.8547 -0.2652
 9378SOL    HW239597   1.563   0.377  16.390 -1.8287  1.3595 -1.2276
 9379SOL     OW39598   2.748   3.324  12.312  0.1415 -0.0809 -0.2013
 9379SOL    HW139599   2.752   3.229  12.322  1.3145  0.0840  0.9493
 9379SOL    HW239600   2.815   3.356  12.251  2.4442 -1.9617  1.3196
 9380SOL     OW39601   3.216   2.803   8.612 -0.0960  0.7751 -0.9981
 9380SOL    HW139602   3.238   2.770   8.699  1.3290  1.5504 -1.0762
 9380SOL    HW239603   3.120   2.795   8.613  0.1200 -1.7673 -1.0155
 9381SOL     OW39604   2.678   2.648   8.114  0.1799  0.1552  0.8248
 9381SOL    HW139605   2.668   2.635   8.208 -1.1724 -1.2345  0.5008
 9381SOL    HW239606   2.615   2.577   8.100 -0.2407  0.7006 -0.0590
 9382SOL     OW39607   2.105   4.136   1.315 -0.2339 -0.0038  0.0796
 9382SOL    HW139608   2.144   4.105   1.397  0.6848 -1.0987 -0.7733
 9382SOL    HW239609   2.143   4.221   1.293  0.2379  0.4387  2.5522
 9383SOL     OW39610   0.969   3.378  15.415 -0.4014 -0.1056 -0.5589
 9383SOL    HW139611   0.930   3.448  15.362  2.5330 -0.0994 -2.7500
 9383SOL    HW239612   1.027   3.340  15.349  0.4812  0.2305  0.0127
 9384SOL     OW39613   2.055   2.927  11.327 -0.0160  0.3717 -0.4463
 9384SOL    HW139614   2.071   2.833  11.333  0.6745  0.4976 -0.3980
 9384SOL    HW239615   2.003   2.940  11.247 -0.9789  1.0129  0.2774
 9385SOL     OW39616   3.829   1.505   9.254 -0.4213 -0.3778  0.1126
 9385SOL    HW139617   3.914   1.520   9.295 -0.1439 -0.2473 -0.5141
 9385SOL    HW239618   3.809   1.598   9.245  1.7717 -0.1959 -2.9509
 9386SOL     OW39619   2.205   2.418   5.803 -0.2710  0.1647 -0.0536
 9386SOL    HW139620   2.111   2.419   5.782 -0.3861 -0.7245  0.4209
 9386SOL    HW239621   2.204   2.356   5.876  0.4146  1.5907  1.1769
 9387SOL     OW39622   3.534   1.207  16.770  0.6087 -0.1419  0.3134
 9387SOL    HW139623   3.557   1.242  16.856 -0.2665  0.2702  0.3790
 9387SOL    HW239624   3.484   1.282  16.737  1.7676 -0.5163 -2.2630
 9388SOL     OW39625   0.484   0.475  14.076  0.1673 -0.1023  0.1551
 9388SOL    HW139626   0.443   0.392  14.052 -0.0745 -0.0058  0.2323
 9388SOL    HW239627   0.565   0.473  14.026 -0.9532 -1.5493 -1.6114
 9389SOL     OW39628   0.328   0.286  16.225  0.5220  0.0923 -0.4029
 9389SOL    HW139629   0.375   0.368  16.233  0.2292  0.3594 -1.3812
 9389SOL    HW239630   0.390   0.233  16.174 -1.5134 -1.5185 -1.2000
 9390SOL     OW39631   4.598   1.800  16.673 -0.3071 -0.5665 -0.3416
 9390SOL    HW139632   4.689   1.793  16.701 -0.4886  2.0858  0.9066
 9390SOL    HW239633   4.553   1.809  16.757 -1.4556 -1.9636 -0.7955
 9391SOL     OW39634   2.356   0.233  11.739  0.2643  0.0982 -0.0315
 9391SOL    HW139635   2.295   0.170  11.777  0.0185 -0.4923 -1.4300
 9391SOL    HW239636   2.325   0.231  11.649  4.1061 -0.6871 -1.3519
 9392SOL     OW39637   3.478   3.950   6.241  0.3871  0.6276  0.4817
 9392SOL    HW139638   3.526   3.956   6.323  1.7433  0.9161 -0.3272
 9392SOL    HW239639   3.390   3.949   6.279 -0.4400 -1.3927 -1.4671
 9393SOL     OW39640   3.322   2.332  11.475 -0.2154  0.4133 -0.0797
 9393SOL    HW139641   3.288   2.324  11.564  1.4438 -0.0240  0.5070
 9393SOL    HW239642   3.386   2.263  11.456 -1.2014 -0.5612  0.1460
 9394SOL     OW39643   0.509   2.835  17.422 -0.2169 -0.0065 -0.2185
 9394SOL    HW139644   0.439   2.868  17.479 -0.6725  0.2483 -0.9248
 9394SOL    HW239645   0.492   2.741  17.420 -2.0851  0.3755 -3.3529
 9395SOL     OW39646   4.218   3.324  16.747  0.5307  0.0268 -0.1320
 9395SOL    HW139647   4.124   3.308  16.746  0.5257 -0.0706  1.1493
 9395SOL    HW239648   4.247   3.238  16.775 -1.0650  0.2020  2.0797
 9396SOL     OW39649   0.473   2.481   2.419 -0.0777 -0.4144  0.7234
 9396SOL    HW139650   0.430   2.493   2.504 -0.8409  0.4216  0.2138
 9396SOL    HW239651   0.492   2.573   2.399 -1.4626  0.0868  1.7229
 9397SOL     OW39652   2.964   4.078  13.463  0.0365  0.0303  0.2299
 9397SOL    HW139653   2.885   4.126  13.439  0.7013  0.4066 -1.1870
 9397SOL    HW239654   3.020   4.154  13.473 -0.4466  0.3056  0.8384
 9398SOL     OW39655   1.030   1.386   8.960 -0.2998 -0.3051 -0.5619
 9398SOL    HW139656   1.041   1.301   8.918 -1.6197 -0.3021 -0.9029
 9398SOL    HW239657   1.001   1.352   9.045  3.4871  0.4140  1.0299
 9399SOL     OW39658   2.920   2.735   2.693  0.2443 -0.1305 -0.0233
 9399SOL    HW139659   2.874   2.687   2.624 -0.0864  0.0367  0.0825
 9399SOL    HW239660   3.010   2.724   2.661 -0.5841  1.2112 -2.8359
 9400SOL     OW39661   4.327   3.293   8.435  0.1870  0.0351  0.1209
 9400SOL    HW139662   4.255   3.236   8.406 -1.2516  0.7036  2.3634
 9400SOL    HW239663   4.311   3.364   8.373  0.6490  0.7738  0.8557
 9401SOL     OW39664   1.846   4.288   0.523 -0.1178  0.4708  0.0696
 9401SOL    HW139665   1.826   4.258   0.611  0.8629 -1.6592 -0.4467
 9401SOL    HW239666   1.917   4.349   0.544 -0.2597 -0.0246  1.9656
 9402SOL     OW39667   1.520   3.423   1.489 -0.3127  0.3125  0.2018
 9402SOL    HW139668   1.500   3.356   1.554  1.3657 -1.8356 -1.5290
 9402SOL    HW239669   1.436   3.470   1.485  0.0687  0.9670 -0.1381
 9403SOL     OW39670   0.354   4.218   1.539  0.0939  0.1346 -0.5299
 9403SOL    HW139671   0.297   4.276   1.490 -1.0810 -0.9861 -0.4907
 9403SOL    HW239672   0.385   4.161   1.469 -0.1128  2.9519 -2.9136
 9404SOL     OW39673   1.406   2.496  11.086  0.6147  0.0364 -0.1378
 9404SOL    HW139674   1.412   2.443  11.006 -2.7366 -2.8498  1.4971
 9404SOL    HW239675   1.483   2.551  11.076  0.2059  1.2100  3.0402
 9405SOL     OW39676   0.450   0.900  16.107 -0.2857 -0.2843  0.9422
 9405SOL    HW139677   0.388   0.886  16.178  0.4679 -0.1050  1.6375
 9405SOL    HW239678   0.538   0.890  16.145  0.2075  0.1488 -0.0910
 9406SOL     OW39679   2.644   3.706   4.442 -0.2637  0.4570 -0.2508
 9406SOL    HW139680   2.596   3.644   4.497  1.3762 -0.0509  0.6207
 9406SOL    HW239681   2.578   3.775   4.432 -0.3613  0.2893 -0.7710
 9407SOL     OW39682   3.289   2.945  10.931 -0.5027 -0.4237 -0.0442
 9407SOL    HW139683   3.256   3.001  10.861  3.8082  2.9421  0.6144
 9407SOL    HW239684   3.372   2.918  10.889  0.4966  1.6326  0.6383
 9408SOL     OW39685   1.252   1.556   0.786 -0.6123  0.0521  0.8088
 9408SOL    HW139686   1.334   1.605   0.778 -0.0185 -1.0497  0.0974
 9408SOL    HW239687   1.284   1.485   0.842  0.3314  0.3457  0.6488
 9409SOL     OW39688   3.881   2.432   4.365  0.2342  0.7105 -0.0229
 9409SOL    HW139689   3.967   2.398   4.338 -1.1591 -0.7620 -2.6241
 9409SOL    HW239690   3.829   2.351   4.360 -0.1287  1.0085 -1.0418
 9410SOL     OW39691   2.521   3.702   8.314 -0.7530  0.8059  0.1939
 9410SOL    HW139692   2.616   3.709   8.323 -0.4709 -2.5848 -0.1077
 9410SOL    HW239693   2.508   3.644   8.239 -1.2420  0.3347  0.6474
 9411SOL     OW39694   2.372   1.218   5.789  0.1325 -0.2392  0.3221
 9411SOL    HW139695   2.366   1.196   5.696  2.5179  0.4286  0.0274
 9411SOL    HW239696   2.306   1.152   5.811  0.3660  0.0101  1.7957
 9412SOL     OW39697   0.734   3.102  16.972 -0.1613  0.3321 -0.2433
 9412SOL    HW139698   0.651   3.068  17.005 -0.9149  0.7713 -1.6863
 9412SOL    HW239699   0.714   3.186  17.014  0.0404  1.0852 -1.6458
 9413SOL     OW39700   2.537   3.470   6.078 -0.1208  0.8107 -0.0932
 9413SOL    HW139701   2.552   3.378   6.098  0.3132  0.9023  0.0086
 9413SOL    HW239702   2.456   3.485   6.128  0.2956  0.0570  0.8183
 9414SOL     OW39703   4.037   0.726   7.574  0.4017 -0.0488  0.0445
 9414SOL    HW139704   3.969   0.660   7.563  1.0067 -0.8580  1.1786
 9414SOL    HW239705   4.110   0.668   7.594  0.4278  0.2293  0.7511
 9415SOL     OW39706   2.083   2.229   2.131 -0.5228 -0.1540 -0.1787
 9415SOL    HW139707   2.016   2.254   2.194 -0.9455  2.1465 -1.5350
 9415SOL    HW239708   2.163   2.229   2.183 -1.5165 -1.1145  1.3271
 9416SOL     OW39709   4.263   1.132   0.226 -0.3619  0.2340 -0.5606
 9416SOL    HW139710   4.175   1.097   0.212  0.4283 -2.0342  0.2092
 9416SOL    HW239711   4.315   1.075   0.169 -0.6267  0.2886 -0.8587
 9417SOL     OW39712   2.391   4.615   4.572 -0.1813 -0.7766  0.5484
 9417SOL    HW139713   2.364   4.699   4.535  1.8491 -0.5957 -0.4572
 9417SOL    HW239714   2.441   4.585   4.497 -0.5362 -1.4452  0.5774
 9418SOL     OW39715   1.537   1.669   5.848  0.3776 -0.4605 -0.1471
 9418SOL    HW139716   1.599   1.603   5.817 -0.7051 -0.3736 -2.4393
 9418SOL    HW239717   1.491   1.628   5.922 -0.2917  0.6144  0.0330
 9419SOL     OW39718   3.621   3.335   8.387 -0.2868  0.1352 -0.2717
 9419SOL    HW139719   3.660   3.261   8.435 -0.6278 -0.6446 -1.1922
 9419SOL    HW239720   3.534   3.343   8.425 -0.8853  1.5456 -1.9491
 9420SOL     OW39721   0.246   3.861   5.245 -0.2187  0.6121  0.0755
 9420SOL    HW139722   0.257   3.940   5.297 -2.3898  2.7826 -2.7800
 9420SOL    HW239723   0.324   3.862   5.190  0.1822 -0.2237  0.6234
 9421SOL     OW39724   0.912   3.730  13.377  0.3699  0.0473  0.6737
 9421SOL    HW139725   0.861   3.773  13.308  0.2568 -0.2760  0.5591
 9421SOL    HW239726   0.852   3.673  13.425  0.6529 -2.0414 -1.4559
 9422SOL     OW39727   1.636   1.714  15.181 -0.0393 -0.0144  0.1700
 9422SOL    HW139728   1.599   1.785  15.235 -0.5693 -0.9358  1.0199
 9422SOL    HW239729   1.554   1.665  15.172  0.0701 -0.5968  2.2372
 9423SOL     OW39730   3.604   4.605   1.219 -0.4489 -0.5350  0.3872
 9423SOL    HW139731   3.519   4.622   1.259 -1.0483 -1.1000 -0.6293
 9423SOL    HW239732   3.663   4.642   1.284  1.9347 -1.5053 -1.1944
 9424SOL     OW39733   0.162   3.621   3.168  0.3460  0.0253  0.0416
 9424SOL    HW139734   0.165   3.525   3.172  1.2903  0.0766  0.4287
 9424SOL    HW239735   0.122   3.623   3.081  1.6639  1.5182 -0.5234
 9425SOL     OW39736   0.572   0.728   4.261 -0.1242  0.3821  0.0971
 9425SOL    HW139737   0.480   0.732   4.233 -0.2256  1.5857  0.6120
 9425SOL    HW239738   0.611   0.721   4.175  0.2543 -1.6831  0.4281
 9426SOL     OW39739   0.458   3.118  15.525 -0.4286 -0.1980 -0.3293
 9426SOL    HW139740   0.515   3.078  15.590  0.2718  1.1574 -0.1107
 9426SOL    HW239741   0.519   3.171  15.475  0.5332  0.5700  1.6514
 9427SOL     OW39742   2.541   1.451   5.841 -0.0637  0.5684  0.1852
 9427SOL    HW139743   2.608   1.387   5.816  3.3295  4.0592  0.3327
 9427SOL    HW239744   2.464   1.406   5.809  0.3146 -1.4192  2.0547
 9428SOL     OW39745   1.227   0.288   3.565  0.1712 -0.6712  0.1461
 9428SOL    HW139746   1.142   0.272   3.606  0.2785  1.3175  1.1310
 9428SOL    HW239747   1.229   0.220   3.498  2.8545 -2.4899  2.0405
 9429SOL     OW39748   3.070   1.240   6.954  0.2346  0.5796  0.1069
 9429SOL    HW139749   3.127   1.173   6.916  2.1949  3.8970 -2.8643
 9429SOL    HW239750   3.090   1.325   6.913  1.5730  0.0879 -0.2726
 9430SOL     OW39751   2.409   1.539  11.726 -0.2738  0.5003 -0.1934
 9430SOL    HW139752   2.315   1.548  11.740 -0.2570  0.7683 -0.2488
 9430SOL    HW239753   2.433   1.471  11.788  1.2235  1.4489  0.2648
 9431SOL     OW39754   3.271   0.201  12.410  0.0704  0.4950  0.0097
 9431SOL    HW139755   3.353   0.233  12.373  0.8389 -2.0207 -0.5078
 9431SOL    HW239756   3.208   0.251  12.358  0.7032  1.7639  0.4658
 9432SOL     OW39757   1.332   2.030   4.569 -0.3053  0.1194 -0.2395
 9432SOL    HW139758   1.346   2.007   4.661 -0.3844 -3.6380 -1.1440
 9432SOL    HW239759   1.398   1.969   4.536  0.4140  0.1556  1.1213
 9433SOL     OW39760   3.503   0.275   6.477  0.2570 -0.2023  0.1798
 9433SOL    HW139761   3.463   0.357   6.451  0.3625  0.1179  1.0082
 9433SOL    HW239762   3.595   0.299   6.483 -0.0787  1.2482 -0.6919
 9434SOL     OW39763   2.261   1.925   6.463  0.7632 -0.4632  0.6866
 9434SOL    HW139764   2.238   1.879   6.544 -1.7245 -0.6049 -0.0970
 9434SOL    HW239765   2.249   1.865   6.390 -0.7211  1.5083 -0.6732
 9435SOL     OW39766   2.067   4.401   6.921 -0.7287  0.8040 -0.6161
 9435SOL    HW139767   1.976   4.379   6.940 -0.2319 -1.0559 -0.3812
 9435SOL    HW239768   2.106   4.390   7.007 -0.8689  2.3910 -0.3584
 9436SOL     OW39769   1.643   0.378  17.502 -0.4314  0.2921 -0.0519
 9436SOL    HW139770   1.588   0.397  17.427  0.6016  1.0338 -0.6201
 9436SOL    HW239771   1.641   0.282  17.500 -0.9901  0.3224 -1.1100
 9437SOL     OW39772   4.126   3.940   3.355  0.2365 -0.4468  0.1529
 9437SOL    HW139773   4.061   4.009   3.364  0.6363 -0.1540  0.8312
 9437SOL    HW239774   4.075   3.871   3.312  0.3147 -0.6652  0.4064
 9438SOL     OW39775   1.395   3.536   4.257  0.1886 -0.4328 -0.0560
 9438SOL    HW139776   1.406   3.597   4.184 -0.6622 -1.3597 -0.9660
 9438SOL    HW239777   1.365   3.454   4.218  2.0030 -0.2711 -1.7870
 9439SOL     OW39778   4.338   0.490  12.105  0.7276 -0.0876 -0.6259
 9439SOL    HW139779   4.424   0.496  12.063 -0.2107  0.2685 -2.4827
 9439SOL    HW239780   4.345   0.553  12.177 -1.9218  1.5691 -1.8135
 9440SOL     OW39781   3.624   1.312   7.443 -0.2169  0.1750 -0.4810
 9440SOL    HW139782   3.647   1.256   7.517 -1.4013  0.5184  0.1550
 9440SOL    HW239783   3.655   1.396   7.477 -0.2803  0.0799 -0.1859
 9441SOL     OW39784   1.574   4.599  10.608  0.4546 -0.4395  0.6046
 9441SOL    HW139785   1.539   4.543  10.538 -0.7833  1.4719 -0.2852
 9441SOL    HW239786   1.663   4.567  10.595 -0.2349 -2.3780  0.5894
 9442SOL     OW39787   2.786   2.679   3.523 -0.0854  0.1545 -0.3162
 9442SOL    HW139788   2.842   2.738   3.574  0.9371  0.1613 -1.4492
 9442SOL    HW239789   2.832   2.665   3.440  0.7201 -1.4356  0.4041
 9443SOL     OW39790   3.840   0.017   2.399 -0.8656 -0.0607  0.0007
 9443SOL    HW139791   3.922   0.052   2.365 -1.1540  0.4122 -0.1960
 9443SOL    HW239792   3.842   0.045   2.491 -0.6472  2.7749 -0.8732
 9444SOL     OW39793   4.390   4.560   0.938  0.1466 -0.0662 -0.0374
 9444SOL    HW139794   4.373   4.470   0.911 -2.1421  0.2879  0.2328
 9444SOL    HW239795   4.319   4.574   1.001  0.8705  1.9021  0.3634
 9445SOL     OW39796   4.636   0.691   7.006 -0.4741  0.1455 -0.1300
 9445SOL    HW139797   4.687   0.676   7.086  1.6440  0.5221 -1.4307
 9445SOL    HW239798   4.679   0.624   6.953  1.0666  2.8499 -2.2975
 9446SOL     OW39799   0.781   2.739   1.985  0.0513  0.4059  0.2625
 9446SOL    HW139800   0.709   2.684   2.013 -0.2519  2.5123  3.6573
 9446SOL    HW239801   0.767   2.827   2.022 -0.5600  1.0721 -1.5558
 9447SOL     OW39802   0.101   2.339   8.570 -0.1705 -0.7849  0.8515
 9447SOL    HW139803   0.195   2.357   8.573 -0.4459  0.5252  1.7638
 9447SOL    HW239804   0.068   2.409   8.627  0.6222  1.3261 -1.2747
 9448SOL     OW39805   4.511   0.990   4.641 -0.5555  0.0892 -0.0480
 9448SOL    HW139806   4.425   0.961   4.672 -0.2886 -0.3573  0.2690
 9448SOL    HW239807   4.481   1.065   4.591  1.0797  0.1785 -0.8705
 9449SOL     OW39808   0.660   3.810   3.898  0.2496  1.0411 -0.0916
 9449SOL    HW139809   0.647   3.744   3.830  1.4117  0.5062  0.2170
 9449SOL    HW239810   0.631   3.891   3.857  3.0857  0.7559 -2.6041
 9450SOL     OW39811   2.921   1.058   0.480  0.1819 -0.8307 -0.0803
 9450SOL    HW139812   2.885   0.970   0.467 -3.1730  0.9690 -3.0292
 9450SOL    HW239813   2.978   1.049   0.556  1.9082  1.3606 -1.1182
 9451SOL     OW39814   2.632   0.852   7.832 -0.4847 -0.3280 -0.1498
 9451SOL    HW139815   2.562   0.842   7.897 -0.4875 -1.9069 -0.4057
 9451SOL    HW239816   2.659   0.942   7.848 -0.5473 -0.6996  1.9966
 9452SOL     OW39817   0.851   1.721   9.035 -0.1940 -0.3463 -0.3075
 9452SOL    HW139818   0.808   1.691   9.115 -1.8117  0.0217 -1.0338
 9452SOL    HW239819   0.942   1.714   9.065 -0.6664 -2.0838  0.6922
 9453SOL     OW39820   1.880   0.963  16.274  0.0562  0.1142  0.2769
 9453SOL    HW139821   1.792   0.969  16.311 -0.2520 -0.3572 -0.3810
 9453SOL    HW239822   1.892   1.042  16.222 -0.5297  0.0049 -0.0291
 9454SOL     OW39823   4.626   2.709   6.072  0.4954 -0.4222  0.5306
 9454SOL    HW139824   4.634   2.755   6.155  0.6621  2.0036 -0.8133
 9454SOL    HW239825   4.624   2.783   6.011  3.5363 -1.7214 -1.1703
 9455SOL     OW39826   1.881   0.775   3.177 -0.2011  0.1622  0.4601
 9455SOL    HW139827   1.804   0.766   3.120 -0.1079  0.3936  0.2969
 9455SOL    HW239828   1.937   0.822   3.115 -0.6302  0.1245  0.0449
 9456SOL     OW39829   0.945   1.685  14.855  0.2132  0.0050 -0.4055
 9456SOL    HW139830   0.864   1.735  14.843  0.4179  0.2759 -0.6697
 9456SOL    HW239831   0.932   1.614  14.792 -3.8306  0.6183 -0.2576
 9457SOL     OW39832   3.903   1.693  16.868 -0.7153 -0.0315 -0.3927
 9457SOL    HW139833   3.939   1.605  16.858  1.3441  1.0182 -2.0835
 9457SOL    HW239834   3.924   1.720  16.957  2.0184  0.2958 -1.1388
 9458SOL     OW39835   0.130   3.692  10.886  0.4169 -0.2494 -0.2907
 9458SOL    HW139836   0.098   3.687  10.796 -1.3972 -1.5508  0.4154
 9458SOL    HW239837   0.224   3.700  10.870  0.3407  2.0067  0.2913
 9459SOL     OW39838   3.339   0.718  10.568  0.0215 -0.0556  0.6376
 9459SOL    HW139839   3.368   0.648  10.627 -1.0564 -2.2183 -1.4152
 9459SOL    HW239840   3.308   0.671  10.491 -2.7970  0.7094  1.3201
 9460SOL     OW39841   2.564   4.313   3.902  0.3848  0.0345 -0.0142
 9460SOL    HW139842   2.480   4.271   3.886  0.9163 -0.1114 -2.4397
 9460SOL    HW239843   2.557   4.361   3.820 -0.5933  0.9212  0.5933
 9461SOL     OW39844   3.082   3.558   4.089  0.0202 -0.1315  0.2449
 9461SOL    HW139845   3.099   3.557   3.995  0.3560  1.1193  0.2825
 9461SOL    HW239846   2.997   3.515   4.090 -0.5455  1.0249  1.7764
 9462SOL     OW39847   2.739   2.216  16.120 -0.9605 -0.1621 -0.2176
 9462SOL    HW139848   2.755   2.299  16.164 -0.6109 -0.3919  0.0885
 9462SOL    HW239849   2.671   2.246  16.059  0.0332  1.1220 -0.6845
 9463SOL     OW39850   0.363   1.126  15.923 -0.2944 -0.6515  0.1539
 9463SOL    HW139851   0.420   1.182  15.872 -0.2481  0.6860  1.6813
 9463SOL    HW239852   0.427   1.096  15.988  1.1948  0.7153 -0.7129
 9464SOL     OW39853   4.622   3.021   1.352  0.1441 -0.5948  0.6433
 9464SOL    HW139854   4.543   3.062   1.388 -0.8128  0.2786 -2.4372
 9464SOL    HW239855   4.684   3.010   1.423  2.3442  1.8749 -0.8919
 9465SOL     OW39856   3.952   3.264  16.698 -0.0779 -0.6876 -0.0589
 9465SOL    HW139857   3.921   3.355  16.701  0.2060 -0.5984  0.1942
 9465SOL    HW239858   3.918   3.244  16.611  0.1907 -0.0094 -0.3259
 9466SOL     OW39859   3.953   1.509   8.754 -0.2802  0.3397 -0.6440
 9466SOL    HW139860   3.973   1.507   8.661 -1.8072 -0.9743 -0.9347
 9466SOL    HW239861   4.014   1.581   8.770  0.3925 -0.7083  1.5737
 9467SOL     OW39862   4.211   3.846   7.413 -0.3901 -0.2016  0.3408
 9467SOL    HW139863   4.237   3.937   7.425  0.0260 -0.2701 -0.0224
 9467SOL    HW239864   4.192   3.812   7.500  2.3394  1.0922  1.4198
 9468SOL     OW39865   3.703   1.644   7.900  0.0104  0.0294  0.4093
 9468SOL    HW139866   3.697   1.549   7.898  0.5346 -0.0135  1.1011
 9468SOL    HW239867   3.642   1.664   7.829  0.4570 -0.2786 -0.0574
 9469SOL     OW39868   2.122   2.044   4.741 -0.2096 -0.5588  0.2093
 9469SOL    HW139869   2.040   2.090   4.725 -0.2625 -0.6034  0.3476
 9469SOL    HW239870   2.121   1.969   4.682  1.4420  0.3790 -0.9961
 9470SOL     OW39871   2.545   1.860   5.010 -0.3168  0.0133 -0.2952
 9470SOL    HW139872   2.469   1.903   4.969 -0.0262  0.2065 -0.6322
 9470SOL    HW239873   2.611   1.873   4.942 -1.0111 -2.3262 -1.4237
 9471SOL     OW39874   3.616   1.679   5.416  0.0666 -0.3720  0.8113
 9471SOL    HW139875   3.521   1.687   5.411  0.4479  3.2116 -0.6365
 9471SOL    HW239876   3.622   1.751   5.479  1.6272 -0.8657  1.2489
 9472SOL     OW39877   4.075   2.570   2.757 -0.1628 -0.0332  0.8379
 9472SOL    HW139878   4.048   2.498   2.700 -2.0193  0.1351  1.5069
 9472SOL    HW239879   4.036   2.640   2.705 -0.0160  0.5561  1.5260
 9473SOL     OW39880   0.843   1.714   4.889  0.1721  0.1474 -0.0535
 9473SOL    HW139881   0.916   1.686   4.944 -0.8511  0.2079  1.3420
 9473SOL    HW239882   0.771   1.691   4.948  1.0234 -2.3190 -0.0107
 9474SOL     OW39883   4.569   0.462   8.714 -0.0354 -0.0698  0.5878
 9474SOL    HW139884   4.541   0.384   8.762 -1.3220 -0.2574 -0.4625
 9474SOL    HW239885   4.599   0.421   8.634 -0.4029  1.6751 -0.4534
 9475SOL     OW39886   0.411   4.404  10.202 -0.3068  0.0883  0.1631
 9475SOL    HW139887   0.388   4.444  10.286  0.8663  0.2040  0.4250
 9475SOL    HW239888   0.438   4.315  10.226  0.8012  0.2093 -0.6851
 9476SOL     OW39889   4.308   3.079  16.766  0.4604 -0.0254  0.0854
 9476SOL    HW139890   4.315   2.985  16.783 -1.9000 -0.3398 -0.6146
 9476SOL    HW239891   4.269   3.077  16.678  2.2847 -0.1706 -0.7274
 9477SOL     OW39892   1.935   0.141   7.595 -1.0539 -0.0932 -0.3143
 9477SOL    HW139893   1.938   0.186   7.680 -0.9850 -1.4555  0.4030
 9477SOL    HW239894   1.917   0.050   7.618 -1.5068 -0.4425 -2.0275
 9478SOL     OW39895   1.100   2.583   3.035  0.1760 -0.2899 -0.0956
 9478SOL    HW139896   1.118   2.589   2.941 -0.2406 -1.5598 -0.2569
 9478SOL    HW239897   1.006   2.598   3.038 -0.1618 -2.2109 -0.9979
 9479SOL     OW39898   2.954   2.092  16.208 -0.2823  0.1683 -0.5815
 9479SOL    HW139899   2.875   2.138  16.179 -1.5457 -1.3904  0.3920
 9479SOL    HW239900   2.930   2.006  16.174  0.5137  0.3238 -1.5477
 9480SOL     OW39901   4.666   4.084  11.014 -0.1489  1.0411  0.1993
 9480SOL    HW139902   4.721   4.024  11.064 -2.8580 -1.7050 -0.1402
 9480SOL    HW239903   4.636   4.031  10.940  1.5376 -1.8786  1.6232
 9481SOL     OW39904   3.971   2.786   4.509 -0.5702 -0.0903 -1.0850
 9481SOL    HW139905   3.996   2.773   4.600 -1.2259  3.9639 -0.3111
 9481SOL    HW239906   3.922   2.866   4.529  0.2293  0.4156 -1.1388
 9482SOL     OW39907   0.729   1.305   5.860  0.0323 -0.2071 -0.1968
 9482SOL    HW139908   0.753   1.316   5.952 -1.8547 -5.6621  0.9837
 9482SOL    HW239909   0.748   1.212   5.847  0.0147 -0.1469 -0.6591
 9483SOL     OW39910   0.751   4.395   7.293 -0.7003  0.1486  0.2073
 9483SOL    HW139911   0.752   4.305   7.326  0.4231 -0.1284 -0.5841
 9483SOL    HW239912   0.834   4.398   7.245  0.6451 -1.8253  2.3561
 9484SOL     OW39913   2.230   2.826   2.300  0.3980  0.3488  0.0054
 9484SOL    HW139914   2.313   2.779   2.293 -0.2801  0.0753 -5.7316
 9484SOL    HW239915   2.161   2.763   2.279  2.4659 -0.9927 -2.6698
 9485SOL     OW39916   2.808   2.912   7.127 -0.3668  0.0294  0.1382
 9485SOL    HW139917   2.770   2.911   7.215  0.3429 -0.3182  0.4406
 9485SOL    HW239918   2.723   2.912   7.082  0.4549 -0.8818 -1.3878
 9486SOL     OW39919   0.634   3.439   9.966 -0.1713  0.4724 -0.2766
 9486SOL    HW139920   0.573   3.490   9.912 -2.2010  2.1859  3.6548
 9486SOL    HW239921   0.604   3.471  10.051  0.5405 -0.0299  0.1613
 9487SOL     OW39922   1.842   4.101   7.614 -0.6098 -0.2318  0.9492
 9487SOL    HW139923   1.862   4.160   7.686  0.3407  0.3888  0.1684
 9487SOL    HW239924   1.927   4.057   7.605 -0.2926  1.1998 -2.8227
 9488SOL     OW39925   4.716   2.801   9.047 -0.2851  0.2732 -0.2372
 9488SOL    HW139926   4.706   2.713   9.082 -2.5727  0.9873  0.8984
 9488SOL    HW239927   4.633   2.815   9.003  0.3814  0.3044 -1.4798
 9489SOL     OW39928   0.624   0.723   2.820 -0.0303 -0.6135 -0.6473
 9489SOL    HW139929   0.581   0.661   2.761  0.3397  0.2018 -1.7807
 9489SOL    HW239930   0.718   0.712   2.804 -0.1130  0.0391 -1.5927
 9490SOL     OW39931   1.551   3.570   3.780 -0.5638  0.2022 -0.2414
 9490SOL    HW139932   1.618   3.577   3.713 -0.3870 -0.4692 -0.1272
 9490SOL    HW239933   1.539   3.475   3.777 -2.9222  0.4849  0.1695
 9491SOL     OW39934   3.878   4.116  13.281  0.1557  0.6562  0.6100
 9491SOL    HW139935   3.973   4.119  13.286  0.0323  0.1953  2.9606
 9491SOL    HW239936   3.886   4.101  13.187 -1.4635  1.3186  0.3628
 9492SOL     OW39937   0.795   0.199  15.047  0.0774  0.0605 -0.0371
 9492SOL    HW139938   0.863   0.248  15.000  1.1683 -1.4616 -0.0583
 9492SOL    HW239939   0.803   0.107  15.022  1.1428  0.2852 -0.5576
 9493SOL     OW39940   3.105   3.935   2.409 -0.0166 -0.2620 -0.1295
 9493SOL    HW139941   3.010   3.942   2.420 -0.1713 -1.8285 -0.4671
 9493SOL    HW239942   3.145   3.954   2.494  0.8238  0.3959 -0.6634
 9494SOL     OW39943   2.752   3.198   3.071  0.2553 -0.0789  0.0060
 9494SOL    HW139944   2.699   3.277   3.085  1.5366  0.9239 -0.7552
 9494SOL    HW239945   2.828   3.237   3.027  0.1265 -0.7458 -0.7970
 9495SOL     OW39946   2.600   2.421  14.986  0.3614  0.0062  0.0044
 9495SOL    HW139947   2.508   2.425  15.013 -0.4383 -2.0629 -2.4289
 9495SOL    HW239948   2.601   2.332  14.952  2.0295 -0.6540  1.7505
 9496SOL     OW39949   4.640   3.655   8.483  0.0669 -0.3921  0.2825
 9496SOL    HW139950   4.711   3.607   8.441 -0.2306 -1.8114  1.3886
 9496SOL    HW239951   4.599   3.595   8.546 -2.3450  0.9540  0.0098
 9497SOL     OW39952   4.134   0.621   8.873 -0.7975 -0.4006 -0.6207
 9497SOL    HW139953   4.216   0.649   8.831  0.4576 -1.4241  1.1275
 9497SOL    HW239954   4.074   0.696   8.871 -0.1704  0.0899 -1.2895
 9498SOL     OW39955   3.274   2.940   0.254 -0.2619 -0.5684 -0.2953
 9498SOL    HW139956   3.278   2.889   0.335 -0.1961  1.2340  0.8343
 9498SOL    HW239957   3.197   2.907   0.208 -1.0722 -0.6231  1.1228
 9499SOL     OW39958   1.884   1.360   1.390 -0.1362  0.4684 -0.1939
 9499SOL    HW139959   1.919   1.314   1.466  1.2386 -1.3875 -1.9571
 9499SOL    HW239960   1.954   1.346   1.326  0.3080 -1.0989  0.6262
 9500SOL     OW39961   1.539   4.545   7.375 -0.5455 -0.6336 -0.4513
 9500SOL    HW139962   1.621   4.584   7.407 -2.3489  1.1726  1.9222
 9500SOL    HW239963   1.507   4.610   7.312  0.5915  0.7997  0.4312
 9501SOL     OW39964   2.303   0.297   7.026 -0.3466 -0.2706 -0.3276
 9501SOL    HW139965   2.232   0.282   7.089  3.1330 -1.0802  3.4166
 9501SOL    HW239966   2.367   0.245   7.075  1.5211 -0.1183 -2.6204
 9502SOL     OW39967   3.431   3.173  12.641  0.6511  0.1141  0.2545
 9502SOL    HW139968   3.447   3.264  12.665  1.9665  0.0525 -0.4067
 9502SOL    HW239969   3.364   3.149  12.705  0.0714  0.9125 -0.0476
 9503SOL     OW39970   2.186   4.245   7.136  0.1783  0.3503  0.4735
 9503SOL    HW139971   2.224   4.157   7.138 -0.8576 -0.1009  0.3238
 9503SOL    HW239972   2.156   4.256   7.226 -1.7451 -3.2532  0.2499
 9504SOL     OW39973   1.425   0.458  12.159  0.2127 -0.3158 -0.1652
 9504SOL    HW139974   1.374   0.479  12.237 -1.1940 -1.1823 -0.8427
 9504SOL    HW239975   1.438   0.549  12.131  0.4101 -0.0548  0.7757
 9505SOL     OW39976   0.923   4.443   7.066  0.2625  0.6393 -0.1098
 9505SOL    HW139977   0.887   4.494   6.994 -1.9867 -0.8394 -0.0419
 9505SOL    HW239978   0.990   4.500   7.104  0.9818 -0.3877  0.1797
 9506SOL     OW39979   4.443   0.799  15.238 -0.3331 -0.2006 -0.7677
 9506SOL    HW139980   4.450   0.870  15.301 -2.5033  0.1989 -0.9648
 9506SOL    HW239981   4.496   0.733  15.284  0.9644  2.0347  0.9209
 9507SOL     OW39982   0.037   1.487   1.669  0.3938  0.1384  0.3619
 9507SOL    HW139983   0.066   1.482   1.578 -2.8955 -1.4332 -0.5994
 9507SOL    HW239984   0.023   1.395   1.691  0.6485 -0.2382 -1.0134
 9508SOL     OW39985   4.355   2.046  15.138  0.7731 -0.1623 -0.2652
 9508SOL    HW139986   4.279   2.081  15.091 -0.6795 -1.8445  0.8383
 9508SOL    HW239987   4.396   1.984  15.078  2.7653  0.1470  0.7553
 9509SOL     OW39988   1.759   3.765   6.014  0.0567 -0.1294  0.3408
 9509SOL    HW139989   1.837   3.750   5.960 -0.7915 -1.4656 -0.5202
 9509SOL    HW239990   1.723   3.840   5.968 -0.4536 -1.9436 -2.2067
 9510SOL     OW39991   4.329   4.217   6.109  0.5239 -0.0970  0.2312
 9510SOL    HW139992   4.279   4.166   6.046 -0.0989  2.2652 -1.1818
 9510SOL    HW239993   4.330   4.301   6.063 -0.9714  0.5171  1.2922
 9511SOL     OW39994   1.805   1.267   6.576  0.2210 -0.0431 -0.7497
 9511SOL    HW139995   1.768   1.256   6.488 -2.5226 -0.9600  0.5214
 9511SOL    HW239996   1.895   1.282   6.547  0.2872  2.6401  0.8779
 9512SOL     OW39997   1.475   1.764   2.886  0.0419  0.7156 -0.3006
 9512SOL    HW139998   1.384   1.736   2.901  0.0958  1.3201  1.1452
 9512SOL    HW239999   1.457   1.856   2.866  0.0528  1.2613  2.3125
 9513SOL     OW40000   3.986   3.638   0.724  0.1732 -0.2571 -0.7666
 9513SOL    HW140001   4.035   3.646   0.642 -1.3236  0.2797 -1.6118
 9513SOL    HW240002   3.978   3.728   0.757 -0.7952 -0.6494  0.0635
 9514SOL     OW40003   0.430   2.358  14.117  0.0176 -0.2434 -0.0221
 9514SOL    HW140004   0.414   2.430  14.178  2.7039 -1.1108  1.6833
 9514SOL    HW240005   0.410   2.280  14.169  0.1517  0.0974  0.5441
 9515SOL     OW40006   2.617   3.264   2.342  0.0887 -0.5863  0.2819
 9515SOL    HW140007   2.620   3.248   2.248 -0.4633  1.5718 -0.1183
 9515SOL    HW240008   2.592   3.180   2.380 -0.8564 -0.4443 -0.0337
 9516SOL     OW40009   1.835   3.761   2.559  0.1919 -0.0816 -0.5252
 9516SOL    HW140010   1.922   3.772   2.597 -1.4125  0.7118  2.9215
 9516SOL    HW240011   1.778   3.816   2.613  0.7085 -1.0410  1.0051
 9517SOL     OW40012   3.880   1.247   6.158  0.0736  0.3846 -0.3304
 9517SOL    HW140013   3.807   1.302   6.128 -0.9567 -1.1087 -0.5769
 9517SOL    HW240014   3.849   1.232   6.247  0.3850  1.3198 -0.0596
 9518SOL     OW40015   3.972   1.263  15.885  0.1415  0.1628  0.4597
 9518SOL    HW140016   4.026   1.291  15.959  2.3029  1.5924 -1.6758
 9518SOL    HW240017   4.029   1.264  15.809  1.5184  2.5431  1.5214
 9519SOL     OW40018   1.027   0.022   3.405 -0.0896 -0.2701 -0.7617
 9519SOL    HW140019   0.973   0.043   3.328  0.0487  0.0842 -0.7626
 9519SOL    HW240020   0.964   0.031   3.476 -0.3290 -3.0362 -0.6498
 9520SOL     OW40021   1.251   0.134   6.711  0.4644  0.3864 -0.3550
 9520SOL    HW140022   1.163   0.098   6.701  0.2148  0.7523  0.4912
 9520SOL    HW240023   1.275   0.139   6.619  2.7586 -0.6538  0.1646
 9521SOL     OW40024   1.135   0.203   8.405  0.9082  0.8025 -0.5563
 9521SOL    HW140025   1.131   0.298   8.391  0.5332  1.2004  2.2946
 9521SOL    HW240026   1.133   0.190   8.500 -0.0331 -1.5495 -0.8858
 9522SOL     OW40027   2.662   1.697   4.352  0.3197  0.4159 -0.4070
 9522SOL    HW140028   2.687   1.704   4.259  1.0212 -1.9390 -0.3985
 9522SOL    HW240029   2.594   1.630   4.343  0.2479  0.7050 -2.0518
 9523SOL     OW40030   3.059   4.031  15.748 -0.4646  0.1228 -0.4817
 9523SOL    HW140031   2.978   4.068  15.783 -2.1179 -2.6866 -1.3539
 9523SOL    HW240032   3.028   4.019  15.659 -0.8574 -3.0981  0.0848
 9524SOL     OW40033   4.161   3.948   0.682  0.1455 -0.3629  0.2382
 9524SOL    HW140034   4.233   4.006   0.662  0.4216 -1.0383 -0.7324
 9524SOL    HW240035   4.106   3.957   0.604 -0.9003  1.5151  1.1906
 9525SOL     OW40036   2.614   1.372   7.025 -0.5178 -0.1084  0.5152
 9525SOL    HW140037   2.635   1.363   6.932 -0.9190 -0.4544  0.4579
 9525SOL    HW240038   2.639   1.283   7.051 -1.0171 -0.4501 -0.1768
 9526SOL     OW40039   4.383   2.680   0.915 -0.8103  0.0832  0.2006
 9526SOL    HW140040   4.326   2.736   0.967 -1.8796 -0.1679 -0.6829
 9526SOL    HW240041   4.345   2.693   0.828  1.2386 -0.3760 -0.7520
 9527SOL     OW40042   1.212   4.548   8.388  0.0860 -0.4452 -0.3679
 9527SOL    HW140043   1.176   4.596   8.462  0.3247 -0.7409 -0.0597
 9527SOL    HW240044   1.171   4.462   8.396 -0.2586 -0.0666  1.8046
 9528SOL     OW40045   0.674   1.905  14.385 -0.5021  0.4266  0.8226
 9528SOL    HW140046   0.594   1.896  14.333 -0.6151  2.6635  0.6320
 9528SOL    HW240047   0.692   1.998  14.373  0.8506 -0.0102 -0.4870
 9529SOL     OW40048   2.884   0.338   4.742 -0.3573  0.1871 -0.1514
 9529SOL    HW140049   2.974   0.317   4.717 -0.2116  0.9091 -0.2352
 9529SOL    HW240050   2.865   0.259   4.793  0.0436 -0.6366 -1.2852
 9530SOL     OW40051   4.102   0.820   7.298  0.5485  0.3593 -0.2281
 9530SOL    HW140052   4.035   0.878   7.333  0.7211  0.2034  0.3637
 9530SOL    HW240053   4.092   0.735   7.340  0.4251  1.3474  1.7526
 9531SOL     OW40054   3.689   4.620   5.729 -0.2582 -0.4443 -0.3731
 9531SOL    HW140055   3.653   4.696   5.775 -1.2964 -1.3588  0.3193
 9531SOL    HW240056   3.641   4.617   5.647 -0.1457 -2.5442 -0.3503
 9532SOL     OW40057   2.795   2.260   3.417 -0.0869  0.2434  0.4980
 9532SOL    HW140058   2.784   2.244   3.511 -1.3210  1.2147  0.5150
 9532SOL    HW240059   2.882   2.299   3.414 -0.9935  2.1214 -1.7823
 9533SOL     OW40060   2.346   1.245  14.031 -0.3819 -0.5150  0.3257
 9533SOL    HW140061   2.363   1.289  13.948  1.7537 -1.8048  0.0807
 9533SOL    HW240062   2.310   1.158  14.016  1.4498 -1.1573 -0.2877
 9534SOL     OW40063   0.497   0.456   6.588  0.9219  0.0936  0.3310
 9534SOL    HW140064   0.555   0.401   6.534 -0.6524 -0.3183 -0.9596
 9534SOL    HW240065   0.559   0.496   6.648  0.6224  3.9421 -1.9402
 9535SOL     OW40066   0.418   2.250  11.541  0.0212  0.1468 -0.1773
 9535SOL    HW140067   0.488   2.314  11.532 -1.2844  1.5330 -0.4721
 9535SOL    HW240068   0.411   2.230  11.447  0.8144  0.2310 -0.2510
 9536SOL     OW40069   1.580   1.791   7.988  0.1558 -0.6550  0.2107
 9536SOL    HW140070   1.500   1.832   8.020  1.7225  1.6176  1.2108
 9536SOL    HW240071   1.611   1.851   7.921 -1.4964 -0.7167 -0.6047
 9537SOL     OW40072   1.285   3.352   2.753  0.0551  0.0486 -0.2578
 9537SOL    HW140073   1.200   3.346   2.711 -0.9452 -0.9673  1.8793
 9537SOL    HW240074   1.320   3.263   2.740 -0.7704 -0.2170 -0.6294
 9538SOL     OW40075   0.758   1.844   6.930 -0.5155 -0.6855  0.2635
 9538SOL    HW140076   0.697   1.830   6.857 -0.7690  0.5320  0.2394
 9538SOL    HW240077   0.777   1.938   6.926  0.4736 -0.8695  0.7317
 9539SOL     OW40078   0.208   4.284   2.853 -0.0080 -0.6781 -0.3302
 9539SOL    HW140079   0.261   4.280   2.933  0.0453 -0.0950 -0.3380
 9539SOL    HW240080   0.120   4.294   2.890  0.5648  1.1130  0.5579
 9540SOL     OW40081   1.993   3.364  12.332 -0.7524 -0.5311  0.2859
 9540SOL    HW140082   2.080   3.381  12.367 -1.5542  1.2156  1.4201
 9540SOL    HW240083   2.015   3.282  12.288 -1.5440 -0.3501 -0.4546
 9541SOL     OW40084   3.838   3.040   3.849 -0.2052 -0.3903  0.0845
 9541SOL    HW140085   3.907   3.033   3.783  0.0287 -1.4128  0.4326
 9541SOL    HW240086   3.877   3.015   3.933 -2.1141 -0.8934  0.8318
 9542SOL     OW40087   1.376   0.995   4.130 -0.1633  0.5451  0.1368
 9542SOL    HW140088   1.413   1.045   4.203 -1.4552  0.2878  0.9731
 9542SOL    HW240089   1.331   0.923   4.176 -1.2059  1.5213  0.6491
 9543SOL     OW40090   2.634   4.133  16.004 -0.4397 -0.6961  0.4032
 9543SOL    HW140091   2.655   4.226  15.993  1.4032 -1.2627 -0.8437
 9543SOL    HW240092   2.539   4.131  15.998 -0.5315  1.6374  1.3010
 9544SOL     OW40093   3.462   4.168  12.088  0.1410 -0.2722 -0.4253
 9544SOL    HW140094   3.386   4.185  12.143 -0.2448  1.6749 -1.5706
 9544SOL    HW240095   3.524   4.140  12.156  1.8087 -0.7246 -2.1203
 9545SOL     OW40096   3.680   2.824   6.064 -0.6145  0.4057 -0.2439
 9545SOL    HW140097   3.601   2.788   6.104 -0.9342  1.2513 -0.1297
 9545SOL    HW240098   3.653   2.840   5.974 -1.8740 -0.5035 -0.0200
 9546SOL     OW40099   0.114   0.765   8.694  0.0999 -0.2335 -0.0726
 9546SOL    HW140100   0.122   0.674   8.721 -0.0107  0.1297  1.1687
 9546SOL    HW240101   0.080   0.806   8.773  1.6641 -0.1525  0.5526
 9547SOL     OW40102   1.956   4.212  16.485 -0.2319 -0.2238  0.1698
 9547SOL    HW140103   1.906   4.294  16.494  1.3658  0.8859 -1.0695
 9547SOL    HW240104   2.030   4.241  16.432 -1.1020  1.4621 -0.1235
 9548SOL     OW40105   1.232   0.974   2.634 -0.6437  0.2346 -0.0604
 9548SOL    HW140106   1.180   1.054   2.629 -0.4951  0.2521 -1.3563
 9548SOL    HW240107   1.311   1.014   2.671  0.0462  0.8766 -2.2428
 9549SOL     OW40108   1.640   2.444  11.254 -0.4885 -0.8688 -0.3848
 9549SOL    HW140109   1.646   2.517  11.316  2.7811  0.7357 -2.5483
 9549SOL    HW240110   1.729   2.422  11.225  0.6242  1.1939  1.4506
 9550SOL     OW40111   3.289   2.263   5.959  0.2262 -0.1931 -0.3911
 9550SOL    HW140112   3.301   2.208   5.881  1.3170  0.3196 -0.5831
 9550SOL    HW240113   3.295   2.195   6.026 -0.9357  1.1927  1.1205
 9551SOL     OW40114   4.331   1.929   3.369  0.0932  0.4014  0.1534
 9551SOL    HW140115   4.372   1.902   3.287 -0.3138 -1.7233  0.6686
 9551SOL    HW240116   4.243   1.949   3.338  0.3404 -0.4077 -1.0446
 9552SOL     OW40117   3.180   3.012   4.281 -0.3231  0.4632  0.3203
 9552SOL    HW140118   3.141   3.057   4.356 -1.5751 -0.7910  0.4257
 9552SOL    HW240119   3.104   2.981   4.231 -2.5105  2.4714  2.4329
 9553SOL     OW40120   2.832   3.853   1.035 -0.6076  0.2936  0.0694
 9553SOL    HW140121   2.749   3.843   0.988  0.0718  0.6669 -1.2062
 9553SOL    HW240122   2.862   3.762   1.041 -0.8942  0.1084 -1.1087
 9554SOL     OW40123   2.356   4.320  16.199 -0.0416  0.7056 -0.1155
 9554SOL    HW140124   2.426   4.368  16.154  1.3772 -0.3116  0.9917
 9554SOL    HW240125   2.343   4.250  16.134  0.4132  0.7158 -0.2192
 9555SOL     OW40126   2.523   3.843   6.882 -0.0488 -0.1794 -0.7329
 9555SOL    HW140127   2.428   3.854   6.879 -0.2889 -2.1551 -0.6436
 9555SOL    HW240128   2.527   3.792   6.963 -1.7091 -0.0932 -0.6099
 9556SOL     OW40129   1.634   4.330  11.164  0.2483 -0.1474  0.2171
 9556SOL    HW140130   1.559   4.297  11.213 -0.7669  1.3328 -0.3367
 9556SOL    HW240131   1.689   4.252  11.175  0.9924  0.2410 -0.6725
 9557SOL     OW40132   3.863   3.008   3.473 -0.5948 -0.6791  0.2313
 9557SOL    HW140133   3.901   3.087   3.435 -0.0279 -1.3310 -0.5501
 9557SOL    HW240134   3.929   2.940   3.464 -1.3858 -1.4041 -0.1239
 9558SOL     OW40135   4.381   0.317   2.911  0.1172  0.1578  0.4810
 9558SOL    HW140136   4.336   0.345   2.832  0.8731 -2.2927 -0.8232
 9558SOL    HW240137   4.328   0.345   2.986 -1.3784 -1.1758 -0.0791
 9559SOL     OW40138   2.317   0.351  12.573  0.3336  0.3333  0.0679
 9559SOL    HW140139   2.259   0.307  12.635 -0.8743  0.4675 -0.9810
 9559SOL    HW240140   2.258   0.407  12.523 -0.9587 -1.0343  0.0605
 9560SOL     OW40141   3.704   3.553   7.125  0.1988 -0.0556 -0.1193
 9560SOL    HW140142   3.671   3.470   7.090 -1.2890  0.1263  0.8631
 9560SOL    HW240143   3.799   3.539   7.131 -0.1135 -2.1481 -0.2281
 9561SOL     OW40144   3.148   4.344   9.943 -0.5167 -0.0557  0.6951
 9561SOL    HW140145   3.200   4.420   9.971 -2.6383  2.3572 -1.8704
 9561SOL    HW240146   3.186   4.276   9.998  0.3878  0.9103  1.2620
 9562SOL     OW40147   4.543   2.344  13.479  0.1871 -0.1637  0.0546
 9562SOL    HW140148   4.530   2.256  13.446  1.9628 -0.8329  1.1141
 9562SOL    HW240149   4.517   2.333  13.570  0.7649  4.2189  0.7531
 9563SOL     OW40150   2.389   0.512  13.928  1.1422 -0.0233 -0.5988
 9563SOL    HW140151   2.410   0.512  13.835  3.8817 -0.3566  0.0296
 9563SOL    HW240152   2.338   0.591  13.947  2.3149  0.5702  0.0749
 9564SOL     OW40153   1.930   2.063   3.214  0.1482 -0.1237 -0.0855
 9564SOL    HW140154   1.934   2.124   3.140 -2.9854  0.4828  0.2236
 9564SOL    HW240155   1.958   2.118   3.287  3.0968 -1.4102 -0.2678
 9565SOL     OW40156   3.658   4.259   6.640  0.6522  0.0546  0.4961
 9565SOL    HW140157   3.728   4.208   6.681  2.1625  1.6600 -0.0611
 9565SOL    HW240158   3.676   4.348   6.671 -1.2957  1.2566 -1.7785
 9566SOL     OW40159   0.918   4.400   6.653  0.4820 -0.2069 -0.0480
 9566SOL    HW140160   0.898   4.466   6.587  0.2868  0.4045  0.6092
 9566SOL    HW240161   0.990   4.447   6.697  1.0661  0.8448 -2.1266
 9567SOL     OW40162   3.248   4.436   1.059  0.1720 -0.0629  0.9938
 9567SOL    HW140163   3.327   4.490   1.052  0.1687 -0.0964  0.7111
 9567SOL    HW240164   3.257   4.405   0.969  0.1490 -0.4468  1.1225
 9568SOL     OW40165   1.018   4.325   9.302 -0.1108 -0.3958 -0.2579
 9568SOL    HW140166   1.086   4.316   9.236 -0.1098 -0.0492 -0.3026
 9568SOL    HW240167   0.959   4.382   9.252 -3.0383 -1.7844  1.6173
   4.72154   4.72154  17.68843
