Membrane in water
40167
    1TCq1    O1    1   0.633   0.536  11.936 -0.8733 -0.3392 -0.6811
    1TCq1    C1    2   0.566   0.470  11.841 -0.3036  0.0160  0.1176
    1TCq1    O2    3   0.608   0.424  11.735  0.7597  0.1487 -0.0661
    1TCq1    C2    4   0.429   0.525  11.833  0.3284  1.0235 -1.4303
    1TCq1    C3    5   0.331   0.459  11.760 -0.1304  0.3142 -0.2279
    1TCq1    C4    6   0.201   0.504  11.750  0.4706 -0.0351 -0.3860
    1TCq1    C5    7   0.168   0.616  11.831  0.2631  0.7244 -0.3548
    1TCq1    C6    8   0.264   0.681  11.902 -0.1080  0.4224 -0.9146
    1TCq1    C7    9   0.392   0.634  11.907 -1.2875 -0.0331 -0.5237
    1TCq1    C8   10   0.222   0.814  11.949 -0.2872 -0.5958 -0.0368
    1TCq1    O4   11   0.111   0.857  11.922  0.4975  0.2078  0.2039
    1TCq1    C9   12   0.104   0.451  11.661 -0.2079  0.4812 -0.4027
    1TCq1    O5   13   0.146   0.371  11.576  0.1718 -0.3816 -0.2280
    1TCq1    O6   14   4.715   0.499  11.659 -0.0842 -0.1927  0.1164
    1TCq1    H1   15   0.583   0.554  12.018 -0.3465  0.4352 -0.5335
    1TCq1    H2   16   0.361   0.385  11.687  1.5980 -0.2321  1.0293
    1TCq1    H3   17   0.071   0.664  11.821 -0.0972 -0.2992 -1.8637
    1TCq1    H4   18   0.470   0.701  11.944 -0.7622 -0.5173 -0.7468
    2MPD2     C   19   0.290   1.239  12.228 -0.3865  0.3793  0.5669
    2MPD2    C1   20   0.201   1.218  12.129  0.2334  0.6224  0.6398
    2MPD2    C2   21   0.198   1.093  12.072  0.5201 -0.4168  0.4548
    2MPD2    C3   22   0.302   0.999  12.089 -0.4480  0.8276  0.6875
    2MPD2    C4   23   0.386   1.024  12.187  0.4863 -0.1370  0.6427
    2MPD2    C5   24   0.380   1.140  12.256  0.5548  0.1756  0.2257
    2MPD2     H   25   0.111   1.066  12.013  0.4730  0.0738  0.3021
    2MPD2    H1   26   0.468   0.959  12.215 -0.7860 -1.0707  2.2094
    2MPD2    H2   27   0.316   1.330  12.281 -0.5226  2.7773 -3.5010
    2MPD2    H3   28   0.454   1.163  12.332 -1.0167 -2.1125  2.4090
    2MPD2     N   29   0.314   0.870  12.034  0.7225 -0.1488  0.2545
    2MPD2    H5   30   0.384   0.807  12.072  1.9278  1.0675  0.0481
    2MPD2    N1   31   0.089   1.299  12.105  1.0182 -0.3122 -0.2574
    2MPD2    H7   32   0.020   1.271  12.037 -2.3346  1.5948  2.3814
    3TCq1    O1   33   4.455   2.428  10.366 -0.4240 -0.0710  0.6453
    3TCq1    C1   34   4.374   2.432  10.474 -0.3991 -0.3102 -0.2481
    3TCq1    O2   35   4.337   2.332  10.535 -0.8161 -0.1891 -0.3986
    3TCq1    C2   36   4.413   2.554  10.551  0.7312 -0.7305 -0.3186
    3TCq1    C3   37   4.480   2.666  10.506 -0.5157  0.7251 -0.7431
    3TCq1    C4   38   4.502   2.764  10.591 -0.2293 -0.2862 -0.1061
    3TCq1    C5   39   4.462   2.762  10.720 -0.3424 -0.2725 -0.7397
    3TCq1    C6   40   4.401   2.649  10.757  0.2330 -0.8942 -0.1356
    3TCq1    C7   41   4.394   2.535  10.685  0.2527  0.4690  0.2924
    3TCq1    C8   42   4.298   2.659  10.854 -0.6898 -0.0248 -0.1700
    3TCq1    O4   43   4.260   2.561  10.913  0.1188 -0.0186  0.5309
    3TCq1    C9   44   4.575   2.887  10.547  0.1444  0.1296  0.3642
    3TCq1    O5   45   4.606   2.896  10.426 -0.0817 -0.0397  0.8077
    3TCq1    O6   46   4.553   2.991  10.613 -0.4199 -0.2415 -0.0678
    3TCq1    H1   47   4.491   2.510  10.326  0.2287 -1.0574 -0.7990
    3TCq1    H2   48   4.482   2.690  10.401  3.0731  0.2294 -0.8033
    3TCq1    H3   49   4.457   2.854  10.776 -0.5962 -0.4387 -0.4888
    3TCq1    H4   50   4.346   2.449  10.730 -0.5569  1.2788  0.9729
    4MPD2     C   51   3.876   2.889  11.031 -0.0153  0.2709  0.1444
    4MPD2    C1   52   3.942   2.976  10.948 -0.0597  0.3486  0.3387
    4MPD2    C2   53   4.064   2.935  10.890 -1.5931 -0.0148 -0.0931
    4MPD2    C3   54   4.112   2.811  10.914 -0.2052 -0.5517  0.6681
    4MPD2    C4   55   4.044   2.720  10.996 -0.6478 -0.0366 -0.1067
    4MPD2    C5   56   3.930   2.764  11.055 -0.1208 -0.1126  0.1868
    4MPD2     H   57   4.109   3.006  10.821  2.8804 -2.6931  0.0441
    4MPD2    H1   58   4.067   2.616  11.014 -0.3712 -0.1965 -1.3511
    4MPD2    H2   59   3.793   2.920  11.094  0.7403  2.8988 -0.1644
    4MPD2    H3   60   3.882   2.707  11.133 -0.3306 -0.2458 -0.0376
    4MPD2     N   61   4.239   2.781  10.852 -0.3461 -0.3023  0.3617
    4MPD2    H5   62   4.276   2.855  10.793 -1.4826  0.6815  0.8774
    4MPD2    N1   63   3.888   3.100  10.905  0.5045 -0.3927 -0.4849
    4MPD2    H7   64   3.954   3.157  10.854 -1.8525  1.3265 -1.5955
    5TCq1    O1   65   0.459   4.724  12.454 -0.1206 -0.2994 -0.4282
    5TCq1    C1   66   0.439   4.679  12.327  0.4375 -0.1769 -0.1649
    5TCq1    O2   67   0.528   4.628  12.261  0.4293  0.0341 -0.2288
    5TCq1    C2   68   0.302   4.699  12.289 -0.0891 -0.1383 -0.4235
    5TCq1    C3   69   0.222   0.051  12.370 -0.5078  0.2581  0.2388
    5TCq1    C4   70   0.085   0.048  12.344  0.3270  0.8734 -0.2827
    5TCq1    C5   71   0.034   4.706  12.240  0.3592 -0.3398 -0.2823
    5TCq1    C6   72   0.125   4.641  12.158 -0.2634  0.2056  0.5173
    5TCq1    C7   73   0.259   4.641  12.172  0.0480 -0.0384 -0.4343
    5TCq1    C8   74   0.077   4.564  12.042  0.4561 -0.0411 -0.2547
    5TCq1    O4   75   0.150   4.474  12.003 -0.6039 -0.3038  0.5979
    5TCq1    C9   76   4.724   0.114  12.439  0.1605 -0.2767 -0.0656
    5TCq1    O5   77   4.597   0.104  12.429 -0.5173  0.5681 -0.6014
    5TCq1    O6   78   0.053   0.198  12.512 -0.6981  0.7209  0.3356
    5TCq1    H1   79   0.386   0.041  12.504 -0.4939 -2.1341  0.5274
    5TCq1    H2   80   0.255   0.102  12.460  0.0913  0.1682  0.0690
    5TCq1    H3   81   4.652   4.702  12.219  0.8007 -2.1713 -2.1887
    5TCq1    H4   82   0.332   4.580  12.119  0.1746  1.8648 -2.4249
    6MPD2     C   83   4.461   4.595  11.900 -0.3520 -0.0805 -0.8713
    6MPD2    C1   84   4.586   4.535  11.924 -0.2271 -0.2317  0.4243
    6MPD2    C2   85   4.609   4.409  11.867 -0.3356 -0.5771 -0.4080
    6MPD2    C3   86   4.512   4.355  11.781  0.4805  0.3096  0.2391
    6MPD2    C4   87   4.393   4.410  11.763  0.6555  0.3975 -0.0512
    6MPD2    C5   88   4.368   4.532  11.821 -0.5797 -0.1632  0.9095
    6MPD2     H   89   4.700   4.354  11.888  0.3995  0.2959 -1.2807
    6MPD2    H1   90   4.313   4.370  11.701 -0.1623 -2.1156  2.6561
    6MPD2    H2   91   4.436   4.697  11.928 -1.2513 -1.3296  2.9507
    6MPD2    H3   92   4.277   4.583  11.790 -0.3969  0.2011  0.9742
    6MPD2     N   93   4.541   4.236  11.718 -0.1814 -0.1335  0.8271
    6MPD2    H5   94   4.640   4.219  11.706 -0.3597 -0.2244 -0.5456
    6MPD2    N1   95   4.679   4.606  12.006  0.5062 -0.3421  0.1338
    6MPD2    H7   96   4.642   4.688  12.054  0.9125  0.4936 -0.9963
    7TCq1    O1   97   1.749   3.688  13.108 -0.3056 -0.2334 -0.6593
    7TCq1    C1   98   1.750   3.820  13.081  0.0800  0.8073  0.9042
    7TCq1    O2   99   1.681   3.872  12.994  0.9710  0.0059 -0.5004
    7TCq1    C2  100   1.753   3.879  13.217  0.4442  0.6722 -0.0633
    7TCq1    C3  101   1.654   3.970  13.239  0.4601  0.5662 -0.3042
    7TCq1    C4  102   1.674   4.066  13.336 -0.5829 -0.3530  0.3220
    7TCq1    C5  103   1.791   4.076  13.400 -0.1252  0.7541 -0.6466
    7TCq1    C6  104   1.898   3.991  13.378 -0.0979  0.5922 -0.2491
    7TCq1    C7  105   1.876   3.893  13.279 -0.7369 -0.2458 -0.1316
    7TCq1    C8  106   2.002   3.967  13.481 -0.5800  0.4356  0.0522
    7TCq1    O4  107   2.036   4.071  13.537  0.4157  0.2262  0.6826
    7TCq1    C9  108   1.563   4.145  13.385 -0.2730  0.4214 -0.5376
    7TCq1    O5  109   1.573   4.202  13.498 -0.4391  0.0629 -0.0951
    7TCq1    O6  110   1.472   4.171  13.303 -0.7121 -0.9798 -0.0045
    7TCq1    H1  111   1.786   3.663  13.196  1.5435 -1.2144 -1.7219
    7TCq1    H2  112   1.558   3.970  13.188 -0.4405 -0.8490  1.4101
    7TCq1    H3  113   1.791   4.151  13.479  1.8893  0.9703 -0.8467
    7TCq1    H4  114   1.959   3.827  13.255 -0.8100 -0.3123 -0.1981
    8MPD2     C  115   2.233   3.652  13.806 -0.5222  0.2075 -0.0516
    8MPD2    C1  116   2.152   3.573  13.727 -0.5821  0.1348  1.0910
    8MPD2    C2  117   2.078   3.635  13.625  0.1239  1.0165  0.3496
    8MPD2    C3  118   2.087   3.771  13.608 -0.7077  0.2015  0.1301
    8MPD2    C4  119   2.165   3.852  13.690  0.6238 -0.4441 -0.3299
    8MPD2    C5  120   2.234   3.786  13.790  0.0879 -0.3423  0.6804
    8MPD2     H  121   2.015   3.582  13.554 -1.1429  2.0588  0.6953
    8MPD2    H1  122   2.170   3.960  13.682  2.2552 -0.7150 -3.0160
    8MPD2    H2  123   2.287   3.608  13.889  0.6078 -0.4453 -1.1310
    8MPD2    H3  124   2.295   3.846  13.857 -0.4674 -0.4817  1.3098
    8MPD2     N  125   2.017   3.830  13.500 -0.6556 -0.0815 -0.8467
    8MPD2    H5  126   1.972   3.758  13.444 -0.1710  0.0365 -1.3897
    8MPD2    N1  127   2.139   3.436  13.758 -0.5378 -0.3896  0.5495
    8MPD2    H7  128   2.205   3.406  13.830 -0.5003 -0.3868  0.5166
    9TCq1    O1  129   4.263   1.861  11.320 -0.3909  0.2344 -0.0353
    9TCq1    C1  130   4.329   1.758  11.268  0.3469  0.7123  0.5814
    9TCq1    O2  131   4.301   1.642  11.289 -0.0338 -0.0034 -0.3951
    9TCq1    C2  132   4.415   1.810  11.167 -0.3392  0.3426  0.2042
    9TCq1    C3  133   4.416   1.753  11.042 -0.6447 -0.0107 -0.0788
    9TCq1    C4  134   4.499   1.816  10.952  0.0505 -0.2765 -0.4219
    9TCq1    C5  135   4.579   1.926  10.985  0.4248  0.0363 -0.8284
    9TCq1    C6  136   4.577   1.968  11.119 -0.2288 -0.1417 -0.1824
    9TCq1    C7  137   4.495   1.913  11.209 -0.7370 -0.0192 -0.0187
    9TCq1    C8  138   4.656   2.089  11.150  0.4888  0.2420  0.1639
    9TCq1    O4  139   0.023   2.114  11.077 -0.5539  0.0366 -0.2504
    9TCq1    C9  140   4.507   1.764  10.814 -0.2231 -0.0707 -0.6775
    9TCq1    O5  141   4.420   1.690  10.767 -0.2520 -0.0384 -0.0571
    9TCq1    O6  142   4.622   1.776  10.763  0.5023  0.9531 -0.1973
    9TCq1    H1  143   4.272   1.952  11.285  2.4944 -0.3824 -0.8143
    9TCq1    H2  144   4.346   1.676  11.010  1.4175 -1.7023 -0.4748
    9TCq1    H3  145   4.655   1.961  10.915  2.4643 -0.0518  1.3492
    9TCq1    H4  146   4.496   1.943  11.313  1.1020  0.2627 -0.1350
   10MPD2     C  147   0.070   2.327  11.266 -1.0624 -0.0382  0.5887
   10MPD2    C1  148   4.688   2.256  11.322 -0.8972 -0.5164 -0.3421
   10MPD2    C2  149   4.639   2.304  11.444  0.5042 -0.0453  0.3113
   10MPD2    C3  150   4.704   2.417  11.512  0.4813 -0.5353  0.5231
   10MPD2    C4  151   0.082   2.480  11.447  0.1993  0.0802  0.4619
   10MPD2    C5  152   0.126   2.438  11.325 -0.1647 -0.4332 -0.1764
   10MPD2     H  153   4.551   2.258  11.487 -0.4424  0.5678 -0.9540
   10MPD2    H1  154   0.128   2.564  11.497  0.4148  0.3581 -0.2070
   10MPD2    H2  155   0.113   2.302  11.170  1.8448  1.7293  1.4235
   10MPD2    H3  156   0.215   2.481  11.281 -0.6143  1.7887  1.0881
   10MPD2     N  157   4.665   2.462  11.646  0.1753  0.3054 -0.1931
   10MPD2    H5  158   0.010   2.518  11.694 -1.0335 -0.0297  1.9808
   10MPD2    N1  159   4.616   2.143  11.267 -0.6323 -0.3286 -0.0966
   10MPD2    H7  160   4.538   2.099  11.314  0.7690 -2.1124  0.5101
   11TCq1    O1  161   0.520   3.353  15.051  0.5325 -0.1753 -0.2263
   11TCq1    C1  162   0.493   3.378  14.917  0.4820  0.2179  0.2649
   11TCq1    O2  163   0.436   3.478  14.867 -0.1178  0.8467 -0.0068
   11TCq1    C2  164   0.487   3.255  14.840  0.0611  0.4838  0.8494
   11TCq1    C3  165   0.494   3.269  14.708  0.3004  0.1015  0.0584
   11TCq1    C4  166   0.472   3.161  14.629 -0.0056  0.5619 -0.1332
   11TCq1    C5  167   0.434   3.048  14.680  0.3844  0.1646 -0.1188
   11TCq1    C6  168   0.405   3.042  14.812  0.1042  0.2160  0.1964
   11TCq1    C7  169   0.441   3.141  14.897 -0.9116  0.0694 -0.4896
   11TCq1    C8  170   0.382   2.908  14.873 -0.6395 -0.1828 -0.2514
   11TCq1    O4  171   0.413   2.888  14.991 -0.0441  0.4396 -0.4934
   11TCq1    C9  172   0.489   3.174  14.490 -0.0030 -0.3431 -0.2658
   11TCq1    O5  173   0.472   3.068  14.424  0.5502 -0.1754  0.1263
   11TCq1    O6  174   0.547   3.280  14.444 -0.2048  0.1341  0.2856
   11TCq1    H1  175   0.583   3.280  15.066  0.5322 -0.1128  0.0873
   11TCq1    H2  176   0.533   3.362  14.667  0.5156  0.7459  1.7175
   11TCq1    H3  177   0.425   2.959  14.619 -0.5308 -0.7233  1.3000
   11TCq1    H4  178   0.418   3.131  15.003 -2.3972  1.7406 -0.6618
   12MPD2     C  179   0.349   2.618  14.926 -0.5009  0.1286 -0.2688
   12MPD2    C1  180   0.325   2.676  14.801 -0.0926 -0.2574 -0.3711
   12MPD2    C2  181   0.291   2.599  14.695 -0.0751  0.3469 -0.9916
   12MPD2    C3  182   0.270   2.463  14.708 -0.1724  0.4239 -0.4052
   12MPD2    C4  183   0.291   2.409  14.835 -0.3997  0.5762 -0.1931
   12MPD2    C5  184   0.327   2.483  14.938 -0.5809 -0.6390  0.6480
   12MPD2     H  185   0.266   2.646  14.600 -2.9461 -2.5394 -1.6643
   12MPD2    H1  186   0.266   2.306  14.853  1.3213  0.0888 -0.5795
   12MPD2    H2  187   0.376   2.676  15.014 -3.2080 -1.5416  1.6706
   12MPD2    H3  188   0.339   2.445  15.039 -0.6179 -2.4663 -0.0347
   12MPD2     N  189   0.220   2.388  14.596 -0.2482 -0.6493 -0.2405
   12MPD2    H5  190   0.188   2.444  14.518 -0.9681 -1.6977 -0.7016
   12MPD2    N1  191   0.331   2.814  14.784 -0.6194  0.4343 -0.0450
   12MPD2    H7  192   0.302   2.838  14.690 -2.7015  0.2582  0.5523
   13TCq1    O1  193   0.509   2.274  12.087 -0.1042 -0.1018 -0.2565
   13TCq1    C1  194   0.379   2.272  12.136 -0.7011 -0.2846  0.3734
   13TCq1    O2  195   0.320   2.359  12.204  0.0183  0.3847  0.0071
   13TCq1    C2  196   0.305   2.160  12.078  0.1205 -0.1299 -0.1125
   13TCq1    C3  197   0.369   2.043  12.038 -0.1255 -1.1754 -0.3545
   13TCq1    C4  198   0.294   1.942  11.986 -0.3913  0.6364  0.0712
   13TCq1    C5  199   0.158   1.957  11.971  0.4976  0.1958 -0.1696
   13TCq1    C6  200   0.094   2.074  12.023 -0.0431 -0.5859  0.0575
   13TCq1    C7  201   0.169   2.178  12.072  0.2789  1.0361  0.0739
   13TCq1    C8  202   4.681   2.102  11.977  0.5815  0.4863 -0.6090
   13TCq1    O4  203   4.615   2.177  12.051  0.3104 -0.1812  0.2518
   13TCq1    C9  204   0.359   1.815  11.941  0.1999 -0.6566 -0.1261
   13TCq1    O5  205   0.485   1.807  11.961  0.8516  0.8429 -0.3625
   13TCq1    O6  206   0.287   1.728  11.886  0.0057  0.0263  0.3155
   13TCq1    H1  207   0.520   2.225  12.003 -0.9570 -2.4899  0.9963
   13TCq1    H2  208   0.476   2.032  12.045  0.1593  2.1585  0.5983
   13TCq1    H3  209   0.094   1.876  11.939  1.2352 -0.3319 -0.3275
   13TCq1    H4  210   0.121   2.272  12.096  1.1664  1.4008  0.4113
   14MPD2     C  211   4.497   1.940  11.702 -0.5386 -0.2198  0.0390
   14MPD2    C1  212   4.526   2.035  11.798  0.8333  0.2789 -0.7013
   14MPD2    C2  213   4.416   2.107  11.844 -1.4861 -0.0358 -0.0928
   14MPD2    C3  214   4.288   2.102  11.786 -0.2172 -0.2103  0.0367
   14MPD2    C4  215   4.267   2.014  11.687 -0.5721  0.3882 -0.0424
   14MPD2    C5  216   4.371   1.923  11.651 -0.3880 -0.1311  0.8651
   14MPD2     H  217   4.429   2.170  11.931 -1.9321 -1.4349  0.9961
   14MPD2    H1  218   4.170   1.997  11.642 -0.6587  0.2822  0.1827
   14MPD2    H2  219   4.564   1.866  11.661  0.9325  0.9049  0.4307
   14MPD2    H3  220   4.354   1.847  11.576 -1.8305  1.6969 -0.6749
   14MPD2     N  221   4.187   2.195  11.832  0.2012  0.2046 -0.1149
   14MPD2    H5  222   4.213   2.244  11.918 -1.8049  1.5445 -0.2804
   14MPD2    N1  223   4.650   2.038  11.863  0.6837  0.9415  0.2550
   14MPD2    H7  224   4.724   1.980  11.826 -1.0488 -1.8224  1.1158
   15TCq1    O1  225   1.547   2.535   1.990 -0.1417 -0.3032  0.1100
   15TCq1    C1  226   1.563   2.400   2.009  0.2765 -0.1638 -0.0855
   15TCq1    O2  227   1.675   2.347   2.027 -0.0698  0.3898  0.7080
   15TCq1    C2  228   1.468   2.329   1.932 -0.0841  0.2768  0.0645
   15TCq1    C3  229   1.339   2.376   1.925  0.1421 -0.1647 -0.5035
   15TCq1    C4  230   1.252   2.296   1.865  0.1646  0.0102 -0.1218
   15TCq1    C5  231   1.288   2.183   1.796  0.2663 -0.0096 -0.0861
   15TCq1    C6  232   1.420   2.149   1.800  0.1820 -0.1871  0.2605
   15TCq1    C7  233   1.519   2.218   1.873 -0.1477  0.7349 -0.0415
   15TCq1    C8  234   1.480   2.052   1.712  0.1201  0.9926  0.3716
   15TCq1    O4  235   1.590   2.013   1.740  0.2509  0.4102 -0.8406
   15TCq1    C9  236   1.115   2.346   1.856  0.6952 -0.4259  0.2465
   15TCq1    O5  237   1.094   2.446   1.930  1.0207 -0.3024 -0.3481
   15TCq1    O6  238   1.034   2.285   1.779  0.2327  0.3111  0.1642
   15TCq1    H1  239   1.466   2.564   1.943 -0.7168  1.1861  2.0069
   15TCq1    H2  240   1.312   2.467   1.977 -0.7622 -0.9574  0.4089
   15TCq1    H3  241   1.216   2.134   1.731 -0.6367 -2.4233  2.7391
   15TCq1    H4  242   1.623   2.189   1.872  0.1355  1.7482 -0.7206
   16MPD2     C  243   1.318   1.891   1.427  0.6638  0.9036  0.7857
   16MPD2    C1  244   1.406   1.897   1.535 -0.5206  0.1458  0.0000
   16MPD2    C2  245   1.503   1.797   1.554 -0.5220  0.0200 -0.0666
   16MPD2    C3  246   1.503   1.691   1.463  0.3917 -0.3625 -0.2056
   16MPD2    C4  247   1.421   1.692   1.355 -0.7952 -0.2711  0.2451
   16MPD2    C5  248   1.332   1.795   1.335  0.2067 -0.2020  0.8474
   16MPD2     H  249   1.569   1.798   1.640  1.3598 -0.6797 -1.4965
   16MPD2    H1  250   1.408   1.603   1.294  1.4552  1.1354 -2.2939
   16MPD2    H2  251   1.247   1.968   1.404  0.4682 -0.3455 -2.7091
   16MPD2    H3  252   1.255   1.791   1.259  0.6213  0.4279  0.3961
   16MPD2     N  253   1.603   1.589   1.481 -0.1131 -0.1741  0.1747
   16MPD2    H5  254   1.660   1.585   1.565 -0.5553 -3.5858  0.3064
   16MPD2    N1  255   1.383   1.998   1.628  0.3195  0.2255 -0.3326
   16MPD2    H7  256   1.299   2.049   1.604 -1.4278 -3.1531 -1.3331
   17TCq1    O1  257   4.696   0.834  11.615 -0.0003 -0.3164  0.2649
   17TCq1    C1  258   0.104   0.839  11.588 -0.0999  0.3776 -0.3444
   17TCq1    O2  259   0.165   0.760  11.512 -0.2930 -0.2011  0.3970
   17TCq1    C2  260   0.134   0.978  11.591  0.6983  0.4106 -0.3658
   17TCq1    C3  261   0.078   1.059  11.681  0.7316 -1.0689 -0.3146
   17TCq1    C4  262   0.097   1.192  11.675 -0.1543 -0.4466  0.0174
   17TCq1    C5  263   0.144   1.245  11.559  0.0298 -0.2156  0.6452
   17TCq1    C6  264   0.190   1.163  11.459  0.1232  0.3265  0.1857
   17TCq1    C7  265   0.204   1.030  11.479  0.5932 -0.4222  0.0102
   17TCq1    C8  266   0.230   1.222  11.326  0.0655  0.0993  1.2901
   17TCq1    O4  267   0.289   1.142  11.253 -0.5045  0.9225 -0.4808
   17TCq1    C9  268   0.043   1.283  11.771  0.6174 -0.2337 -0.2130
   17TCq1    O5  269   0.086   1.398  11.761  0.1533 -0.4530  0.2559
   17TCq1    O6  270   4.689   1.233  11.856  0.3918  0.6380  0.0992
   17TCq1    H1  271   4.664   0.922  11.644  1.4919 -0.5765  2.6511
   17TCq1    H2  272   0.037   1.014  11.771 -1.2405 -0.0377 -0.7124
   17TCq1    H3  273   0.140   1.352  11.545  1.4348 -0.1167  1.0223
   17TCq1    H4  274   0.260   0.966  11.412 -2.0020 -0.5026 -2.1144
   18MPD2     C  275   0.276   1.375  11.079 -0.0569  0.5420 -0.3074
   18MPD2    C1  276   0.255   1.432  11.210  0.5110  0.1884  0.4451
   18MPD2    C2  277   0.261   1.572  11.220 -0.1846  0.2067 -0.5197
   18MPD2    C3  278   0.296   1.643  11.103  0.3627 -0.3754  0.4019
   18MPD2    C4  279   0.315   1.583  10.977 -0.0339  0.2462  0.1026
   18MPD2    C5  280   0.305   1.446  10.972  0.1243 -0.2111 -0.6767
   18MPD2     H  281   0.248   1.620  11.315  1.3823 -1.1395  0.3849
   18MPD2    H1  282   0.345   1.637  10.888  1.5843 -0.1822  0.3944
   18MPD2    H2  283   0.277   1.267  11.070 -0.0689  0.5871 -0.8738
   18MPD2    H3  284   0.326   1.388  10.883 -1.2741 -0.5770 -0.7676
   18MPD2     N  285   0.316   1.780  11.102  0.1151 -0.4061 -0.2122
   18MPD2    H5  286   0.335   1.828  11.014 -0.2447  0.7671  0.3622
   18MPD2    N1  287   0.234   1.356  11.325  0.2812  0.7060  0.2081
   18MPD2    H7  288   0.230   1.396  11.419  0.7956  1.1444  0.0443
   19TMC2    C1  289   1.400   2.391  14.057 -0.0211  0.0841  0.4513
   19TMC2    C2  290   1.303   2.424  13.962 -0.2693 -0.5392  0.0681
   19TMC2    C3  291   1.187   2.355  13.972 -0.1100  0.2572 -0.2492
   19TMC2    C4  292   1.373   2.302  14.164 -0.2918 -0.4051 -0.8243
   19TMC2    C5  293   1.243   2.258  14.178  0.0492  0.4200 -0.2305
   19TMC2    C6  294   1.155   2.278  14.072 -0.2802 -0.5611 -0.0608
   19TMC2     C  295   1.528   2.437  14.028  0.7014  0.3777  1.3230
   19TMC2     O  296   1.557   2.439  13.908 -0.1353  0.7543 -0.4040
   19TMC2     H  297   1.332   2.483  13.876 -1.4051 -1.7159 -1.1255
   19TMC2    H1  298   1.456   2.271  14.226  0.9078  2.3506 -1.0385
   19TMC2    H2  299   1.059   2.228  14.077 -0.3700 -0.5649 -1.9354
   19TMC2    C7  300   1.197   2.192  14.300 -0.2386 -0.0581  0.4664
   19TMC2    C8  301   1.116   2.332  13.848  0.7178 -0.4994 -0.2858
   19TMC2    O1  302   1.085   2.142  14.300  0.4623  0.0506  0.3186
   19TMC2    O2  303   1.183   2.338  13.746 -0.3502  0.6121  0.5154
   19TMC2    O5  304   0.983   2.342  13.873  0.1139 -0.1903 -0.6924
   19TMC2    H5  305   0.956   2.332  13.966  0.7089  2.1473 -0.2614
   20MPD2     C  306   1.820   2.478  14.001 -0.7962  0.0518 -0.1123
   20MPD2    C1  307   1.762   2.420  14.112 -0.1641  0.0647 -0.0152
   20MPD2    C2  308   1.848   2.356  14.201 -0.5416  0.3926 -0.2320
   20MPD2    C3  309   1.988   2.342  14.170  0.5272  0.2312  0.0703
   20MPD2    C4  310   2.037   2.397  14.055  0.3751  0.1877  0.1183
   20MPD2    C5  311   1.951   2.458  13.968  0.4252  0.4865  0.2289
   20MPD2     H  312   1.799   2.322  14.291 -0.4497  1.2582  0.1476
   20MPD2    H1  313   2.140   2.401  14.021  0.2210 -1.8155 -0.5589
   20MPD2    H2  314   1.769   2.547  13.934 -0.4434  0.1282 -0.3054
   20MPD2    H3  315   1.986   2.510  13.880  1.0417 -3.1554 -1.6480
   20MPD2     N  316   2.076   2.277  14.261 -0.3085 -0.0315 -0.5659
   20MPD2    H5  317   2.174   2.290  14.238 -0.0595  1.2089  1.1686
   20MPD2    N1  318   1.620   2.426  14.130 -0.2733 -0.0781 -1.0779
   20MPD2    H7  319   1.582   2.406  14.222  1.3702 -0.3926 -0.4640
   21MPD2     C  320   4.052   2.960  14.716  0.1557 -0.4371  0.1522
   21MPD2    C1  321   4.099   2.830  14.721 -0.5540 -0.4370 -1.1206
   21MPD2    C2  322   4.017   2.720  14.709  0.1701  0.3323  0.4769
   21MPD2    C3  323   3.879   2.735  14.721 -0.4221  0.0268  0.8671
   21MPD2    C4  324   3.834   2.866  14.722  0.7026  0.1156 -0.3172
   21MPD2    C5  325   3.919   2.967  14.718  0.7781 -0.4962 -0.1205
   21MPD2     H  326   4.057   2.619  14.705 -0.1226  0.0932  3.7664
   21MPD2    H1  327   3.727   2.883  14.719  0.5720 -0.3559  1.7447
   21MPD2    H2  328   4.112   3.050  14.708 -2.6910  1.1517 -3.1825
   21MPD2    H3  329   3.861   3.059  14.722 -1.0552 -1.5695 -1.5894
   21MPD2     N  330   3.788   2.633  14.713  0.1821 -0.0752 -0.3125
   21MPD2    H5  331   3.690   2.654  14.698  0.0048  0.4427  1.5715
   21MPD2    N1  332   4.237   2.812  14.710 -0.4911  0.2443 -0.1899
   21MPD2    H7  333   4.265   2.714  14.708  0.1103  0.4769 -3.0647
   22TCq2    C1  334   3.819   2.500  14.730  0.3273  0.3787  0.3372
   22TCq2    O2  335   3.923   2.440  14.753 -0.0036 -0.6839 -0.1534
   22TCq2    C2  336   3.699   2.409  14.720  0.1716 -0.9171  1.1484
   22TCq2    C3  337   3.695   2.296  14.807 -0.1146 -0.3451 -0.3186
   22TCq2    C4  338   3.568   2.236  14.821  0.7644 -0.0520  0.4202
   22TCq2    C5  339   3.455   2.284  14.755  0.0154 -0.8821 -0.6611
   22TCq2    C6  340   3.466   2.398  14.684 -1.1024 -0.4134  0.0008
   22TCq2    C7  341   3.585   2.467  14.670  0.0302 -0.5122  0.0174
   22TCq2    C8  342   3.344   2.480  14.653  0.6133  0.8011 -0.0635
   22TCq2    O4  343   3.365   2.579  14.587  0.4032  0.1613  0.6817
   22TCq2    C9  344   3.561   2.124  14.910 -0.3577 -0.1990 -0.2456
   22TCq2    O5  345   3.666   2.071  14.947  0.3616  0.2308 -0.2231
   22TCq2    O6  346   3.439   2.100  14.943 -0.0793 -0.5739 -0.5895
   22TCq2    H2  347   3.780   2.254  14.859 -0.9996 -0.8740  0.6966
   22TCq2    H3  348   3.361   2.231  14.767 -1.3703  2.3466  2.6764
   22TCq2    H4  349   3.598   2.544  14.595 -1.3264  1.6005  1.9301
   23MPD2     C  350   1.117   3.861  14.690  0.6110 -0.3309 -0.0836
   23MPD2    C1  351   1.074   3.908  14.817  0.2906  0.5367  0.0403
   23MPD2    C2  352   1.016   4.033  14.810 -0.0227  0.1410  0.5637
   23MPD2    C3  353   1.001   4.110  14.695 -0.4838 -0.6223 -0.4521
   23MPD2    C4  354   1.037   4.057  14.577  0.2150 -0.6229  0.3137
   23MPD2    C5  355   1.097   3.931  14.574 -0.2992  0.0472 -0.0034
   23MPD2     H  356   0.994   4.083  14.903 -1.5414  2.9523 -1.3129
   23MPD2    H1  357   1.013   4.105  14.483  4.2802 -1.9189 -1.3773
   23MPD2    H2  358   1.156   3.760  14.690  1.2424 -0.0862  0.0128
   23MPD2    H3  359   1.106   3.875  14.481 -1.8956  0.1348 -0.2061
   23MPD2     N  360   0.925   4.222  14.688  0.1679  0.3883 -0.1140
   23MPD2    H5  361   0.909   4.256  14.593 -0.5454  1.0320  0.2313
   23MPD2    N1  362   1.106   3.846  14.947  0.0732  0.5440  0.4132
   23MPD2    H7  363   1.062   3.876  15.033  0.7272 -1.6593  1.5296
   24TCq2    C1  364   0.849   4.272  14.785  0.1890 -0.7087 -0.5647
   24TCq2    O2  365   0.847   4.241  14.902  1.2234  0.5791  0.3354
   24TCq2    C2  366   0.735   4.342  14.734 -0.2948 -0.3923  0.3857
   24TCq2    C3  367   0.743   4.414  14.623  0.5384  0.2336  0.6122
   24TCq2    C4  368   0.634   4.464  14.572  0.2962  0.1013 -0.4602
   24TCq2    C5  369   0.510   4.443  14.630  0.3970  0.2304  0.0985
   24TCq2    C6  370   0.498   4.351  14.729 -0.2311  0.0934 -0.4896
   24TCq2    C7  371   0.613   4.299  14.782 -0.5703 -0.0039  0.0550
   24TCq2    C8  372   0.377   4.291  14.767 -0.3254  0.2599  1.2867
   24TCq2    O4  373   0.380   4.207  14.855  0.1333  0.0966 -0.6643
   24TCq2    C9  374   0.649   4.527  14.441 -0.4918  0.5511 -0.1837
   24TCq2    O5  375   0.758   4.500  14.378  0.5191 -0.0742 -0.0987
   24TCq2    O6  376   0.545   4.559  14.381  0.2632  0.0493 -0.9567
   24TCq2    H2  377   0.836   4.435  14.570 -0.0380  0.7656 -0.1850
   24TCq2    H3  378   0.430   4.494  14.578 -0.8302 -2.4548 -0.6825
   24TCq2    H4  379   0.615   4.233  14.868 -2.3031 -1.4945 -1.0601
   25TMC2    C1  380   3.757   0.252  12.033 -0.0745 -0.1939 -0.4775
   25TMC2    C2  381   3.631   0.188  12.036  0.3945 -0.6163 -0.3166
   25TMC2    C3  382   3.577   0.172  12.160  0.1877  0.6334 -0.0105
   25TMC2    C4  383   3.810   0.305  12.145  0.8634 -0.0409 -0.5398
   25TMC2    C5  384   3.744   0.288  12.265 -0.1904 -0.6853 -0.2104
   25TMC2    C6  385   3.631   0.224  12.278 -0.5471 -0.9660  0.3130
   25TMC2     C  386   3.816   0.283  11.909 -0.3586 -0.2978 -0.0957
   25TMC2     O  387   3.891   0.382  11.905 -0.2267 -0.2263 -0.4761
   25TMC2     H  388   3.581   0.146  11.950 -2.9793 -0.0363  1.3720
   25TMC2    H1  389   3.893   0.374  12.134  0.8152  0.0604 -0.2735
   25TMC2    H2  390   3.590   0.213  12.378 -0.1621  0.0202  0.5837
   25TMC2    C7  391   3.770   0.385  12.379  0.1036  0.6031  0.1244
   25TMC2    C8  392   3.448   0.121  12.162  0.7887 -0.7888  0.2071
   25TMC2    O1  393   3.738   0.360  12.494 -0.4724 -0.5054  0.0764
   25TMC2    O2  394   3.399   0.067  12.067 -0.3014  0.0100 -0.0216
   25TMC2    O5  395   3.381   0.186  12.259 -0.3954 -0.4035 -0.1045
   25TMC2    H5  396   3.433   0.254  12.305 -2.8210  1.8673 -0.7067
   26MPD2     C  397   3.893   0.189  11.401 -0.2307 -0.1553 -0.2927
   26MPD2    C1  398   3.821   0.082  11.456 -0.2940  1.1075 -0.4739
   26MPD2    C2  399   3.792   0.079  11.590 -0.5453  0.2269  0.4794
   26MPD2    C3  400   3.828   0.190  11.672  0.3913 -0.8342  0.8932
   26MPD2    C4  401   3.887   0.295  11.616 -0.4678 -0.3366  0.1421
   26MPD2    C5  402   3.916   0.299  11.483  0.3045  0.1160 -0.6823
   26MPD2     H  403   3.744   4.719  11.638 -0.2468 -1.4157 -2.1187
   26MPD2    H1  404   3.915   0.382  11.674 -0.0317 -1.6952  1.9766
   26MPD2    H2  405   3.921   0.190  11.296 -2.0830  2.5455 -0.7635
   26MPD2    H3  406   3.948   0.391  11.435  2.1675 -1.2396 -2.0166
   26MPD2     N  407   3.788   0.186  11.811 -0.1794  0.1972 -0.0006
   26MPD2    H5  408   3.737   0.105  11.843  1.4831 -0.6622  0.5160
   26MPD2    N1  409   3.777   4.709  11.359 -0.0243 -0.1889 -0.2919
   26MPD2    H7  410   3.807   0.003  11.264 -0.7619  2.8486  0.0668
   27TMC2    C1  411   2.952   3.232  12.187  0.6599 -0.4023  0.4809
   27TMC2    C2  412   2.964   3.259  12.055 -0.0779  0.1016 -0.4450
   27TMC2    C3  413   2.984   3.390  12.018 -0.0250  0.3243  0.4489
   27TMC2    C4  414   2.956   3.328  12.279  0.2037 -0.4271 -0.0894
   27TMC2    C5  415   2.978   3.458  12.240  0.3657  0.7723  0.1459
   27TMC2    C6  416   2.993   3.487  12.108  0.0039 -0.5985 -0.1210
   27TMC2     C  417   2.934   3.094  12.229  0.0534 -0.4104  0.3554
   27TMC2     O  418   2.923   3.010  12.138  0.4006 -0.8081  0.1288
   27TMC2     H  419   2.964   3.183  11.978  1.5967  0.1373 -0.4700
   27TMC2    H1  420   2.956   3.307  12.385  0.6854  1.4715  0.2824
   27TMC2    H2  421   3.027   3.580  12.063 -0.2254 -2.3336 -3.8215
   27TMC2    C7  422   2.978   3.566  12.337 -0.4893  1.4071 -0.6189
   27TMC2    C8  423   3.040   3.408  11.878 -0.5625 -0.2027 -0.6459
   27TMC2    O1  424   2.915   3.557  12.441 -0.0337  0.5578 -0.0960
   27TMC2    O2  425   3.002   3.333  11.786  0.1541  0.6638  0.1235
   27TMC2    O5  426   3.152   3.475  11.878  0.6188 -0.1666 -0.8176
   27TMC2    H5  427   3.168   3.531  11.957 -0.3284  0.3428 -0.9813
   28MPD2     C  428   2.857   2.732  12.583  0.0284 -0.5563  0.7271
   28MPD2    C1  429   2.788   2.844  12.620  0.2374  0.3087 -0.1676
   28MPD2    C2  430   2.797   2.959  12.538 -0.6596  0.1667 -0.7964
   28MPD2    C3  431   2.866   2.956  12.420 -0.6793 -0.0327 -0.7361
   28MPD2    C4  432   2.926   2.839  12.384 -0.6795  0.1847 -0.4975
   28MPD2    C5  433   2.923   2.729  12.463 -0.1848  0.0187  0.0758
   28MPD2     H  434   2.747   3.053  12.554  0.8171  1.0582 -1.3869
   28MPD2    H1  435   2.975   2.825  12.288  1.4101 -1.5159  0.8350
   28MPD2    H2  436   2.836   2.641  12.638  0.0865 -1.9351 -1.5389
   28MPD2    H3  437   2.975   2.640  12.428 -2.2885 -1.1863  0.0255
   28MPD2     N  438   2.881   3.079  12.352 -0.1776  0.5001 -0.1142
   28MPD2    H5  439   2.856   3.167  12.397 -0.9056  0.6907 -0.9009
   28MPD2    N1  440   2.709   2.837  12.735 -1.0841 -0.1195  0.1011
   28MPD2    H7  441   2.702   2.743  12.773  2.2305  0.2101  1.4987
   29MPD2     C  442   1.948   0.587  14.285 -0.1186  0.1415  0.0543
   29MPD2    C1  443   2.067   0.557  14.353 -0.1552  0.5273  0.6641
   29MPD2    C2  444   2.156   0.659  14.383 -0.1421  0.4989 -0.8511
   29MPD2    C3  445   2.128   0.791  14.350 -0.3986  0.7952 -0.3615
   29MPD2    C4  446   2.007   0.823  14.288 -0.1871 -0.3385 -0.4807
   29MPD2    C5  447   1.916   0.716  14.263 -0.3619 -1.1179 -0.2592
   29MPD2     H  448   2.246   0.635  14.438 -0.4144 -0.1920 -0.7199
   29MPD2    H1  449   1.967   0.922  14.268 -0.3491  0.2581  2.7758
   29MPD2    H2  450   1.879   0.509  14.259 -0.6195  0.6405 -0.1072
   29MPD2    H3  451   1.824   0.743  14.214 -0.4719 -0.7204  0.1641
   29MPD2     N  452   2.220   0.899  14.380  0.4796  0.0536 -0.5894
   29MPD2    H5  453   2.189   0.988  14.344 -0.2042  0.2027  0.3785
   29MPD2    N1  454   2.098   0.425  14.404 -0.0501  0.3869  0.3005
   29MPD2    H7  455   2.187   0.411  14.452 -0.4443  1.4047  1.2968
   30TCq2    C1  456   2.315   0.892  14.479  0.0362  0.1331  0.0146
   30TCq2    O2  457   2.343   0.808  14.563 -0.0088 -0.3300  0.6923
   30TCq2    C2  458   2.384   1.023  14.504 -0.0630 -0.7528  0.6832
   30TCq2    C3  459   2.384   1.069  14.631  0.2490  0.2588 -0.5236
   30TCq2    C4  460   2.424   1.197  14.648 -0.4334 -0.1898  0.1325
   30TCq2    C5  461   2.464   1.276  14.543 -0.4206  0.0703 -0.3324
   30TCq2    C6  462   2.468   1.220  14.418  0.2282  0.6259 -0.1748
   30TCq2    C7  463   2.409   1.100  14.392 -0.6988  0.1234 -0.2101
   30TCq2    C8  464   2.501   1.302  14.300  0.1363  0.4935 -0.8764
   30TCq2    O4  465   2.453   1.258  14.197 -0.0815 -0.2600 -0.0379
   30TCq2    C9  466   2.427   1.237  14.791 -0.1571  0.5308  0.5600
   30TCq2    O5  467   2.481   1.346  14.822 -0.2954 -0.1742  0.2578
   30TCq2    O6  468   2.382   1.153  14.869 -0.2100  0.5292  0.3346
   30TCq2    H2  469   2.363   1.000  14.712 -0.2472 -1.6248 -2.2668
   30TCq2    H3  470   2.486   1.379  14.567  0.1517 -0.5330  1.7379
   30TCq2    H4  471   2.416   1.049  14.296 -0.6287 -1.4200  0.6145
   31MPD2     C  472   0.771   0.097  14.790 -0.0843 -0.3121  0.4244
   31MPD2    C1  473   0.642   0.073  14.743 -0.0074  0.1337 -0.3947
   31MPD2    C2  474   0.556   0.010  14.824 -0.5779 -0.3254 -0.1208
   31MPD2    C3  475   0.614   4.663  14.933  0.1725  0.0749 -0.5147
   31MPD2    C4  476   0.745   4.663  14.956 -0.3678  0.6669  0.1290
   31MPD2    C5  477   0.821   0.026  14.895  0.3734 -0.2466 -0.7891
   31MPD2     H  478   0.450   0.004  14.804 -0.6421  0.4070  0.0035
   31MPD2    H1  479   0.802   4.603  15.025  0.3707 -1.1549 -2.0774
   31MPD2    H2  480   0.834   0.161  14.729 -0.6317 -0.3950 -0.2214
   31MPD2    H3  481   0.927   0.025  14.916  0.4415  2.8061 -1.0004
   31MPD2     N  482   0.542   4.574  15.020  0.6196 -0.1004  0.4596
   31MPD2    H5  483   0.602   4.521  15.083  1.3787  1.0197  0.6807
   31MPD2    N1  484   0.607   0.139  14.623 -0.4944  0.5271 -0.3350
   31MPD2    H7  485   0.683   0.196  14.587 -1.0421  1.0786 -0.6201
   32TCq2    C1  486   0.409   4.551  15.018  0.0904 -0.3834 -0.2882
   32TCq2    O2  487   0.318   4.618  14.965 -0.8663 -0.1901  0.0856
   32TCq2    C2  488   0.372   4.439  15.107  0.2439 -0.4669 -1.0200
   32TCq2    C3  489   0.241   4.419  15.134 -0.3810  0.0277  0.3762
   32TCq2    C4  490   0.202   4.321  15.223  0.3186 -0.7212 -0.4472
   32TCq2    C5  491   0.294   4.260  15.300  0.3039  0.8038 -0.8318
   32TCq2    C6  492   0.425   4.290  15.283  0.1699  0.3797 -0.5050
   32TCq2    C7  493   0.466   4.380  15.187  0.1125  0.0121  0.1952
   32TCq2    C8  494   0.524   4.228  15.381  0.4031 -0.4204 -0.5793
   32TCq2    O4  495   0.496   4.116  15.419 -0.7469  0.3868  0.5364
   32TCq2    C9  496   0.062   4.307  15.253  0.0039  1.0102 -0.4151
   32TCq2    O5  497   4.703   4.386  15.200 -0.1739  0.2669  0.2605
   32TCq2    O6  498   0.031   4.233  15.354  0.9769  0.2724  0.0360
   32TCq2    H2  499   0.169   4.486  15.089  0.3696  0.7264  0.2055
   32TCq2    H3  500   0.268   4.200  15.387  3.9801  1.1076  0.4603
   32TCq2    H4  501   0.572   4.384  15.166  0.2532  0.4757  0.9724
   33MPD2     C  502   0.024   2.292  10.776  0.1373  0.4487  0.0377
   33MPD2    C1  503   0.153   2.334  10.815 -0.4078  0.0999 -0.2968
   33MPD2    C2  504   0.222   2.415  10.727  0.1471  0.1674 -0.2335
   33MPD2    C3  505   0.164   2.467  10.611 -0.8899  0.6214 -0.0086
   33MPD2    C4  506   0.036   2.417  10.571  0.0704  0.4746  0.9349
   33MPD2    C5  507   4.687   2.341  10.663  0.6495  0.1101  0.3381
   33MPD2     H  508   0.322   2.448  10.753  0.2337 -1.2251  1.2147
   33MPD2    H1  509   4.711   2.456  10.483  0.0706  1.5294  1.4015
   33MPD2    H2  510   4.695   2.225  10.843  0.6959 -0.6151 -0.5842
   33MPD2    H3  511   4.589   2.304  10.637  1.6107 -0.9152 -1.8313
   33MPD2     N  512   0.227   2.546  10.516 -0.8152  0.8029 -0.5080
   33MPD2    H5  513   0.179   2.574  10.431  0.3384 -0.5420 -1.5897
   33MPD2    N1  514   0.213   2.268  10.925  0.0127  0.3650  0.1904
   33MPD2    H7  515   0.160   2.208  10.988  0.9672 -0.4802  0.1854
   34TCq2    C1  516   0.365   2.582  10.513  0.1054 -0.2075  0.1080
   34TCq2    O2  517   0.458   2.546  10.583 -0.0937  0.0104 -0.5522
   34TCq2    C2  518   0.400   2.657  10.392  0.0259  0.7873 -0.5511
   34TCq2    C3  519   0.304   2.749  10.339 -0.1621 -0.1296 -0.4998
   34TCq2    C4  520   0.354   2.823  10.236 -0.0249  0.5103  0.4514
   34TCq2    C5  521   0.474   2.797  10.180 -0.0765  0.0276  0.9174
   34TCq2    C6  522   0.562   2.710  10.240  0.1993  0.4001  0.2634
   34TCq2    C7  523   0.531   2.645  10.354  0.5101  0.2373  0.0173
   34TCq2    C8  524   0.686   2.690  10.172  0.0153  0.2736 -0.7750
   34TCq2    O4  525   0.743   2.793  10.136 -0.0811  0.0063 -0.4144
   34TCq2    C9  526   0.268   2.916  10.168 -0.3964 -0.3188 -0.2082
   34TCq2    O5  527   0.145   2.920  10.207 -0.3367 -0.6777  0.4102
   34TCq2    O6  528   0.315   2.959  10.059 -0.6143 -0.3745  0.0996
   34TCq2    H2  529   0.203   2.756  10.377 -0.0799 -2.0282  0.0825
   34TCq2    H3  530   0.505   2.858  10.095  0.5635 -2.5479 -0.6955
   34TCq2    H4  531   0.605   2.583  10.404  1.0697  0.1475 -0.9182
   35MPD2     C  532   2.392   3.661  12.178  0.4379 -0.5245  0.1118
   35MPD2    C1  533   2.333   3.539  12.193  1.0485 -0.1274  1.3891
   35MPD2    C2  534   2.233   3.500  12.108 -0.0833  0.1804 -0.0864
   35MPD2    C3  535   2.182   3.584  12.018  0.2590 -0.0043 -0.2734
   35MPD2    C4  536   2.240   3.705  11.998 -0.0136 -0.2971 -0.4001
   35MPD2    C5  537   2.348   3.738  12.080 -0.0126  0.3400 -0.3220
   35MPD2     H  538   2.189   3.401  12.121 -0.8578  0.2973 -1.9004
   35MPD2    H1  539   2.214   3.769  11.915 -1.2025 -1.2308 -0.7474
   35MPD2    H2  540   2.475   3.697  12.239 -1.0963  0.0165  1.8854
   35MPD2    H3  541   2.399   3.833  12.063 -1.3026  0.9679 -0.6464
   35MPD2     N  542   2.078   3.543  11.933  0.0969  0.0012 -0.0751
   35MPD2    H5  543   2.048   3.447  11.942 -0.6220  0.4103  1.9857
   35MPD2    N1  544   2.380   3.472  12.301 -0.6520  0.2469 -0.3049
   35MPD2    H7  545   2.457   3.511  12.354 -0.2563  0.3204 -0.9333
   36TCq2    C1  546   2.037   3.601  11.816  0.1691 -0.2803  0.5669
   36TCq2    O2  547   2.071   3.702  11.763 -0.3184  0.4359 -0.0516
   36TCq2    C2  548   1.926   3.529  11.747 -0.7219  0.4512 -0.4256
   36TCq2    C3  549   1.912   3.562  11.619  0.0589 -0.1731  0.1397
   36TCq2    C4  550   1.813   3.517  11.539 -0.6619 -0.4213  1.0195
   36TCq2    C5  551   1.728   3.429  11.594  0.0415  0.0083 -0.3966
   36TCq2    C6  552   1.741   3.394  11.723 -0.0081 -0.4861 -0.4108
   36TCq2    C7  553   1.845   3.431  11.800  0.4594 -0.8781 -0.2087
   36TCq2    C8  554   1.679   3.274  11.750  0.2450 -0.4534  0.0494
   36TCq2    O4  555   1.566   3.258  11.706 -0.3036 -0.0131 -0.8162
   36TCq2    C9  556   1.794   3.571  11.408 -0.6952  0.0230  0.0369
   36TCq2    O5  557   1.685   3.552  11.355 -0.2557 -0.2746  0.3746
   36TCq2    O6  558   1.889   3.635  11.353  0.2811  0.5840  0.2753
   36TCq2    H2  559   1.979   3.633  11.573 -0.7663  0.9164  0.6112
   36TCq2    H3  560   1.650   3.384  11.533  0.2569  1.5476 -1.7977
   36TCq2    H4  561   1.835   3.428  11.908 -1.0222  1.1038 -0.2813
   37TMC2    C1  562   4.399   3.297  11.865 -0.0789  0.0635 -0.2187
   37TMC2    C2  563   4.343   3.251  11.748  0.1083 -0.0058 -0.1108
   37TMC2    C3  564   4.429   3.204  11.656 -0.2529 -1.1600 -0.4270
   37TMC2    C4  565   4.531   3.293  11.902 -0.3802  0.0376 -1.0658
   37TMC2    C5  566   4.615   3.261  11.795  0.1909  0.2364 -0.4155
   37TMC2    C6  567   4.564   3.212  11.673  0.6998 -0.6385  0.3522
   37TMC2     C  568   4.301   3.365  11.940  0.2686 -0.0801 -0.4574
   37TMC2     O  569   4.179   3.354  11.917 -0.0007  0.1178 -0.5504
   37TMC2     H  570   4.239   3.270  11.724  0.7675  1.7656 -1.5574
   37TMC2    H1  571   4.564   3.344  11.992  1.5865  1.2508 -2.4745
   37TMC2    H2  572   4.628   3.185  11.590 -0.0972 -1.7063  0.0701
   37TMC2    C7  573   0.029   3.278  11.828  1.5287  0.0063  0.2940
   37TMC2    C8  574   4.389   3.191  11.520  0.0961 -0.0930 -0.3681
   37TMC2    O1  575   0.051   3.331  11.936 -0.0520 -0.1038 -0.3088
   37TMC2    O2  576   4.429   3.269  11.432 -0.2808  0.1003 -0.1295
   37TMC2    O5  577   4.290   3.102  11.510  0.2476 -0.8007  0.2715
   37TMC2    H5  578   4.256   3.072  11.597  1.2822  0.0113  0.9537
   38MPD2     C  579   4.144   3.633  12.356 -0.4509 -0.2124 -0.4293
   38MPD2    C1  580   4.283   3.597  12.364  0.2107 -0.2358  0.3575
   38MPD2    C2  581   4.353   3.535  12.257 -0.2028  0.1733 -0.0817
   38MPD2    C3  582   4.285   3.501  12.146  0.6305  0.3756  0.3832
   38MPD2    C4  583   4.152   3.529  12.139 -0.5703 -0.2499 -0.2836
   38MPD2    C5  584   4.086   3.594  12.240 -0.4112  0.7074 -0.1602
   38MPD2     H  585   4.460   3.517  12.261 -0.0341  0.9035 -1.2926
   38MPD2    H1  586   4.092   3.496  12.055 -0.2551  1.7048 -1.2579
   38MPD2    H2  587   4.077   3.673  12.431 -0.2705  0.6978 -0.7539
   38MPD2    H3  588   3.980   3.614  12.229 -0.6867 -1.8909 -2.0554
   38MPD2     N  589   4.359   3.434  12.041 -0.4825  0.5255  0.0697
   38MPD2    H5  590   4.460   3.429  12.053 -0.4904 -0.0886 -0.1542
   38MPD2    N1  591   4.368   3.654  12.471 -0.4639 -0.6444 -0.3293
   38MPD2    H7  592   4.468   3.634  12.463 -0.3620 -0.2922  0.0672
   39MPD2     C  593   2.116   1.344   2.239 -0.1197 -0.5101  0.5868
   39MPD2    C1  594   2.152   1.254   2.139  0.2491 -0.0679  0.5696
   39MPD2    C2  595   2.054   1.215   2.045  0.3845  0.2174 -0.6666
   39MPD2    C3  596   1.922   1.265   2.055 -0.0115  0.5723  0.3060
   39MPD2    C4  597   1.889   1.348   2.158  0.0670  0.8791 -0.4227
   39MPD2    C5  598   1.985   1.386   2.241 -0.6129 -0.1930 -0.2184
   39MPD2     H  599   2.073   1.148   1.962  3.9756  0.5013 -0.0649
   39MPD2    H1  600   1.789   1.391   2.167 -0.0794  0.5165 -0.3058
   39MPD2    H2  601   2.184   1.400   2.303 -1.5171 -1.1041  2.5721
   39MPD2    H3  602   1.959   1.459   2.316  2.0221 -0.4652  0.9256
   39MPD2     N  603   1.816   1.232   1.962 -0.1215  0.2346  0.1690
   39MPD2    H5  604   1.732   1.288   1.975 -2.4596 -3.0215 -1.0187
   39MPD2    N1  605   2.284   1.204   2.144 -0.3159  0.0931  0.2467
   39MPD2    H7  606   2.338   1.234   2.224  1.5350 -0.1171 -0.9214
   40TCq2    C1  607   2.335   1.134   2.045 -0.3916  0.4230  0.1609
   40TCq2    O2  608   2.283   1.073   1.953 -0.1756  0.0656 -0.2376
   40TCq2    C2  609   2.463   1.082   2.086 -0.3473  0.0998 -0.4608
   40TCq2    C3  610   2.481   1.010   2.201  0.5207 -0.8720  0.3899
   40TCq2    C4  611   2.603   0.942   2.224  0.5344  0.0947 -0.1219
   40TCq2    C5  612   2.714   0.969   2.154  0.3648 -0.0002  0.4797
   40TCq2    C6  613   2.689   1.040   2.038  0.3581  0.2858  0.8521
   40TCq2    C7  614   2.563   1.085   2.003 -0.1031  0.3243  0.1580
   40TCq2    C8  615   2.799   1.095   1.974  0.9979 -0.1287 -0.2020
   40TCq2    O4  616   2.795   1.220   1.979 -0.0250  0.1364  0.1209
   40TCq2    C9  617   2.602   0.849   2.338 -0.2241 -0.5328 -0.1653
   40TCq2    O5  618   2.491   0.807   2.389 -0.0283 -0.0180  0.3366
   40TCq2    O6  619   2.713   0.825   2.385  0.0967 -0.7543 -0.4964
   40TCq2    H2  620   2.402   0.995   2.273  0.2925  0.4964  0.4221
   40TCq2    H3  621   2.807   0.922   2.181  0.3601 -0.8843 -1.0739
   40TCq2    H4  622   2.546   1.149   1.917  1.0237  0.7244  0.2323
   41TMC2    C1  623   1.430   3.487  14.039  0.5611 -0.8836 -0.3305
   41TMC2    C2  624   1.340   3.562  14.117  0.4039  0.3090 -0.6110
   41TMC2    C3  625   1.294   3.672  14.053  0.2281 -0.3751 -0.5678
   41TMC2    C4  626   1.472   3.524  13.911  1.1651  0.3990  0.8855
   41TMC2    C5  627   1.420   3.642  13.865 -0.6261  0.2399  0.4535
   41TMC2    C6  628   1.336   3.717  13.939  0.5145  0.1410  0.6506
   41TMC2     C  629   1.518   3.410  14.124  0.1854 -0.4034 -0.3388
   41TMC2     O  630   1.556   3.303  14.075 -0.3464  0.2181  0.2283
   41TMC2     H  631   1.298   3.533  14.212  0.0977  2.0180 -0.2270
   41TMC2    H1  632   1.538   3.455  13.859  1.3425  1.4098 -0.2102
   41TMC2    H2  633   1.308   3.819  13.915 -1.0523 -0.2691  0.7687
   41TMC2    C7  634   1.470   3.690  13.738 -0.2803 -0.0557  0.3642
   41TMC2    C8  635   1.190   3.749  14.122 -0.1832  0.0420  0.3975
   41TMC2    O1  636   1.463   3.811  13.732  0.0425 -0.4231 -0.2981
   41TMC2    O2  637   1.205   3.797  14.234 -0.2422  0.3604 -0.2776
   41TMC2    O5  638   1.095   3.783  14.034  0.6897  0.0781 -0.3786
   41TMC2    H5  639   1.106   3.715  13.964 -1.7293  0.0979 -0.7744
   42MPD2     C  640   1.664   3.284  14.347 -0.3697 -0.1296  0.6810
   42MPD2    C1  641   1.612   3.410  14.353  0.7555 -0.2585  0.1555
   42MPD2    C2  642   1.626   3.481  14.466  0.4877 -0.2309  0.0289
   42MPD2    C3  643   1.680   3.430  14.580 -0.2790  0.6345  0.9543
   42MPD2    C4  644   1.737   3.306  14.571 -0.2235  0.4615 -0.3200
   42MPD2    C5  645   1.720   3.227  14.461 -0.5932  0.0917 -0.1028
   42MPD2     H  646   1.581   3.579  14.467 -0.0348 -0.4707  0.0973
   42MPD2    H1  647   1.786   3.259  14.656  1.8828  0.8877 -1.2819
   42MPD2    H2  648   1.648   3.217  14.263  3.1340  0.3693 -0.4032
   42MPD2    H3  649   1.757   3.125  14.456 -0.8854 -0.0662  0.9949
   42MPD2     N  650   1.694   3.500  14.699 -1.4667  0.4437 -0.8545
   42MPD2    H5  651   1.746   3.461  14.777 -1.9006  1.2436 -0.1658
   42MPD2    N1  652   1.542   3.472  14.241 -0.0164 -0.6247  0.0744
   42MPD2    H7  653   1.508   3.566  14.260  0.7331 -0.4943  0.7759
   43MPD2     C  654   2.556   2.389   0.872 -0.7728  0.0114  0.0208
   43MPD2    C1  655   2.575   2.287   0.961  0.4226 -0.6174 -0.5951
   43MPD2    C2  656   2.506   2.301   1.075 -0.5121  0.3255 -0.4343
   43MPD2    C3  657   2.408   2.397   1.096 -0.2429 -0.5531  0.4144
   43MPD2    C4  658   2.380   2.484   0.995 -0.0205  0.1234 -0.0351
   43MPD2    C5  659   2.456   2.483   0.884 -0.3073  0.3347  0.0577
   43MPD2     H  660   2.537   2.234   1.154 -0.8180 -0.1433 -0.7106
   43MPD2    H1  661   2.305   2.561   1.004 -1.0494 -0.8753  0.0255
   43MPD2    H2  662   2.612   2.390   0.779 -1.7378  0.1559 -0.5592
   43MPD2    H3  663   2.447   2.557   0.805 -1.5976 -1.0162 -1.0491
   43MPD2     N  664   2.330   2.420   1.223  0.1886 -0.0154 -0.1454
   43MPD2    H5  665   2.251   2.483   1.217 -0.6162 -1.0687 -0.5564
   43MPD2    N1  666   2.672   2.181   0.940  0.4934  0.0146  0.3277
   43MPD2    H7  667   2.674   2.102   1.003  0.5487 -1.2551 -1.2610
   44TCq2    C1  668   2.247   2.565   1.764  0.4116  0.1775 -0.1496
   44TCq2    O2  669   2.365   2.545   1.786  0.0068  0.0305  0.5376
   44TCq2    C2  670   2.194   2.509   1.639  0.1653  0.0716 -0.2602
   44TCq2    C3  671   2.059   2.533   1.597 -0.2681 -0.8702 -0.0312
   44TCq2    C4  672   2.026   2.487   1.472 -0.0776 -0.5389 -0.1455
   44TCq2    C5  673   2.122   2.421   1.393  0.8436  0.3289  0.5147
   44TCq2    C6  674   2.248   2.398   1.440 -0.1752 -0.5391  0.0692
   44TCq2    C7  675   2.283   2.431   1.570 -0.0449  0.2649 -0.3521
   44TCq2    C8  676   2.355   2.362   1.344 -0.0279 -0.2135 -0.4453
   44TCq2    O4  677   2.456   2.307   1.385 -0.6174  0.8867 -0.1180
   44TCq2    C9  678   1.905   2.527   1.404  0.0409  0.0706 -0.0881
   44TCq2    O5  679   1.847   2.630   1.448 -0.7723 -0.4491 -0.0933
   44TCq2    O6  680   1.898   2.481   1.287  0.2483 -0.5459  0.0986
   44TCq2    H2  681   1.995   2.602   1.652  1.8713 -1.1040  2.7354
   44TCq2    H3  682   2.097   2.402   1.290 -1.0650 -1.8038  1.3604
   44TCq2    H4  683   2.382   2.402   1.604 -0.1117  0.9690  0.4582
   45TMC2    C1  684   3.396   3.330   9.385  0.1761 -0.3896  0.4364
   45TMC2    C2  685   3.347   3.381   9.267  0.0340 -0.3010 -0.3083
   45TMC2    C3  686   3.353   3.513   9.240 -0.2459  1.1307 -0.4606
   45TMC2    C4  687   3.433   3.406   9.483  0.2304 -0.2699  0.3563
   45TMC2    C5  688   3.429   3.542   9.463 -0.7597  0.2722 -0.7769
   45TMC2    C6  689   3.386   3.597   9.341  0.3667 -0.0477  0.0490
   45TMC2     C  690   3.401   3.187   9.398 -0.8837 -1.0078  0.4019
   45TMC2     O  691   3.503   3.144   9.451  0.2066 -0.1984  0.0168
   45TMC2     H  692   3.311   3.315   9.189 -1.5565  0.4903 -0.2508
   45TMC2    H1  693   3.474   3.353   9.569 -0.8911 -0.9641  0.4608
   45TMC2    H2  694   3.393   3.704   9.326  1.9142 -0.1602 -0.0693
   45TMC2    C7  695   3.478   3.640   9.568 -0.4500  0.0400  0.5586
   45TMC2    C8  696   3.298   3.569   9.122 -0.4123  0.1269 -0.2103
   45TMC2    O1  697   3.540   3.591   9.658 -0.4052 -0.3698 -0.1735
   45TMC2    O2  698   3.270   3.685   9.102 -0.0662 -0.1516 -0.5579
   45TMC2    O5  699   3.296   3.478   9.024  0.1912 -0.0882  0.0919
   45TMC2    H5  700   3.328   3.389   9.051  1.8358  0.4652 -0.0219
   46MPD2     C  701   3.396   2.890   9.330 -0.0992 -0.1984 -0.6786
   46MPD2    C1  702   3.288   2.974   9.324  0.4452  0.2253 -0.2067
   46MPD2    C2  703   3.164   2.921   9.282  0.0832 -0.1050 -0.2605
   46MPD2    C3  704   3.141   2.786   9.267 -0.3463  0.7804 -0.4169
   46MPD2    C4  705   3.253   2.701   9.271 -0.1731 -0.0482  0.1681
   46MPD2    C5  706   3.375   2.756   9.304  0.6622 -0.2704 -0.7194
   46MPD2     H  707   3.081   2.991   9.279 -0.6404 -0.9298  0.8250
   46MPD2    H1  708   3.249   2.593   9.260  0.0018 -0.0751  0.3801
   46MPD2    H2  709   3.492   2.923   9.370 -0.0084  1.4967 -2.2611
   46MPD2    H3  710   3.447   2.677   9.323  1.9165  1.2225  0.6219
   46MPD2     N  711   3.014   2.745   9.251 -0.5875 -0.1579 -1.0198
   46MPD2    H5  712   2.951   2.825   9.254  0.5915  0.6876  1.7374
   46MPD2    N1  713   3.298   3.114   9.347 -0.0494 -0.2723 -0.2860
   46MPD2    H7  714   3.222   3.176   9.320 -0.4481 -1.4693 -1.9023
   47TMC2    C1  715   1.110   3.561  10.503 -0.1377  0.6312 -0.3452
   47TMC2    C2  716   1.045   3.559  10.623 -0.0732  0.1326 -0.7526
   47TMC2    C3  717   0.920   3.617  10.629 -0.1840 -0.0665 -0.0468
   47TMC2    C4  718   1.056   3.623  10.398 -0.2097 -0.2249  0.5048
   47TMC2    C5  719   0.922   3.663  10.399 -0.3351 -1.3221  0.1333
   47TMC2    C6  720   0.850   3.651  10.515 -0.3155 -0.4535  0.2172
   47TMC2     C  721   1.248   3.611  10.522  0.1823  0.2444  0.5029
   47TMC2     O  722   1.267   3.690  10.612 -0.0290  0.1720 -0.2626
   47TMC2     H  723   1.109   3.522  10.702 -2.3582 -1.1807  0.4788
   47TMC2    H1  724   1.114   3.620  10.307 -1.0703 -1.3853 -0.0019
   47TMC2    H2  725   0.755   3.697  10.539 -0.7513 -1.2734  0.0652
   47TMC2    C7  726   0.857   3.684  10.271  0.1967 -0.2030 -0.2718
   47TMC2    C8  727   0.856   3.638  10.754 -0.0547  0.6754  0.0508
   47TMC2    O1  728   0.926   3.693  10.174  0.0316 -0.8081  0.3232
   47TMC2    O2  729   0.755   3.704  10.767 -0.0523 -0.2254  0.1591
   47TMC2    O5  730   0.908   3.558  10.847 -0.5492 -0.6304 -0.0945
   47TMC2    H5  731   0.970   3.502  10.794  0.8867  0.9026 -0.0570
   48MPD2     C  732   1.531   3.679  10.516  0.0996 -0.0631  0.4446
   48MPD2    C1  733   1.475   3.569  10.452  0.8347 -0.4363 -0.0271
   48MPD2    C2  734   1.564   3.479  10.390 -0.2442 -0.1279 -0.2199
   48MPD2    C3  735   1.704   3.494  10.400  0.3083 -0.7413 -0.2563
   48MPD2    C4  736   1.759   3.609  10.461 -0.1456 -1.1973 -0.2268
   48MPD2    C5  737   1.667   3.693  10.523  1.0622 -0.6019  0.1720
   48MPD2     H  738   1.525   3.390  10.343  4.2031 -1.4326 -1.4288
   48MPD2    H1  739   1.861   3.644  10.465 -0.5234 -0.1413  0.2245
   48MPD2    H2  740   1.473   3.752  10.571 -0.2198 -1.8421  2.4467
   48MPD2    H3  741   1.706   3.782  10.571 -1.8786  0.7505  0.0608
   48MPD2     N  742   1.785   3.383  10.365  0.1652  0.5379  0.7291
   48MPD2    H5  743   1.741   3.296  10.337 -2.8116  2.0380  0.7352
   48MPD2    N1  744   1.338   3.552  10.447 -0.6083 -0.3426  0.2177
   48MPD2    H7  745   1.298   3.489  10.378 -0.3938 -1.0068  0.7086
   49MPD2     C  746   0.385   0.638  10.415  0.3065  0.1648 -0.1854
   49MPD2    C1  747   0.349   0.770  10.451 -0.3699 -0.3553  0.2253
   49MPD2    C2  748   0.324   0.798  10.588 -0.0452  0.5171 -0.5556
   49MPD2    C3  749   0.315   0.694  10.679  0.2568 -1.1094 -1.0137
   49MPD2    C4  750   0.337   0.564  10.635 -0.8586  0.4134 -0.3552
   49MPD2    C5  751   0.369   0.537  10.502  0.2126  0.1987 -0.1110
   49MPD2     H  752   0.298   0.900  10.610  1.1197  1.0307 -1.5258
   49MPD2    H1  753   0.334   0.481  10.705 -1.3845  0.9450  0.2457
   49MPD2    H2  754   0.414   0.608  10.314  1.9376 -1.0487  0.6448
   49MPD2    H3  755   0.373   0.432  10.474  1.0047  0.4131 -0.7975
   49MPD2     N  756   0.267   0.704  10.816  0.0382 -0.4993 -0.2128
   49MPD2    H5  757   0.261   0.614  10.862  0.2970  0.6468  2.0971
   49MPD2    N1  758   0.346   0.876  10.359 -0.0968 -0.6342 -0.0661
   49MPD2    H7  759   0.314   0.966  10.393  1.1528  0.2294 -1.1573
   50TCq2    C1  760   0.378   0.868  10.227 -0.1009 -0.4379  0.5978
   50TCq2    O2  761   0.413   0.770  10.163 -1.0005  0.2049 -0.0188
   50TCq2    C2  762   0.371   0.990  10.146  0.2991 -0.3458 -0.0834
   50TCq2    C3  763   0.306   1.105  10.197  0.1291 -0.8322  0.2264
   50TCq2    C4  764   0.329   1.220  10.129 -0.5884 -0.3079 -0.5992
   50TCq2    C5  765   0.404   1.231  10.016  0.9030 -0.3077  0.0647
   50TCq2    C6  766   0.449   1.114   9.963  0.2561 -0.4443 -0.3860
   50TCq2    C7  767   0.430   0.992  10.026 -0.0997 -0.0357 -0.1389
   50TCq2    C8  768   0.543   1.127   9.852  0.4687 -0.1921  0.4967
   50TCq2    O4  769   0.568   1.029   9.791  0.4837  0.0609 -0.2918
   50TCq2    C9  770   0.274   1.341  10.180 -0.9547  0.1507 -0.2806
   50TCq2    O5  771   0.233   1.343  10.297 -0.0403 -0.2536  0.3336
   50TCq2    O6  772   0.271   1.438  10.103  0.1189  0.0687  0.2058
   50TCq2    H2  773   0.237   1.103  10.281 -0.6685 -1.3166 -0.4450
   50TCq2    H3  774   0.411   1.328   9.967  0.7384 -0.1555  0.3424
   50TCq2    H4  775   0.469   0.902   9.979 -1.1222 -0.4815 -0.1498
   51MPD2     C  776   4.227   0.176   1.384 -0.2401 -0.1142  0.0301
   51MPD2    C1  777   4.334   0.193   1.302 -0.1030 -0.1275 -0.0275
   51MPD2    C2  778   4.328   0.304   1.215 -0.0398  0.0715 -0.4486
   51MPD2    C3  779   4.223   0.393   1.207 -0.1146  0.4234 -0.5320
   51MPD2    C4  780   4.117   0.365   1.292  0.5404  0.4896 -0.4284
   51MPD2    C5  781   4.120   0.262   1.380  0.2070  0.5976  0.5359
   51MPD2     H  782   4.413   0.325   1.152 -0.2342 -0.5128 -0.9005
   51MPD2    H1  783   4.027   0.424   1.281 -0.7930 -1.2129  1.3423
   51MPD2    H2  784   4.216   0.090   1.448  0.4878 -1.1316 -1.2116
   51MPD2    H3  785   4.032   0.244   1.442 -1.3827 -1.3742 -2.2937
   51MPD2     N  786   4.208   0.504   1.120  0.1903  0.1414 -0.6403
   51MPD2    H5  787   4.121   0.555   1.135  1.4971  1.6473  1.9565
   51MPD2    N1  788   4.460   0.128   1.306 -0.6506 -0.0906 -0.1652
   51MPD2    H7  789   4.523   0.148   1.229 -1.1069  1.0573 -0.2386
   52TCq2    C1  790   4.309   0.551   1.043  0.1180  0.0780 -0.9411
   52TCq2    O2  791   4.412   0.503   1.003 -0.5476  0.2053 -0.5158
   52TCq2    C2  792   4.281   0.685   0.994 -0.4968  0.0835 -0.2337
   52TCq2    C3  793   4.193   0.770   1.058  0.2700 -0.1287  0.0757
   52TCq2    C4  794   4.191   0.901   1.027 -0.4984  0.1910  0.1524
   52TCq2    C5  795   4.267   0.947   0.927  0.6657 -0.1718  0.7839
   52TCq2    C6  796   4.358   0.864   0.864 -0.6413 -0.4519  0.5075
   52TCq2    C7  797   4.357   0.732   0.896  0.6684 -0.0189  0.1711
   52TCq2    C8  798   4.484   0.922   0.826 -1.0852  0.1805 -0.0035
   52TCq2    O4  799   4.554   0.862   0.748 -0.5147 -0.1090  0.8534
   52TCq2    C9  800   4.099   0.991   1.093 -0.2262 -0.2910 -0.7037
   52TCq2    O5  801   4.075   1.106   1.051  0.6986  0.4623 -0.3660
   52TCq2    O6  802   4.035   0.944   1.193 -0.5925  0.4797  0.4430
   52TCq2    H2  803   4.135   0.741   1.144 -0.9180  0.3516 -0.5625
   52TCq2    H3  804   4.262   1.052   0.900 -0.1802 -0.6267 -0.8460
   52TCq2    H4  805   4.435   0.671   0.851  1.2864  1.5366 -0.8775
   53TMC2    C1  806   0.643   3.529  12.084  0.0087  0.0822 -0.3802
   53TMC2    C2  807   0.734   3.493  12.172 -0.2235  0.1622 -0.2512
   53TMC2    C3  808   0.719   3.550  12.296  0.0064  0.0635 -0.4999
   53TMC2    C4  809   0.540   3.607  12.115 -0.1724  0.2452  0.1170
   53TMC2    C5  810   0.535   3.672  12.233 -0.2652 -0.0081 -0.3842
   53TMC2    C6  811   0.629   3.640  12.326 -0.1098  0.2542  0.4604
   53TMC2     C  812   0.628   3.441  11.978 -0.3721  0.3516  0.7293
   53TMC2     O  813   0.724   3.367  11.952  0.0345  0.6705  0.4051
   53TMC2     H  814   0.824   3.441  12.143 -0.2637 -1.1687  1.9614
   53TMC2    H1  815   0.465   3.642  12.045 -0.8295 -0.0618  0.6649
   53TMC2    H2  816   0.624   3.670  12.430 -0.4146  0.2347  0.4522
   53TMC2    C7  817   0.422   3.758  12.270  0.8821 -1.0209 -0.0882
   53TMC2    C8  818   0.790   3.491  12.405  0.1152  0.8186 -0.3983
   53TMC2    O1  819   0.333   3.778  12.185 -0.2377  0.6438  0.2425
   53TMC2    O2  820   0.849   3.551  12.492  0.3201  0.5124  0.0130
   53TMC2    O5  821   0.801   3.362  12.382  0.2349  0.8547  0.5371
   53TMC2    H5  822   0.746   3.336  12.305  0.0489  0.6395  0.7449
   54MPD2     C  823   0.535   3.277  11.766  0.0541 -0.3454  0.4339
   54MPD2    C1  824   0.450   3.349  11.847  0.1766 -0.1919  0.2874
   54MPD2    C2  825   0.313   3.343  11.832  0.7430 -0.3434  0.0474
   54MPD2    C3  826   0.259   3.247  11.748  0.2274 -0.0187 -0.2191
   54MPD2    C4  827   0.340   3.166  11.670  0.4576 -0.1420  0.5548
   54MPD2    C5  828   0.475   3.192  11.671 -0.6493 -0.2763 -0.8433
   54MPD2     H  829   0.251   3.406  11.894  1.4533 -0.4705  0.8937
   54MPD2    H1  830   0.298   3.098  11.596 -0.8510  0.4356  0.7671
   54MPD2    H2  831   0.642   3.290  11.752  0.4820 -1.4337  2.6573
   54MPD2    H3  832   0.535   3.138  11.599 -0.7329 -1.3842 -0.0667
   54MPD2     N  833   0.117   3.234  11.739 -0.6097 -0.0654 -0.1106
   54MPD2    H5  834   0.092   3.191  11.650  2.6145 -1.6973 -0.2365
   54MPD2    N1  835   0.498   3.433  11.947  0.3470  0.0680 -0.2729
   54MPD2    H7  836   0.438   3.507  11.981 -2.3080 -2.5061  0.7092
   55MPD2     C  837   0.261   1.963  17.257 -0.2243  0.5331 -0.3923
   55MPD2    C1  838   0.328   1.915  17.377  0.1096 -0.5213 -0.0521
   55MPD2    C2  839   0.271   1.957  17.495  0.4130  0.9770  0.5630
   55MPD2    C3  840   0.147   2.024  17.498  0.3415  0.5993  0.5626
   55MPD2    C4  841   0.081   2.053  17.381  0.4603 -0.0051  0.9355
   55MPD2    C5  842   0.139   2.029  17.257  0.1052 -0.7553  0.2629
   55MPD2     H  843   0.328   1.945  17.587  0.0747 -1.9413  0.3936
   55MPD2    H1  844   4.703   2.090  17.378 -0.3150 -2.3798 -2.8806
   55MPD2    H2  845   0.317   1.952  17.165 -1.1250  2.0110 -1.1188
   55MPD2    H3  846   0.094   2.053  17.161  0.5655 -0.9798 -0.0091
   55MPD2     N  847   0.095   2.062  17.622  0.4301 -0.2368 -0.6180
   55MPD2    H5  848   0.152   2.043   0.004  1.1756 -0.9727 -1.3113
   55MPD2    N1  849   0.450   1.842  17.366 -0.1337 -0.1738  0.4909
   55MPD2    H7  850   0.491   1.832  17.274 -1.2832 -0.2337 -0.0163
   56TCq2    C1  851   0.492   1.761  17.464 -0.1547 -0.4779 -0.0152
   56TCq2    O2  852   0.446   1.727  17.572  0.2708 -0.1555  0.1390
   56TCq2    C2  853   0.607   1.684  17.434  0.4286 -0.0708  0.6835
   56TCq2    C3  854   0.702   1.736  17.349  0.1283  0.4952 -0.9941
   56TCq2    C4  855   0.818   1.665  17.324 -0.2548 -0.8035  0.2968
   56TCq2    C5  856   0.836   1.543  17.391 -0.8487 -0.0867  1.0122
   56TCq2    C6  857   0.739   1.500  17.484  0.0623 -0.7261 -0.2285
   56TCq2    C7  858   0.627   1.573  17.507  0.0064  0.6854 -0.2939
   56TCq2    C8  859   0.754   1.369  17.556  0.8308 -0.0494  0.6184
   56TCq2    O4  860   0.833   1.287  17.504 -0.5345 -0.0148 -0.1836
   56TCq2    C9  861   0.906   1.708  17.224 -0.1041 -0.7667 -0.6794
   56TCq2    O5  862   0.890   1.824  17.174  0.1279  0.1656 -0.6887
   56TCq2    O6  863   0.980   1.617  17.178 -0.1465 -0.8200 -0.0176
   56TCq2    H2  864   0.686   1.826  17.291  0.6074  0.5804 -0.9894
   56TCq2    H3  865   0.922   1.483  17.363 -1.4461 -0.2474 -0.5308
   56TCq2    H4  866   0.541   1.536  17.562  0.1350  0.8753  0.0336
   57TMC2    C1  867   4.551   2.642  14.118  0.7107  0.1810 -0.0668
   57TMC2    C2  868   4.649   2.606  14.205  0.5064  0.1363 -0.0373
   57TMC2    C3  869   0.045   2.554  14.158  0.4410  0.1499 -0.2800
   57TMC2    C4  870   4.567   2.632  13.989 -0.4600 -0.3364 -0.0035
   57TMC2    C5  871   4.689   2.588  13.940  0.1599 -0.6598  0.9878
   57TMC2    C6  872   0.065   2.533  14.022 -0.5804  0.4399 -0.2640
   57TMC2     C  873   4.413   2.655  14.159 -0.0661 -0.0821  0.3258
   57TMC2     O  874   4.329   2.712  14.086 -0.3526  0.0158 -0.4702
   57TMC2     H  875   4.625   2.605  14.311  1.3405 -0.1619  0.1464
   57TMC2    H1  876   4.489   2.674  13.926  0.6492 -0.9034 -1.7440
   57TMC2    H2  877   0.158   2.504  13.973 -0.2567  1.7973 -0.4395
   57TMC2    C7  878   4.724   2.579  13.793  0.4951  0.1490 -0.5707
   57TMC2    C8  879   0.149   2.513  14.247  0.2785 -0.3193  0.1250
   57TMC2    O1  880   4.645   2.646  13.728 -0.3463 -0.5607  0.2460
   57TMC2    O2  881   0.152   2.549  14.366  0.5909 -0.2317  0.0804
   57TMC2    O5  882   0.228   2.418  14.185 -0.9151  0.4183 -0.1053
   57TMC2    H5  883   0.198   2.382  14.099  1.4796  0.1468 -0.8193
   58MPD2     C  884   4.004   2.481  14.410 -0.3250  0.1676  0.6709
   58MPD2    C1  885   4.027   2.602  14.348  0.1379  0.5492 -0.2450
   58MPD2    C2  886   4.160   2.631  14.311  0.4079 -0.4927  0.0876
   58MPD2    C3  887   4.263   2.537  14.318 -0.4998  0.5964  0.3099
   58MPD2    C4  888   4.239   2.418  14.381 -0.2344 -0.1802 -0.3292
   58MPD2    C5  889   4.111   2.392  14.423 -0.4658 -0.1384  0.8194
   58MPD2     H  890   4.175   2.731  14.272  0.8237 -1.0770 -1.2681
   58MPD2    H1  891   4.323   2.354  14.404 -1.0566 -1.1182  0.0819
   58MPD2    H2  892   3.903   2.448  14.435 -1.0305  2.1148  0.3307
   58MPD2    H3  893   4.087   2.294  14.463 -1.7501  0.3113  1.1301
   58MPD2     N  894   4.389   2.566  14.260 -0.0341  0.3462  0.4865
   58MPD2    H5  895   4.462   2.501  14.289  0.0447 -0.6751 -2.0133
   58MPD2    N1  896   3.924   2.701  14.337 -0.2535 -0.0323  0.3487
   58MPD2    H7  897   3.947   2.794  14.303 -0.1164 -0.3221 -0.3325
   59MPD2     C  898   2.300   2.518  13.452 -0.0605 -0.1146 -0.5161
   59MPD2    C1  899   2.375   2.538  13.339 -0.8818 -0.7105  0.0250
   59MPD2    C2  900   2.467   2.638  13.343 -0.3966  0.1020  0.4890
   59MPD2    C3  901   2.493   2.718  13.450  0.6208 -0.1453  0.2604
   59MPD2    C4  902   2.417   2.696  13.563  0.3465  0.3171  0.1929
   59MPD2    C5  903   2.322   2.598  13.564  0.0574 -0.3623  0.3529
   59MPD2     H  904   2.525   2.655  13.252 -0.8333  1.9619  0.5619
   59MPD2    H1  905   2.418   2.768  13.644  0.7434  1.6462 -1.0034
   59MPD2    H2  906   2.219   2.447  13.455  0.8183 -1.2422 -3.0662
   59MPD2    H3  907   2.270   2.579  13.658 -0.5525  1.2685  0.3358
   59MPD2     N  908   2.582   2.834  13.452  0.3782  0.3972 -0.7444
   59MPD2    H5  909   2.591   2.895  13.532 -0.7635  0.2021 -0.4589
   59MPD2    N1  910   2.368   2.452  13.224 -0.0317  0.1562  0.3876
   59MPD2    H7  911   2.422   2.472  13.141  0.3046 -1.6225  0.1877
   60TCq2    C1  912   2.282   2.341  13.214  0.3329 -0.3120  0.0278
   60TCq2    O2  913   2.207   2.290  13.297  0.2636  0.3451 -0.4115
   60TCq2    C2  914   2.278   2.278  13.079 -0.8158  0.3108  0.1773
   60TCq2    C3  915   2.205   2.163  13.064  0.3373  0.1080 -0.7553
   60TCq2    C4  916   2.218   2.089  12.950  0.4876  0.6714  0.3913
   60TCq2    C5  917   2.287   2.149  12.842 -0.4680 -0.2297 -0.7801
   60TCq2    C6  918   2.352   2.267  12.863 -0.5703 -0.0419 -0.6067
   60TCq2    C7  919   2.350   2.337  12.978 -0.6458 -0.4796  0.2922
   60TCq2    C8  920   2.407   2.322  12.735 -0.5535  0.2673 -0.0167
   60TCq2    O4  921   2.423   2.249  12.637 -0.0133  0.3839  0.4855
   60TCq2    C9  922   2.171   1.950  12.944  0.2850  0.9675  0.2443
   60TCq2    O5  923   2.110   1.907  13.044  0.5712  0.2809  0.3995
   60TCq2    O6  924   2.188   1.887  12.839  0.6770  0.4508 -0.0339
   60TCq2    H2  925   2.181   2.107  13.153  0.8681 -3.1622 -2.6674
   60TCq2    H3  926   2.302   2.094  12.749  0.3820 -1.0867 -0.1393
   60TCq2    H4  927   2.414   2.425  12.985  1.3879 -1.8778 -0.8341
   61MPD2     C  928   1.568   4.056  14.621  0.4204 -0.2605 -0.0574
   61MPD2    C1  929   1.587   4.192  14.658 -0.6372  0.2286 -0.0969
   61MPD2    C2  930   1.528   4.291  14.589  0.6674 -0.1305  0.0902
   61MPD2    C3  931   1.426   4.258  14.500  0.4469 -0.3341 -0.3870
   61MPD2    C4  932   1.403   4.128  14.461  0.7616  0.1767  0.1679
   61MPD2    C5  933   1.479   4.031  14.523  0.5077 -0.0250  0.0581
   61MPD2     H  934   1.546   4.394  14.618 -2.3985  0.4971 -0.2853
   61MPD2    H1  935   1.329   4.100  14.387  2.0278 -0.0338 -1.0193
   61MPD2    H2  936   1.616   3.972  14.670 -3.3485 -2.2818  0.1950
   61MPD2    H3  937   1.454   3.928  14.498 -0.7670 -0.4343  2.9743
   61MPD2     N  938   1.341   4.362  14.445 -0.8642  0.4038  0.2876
   61MPD2    H5  939   1.251   4.337  14.404 -0.4603 -0.5572 -0.0137
   61MPD2    N1  940   1.665   4.234  14.768  0.1763  0.4679 -0.2719
   61MPD2    H7  941   1.666   4.331  14.799  0.2901  1.2245 -2.6188
   62TCq2    C1  942   1.731   4.155  14.860 -0.5076 -0.2231 -0.4725
   62TCq2    O2  943   1.741   4.037  14.862  0.0892  0.0474  0.0816
   62TCq2    C2  944   1.747   4.226  14.992  0.4922 -0.2312  0.4031
   62TCq2    C3  945   1.784   4.150  15.097  0.0741 -0.6670 -0.0535
   62TCq2    C4  946   1.744   4.172  15.223 -0.9904  0.0316 -0.8508
   62TCq2    C5  947   1.660   4.275  15.246 -0.2759  0.1504 -0.0866
   62TCq2    C6  948   1.618   4.354  15.139  1.2257 -0.2275  0.0794
   62TCq2    C7  949   1.658   4.331  15.011  0.4835  0.4802 -0.1180
   62TCq2    C8  950   1.540   4.480  15.156  0.1925  0.3458 -0.3493
   62TCq2    O4  951   1.552   4.565  15.071  0.1678 -0.0986 -0.5223
   62TCq2    C9  952   1.790   4.090  15.328  0.3668  0.0804 -0.1190
   62TCq2    O5  953   1.714   4.080  15.428 -0.4938 -0.3340 -0.0519
   62TCq2    O6  954   1.903   4.035  15.312  0.0208 -0.3234 -0.4265
   62TCq2    H2  955   1.839   4.058  15.079  0.3782 -0.6109  0.5846
   62TCq2    H3  956   1.626   4.290  15.348  0.8300  0.2863  0.2597
   62TCq2    H4  957   1.607   4.389  14.934 -2.0939 -2.4336 -0.6241
   63TMC2    C1  958   1.238   3.937  11.351 -0.2794  0.1914  0.5531
   63TMC2    C2  959   1.330   3.964  11.446 -0.0048  0.0932  0.8873
   63TMC2    C3  960   1.462   3.984  11.407  0.8641  0.5575  1.1615
   63TMC2    C4  961   1.261   3.949  11.220  0.3109 -0.3367  0.0580
   63TMC2    C5  962   1.397   3.975  11.180 -0.3094 -0.1778  0.5281
   63TMC2    C6  963   1.499   3.976  11.273 -0.1826 -0.0386 -0.1027
   63TMC2     C  964   1.105   3.914  11.394  0.3708  0.2186 -0.1114
   63TMC2     O  965   1.064   3.971  11.497 -0.3175 -0.7196 -0.2306
   63TMC2     H  966   1.302   3.960  11.550  1.8233  0.2696  1.3698
   63TMC2    H1  967   1.180   3.939  11.148  0.3038  0.5761 -0.0597
   63TMC2    H2  968   1.603   3.992  11.245  0.2414  0.1282  1.5978
   63TMC2    C7  969   1.418   3.991  11.042  0.1277  0.1297 -0.1023
   63TMC2    C8  970   1.574   3.957  11.497  0.1960  0.0273 -0.6255
   63TMC2    O1  971   1.327   3.942  10.973 -0.3838 -0.0795 -0.0932
   63TMC2    O2  972   1.682   3.902  11.470 -0.2691 -0.3649  0.1741
   63TMC2    O5  973   1.537   3.991  11.623 -0.2251  0.3265 -0.1292
   63TMC2    H5  974   1.450   4.037  11.618 -0.6541 -0.4358  0.3281
   64MPD2     C  975   0.725   3.562  11.455 -0.0979 -0.1627 -0.2822
   64MPD2    C1  976   0.808   3.518  11.356  0.6294  0.2790 -0.0785
   64MPD2    C2  977   0.913   3.597  11.313  0.5117 -0.4824  0.0022
   64MPD2    C3  978   0.937   3.729  11.367 -0.6026 -0.2186  0.3407
   64MPD2    C4  979   0.857   3.768  11.470  0.5772  0.4579  0.6186
   64MPD2    C5  980   0.757   3.686  11.511  0.8684  0.1527 -0.6860
   64MPD2     H  981   0.983   3.558  11.239  0.1035 -1.0822 -0.0699
   64MPD2    H1  982   0.874   3.854  11.534 -0.0441 -0.4642  2.0212
   64MPD2    H2  983   0.636   3.512  11.492 -0.9969  1.6073 -0.0769
   64MPD2    H3  984   0.681   3.731  11.574 -0.9423 -3.6343 -0.1694
   64MPD2     N  985   1.053   3.804  11.332  0.0164 -0.2697 -0.2104
   64MPD2    H5  986   1.117   3.758  11.269 -0.5961  1.2693 -1.9598
   64MPD2    N1  987   0.806   3.383  11.308  0.5639  0.4407 -0.6078
   64MPD2    H7  988   0.889   3.357  11.256 -0.7848 -2.0746 -1.4603
   65MPD2     C  989   2.169   3.694  16.203 -0.9883  0.2194 -0.6548
   65MPD2    C1  990   2.182   3.703  16.065 -0.0686 -0.0677  0.1107
   65MPD2    C2  991   2.208   3.589  15.990 -0.9849  0.2364 -0.6040
   65MPD2    C3  992   2.196   3.465  16.053  0.7276  0.1624  0.2426
   65MPD2    C4  993   2.192   3.461  16.191  0.1501  0.1581 -0.1529
   65MPD2    C5  994   2.184   3.576  16.263 -0.0685 -0.9952 -0.3280
   65MPD2     H  995   2.198   3.593  15.882  1.1269 -0.1022 -0.7979
   65MPD2    H1  996   2.185   3.366  16.243 -3.7977 -0.3767 -1.6969
   65MPD2    H2  997   2.144   3.783  16.261 -3.3153 -0.9607  0.1576
   65MPD2    H3  998   2.170   3.576  16.371  0.9966 -1.8944 -0.1952
   65MPD2     N  999   2.200   3.340  15.983  0.3917 -0.7590  0.1571
   65MPD2    H5 1000   2.165   3.257  16.030 -3.3488 -0.4940 -2.1243
   65MPD2    N1 1001   2.172   3.825  15.993 -0.2473  0.2378  0.4670
   65MPD2    H7 1002   2.191   3.828  15.894 -0.7389  0.5068  0.3819
   66TCq2    C1 1003   2.136   3.950  16.045 -0.4682  0.1212  0.1886
   66TCq2    O2 1004   2.111   3.985  16.160  0.2227  0.7350 -0.0375
   66TCq2    C2 1005   2.141   4.042  15.936  0.1244 -0.2140  0.6898
   66TCq2    C3 1006   2.120   3.991  15.812  0.0664 -0.6067  0.4595
   66TCq2    C4 1007   2.152   4.066  15.700  0.1104  1.0642  0.6420
   66TCq2    C5 1008   2.217   4.191  15.715  0.2438 -0.5282 -0.3863
   66TCq2    C6 1009   2.223   4.242  15.842  0.0985 -0.1995  0.5323
   66TCq2    C7 1010   2.179   4.175  15.951  0.0106  0.2758 -0.6625
   66TCq2    C8 1011   2.206   4.389  15.845  0.3962 -0.3892 -0.5970
   66TCq2    O4 1012   2.207   4.441  15.736 -0.1496  0.4667  0.2565
   66TCq2    C9 1013   2.108   4.025  15.571  0.6061 -0.0750  0.0785
   66TCq2    O5 1014   2.173   4.076  15.474 -0.0287  0.6929  0.4321
   66TCq2    O6 1015   1.998   3.957  15.572  0.0557  0.0098 -0.0391
   66TCq2    H2 1016   2.064   3.898  15.802 -1.8863  0.9140 -2.6876
   66TCq2    H3 1017   2.237   4.246  15.624  0.8779 -0.0819  0.0256
   66TCq2    H4 1018   2.189   4.224  16.047  1.5116  1.3817 -1.3734
   67MPD2     C 1019   2.546   2.809  14.499 -0.1696 -0.3664  0.4212
   67MPD2    C1 1020   2.446   2.879  14.570 -0.0209  0.2674 -0.2608
   67MPD2    C2 1021   2.314   2.865  14.527 -0.5500  0.2340 -0.8917
   67MPD2    C3 1022   2.280   2.792  14.411 -0.4690 -0.3723 -0.3683
   67MPD2    C4 1023   2.371   2.733  14.339  0.4445 -0.8337 -0.3842
   67MPD2    C5 1024   2.502   2.742  14.389 -0.8058  0.6581 -0.2192
   67MPD2     H 1025   2.234   2.909  14.585  0.0036 -0.4407  0.4006
   67MPD2    H1 1026   2.353   2.687  14.243  4.4458  0.7616 -1.9275
   67MPD2    H2 1027   2.651   2.804  14.523 -0.5450 -0.0216  2.1241
   67MPD2    H3 1028   2.574   2.689  14.328 -0.7324 -0.3904  0.7823
   67MPD2     N 1029   2.142   2.783  14.373  0.0070  0.4463  0.4239
   67MPD2    H5 1030   2.078   2.838  14.430  2.1988  2.8023  0.6246
   67MPD2    N1 1031   2.476   2.965  14.677 -0.0104 -0.1881  0.5306
   67MPD2    H7 1032   2.394   3.005  14.723 -1.3222 -3.1023  0.7051
   68TCq2    C1 1033   2.602   2.996  14.721 -0.2622  0.5317 -0.4456
   68TCq2    O2 1034   2.711   2.948  14.696  0.3664  0.0554 -0.4494
   68TCq2    C2 1035   2.591   3.092  14.826  0.9565 -0.0005 -0.1209
   68TCq2    C3 1036   2.480   3.172  14.827 -0.0194  0.3325  0.3574
   68TCq2    C4 1037   2.462   3.242  14.940 -0.5592  0.6264  0.1424
   68TCq2    C5 1038   2.543   3.230  15.049 -0.5464 -0.6399 -0.1158
   68TCq2    C6 1039   2.643   3.138  15.043  0.6000 -0.2529  0.0268
   68TCq2    C7 1040   2.675   3.069  14.930 -0.1962 -0.2472  0.3474
   68TCq2    C8 1041   2.761   3.148  15.125  0.0255  0.5090  0.0591
   68TCq2    O4 1042   2.862   3.090  15.091 -0.4313  0.0501 -0.2341
   68TCq2    C9 1043   2.348   3.336  14.949 -0.8062 -0.5011  0.7873
   68TCq2    O5 1044   2.300   3.357  15.064  0.0913  0.9710 -1.1552
   68TCq2    O6 1045   2.283   3.352  14.842 -0.4508 -0.5119 -0.0537
   68TCq2    H2 1046   2.414   3.182  14.742 -0.3100 -0.4723  0.4874
   68TCq2    H3 1047   2.522   3.283  15.140  1.1558  1.1263 -0.7482
   68TCq2    H4 1048   2.746   2.988  14.926 -2.2789 -2.2270  2.9815
   69TMC2    C1 1049   4.460   4.099  12.941  0.3148 -0.4060  0.3181
   69TMC2    C2 1050   4.321   4.104  12.952  0.2357 -0.4520 -0.4295
   69TMC2    C3 1051   4.260   4.195  12.869 -0.1193 -0.0925 -0.1235
   69TMC2    C4 1052   4.531   4.177  12.856  0.2145 -0.4139  0.6539
   69TMC2    C5 1053   4.462   4.263  12.772 -0.3916 -0.0168  0.1317
   69TMC2    C6 1054   4.323   4.271  12.774 -0.0867 -0.1707  1.0711
   69TMC2     C 1055   4.527   3.983  13.009  0.1679  0.2328  0.0538
   69TMC2     O 1056   4.457   3.899  13.061  0.1686 -0.2189 -0.2023
   69TMC2     H 1057   4.267   4.040  13.019  0.1882 -0.1870 -0.2142
   69TMC2    H1 1058   4.633   4.156  12.825  0.6265 -1.0719  2.4587
   69TMC2    H2 1059   4.270   4.354  12.731 -0.4621 -1.1122 -0.2624
   69TMC2    C7 1060   4.537   4.347  12.679  0.0889 -0.1839  0.0927
   69TMC2    C8 1061   4.117   4.225  12.891 -0.0525  0.3245  0.3242
   69TMC2    O1 1062   4.653   4.364  12.714 -0.6462  0.1229  0.0770
   69TMC2    O2 1063   4.072   4.335  12.871  0.6240  0.2115  0.0038
   69TMC2    O5 1064   4.053   4.111  12.943  0.4993 -0.2633 -0.2372
   69TMC2    H5 1065   4.094   4.037  12.894 -2.5425 -0.3246 -2.6886
   70MPD2     C 1066   0.168   3.928  13.020 -0.0074  0.0300 -0.3612
   70MPD2    C1 1067   0.035   3.900  13.043  0.4434 -0.0220 -0.0111
   70MPD2    C2 1068   0.006   3.781  13.102 -0.6070 -0.3186 -0.6166
   70MPD2    C3 1069   0.109   3.696  13.132  0.5106  0.1073 -0.1380
   70MPD2    C4 1070   0.238   3.719  13.102  0.0983  0.5186 -0.8353
   70MPD2    C5 1071   0.266   3.836  13.048 -0.6716 -0.0806  1.1239
   70MPD2     H 1072   4.630   3.745  13.120 -0.5391 -0.5181 -0.6331
   70MPD2    H1 1073   0.316   3.646  13.124  1.0564  1.4404 -1.2125
   70MPD2    H2 1074   0.200   4.011  12.957 -0.5300  1.5936  1.4255
   70MPD2    H3 1075   0.370   3.862  13.030 -1.3791  1.1761 -1.0647
   70MPD2     N 1076   0.087   3.572  13.194  0.1233  0.3958 -0.0879
   70MPD2    H5 1077   0.169   3.513  13.205  0.2996  0.3138 -1.8708
   70MPD2    N1 1078   4.662   3.989  12.999  0.2623  0.4904 -0.3834
   70MPD2    H7 1079   4.704   4.071  12.956  1.7848  0.1813  0.5082
   71TMC2    C1 1080   2.576   0.363   1.975 -0.1485  0.1760  0.0680
   71TMC2    C2 1081   2.703   0.392   2.016  0.2205  0.1211  0.0200
   71TMC2    C3 1082   2.724   0.377   2.146  0.1553  0.4822  0.1312
   71TMC2    C4 1083   2.478   0.320   2.056  0.3990  0.5863 -0.3484
   71TMC2    C5 1084   2.502   0.298   2.188  1.0740  0.4624  0.3301
   71TMC2    C6 1085   2.628   0.316   2.232  0.1668  0.4229  0.1620
   71TMC2     C 1086   2.539   0.365   1.832 -0.1169  0.1398  0.2263
   71TMC2     O 1087   2.418   0.363   1.816 -0.2025  0.2114 -0.7457
   71TMC2     H 1088   2.786   0.418   1.951 -0.0635  5.2821  1.7484
   71TMC2    H1 1089   2.379   0.304   2.015  0.5373  2.3109 -1.3451
   71TMC2    H2 1090   2.648   0.298   2.337 -2.4981 -0.2174  0.5440
   71TMC2    C7 1091   2.428   0.190   2.254  0.7633  0.5516  0.4024
   71TMC2    C8 1092   2.855   0.406   2.193 -0.0169 -0.1055  0.8412
   71TMC2    O1 1093   2.498   0.093   2.292  0.0552  0.0782  0.3768
   71TMC2    O2 1094   2.940   0.456   2.126 -0.3170 -0.1073 -0.2427
   71TMC2    O5 1095   2.845   0.404   2.326  0.1115 -0.1817 -0.4140
   71TMC2    H5 1096   2.819   0.316   2.360 -0.4310  0.2001  0.1558
   72MPD2     C 1097   2.632   0.230   1.356 -0.2072 -0.3678  0.5327
   72MPD2    C1 1098   2.523   0.299   1.403  0.7481  0.0987  0.5837
   72MPD2    C2 1099   2.516   0.340   1.534  0.0479  0.1206  0.3915
   72MPD2    C3 1100   2.632   0.315   1.613 -0.0150  1.2087 -0.4582
   72MPD2    C4 1101   2.747   0.252   1.555  0.2503  0.3951  0.5356
   72MPD2    C5 1102   2.743   0.212   1.429  0.5182 -0.3838  0.3073
   72MPD2     H 1103   2.434   0.406   1.560  0.1605  0.6628 -0.6092
   72MPD2    H1 1104   2.841   0.235   1.607 -0.0006 -1.5961  0.3478
   72MPD2    H2 1105   2.637   0.199   1.252 -0.0522 -1.0849  0.7549
   72MPD2    H3 1106   2.837   0.180   1.385  1.4693 -0.0479  2.0826
   72MPD2     N 1107   2.645   0.344   1.754  0.0075  0.2190 -0.3831
   72MPD2    H5 1108   2.731   0.328   1.806 -0.6533 -0.4682  0.5055
   72MPD2    N1 1109   2.410   0.329   1.322 -0.4085  0.2420  0.3134
   72MPD2    H7 1110   2.343   0.385   1.375 -0.3866  0.6757 -0.1187
   73TMC2    C1 1111   1.780   1.702  14.182  0.4096 -0.5678 -0.2914
   73TMC2    C2 1112   1.676   1.752  14.254  0.1400 -0.3185 -0.4018
   73TMC2    C3 1113   1.695   1.779  14.387 -0.2211  0.2804  0.1108
   73TMC2    C4 1114   1.896   1.660  14.241 -0.1456 -0.5783  0.1210
   73TMC2    C5 1115   1.921   1.702  14.368  0.0920 -0.0296  0.3029
   73TMC2    C6 1116   1.821   1.751  14.447  0.3420 -0.4505 -0.0082
   73TMC2     C 1117   1.815   1.779  14.061 -0.2399 -0.3390 -0.1764
   73TMC2     O 1118   1.927   1.827  14.066  0.1184 -0.0839  0.0225
   73TMC2     H 1119   1.587   1.784  14.201  0.0176 -0.3835 -0.2345
   73TMC2    H1 1120   1.984   1.630  14.186 -0.2569  1.4297 -1.1252
   73TMC2    H2 1121   1.846   1.780  14.549  1.8015  0.9353 -0.7571
   73TMC2    C7 1122   2.051   1.768  14.388 -0.0889 -0.1074 -1.0405
   73TMC2    C8 1123   1.582   1.804  14.479  0.1348  0.2319  0.2290
   73TMC2    O1 1124   2.091   1.785  14.502 -0.0895 -0.6757 -0.4297
   73TMC2    O2 1125   1.595   1.764  14.596 -0.3507 -0.0366 -0.4401
   73TMC2    O5 1126   1.469   1.810  14.399  0.1513  0.2088  0.2665
   73TMC2    H5 1127   1.461   1.873  14.325  1.5656  0.0713 -0.0204
   74MPD2     C 1128   1.770   1.905  13.566 -0.4369 -0.1684  0.3164
   74MPD2    C1 1129   1.870   1.938  13.661 -0.0809  0.3464  0.5361
   74MPD2    C2 1130   1.855   1.895  13.791  0.0958  0.2531  0.2257
   74MPD2    C3 1131   1.737   1.818  13.825  0.0866 -0.6839  0.1622
   74MPD2    C4 1132   1.643   1.789  13.726 -0.3172 -0.4211  0.0479
   74MPD2    C5 1133   1.657   1.842  13.603 -0.2868 -0.1607 -0.7467
   74MPD2     H 1134   1.926   1.914  13.870  0.4065  2.8331 -0.7042
   74MPD2    H1 1135   1.546   1.747  13.750 -0.7931  0.0426 -1.0916
   74MPD2    H2 1136   1.778   1.940  13.464 -3.4121 -1.5090 -0.3670
   74MPD2    H3 1137   1.569   1.838  13.540 -0.1042  1.5217 -1.0960
   74MPD2     N 1138   1.722   1.763  13.957 -0.0785 -0.0329 -0.1636
   74MPD2    H5 1139   1.639   1.712  13.984 -0.5837  0.7020 -0.3344
   74MPD2    N1 1140   1.980   2.023  13.615 -0.0950 -0.2305 -0.2506
   74MPD2    H7 1141   1.991   2.053  13.519 -1.3089  0.0275 -0.3116
   75TCq2    C1 1142   2.084   2.724  14.264  0.3513 -0.4902  0.1955
   75TCq2    O2 1143   2.138   2.654  14.179 -0.8107 -0.4497 -0.2461
   75TCq2    C2 1144   1.943   2.764  14.266  0.0876 -0.6738  0.6624
   75TCq2    C3 1145   1.887   2.805  14.380  0.3505 -0.1450  0.4173
   75TCq2    C4 1146   1.762   2.855  14.371 -0.3513  0.3242 -0.5204
   75TCq2    C5 1147   1.700   2.873  14.249 -0.0374 -0.1828 -0.1325
   75TCq2    C6 1148   1.764   2.829  14.141 -0.3896 -0.0688 -0.1634
   75TCq2    C7 1149   1.887   2.767  14.146  0.1389 -0.5859 -0.0746
   75TCq2    C8 1150   1.692   2.827  14.015  0.6323 -0.1195 -0.7887
   75TCq2    O4 1151   1.749   2.817  13.905 -0.0518 -0.2953 -0.3554
   75TCq2    C9 1152   1.684   2.894  14.489  0.8861 -0.4214  0.1744
   75TCq2    O5 1153   1.561   2.922  14.474  0.4137 -0.4720 -0.5290
   75TCq2    O6 1154   1.740   2.859  14.598 -0.0015 -0.2796 -0.3368
   75TCq2    H2 1155   1.929   2.788  14.478 -2.6554 -0.6711  1.6158
   75TCq2    H3 1156   1.615   2.939  14.236 -1.5231 -1.8513  1.1310
   75TCq2    H4 1157   1.923   2.728  14.051 -1.8939 -0.3166 -0.9641
   76MPD2     C 1158   0.874   3.935  12.555  0.9392  0.5585 -0.7340
   76MPD2    C1 1159   0.859   3.957  12.419  0.8243 -0.2692 -0.0874
   76MPD2    C2 1160   0.944   3.883  12.330  0.6274  0.0851 -0.0005
   76MPD2    C3 1161   1.035   3.795  12.379 -0.1431 -0.1816  0.3565
   76MPD2    C4 1162   1.053   3.781  12.523 -0.0066  0.2534  0.5691
   76MPD2    C5 1163   0.975   3.852  12.605 -0.0001  0.3174 -0.2119
   76MPD2     H 1164   0.929   3.893  12.223 -1.2582  0.0010  0.2559
   76MPD2    H1 1165   1.135   3.720  12.558 -0.6712 -0.8105  0.2770
   76MPD2    H2 1166   0.812   3.984  12.629  1.1234  1.2576 -1.0445
   76MPD2    H3 1167   0.988   3.837  12.712  2.4042  1.8634 -0.2798
   76MPD2     N 1168   1.120   3.710  12.304 -0.0648 -0.1689  0.4490
   76MPD2    H5 1169   1.183   3.653  12.361 -2.5535 -2.8684  0.5291
   76MPD2    N1 1170   0.757   4.033  12.367  0.1205 -0.5799 -0.2313
   76MPD2    H7 1171   0.753   4.035  12.266 -2.5156  2.2546 -0.0775
   77TCq2    C1 1172   1.119   3.682  12.173  0.0770  0.5712  0.8406
   77TCq2    O2 1173   1.050   3.732  12.084 -0.3024  0.2995  0.0606
   77TCq2    C2 1174   1.196   3.569  12.135  0.1184  0.0655  0.3401
   77TCq2    C3 1175   1.132   3.494  12.037  0.1157 -0.0505 -0.2424
   77TCq2    C4 1176   1.209   3.410  11.968 -0.6800 -0.1077 -0.7037
   77TCq2    C5 1177   1.342   3.398  11.989 -0.0313 -0.4061 -0.4525
   77TCq2    C6 1178   1.404   3.476  12.085  0.1984  0.0047  0.0553
   77TCq2    C7 1179   1.332   3.561  12.164  0.0884  0.1227 -0.6097
   77TCq2    C8 1180   1.550   3.453  12.106  0.5218  0.1522  0.5100
   77TCq2    O4 1181   1.618   3.403  12.018 -0.3310 -0.3694  0.2689
   77TCq2    C9 1182   1.152   3.314  11.887 -0.0283  0.1737  0.1897
   77TCq2    O5 1183   1.222   3.217  11.843 -0.1736 -0.4440  0.2274
   77TCq2    O6 1184   1.026   3.319  11.880  0.0004 -0.4590 -0.3281
   77TCq2    H2 1185   1.025   3.504  12.023 -0.1242 -0.3031  1.4040
   77TCq2    H3 1186   1.405   3.343  11.920  0.6392 -0.1189 -0.0609
   77TCq2    H4 1187   1.378   3.609  12.249  0.3860 -1.2328  0.0094
   78MPD1     C 1188   0.022   2.964   2.051  0.2316 -0.0587  0.4658
   78MPD1    C1 1189   4.631   2.959   2.124  0.6870 -0.1738  0.0580
   78MPD1    C2 1190   4.553   3.071   2.121  0.0343  0.5779 -0.3431
   78MPD1    C3 1191   4.576   3.177   2.028 -0.0412 -0.7083 -0.5090
   78MPD1    C4 1192   4.694   3.174   1.954  0.3265  0.0579 -0.0007
   78MPD1    C5 1193   0.045   3.064   1.963  0.0912 -0.5009 -0.1174
   78MPD1     H 1194   4.470   3.070   2.190  1.3309 -1.7876  1.1670
   78MPD1    H1 1195   4.717   3.265   1.901 -1.2020  0.2052 -0.4040
   78MPD1    H2 1196   0.093   2.883   2.056  0.6116  0.3684  1.9637
   78MPD1    H3 1197   0.139   3.065   1.907 -0.3241 -2.4084 -0.8508
   78MPD1     N 1198   4.490   3.288   2.016 -0.2826  0.0471 -0.2127
   78MPD1    H5 1199   4.525   3.378   1.988 -0.2346  0.3106  0.6908
   78MPD1    N1 1200   4.609   2.857   2.217  0.0530 -0.4184 -0.0664
   78MPD1    H6 1201   4.659   2.771   2.194 -0.4247 -0.6276 -0.3283
   78MPD1    H7 1202   4.508   2.848   2.226  0.0935 -1.3440 -0.4759
   79TCq2    C1 1203   4.357   3.289   2.034  0.3331  0.0068  0.0420
   79TCq2    O2 1204   4.287   3.190   2.039 -0.0811  0.1858 -0.6623
   79TCq2    C2 1205   4.286   3.422   2.023  0.6854  0.0394 -0.5221
   79TCq2    C3 1206   4.328   3.523   2.105  0.4558  0.2463 -0.4455
   79TCq2    C4 1207   4.239   3.622   2.148 -0.7855 -0.4176 -0.0859
   79TCq2    C5 1208   4.106   3.621   2.112 -0.3957  0.5223  0.2011
   79TCq2    C6 1209   4.062   3.506   2.045  0.2154 -0.1809  0.2536
   79TCq2    C7 1210   4.152   3.411   1.994 -0.1020 -0.7381  0.6169
   79TCq2    C8 1211   3.920   3.498   2.018  0.4173  0.3654  0.6825
   79TCq2    O4 1212   3.853   3.602   2.037 -0.1463 -0.3366  0.6983
   79TCq2    C9 1213   4.286   3.731   2.235  0.2329 -0.4025 -0.4530
   79TCq2    O5 1214   4.410   3.746   2.269 -0.1620 -0.8175  0.0016
   79TCq2    O6 1215   4.190   3.795   2.301 -0.1271  0.0375 -0.3398
   79TCq2    H2 1216   4.430   3.525   2.144  0.2358  2.7089  0.0327
   79TCq2    H3 1217   4.044   3.704   2.145  0.0858  0.7903  0.4287
   79TCq2    H4 1218   4.107   3.331   1.937  4.1257 -2.1206 -0.8159
   80MPD2     C 1219   0.484   3.350  12.513 -0.3177  0.5884 -0.3718
   80MPD2    C1 1220   0.375   3.367  12.430 -0.9104 -0.2081 -0.6643
   80MPD2    C2 1221   0.270   3.447  12.467 -0.4534 -0.0002 -0.2210
   80MPD2    C3 1222   0.276   3.518  12.590 -0.2530 -1.2138  0.0454
   80MPD2    C4 1223   0.384   3.504  12.666 -0.1145  0.1481  0.8026
   80MPD2    C5 1224   0.488   3.436  12.619  0.1290 -0.0351 -0.1320
   80MPD2     H 1225   0.178   3.456  12.410  0.6005 -0.1213 -1.9232
   80MPD2    H1 1226   0.389   3.566  12.755  1.2906 -0.6650  1.2863
   80MPD2    H2 1227   0.563   3.277  12.499 -1.0859  0.0270 -1.6912
   80MPD2    H3 1228   0.578   3.438  12.679  0.1718  1.2084 -0.2432
   80MPD2     N 1229   0.167   3.597  12.642 -0.6225  0.2105  0.8528
   80MPD2    H5 1230   0.190   3.650  12.726 -0.3974  0.9016  0.3569
   80MPD2    N1 1231   0.362   3.294  12.309  0.1183  0.3446  0.2740
   80MPD2    H7 1232   0.266   3.285  12.278 -0.0105 -0.8986  1.0412
   81TCq2    C1 1233   0.468   3.246  12.231 -0.2108 -0.0813 -0.1921
   81TCq2    O2 1234   0.585   3.248  12.265  0.6222 -0.3598 -0.3246
   81TCq2    C2 1235   0.437   3.163  12.117  0.4281 -0.4704  0.1927
   81TCq2    C3 1236   0.537   3.112  12.048  0.7151  0.6110  0.4456
   81TCq2    C4 1237   0.523   3.004  11.966 -0.2819 -0.3167 -0.2108
   81TCq2    C5 1238   0.400   2.963  11.942  0.0325 -0.2072  0.2279
   81TCq2    C6 1239   0.294   3.006  12.021  0.3652 -0.1394 -0.5621
   81TCq2    C7 1240   0.312   3.104  12.108 -0.4364 -1.0275  0.4324
   81TCq2    C8 1241   0.163   2.974  11.967  0.2175  0.5969  0.6495
   81TCq2    O4 1242   0.162   2.918  11.859  0.3499 -0.2888 -0.5426
   81TCq2    C9 1243   0.639   2.953  11.898 -0.2733  0.8177 -1.0524
   81TCq2    O5 1244   0.627   2.842  11.839  0.1796 -0.3735  0.1310
   81TCq2    O6 1245   0.754   2.982  11.939  0.5252 -0.2205 -0.1966
   81TCq2    H2 1246   0.636   3.152  12.069  0.9804  0.1873  0.0088
   81TCq2    H3 1247   0.391   2.886  11.866  1.0182  1.6645 -1.7806
   81TCq2    H4 1248   0.230   3.131  12.174 -0.2004 -0.3214  0.4355
   82MPD2     C 1249   3.018   2.966  10.469  0.6875 -0.0550  0.2702
   82MPD2    C1 1250   2.958   2.838  10.452  0.1990  0.4680 -0.3514
   82MPD2    C2 1251   3.003   2.736  10.538 -0.3198  0.0771 -0.3227
   82MPD2    C3 1252   3.100   2.762  10.635 -0.1606 -0.0101 -0.6826
   82MPD2    C4 1253   3.150   2.888  10.647  0.2877 -1.1835  0.3090
   82MPD2    C5 1254   3.109   2.987  10.570  0.0858  0.4730 -0.1190
   82MPD2     H 1255   2.969   2.634  10.529  0.9494 -0.3294 -0.5751
   82MPD2    H1 1256   3.227   2.912  10.719  1.9448  0.4610 -2.0379
   82MPD2    H2 1257   2.994   3.047  10.401 -0.9452  0.6344  1.6581
   82MPD2    H3 1258   3.151   3.086  10.581 -2.0190  1.5160 -1.4475
   82MPD2     N 1259   3.142   2.667  10.727 -0.6555  0.3089 -0.0300
   82MPD2    H5 1260   3.225   2.692  10.779 -0.5179 -1.1941  0.4628
   82MPD2    N1 1261   2.859   2.823  10.351  0.0631  0.1431  0.7693
   82MPD2    H7 1262   2.840   2.909  10.301 -1.2876 -1.2779 -1.1174
   83TCq2    C1 1263   3.095   2.540  10.751  0.3835  0.2065 -0.5886
   83TCq2    O2 1264   2.983   2.495  10.732  0.6545  0.1052 -0.5005
   83TCq2    C2 1265   3.182   2.468  10.844 -0.0213  0.1602 -0.0585
   83TCq2    C3 1266   3.304   2.524  10.865 -0.5587  0.8645 -0.8844
   83TCq2    C4 1267   3.360   2.522  10.990 -0.0010 -0.3584 -0.0337
   83TCq2    C5 1268   3.306   2.428  11.081  0.2057  0.0956  0.2129
   83TCq2    C6 1269   3.189   2.360  11.047 -1.1150 -0.1468 -0.8897
   83TCq2    C7 1270   3.123   2.377  10.929  0.3578 -0.3959  0.4026
   83TCq2    C8 1271   3.134   2.260  11.130  0.1241  0.8984 -0.3777
   83TCq2    O4 1272   3.150   2.275  11.250 -0.2778  0.1168 -0.1857
   83TCq2    C9 1273   3.486   2.574  11.009  0.8689  0.0613  0.3547
   83TCq2    O5 1274   3.523   2.568  11.129 -0.2572  0.2555 -0.4865
   83TCq2    O6 1275   3.546   2.589  10.901  0.1465 -0.5972 -0.5306
   83TCq2    H2 1276   3.353   2.595  10.799  0.8424  1.2622  0.5993
   83TCq2    H3 1277   3.349   2.412  11.179 -2.2288 -1.7054  1.0094
   83TCq2    H4 1278   3.025   2.339  10.904  0.5690  0.4752 -1.7594
   84TCq2    C1 1279   0.248   0.821  10.887  0.2186  0.6397 -0.2799
   84TCq2    O2 1280   0.252   0.934  10.840 -0.1293  0.1542 -0.5326
   84TCq2    C2 1281   0.182   0.803  11.016 -0.0289 -0.0880 -0.6157
   84TCq2    C3 1282   0.159   0.672  11.057  0.3419  0.1416  0.0020
   84TCq2    C4 1283   0.060   0.652  11.151 -0.7884  0.6397  0.1205
   84TCq2    C5 1284   4.701   0.755  11.193  0.3224 -0.5626 -0.2454
   84TCq2    C6 1285   0.004   0.879  11.151 -0.4953  0.0057  0.1760
   84TCq2    C7 1286   0.115   0.910  11.075  0.2109 -0.1757 -0.1486
   84TCq2    C8 1287   4.658   0.980  11.231  0.4942 -0.0660 -0.3278
   84TCq2    O4 1288   4.564   0.946  11.297  0.0594 -0.4436 -0.4144
   84TCq2    C9 1289   0.043   0.522  11.208 -0.9768  0.3167  0.1573
   84TCq2    O5 1290   4.709   0.517  11.318 -0.4720  0.4711  0.1303
   84TCq2    O6 1291   0.134   0.437  11.180 -0.3042 -0.1014 -0.4856
   84TCq2    H2 1292   0.231   0.593  11.042 -0.6014 -1.0247  1.6352
   84TCq2    H3 1293   4.621   0.724  11.260 -0.4824  0.2640 -0.8188
   84TCq2    H4 1294   0.145   1.012  11.057  0.5769 -0.1971  0.3305
   85MPD2     C 1295   4.307   4.724  16.431  0.0046 -0.7434 -0.3240
   85MPD2    C1 1296   4.448   4.716  16.430  0.0778 -0.0916 -0.4977
   85MPD2    C2 1297   4.525   0.087  16.369  0.4861  0.1701  0.4281
   85MPD2    C3 1298   4.459   0.188  16.309 -0.6722  0.5679 -0.2981
   85MPD2    C4 1299   4.321   0.197  16.308 -0.1106 -0.2476 -0.5452
   85MPD2    C5 1300   4.243   0.105  16.370 -0.0620  0.3926  0.2768
   85MPD2     H 1301   4.633   0.077  16.362  0.4828  0.9408 -0.7407
   85MPD2    H1 1302   4.272   0.282  16.262  4.5653  1.8412 -1.5889
   85MPD2    H2 1303   4.243   4.653  16.481 -0.0792 -1.0975 -0.9360
   85MPD2    H3 1304   4.136   0.117  16.365 -0.2188 -1.2000  0.0330
   85MPD2     N 1305   4.540   0.279  16.236 -0.9714  0.4293 -0.5531
   85MPD2    H5 1306   4.640   0.266  16.243 -1.2067  0.0473  2.1213
   85MPD2    N1 1307   4.515   4.610  16.475  0.2554  1.0225 -0.6299
   85MPD2    H7 1308   4.615   4.607  16.457  0.0627 -0.7460 -1.3894
   86TCq2    C1 1309   4.509   0.396  16.166  0.6275  0.0146 -0.6861
   86TCq2    O2 1310   4.399   0.448  16.156  0.1744  0.3968  0.5941
   86TCq2    C2 1311   4.621   0.450  16.094 -0.1725 -0.3396 -0.3684
   86TCq2    C3 1312   4.597   0.575  16.034  0.2412 -0.3767 -0.7122
   86TCq2    C4 1313   4.686   0.623  15.940  0.4387 -0.3531  0.1686
   86TCq2    C5 1314   0.069   0.546  15.905 -1.1902 -0.8446  0.0645
   86TCq2    C6 1315   0.084   0.424  15.961 -0.0875 -0.4910 -0.1137
   86TCq2    C7 1316   0.002   0.375  16.059 -0.2625 -0.1821 -1.0586
   86TCq2    C8 1317   0.180   0.339  15.907  0.4418 -0.4403  0.1441
   86TCq2    O4 1318   0.249   0.266  15.983  0.1190  0.3700 -0.1670
   86TCq2    C9 1319   4.667   0.740  15.867 -0.7449 -0.4460  0.3362
   86TCq2    O5 1320   0.031   0.756  15.780  0.2998 -0.7003  0.0477
   86TCq2    O6 1321   4.572   0.822  15.895 -0.0362 -0.2940  0.6687
   86TCq2    H2 1322   4.507   0.630  16.058  1.3527  0.8148  0.6950
   86TCq2    H3 1323   0.143   0.581  15.834  0.0059 -2.6038  0.4404
   86TCq2    H4 1324   0.027   0.276  16.094 -2.0523 -0.8843 -1.7193
   87MPD2     C 1325   2.563   4.191   2.392 -0.7208  0.0362 -0.3209
   87MPD2    C1 1326   2.602   4.184   2.261 -0.6569  0.1146 -0.2611
   87MPD2    C2 1327   2.614   4.299   2.180 -0.3604 -0.5196 -0.4146
   87MPD2    C3 1328   2.616   4.422   2.242 -0.1484  0.2090  0.6255
   87MPD2    C4 1329   2.595   4.428   2.375  0.2727  0.2703  0.6894
   87MPD2    C5 1330   2.567   4.313   2.449 -0.9296 -1.2666  0.3694
   87MPD2     H 1331   2.643   4.282   2.077  2.6374  0.8053  0.2259
   87MPD2    H1 1332   2.586   4.526   2.421 -1.3431  0.4716 -0.0595
   87MPD2    H2 1333   2.548   4.099   2.448 -2.4744 -1.0216 -2.5547
   87MPD2    H3 1334   2.534   4.340   2.549  0.4677  2.3388 -0.1498
   87MPD2     N 1335   2.612   4.545   2.175  0.1192 -0.0110 -0.1559
   87MPD2    H5 1336   2.570   4.625   2.221  1.6763  1.1255 -0.7540
   87MPD2    N1 1337   2.619   4.056   2.223 -0.0272 -0.1722  0.0113
   87MPD2    H7 1338   2.588   3.985   2.289  1.1732 -1.0726 -0.3901
   88TCq2    C1 1339   2.669   4.007   2.108 -0.5457  0.0104 -0.4508
   88TCq2    O2 1340   2.720   4.070   2.018 -0.2841 -0.1058 -0.0703
   88TCq2    C2 1341   2.655   3.869   2.092  0.0248 -0.2042  0.0486
   88TCq2    C3 1342   2.644   3.786   2.203 -0.5349 -0.2235  0.1916
   88TCq2    C4 1343   2.643   3.650   2.172  0.2285  0.0725 -0.3916
   88TCq2    C5 1344   2.652   3.600   2.049 -0.0097  0.1738 -0.1942
   88TCq2    C6 1345   2.652   3.694   1.946 -0.4586  0.3873 -0.4350
   88TCq2    C7 1346   2.661   3.825   1.962 -0.1131 -0.0834 -0.4442
   88TCq2    C8 1347   2.634   3.637   1.815  0.5539  0.2177  0.9518
   88TCq2    O4 1348   2.691   3.697   1.724  0.4966  0.3825 -0.2824
   88TCq2    C9 1349   2.635   3.554   2.280 -0.6032  0.1838 -0.2481
   88TCq2    O5 1350   2.596   3.595   2.394 -0.1641  0.0052 -0.2687
   88TCq2    O6 1351   2.660   3.433   2.255 -0.4612 -0.1277 -0.0829
   88TCq2    H2 1352   2.630   3.814   2.307  0.8188 -1.1322  0.6194
   88TCq2    H3 1353   2.652   3.494   2.028 -1.6418  0.3131 -0.9041
   88TCq2    H4 1354   2.656   3.893   1.878  2.6987 -0.4086 -0.8699
   89MPD2     C 1355   3.112   0.945   1.846 -0.8226  0.1769  0.0311
   89MPD2    C1 1356   3.030   1.048   1.890  0.5162  0.7143  0.2941
   89MPD2    C2 1357   3.060   1.177   1.872  0.1068 -0.0093  0.1533
   89MPD2    C3 1358   3.190   1.209   1.836 -0.7577 -0.7294 -0.2829
   89MPD2    C4 1359   3.286   1.115   1.794  0.5635 -0.1173  0.4286
   89MPD2    C5 1360   3.238   0.979   1.790  0.3758 -0.1987 -0.0214
   89MPD2     H 1361   2.988   1.257   1.883  1.0478  0.7583  0.7602
   89MPD2    H1 1362   3.380   1.139   1.746  1.0557 -3.1311 -0.1168
   89MPD2    H2 1363   3.085   0.840   1.858 -1.1545  0.3829  1.1148
   89MPD2    H3 1364   3.295   0.893   1.757 -2.4651 -1.7560 -0.9119
   89MPD2     N 1365   3.217   1.349   1.836 -0.4073 -0.3734  0.4813
   89MPD2    H5 1366   3.135   1.406   1.856 -1.0773 -0.6974 -1.3147
   89MPD2    N1 1367   2.903   1.010   1.943  0.4698 -0.1028 -0.0912
   89MPD2    H7 1368   2.887   0.910   1.947 -1.9758  0.3604  1.3963
   90TCq2    C1 1369   3.341   1.409   1.823 -0.2673 -0.4604  0.4848
   90TCq2    O2 1370   3.447   1.352   1.832 -0.0927  0.0465 -0.3448
   90TCq2    C2 1371   3.339   1.548   1.807  0.4499  0.2029 -0.4892
   90TCq2    C3 1372   3.465   1.607   1.808  0.3376 -0.6173 -0.2176
   90TCq2    C4 1373   3.465   1.739   1.774  0.2144 -0.0487  0.0976
   90TCq2    C5 1374   3.351   1.810   1.739  0.1040 -0.0177  0.0153
   90TCq2    C6 1375   3.235   1.742   1.724  0.2754  0.3714 -0.5565
   90TCq2    C7 1376   3.228   1.612   1.756  0.1521 -0.2479 -0.1268
   90TCq2    C8 1377   3.119   1.794   1.651  0.4587 -0.6064  0.4322
   90TCq2    O4 1378   3.005   1.754   1.679 -0.4753 -0.1265 -0.3290
   90TCq2    C9 1379   3.584   1.811   1.790  0.5984 -0.0966  0.4508
   90TCq2    O5 1380   3.599   1.925   1.740 -0.2692 -0.1276  0.0393
   90TCq2    O6 1381   3.681   1.741   1.828  0.3806  0.5785 -0.2331
   90TCq2    H2 1382   3.551   1.559   1.854  0.0133 -0.9042  0.0905
   90TCq2    H3 1383   3.347   1.918   1.726  0.2162  0.2354  2.0997
   90TCq2    H4 1384   3.130   1.566   1.769 -0.1597  0.5148  0.2256
   91TMC2    C1 1385   4.629   0.898  16.801  0.7134  0.5209 -0.0510
   91TMC2    C2 1386   4.630   1.022  16.742 -0.4353  0.4567 -0.6498
   91TMC2    C3 1387   4.506   1.082  16.712  0.0601 -0.1875 -0.8516
   91TMC2    C4 1388   4.510   0.838  16.833 -0.2977 -0.3699  0.0185
   91TMC2    C5 1389   4.393   0.904  16.793 -0.3484  0.1181 -0.4676
   91TMC2    C6 1390   4.386   1.021  16.725 -0.3355 -0.0465 -0.3409
   91TMC2     C 1391   0.026   0.827  16.828 -0.6442 -0.2211 -0.5517
   91TMC2     O 1392   0.026   0.773  16.936 -0.3039 -0.4030  0.6504
   91TMC2     H 1393   4.720   1.079  16.723 -0.0250 -0.2792 -0.9219
   91TMC2    H1 1394   4.510   0.748  16.893  0.9561  1.7055  3.1048
   91TMC2    H2 1395   4.292   1.075  16.725 -0.8706 -0.9645  0.7652
   91TMC2    C7 1396   4.274   0.829  16.826 -1.0111 -0.5938  0.0549
   91TMC2    C8 1397   4.496   1.209  16.651  0.4391  0.0077  0.3819
   91TMC2    O1 1398   4.273   0.734  16.904  0.0591 -0.3771  0.3902
   91TMC2    O2 1399   4.400   1.283  16.666  0.1685 -0.2439  0.0085
   91TMC2    O5 1400   4.579   1.212  16.543 -0.1064 -0.4771 -0.1458
   91TMC2    H5 1401   4.642   1.138  16.527  0.2468  0.0447 -1.1885
   92MPD2     C 1402   0.294   0.706  16.810  0.9994  0.6340  0.5738
   92MPD2    C1 1403   0.260   0.822  16.747 -0.0556 -0.7586  0.0608
   92MPD2    C2 1404   0.358   0.894  16.678  0.1256 -0.3834 -0.7460
   92MPD2    C3 1405   0.492   0.863  16.698 -0.7268 -0.6262  0.9497
   92MPD2    C4 1406   0.526   0.750  16.770 -0.6635 -0.1954  0.2947
   92MPD2    C5 1407   0.426   0.672  16.821 -0.3431  0.3329 -0.3201
   92MPD2     H 1408   0.323   0.977  16.619 -0.3545 -1.1400 -1.5221
   92MPD2    H1 1409   0.630   0.733  16.796 -0.5411  0.3556  0.1766
   92MPD2    H2 1410   0.221   0.645  16.862 -0.7116 -0.7413 -3.4780
   92MPD2    H3 1411   0.456   0.584  16.876 -1.9193 -1.0625 -1.7273
   92MPD2     N 1412   0.588   0.943  16.630 -0.0553 -0.2284  0.5083
   92MPD2    H5 1413   0.555   1.017  16.569 -0.1762  0.8766  1.9119
   92MPD2    N1 1414   0.124   0.863  16.738  0.1768 -0.0527 -0.1233
   92MPD2    H7 1415   0.098   0.909  16.652  0.4638 -1.8703 -1.1905
   93MPD2     C 1416   1.256   1.705  14.174 -0.7019  0.2469 -0.6113
   93MPD2    C1 1417   1.217   1.585  14.114 -0.4396 -0.1780  0.9026
   93MPD2    C2 1418   1.088   1.541  14.139 -0.0021  0.3083  0.5298
   93MPD2    C3 1419   0.998   1.617  14.220  0.3674 -0.1730 -0.0132
   93MPD2    C4 1420   1.041   1.742  14.265  0.4352 -0.0050 -0.6256
   93MPD2    C5 1421   1.174   1.780  14.247 -0.4022 -0.0389  0.3157
   93MPD2     H 1422   1.053   1.446  14.103  0.5013  0.8455 -1.3579
   93MPD2    H1 1423   0.987   1.814  14.325  0.0408 -0.0315 -0.9494
   93MPD2    H2 1424   1.362   1.728  14.162 -0.5518 -0.2463 -0.2070
   93MPD2    H3 1425   1.199   1.882  14.275  0.2908  0.3019 -1.5454
   93MPD2     N 1426   0.863   1.584  14.229  0.4962 -0.1588  0.2622
   93MPD2    H5 1427   0.799   1.661  14.248 -1.3532 -1.5837 -0.2269
   93MPD2    N1 1428   1.292   1.518  14.016 -0.3425  0.0380  0.1064
   93MPD2    H7 1429   1.253   1.427  13.992 -0.2089  0.6326 -2.3346
   94TCq2    C1 1430   1.422   1.550  13.979  0.7473 -0.2477  0.3889
   94TCq2    O2 1431   1.501   1.621  14.031 -0.2173  0.4169  0.0606
   94TCq2    C2 1432   1.485   1.447  13.886  0.4528 -0.3842 -0.5296
   94TCq2    C3 1433   1.417   1.391  13.787 -0.2030 -0.1522 -0.3976
   94TCq2    C4 1434   1.477   1.305  13.700  0.6118  0.3038 -0.0978
   94TCq2    C5 1435   1.615   1.295  13.688  0.8928  0.3861 -0.2002
   94TCq2    C6 1436   1.683   1.360  13.788  0.2104  1.0019  0.4596
   94TCq2    C7 1437   1.626   1.440  13.887 -0.0692  0.4058  0.3924
   94TCq2    C8 1438   1.828   1.345  13.799  0.4175  0.0890  0.0992
   94TCq2    O4 1439   1.871   1.243  13.750  0.2808  0.5078  0.4507
   94TCq2    C9 1440   1.389   1.238  13.605  0.2164 -0.6389  0.1608
   94TCq2    O5 1441   1.452   1.168  13.521 -0.2168 -0.2211  0.3417
   94TCq2    O6 1442   1.265   1.265  13.599  0.1160  0.2608 -0.5355
   94TCq2    H2 1443   1.310   1.406  13.777 -0.0389  1.7290  0.7126
   94TCq2    H3 1444   1.662   1.231  13.614 -0.0108  0.3864 -0.7748
   94TCq2    H4 1445   1.680   1.481  13.972  1.6415 -1.0932  0.0199
   95TMC2    C1 1446   2.063   2.178  16.062 -0.2124 -0.8999  0.3030
   95TMC2    C2 1447   2.122   2.091  16.148 -0.0553  0.0789 -0.9412
   95TMC2    C3 1448   2.085   1.964  16.121 -0.5019  0.0501 -0.0861
   95TMC2    C4 1449   1.974   2.153  15.964 -0.1617 -0.1388  0.3161
   95TMC2    C5 1450   1.941   2.019  15.946 -1.0341 -0.1953  0.1962
   95TMC2    C6 1451   1.996   1.923  16.024 -0.0468 -0.1828 -0.1446
   95TMC2     C 1452   2.040   2.305  16.124 -0.9867 -0.6219  0.1930
   95TMC2     O 1453   2.055   2.304  16.244  0.8442  0.2617 -0.1071
   95TMC2     H 1454   2.198   2.118  16.220 -1.0127 -0.0128  0.1070
   95TMC2    H1 1455   1.934   2.231  15.901 -0.4101 -0.0658  0.5672
   95TMC2    H2 1456   1.986   1.817  16.002 -1.9366  0.2285 -1.2267
   95TMC2    C7 1457   1.846   1.972  15.850 -0.0338 -0.2850 -0.3467
   95TMC2    C8 1458   2.129   1.859  16.207 -0.0287  0.9437 -0.6660
   95TMC2    O1 1459   1.838   1.852  15.843  0.2796  0.1580  0.2864
   95TMC2    O2 1460   2.174   1.881  16.319  0.7154  0.1146 -0.0339
   95TMC2    O5 1461   2.151   1.749  16.134 -0.5257  0.2803 -0.8768
   95TMC2    H5 1462   2.146   1.757  16.036 -1.3200  0.2197 -0.8387
   96MPD2     C 1463   1.993   2.807  16.167  0.1987  0.2840  0.1156
   96MPD2    C1 1464   2.044   2.778  16.045 -0.0102  0.6187 -0.3020
   96MPD2    C2 1465   2.069   2.649  16.005  0.4788  0.2389 -0.1422
   96MPD2    C3 1466   2.038   2.543  16.090 -0.4805  0.8972  0.4599
   96MPD2    C4 1467   1.974   2.568  16.207  0.1665 -0.4617 -0.2174
   96MPD2    C5 1468   1.958   2.699  16.242 -0.1793  0.5229  0.8152
   96MPD2     H 1469   2.104   2.625  15.905  0.8769  1.3545 -0.2667
   96MPD2    H1 1470   1.945   2.504  16.290  0.1922 -0.6521 -0.3561
   96MPD2    H2 1471   1.969   2.904  16.207 -0.4848  0.0981  0.1564
   96MPD2    H3 1472   1.905   2.719  16.334 -3.2764  2.1726 -1.2974
   96MPD2     N 1473   2.043   2.414  16.038 -0.0050  0.2120 -0.0984
   96MPD2    H5 1474   2.048   2.399  15.938  2.4259 -3.2148  0.5476
   96MPD2    N1 1475   2.079   2.887  15.966 -0.9702  0.9668  0.0113
   96MPD2    H7 1476   2.076   2.977  16.012 -2.2218  1.9141 -1.8971
   97MPD2     C 1477   3.781   4.719   1.357 -0.3010  0.6304 -0.3769
   97MPD2    C1 1478   3.721   0.093   1.282  0.1591 -0.6324  0.0335
   97MPD2    C2 1479   3.793   0.151   1.177 -0.7187 -0.5501  0.5326
   97MPD2    C3 1480   3.921   0.104   1.142 -0.3163 -0.4282 -0.0832
   97MPD2    C4 1481   3.970   0.004   1.216  0.0900  0.1323  0.0964
   97MPD2    C5 1482   3.908   4.675   1.322  0.1677  0.2423  0.1128
   97MPD2     H 1483   3.740   0.229   1.122  0.6059  0.7178  1.0574
   97MPD2    H1 1484   4.066   4.688   1.189 -0.1679 -0.3097 -0.1513
   97MPD2    H2 1485   3.740   4.682   1.451  1.6664 -1.4160 -0.3183
   97MPD2    H3 1486   3.959   4.598   1.378  0.3638 -0.3355 -0.8582
   97MPD2     N 1487   3.983   0.156   1.028  0.6224  0.6321 -0.2775
   97MPD2    H5 1488   4.065   0.106   0.996 -0.2207  0.5775 -2.3456
   97MPD2    N1 1489   3.594   0.138   1.329  0.0150  0.0930  0.3440
   97MPD2    H7 1490   3.557   0.096   1.413  0.1597  1.1442  0.9310
   98TCq2    C1 1491   3.955   0.277   0.972  0.1703  0.0481  0.0503
   98TCq2    O2 1492   3.876   0.365   1.003  0.9848  0.1142 -0.0931
   98TCq2    C2 1493   4.053   0.307   0.861  0.8300  0.6114  0.1484
   98TCq2    C3 1494   4.179   0.247   0.846  0.2938 -0.3751  0.9214
   98TCq2    C4 1495   4.261   0.287   0.755 -0.0074 -0.1051  0.1542
   98TCq2    C5 1496   4.237   0.388   0.667 -0.0821  0.0580 -0.0666
   98TCq2    C6 1497   4.123   0.456   0.684 -0.1365 -0.5369  0.7123
   98TCq2    C7 1498   4.026   0.415   0.781 -0.6410  0.5801  0.0464
   98TCq2    C8 1499   4.091   0.569   0.593  0.5148  0.4007  0.2240
   98TCq2    O4 1500   4.190   0.616   0.540 -0.0113  0.0323 -0.0289
   98TCq2    C9 1501   4.390   0.228   0.745 -0.0563 -0.1641 -0.4113
   98TCq2    O5 1502   4.399   0.129   0.821 -0.6352 -0.2846  0.3818
   98TCq2    O6 1503   4.487   0.280   0.685  0.2510 -0.3835 -0.1207
   98TCq2    H2 1504   4.200   0.158   0.905 -0.0948  0.8608  2.9408
   98TCq2    H3 1505   4.309   0.401   0.587  0.5229  1.0008  0.6384
   98TCq2    H4 1506   3.930   0.463   0.799 -0.3132  1.1589  0.2419
   99MPD2     C 1507   2.193   2.842   2.193 -0.2422 -0.2617 -0.4624
   99MPD2    C1 1508   2.068   2.830   2.129  0.6691  0.2273  0.3864
   99MPD2    C2 1509   2.062   2.753   2.015  0.2165  0.0955 -0.4508
   99MPD2    C3 1510   2.175   2.696   1.954 -0.4543 -0.8350  0.5474
   99MPD2    C4 1511   2.292   2.693   2.028 -0.8330  1.0583 -0.3875
   99MPD2    C5 1512   2.298   2.764   2.143  0.8808 -0.7501 -0.6564
   99MPD2     H 1513   1.964   2.746   1.969  0.4256 -0.4193 -0.8145
   99MPD2    H1 1514   2.383   2.641   2.000 -1.9096 -0.3935 -1.1797
   99MPD2    H2 1515   2.213   2.895   2.285 -0.3729 -1.0056  0.0024
   99MPD2    H3 1516   2.397   2.776   2.184 -0.5829 -0.0975  2.7600
   99MPD2     N 1517   2.151   2.634   1.832 -0.2025  0.4486 -0.3962
   99MPD2    H5 1518   2.054   2.630   1.802 -0.1509  1.4770 -0.6990
   99MPD2    N1 1519   1.942   2.881   2.188 -0.3154 -0.4399 -0.5347
   99MPD2    H7 1520   1.859   2.863   2.132  0.7908  0.3426 -2.4474
  100TCq2    C1 1521   1.929   2.942   2.311  0.0384 -0.2288 -0.2423
  100TCq2    O2 1522   2.009   2.971   2.399 -0.4043 -0.1077 -0.2738
  100TCq2    C2 1523   1.795   3.005   2.324  0.0316 -0.0091 -0.2347
  100TCq2    C3 1524   1.750   3.048   2.442  0.4468  0.2320  0.1155
  100TCq2    C4 1525   1.638   3.124   2.462 -0.1298  0.1096  0.1958
  100TCq2    C5 1526   1.579   3.175   2.347 -0.5480  0.6249 -0.7669
  100TCq2    C6 1527   1.623   3.134   2.225 -0.1059  0.3801  0.3109
  100TCq2    C7 1528   1.724   3.039   2.211 -0.7700  0.3642 -0.3519
  100TCq2    C8 1529   1.543   3.166   2.111 -0.1661 -0.2956 -0.3515
  100TCq2    O4 1530   1.502   3.279   2.114 -0.1007 -0.5869  0.0473
  100TCq2    C9 1531   1.602   3.181   2.589  0.1095 -0.2429  0.0997
  100TCq2    O5 1532   1.494   3.245   2.599 -1.0982  0.2625  0.7687
  100TCq2    O6 1533   1.673   3.155   2.691  0.7151  0.6323 -0.7544
  100TCq2    H2 1534   1.810   3.023   2.528 -2.7044 -0.7282  2.0428
  100TCq2    H3 1535   1.513   3.260   2.359 -1.2436 -0.1874  1.2559
  100TCq2    H4 1536   1.779   3.052   2.119  1.2261  0.4285  0.8278
  101MPD2     C 1537   3.526   3.278  13.117 -0.5025 -1.1328 -0.1124
  101MPD2    C1 1538   3.417   3.369  13.098  0.4090  0.3573  0.3876
  101MPD2    C2 1539   3.295   3.321  13.138  0.3831 -0.5684  0.0572
  101MPD2    C3 1540   3.271   3.194  13.193 -0.0544 -0.8904  0.0565
  101MPD2    C4 1541   3.375   3.099  13.192  0.5804 -0.0332  0.9430
  101MPD2    C5 1542   3.500   3.146  13.155 -0.0735 -0.5035 -0.3501
  101MPD2     H 1543   3.210   3.388  13.150  0.9821  0.2864 -0.4538
  101MPD2    H1 1544   3.366   3.003  13.240  1.5500 -0.4615  0.2739
  101MPD2    H2 1545   3.628   3.309  13.094 -0.6346 -1.9987 -1.8903
  101MPD2    H3 1546   3.572   3.066  13.153 -1.0233 -1.3406 -0.6509
  101MPD2     N 1547   3.149   3.168  13.255 -0.2945 -0.0031 -0.1914
  101MPD2    H5 1548   3.084   3.245  13.246  0.4396  0.4597 -1.6098
  101MPD2    N1 1549   3.439   3.496  13.054 -0.1244  0.0530  0.2306
  101MPD2    H7 1550   3.533   3.519  13.023  0.8785 -1.3184  2.2425
  102TCq2    C1 1551   3.678   3.872  12.821 -0.4149  0.1983 -0.5796
  102TCq2    O2 1552   3.770   3.941  12.854 -0.6971 -0.0874  0.5333
  102TCq2    C2 1553   3.575   3.852  12.918  0.1217  0.7401  0.9900
  102TCq2    C3 1554   3.529   3.959  12.989  0.0617 -0.2291  0.0177
  102TCq2    C4 1555   3.412   3.953  13.063  0.1808  0.3566 -0.3475
  102TCq2    C5 1556   3.343   3.837  13.070 -0.3742 -0.2665 -0.4746
  102TCq2    C6 1557   3.398   3.728  13.009 -0.4159  0.8716  0.7758
  102TCq2    C7 1558   3.515   3.734  12.936  0.0947  0.7701  0.3293
  102TCq2    C8 1559   3.348   3.597  13.058  0.4683 -0.4700  0.2799
  102TCq2    O4 1560   3.236   3.594  13.113  0.2416  0.1576 -0.0829
  102TCq2    C9 1561   3.366   4.063  13.135 -0.7394 -0.2824 -0.2153
  102TCq2    O5 1562   3.409   4.172  13.094 -0.3895  0.3088  0.2830
  102TCq2    O6 1563   3.286   4.050  13.235  0.0652 -0.2122 -0.1187
  102TCq2    H2 1564   3.576   4.057  12.989 -2.4628  0.9809  0.2353
  102TCq2    H3 1565   3.252   3.828  13.128 -0.8674  0.6861 -1.1027
  102TCq2    H4 1566   3.557   3.648  12.883  1.1185  0.5001  1.5658
  103TMC2    C1 1567   1.760   3.283  12.875 -0.1817  0.1765  0.1834
  103TMC2    C2 1568   1.884   3.226  12.902  0.0985  0.4641  0.1275
  103TMC2    C3 1569   1.891   3.180  13.033 -0.4506 -0.5245  0.5302
  103TMC2    C4 1570   1.666   3.299  12.975  0.1956  0.1369  0.4782
  103TMC2    C5 1571   1.679   3.241  13.099 -0.2190  0.5197 -0.1703
  103TMC2    C6 1572   1.789   3.168  13.126 -0.1049  0.0226 -0.3422
  103TMC2     C 1573   1.713   3.304  12.739 -0.2300 -0.2410  0.1551
  103TMC2     O 1574   1.595   3.339  12.727  0.0250 -0.2902 -0.2850
  103TMC2     H 1575   1.967   3.218  12.833 -0.6701 -1.0479 -0.6318
  103TMC2    H1 1576   1.572   3.342  12.945  0.9447  0.2300 -1.7169
  103TMC2    H2 1577   1.796   3.108  13.216 -1.2269 -2.2374 -1.7475
  103TMC2    C7 1578   1.620   3.298  13.214  0.2290  0.3210 -0.2542
  103TMC2    C8 1579   2.015   3.108  13.069 -0.6444  0.0252 -0.1012
  103TMC2    O1 1580   1.628   3.237  13.318  0.0157  0.1672 -0.0313
  103TMC2    O2 1581   2.075   3.033  12.993 -0.3043  0.0767  0.3683
  103TMC2    O5 1582   2.055   3.133  13.193 -0.3524  0.3740  0.2108
  103TMC2    H5 1583   1.993   3.187  13.247 -2.3967 -2.0706  0.3281
  104MPD2     C 1584   1.932   3.292  12.425 -0.7378 -0.1762  0.5251
  104MPD2    C1 1585   1.812   3.311  12.507 -0.1362 -0.1836 -0.2718
  104MPD2    C2 1586   1.706   3.364  12.439  0.5606 -0.1867 -0.7703
  104MPD2    C3 1587   1.702   3.397  12.303  0.0863 -0.5878 -0.5434
  104MPD2    C4 1588   1.816   3.372  12.232  0.1076 -0.0697 -0.1927
  104MPD2    C5 1589   1.930   3.325  12.288 -0.1989 -0.5533  0.3416
  104MPD2     H 1590   1.619   3.388  12.499  0.8938  2.5689 -1.3818
  104MPD2    H1 1591   1.817   3.392  12.126 -3.6079 -2.4551 -0.6517
  104MPD2    H2 1592   2.021   3.251  12.471  0.5765  1.8814 -0.1778
  104MPD2    H3 1593   2.024   3.312  12.235 -0.1407 -1.8366  0.7596
  104MPD2     N 1594   1.581   3.444  12.243  0.6811 -0.0677 -0.0002
  104MPD2    H5 1595   1.501   3.460  12.304  0.7670 -2.2688  0.7275
  104MPD2    N1 1596   1.811   3.274  12.646 -0.1954 -0.2839 -0.1472
  104MPD2    H7 1597   1.898   3.230  12.672  0.7789  1.7829  0.1270
  105MPD2     C 1598   2.847   2.973   0.537  0.5828  0.2476 -0.0213
  105MPD2    C1 1599   2.885   3.098   0.496  0.4582 -1.0815 -0.9646
  105MPD2    C2 1600   2.851   3.204   0.582 -0.7647  0.5067 -0.5741
  105MPD2    C3 1601   2.779   3.177   0.696  0.2260  0.3847  0.5631
  105MPD2    C4 1602   2.744   3.049   0.744 -0.2030 -0.4876  0.0362
  105MPD2    C5 1603   2.784   2.953   0.656 -0.7557 -0.3097  0.4378
  105MPD2     H 1604   2.884   3.304   0.556 -2.2825  1.3197  0.5935
  105MPD2    H1 1605   2.698   3.032   0.841  0.2942  0.6796  0.4759
  105MPD2    H2 1606   2.886   2.885   0.487  3.2389  1.2253  0.3459
  105MPD2    H3 1607   2.753   2.853   0.684 -0.1987 -1.2348 -2.2456
  105MPD2     N 1608   2.739   3.293   0.773  0.5056  0.5092  0.0784
  105MPD2    H5 1609   2.776   3.382   0.743  2.0176 -0.2843 -0.4470
  105MPD2    N1 1610   2.943   3.119   0.369  0.0606  0.4929 -0.1079
  105MPD2    H7 1611   2.966   3.215   0.345  2.5940  0.3405  1.6745
  106TCq2    C1 1612   2.637   3.285   0.862 -0.7629  0.0690  0.2962
  106TCq2    O2 1613   2.545   3.203   0.871 -0.3919 -0.5679  0.1046
  106TCq2    C2 1614   2.627   3.407   0.938  0.2797 -0.0429  0.2443
  106TCq2    C3 1615   2.725   3.503   0.944 -0.6070 -0.5346  0.3680
  106TCq2    C4 1616   2.694   3.614   1.026 -0.1754 -0.3503 -0.1569
  106TCq2    C5 1617   2.582   3.634   1.097  0.0845 -0.2987 -0.3363
  106TCq2    C6 1618   2.491   3.535   1.093 -0.0241 -0.5515 -0.2256
  106TCq2    C7 1619   2.507   3.423   1.008  0.9905 -0.1047  0.1992
  106TCq2    C8 1620   2.408   3.509   1.209  0.0439  0.7806  0.9239
  106TCq2    O4 1621   2.301   3.455   1.188 -0.1868  0.5436 -0.1965
  106TCq2    C9 1622   2.804   3.717   1.021  0.5453 -0.3141  0.3828
  106TCq2    O5 1623   2.758   3.832   1.043 -0.2222 -0.1452  0.5238
  106TCq2    O6 1624   2.910   3.685   0.960 -0.0973 -1.2187  0.1892
  106TCq2    H2 1625   2.812   3.501   0.880 -0.4137  0.9169  0.5751
  106TCq2    H3 1626   2.574   3.720   1.163  0.3301 -0.9653  0.5644
  106TCq2    H4 1627   2.436   3.342   1.007  0.0186  0.7095  1.9063
  107TMC2    C1 1628   4.278   1.527  11.920 -0.2873  0.2945  0.6795
  107TMC2    C2 1629   4.268   1.399  11.966 -0.5500 -0.3414  0.8867
  107TMC2    C3 1630   4.352   1.308  11.909 -0.0424  0.3520  0.0680
  107TMC2    C4 1631   4.356   1.556  11.809  0.0975 -0.0563 -0.4569
  107TMC2    C5 1632   4.414   1.452  11.739 -0.7447  0.4918  0.1424
  107TMC2    C6 1633   4.414   1.324  11.788 -0.2812  1.1545  0.1033
  107TMC2     C 1634   4.173   1.624  11.953 -0.3361  0.3950  0.8920
  107TMC2     O 1635   4.111   1.605  12.059 -0.2599 -0.1917  0.2347
  107TMC2     H 1636   4.219   1.378  12.061  0.5761 -0.8967  1.3515
  107TMC2    H1 1637   4.366   1.657  11.773  1.7550  0.5908  1.8277
  107TMC2    H2 1638   4.451   1.237  11.736 -1.7467  0.8502 -0.4414
  107TMC2    C7 1639   4.474   1.473  11.608 -0.5616 -0.9173  0.4200
  107TMC2    C8 1640   4.352   1.177  11.965 -0.5481 -0.1056 -0.5124
  107TMC2    O1 1641   4.454   1.590  11.568  0.2273  0.1484  0.0942
  107TMC2    O2 1642   4.267   1.143  12.040 -0.1472  0.3345  0.2801
  107TMC2    O5 1643   4.475   1.119  11.955  0.0797 -0.1002 -0.1008
  107TMC2    H5 1644   4.534   1.177  11.903  0.2054 -0.5788 -0.4904
  108MPD2     C 1645   3.976   1.828  11.714  0.0630 -0.1061 -0.7917
  108MPD2    C1 1646   4.023   1.789  11.839 -0.5012  0.3027  0.1552
  108MPD2    C2 1647   3.951   1.831  11.956 -0.2865  0.5071  0.1111
  108MPD2    C3 1648   3.830   1.907  11.940  0.0575  0.5501  0.1585
  108MPD2    C4 1649   3.799   1.958  11.816  0.5262  0.6221 -0.0471
  108MPD2    C5 1650   3.874   1.914  11.708 -0.0216 -0.1465  0.3137
  108MPD2     H 1651   3.960   1.791  12.057 -0.8422 -0.4300 -0.2146
  108MPD2    H1 1652   3.714   2.022  11.797  0.2339  0.6847  1.4541
  108MPD2    H2 1653   4.024   1.795  11.623 -0.5859 -0.7127 -0.9146
  108MPD2    H3 1654   3.837   1.938  11.609 -2.3787 -1.0047  1.0054
  108MPD2     N 1655   3.740   1.941  12.044 -0.7859 -0.5681  0.1655
  108MPD2    H5 1656   3.660   1.995  12.010 -0.4715  0.7749  1.5875
  108MPD2    N1 1657   4.138   1.701  11.844 -0.7302 -0.0184 -0.3012
  108MPD2    H7 1658   4.187   1.688  11.757 -1.7557 -1.9660 -0.5957
  109MPD2     C 1659   2.963   3.791   2.326 -0.5039  0.4167  0.7852
  109MPD2    C1 1660   2.979   3.855   2.209  0.8474  0.2692  0.4320
  109MPD2    C2 1661   2.968   3.993   2.202 -0.5132  0.4349 -0.2215
  109MPD2    C3 1662   2.956   4.071   2.319 -0.1179 -0.0724  0.3842
  109MPD2    C4 1663   2.926   4.004   2.436 -0.4370  0.2090  0.1574
  109MPD2    C5 1664   2.940   3.864   2.442  0.0293  0.2853  0.0713
  109MPD2     H 1665   2.981   4.043   2.107  0.9713 -1.9713 -1.2944
  109MPD2    H1 1666   2.897   4.057   2.526  1.3163  0.7228  0.4190
  109MPD2    H2 1667   2.958   3.683   2.328  0.5852  0.3872  1.6349
  109MPD2    H3 1668   2.904   3.816   2.533 -3.1034  0.4032 -1.0997
  109MPD2     N 1669   2.968   4.210   2.305  0.1941  0.3684 -0.7123
  109MPD2    H5 1670   2.968   4.251   2.212  0.4687  1.3592 -0.2848
  109MPD2    N1 1671   3.002   3.786   2.083  0.5847  0.1471  1.0212
  109MPD2    H7 1672   3.016   3.855   2.011 -0.1891 -0.1386  0.5953
  110TCq2    C1 1673   2.967   4.304   2.403 -0.1141  0.0962  0.3607
  110TCq2    O2 1674   2.945   4.283   2.522  0.6060 -0.0637 -0.5839
  110TCq2    C2 1675   2.976   4.443   2.359 -0.5560  0.1651 -0.1102
  110TCq2    C3 1676   2.908   4.543   2.427  0.2215 -0.4307 -0.3215
  110TCq2    C4 1677   2.904   4.667   2.371  0.5818  0.6996  0.4869
  110TCq2    C5 1678   2.970   4.695   2.256 -0.2308  0.1682  0.3836
  110TCq2    C6 1679   3.015   4.591   2.177  0.1823  0.7135 -0.6234
  110TCq2    C7 1680   3.025   4.462   2.229  0.6434 -0.2440  0.1739
  110TCq2    C8 1681   3.082   4.629   2.056  0.3178  0.7826  0.0928
  110TCq2    O4 1682   3.056   0.009   1.999  0.0895  0.2232  0.4282
  110TCq2    C9 1683   2.843   0.050   2.447 -0.1103 -0.0101  0.3369
  110TCq2    O5 1684   2.780   0.021   2.550  0.5313  0.0491  0.1279
  110TCq2    O6 1685   2.849   0.169   2.409  0.3446 -0.7144  0.5733
  110TCq2    H2 1686   2.855   4.514   2.516 -0.9014  0.1002 -0.8201
  110TCq2    H3 1687   2.959   0.074   2.225  0.1793  0.4008  1.0079
  110TCq2    H4 1688   3.074   4.381   2.177 -1.2009  0.2591 -2.3461
  111TMC2    C1 1689   3.970   3.702  11.332  0.4991 -0.0111  0.9069
  111TMC2    C2 1690   3.959   3.567  11.302  0.4268  0.0567 -0.3383
  111TMC2    C3 1691   4.069   3.501  11.344 -0.9221  0.1111 -0.0284
  111TMC2    C4 1692   4.058   3.758  11.425  0.5920 -0.6507 -0.2534
  111TMC2    C5 1693   4.156   3.674  11.475 -0.2571  0.1711 -0.2108
  111TMC2    C6 1694   4.168   3.547  11.428 -0.8240 -0.2619 -0.6854
  111TMC2     C 1695   3.865   3.783  11.283 -0.6991 -0.5479  0.3203
  111TMC2     O 1696   3.811   3.748  11.180 -0.0356  0.0982  0.0661
  111TMC2     H 1697   3.881   3.525  11.240  0.9741 -1.5791  0.0839
  111TMC2    H1 1698   4.092   3.861  11.427 -1.6695  0.0879 -0.1223
  111TMC2    H2 1699   4.244   3.479  11.465 -1.2234 -0.1515  0.3441
  111TMC2    C7 1700   4.233   3.720  11.591  0.1579 -0.4528 -0.7382
  111TMC2    C8 1701   4.067   3.363  11.340  0.1994 -1.5078  0.2025
  111TMC2    O1 1702   4.169   3.802  11.657 -0.3307 -0.3314 -0.3710
  111TMC2    O2 1703   4.023   3.294  11.248 -0.3330 -0.7901  0.3420
  111TMC2    O5 1704   4.041   3.316  11.468  0.3540  0.5630  0.3871
  111TMC2    H5 1705   4.058   3.376  11.544 -0.7346  1.5005 -0.1300
  112MPD2     C 1706   3.523   4.168  11.333 -0.0879  0.4920 -0.7467
  112MPD2    C1 1707   3.520   4.053  11.252 -0.7703 -0.7144  0.8807
  112MPD2    C2 1708   3.625   3.964  11.255  0.1500 -0.0039  0.5107
  112MPD2    C3 1709   3.734   3.984  11.345 -0.5515 -0.9735 -0.2517
  112MPD2    C4 1710   3.734   4.095  11.424  0.5495  0.5436 -1.5309
  112MPD2    C5 1711   3.623   4.186  11.423 -0.3639 -0.1244  0.2256
  112MPD2     H 1712   3.626   3.880  11.187 -1.1020  1.2041 -1.0137
  112MPD2    H1 1713   3.817   4.121  11.489 -0.0222  2.5923 -1.6494
  112MPD2    H2 1714   3.445   4.243  11.333  1.5826  2.2337 -0.6602
  112MPD2    H3 1715   3.625   4.271  11.489  0.7811  1.2457 -1.5823
  112MPD2     N 1716   3.846   3.898  11.359 -0.1456  0.1280  0.3565
  112MPD2    H5 1717   3.913   3.927  11.430  0.6309  2.0355 -1.1582
  112MPD2    N1 1718   3.416   4.028  11.164 -0.5977 -0.4394 -0.2402
  112MPD2    H7 1719   3.430   3.973  11.081  0.1350 -1.4931  0.5791
  113MPD2     C 1720   1.427   2.681   1.274  0.0294 -0.7273  0.8585
  113MPD2    C1 1721   1.351   2.797   1.271 -0.3686  0.3225  0.0394
  113MPD2    C2 1722   1.235   2.802   1.195 -0.5850 -0.0490  0.0061
  113MPD2    C3 1723   1.187   2.690   1.128  0.3533 -0.9212  0.7903
  113MPD2    C4 1724   1.269   2.579   1.138  0.0727  0.1892  0.1345
  113MPD2    C5 1725   1.381   2.568   1.216  0.0041 -0.3728  0.8407
  113MPD2     H 1726   1.186   2.899   1.193 -1.4333 -0.4838 -0.5041
  113MPD2    H1 1727   1.254   2.488   1.082 -0.2692  0.1882  0.2284
  113MPD2    H2 1728   1.527   2.670   1.316  0.3573 -1.2111 -0.0446
  113MPD2    H3 1729   1.446   2.482   1.219 -0.0458 -0.4294  0.2788
  113MPD2     N 1730   1.070   2.683   1.050 -1.3846 -0.3813  0.4828
  113MPD2    H5 1731   1.048   2.589   1.017  1.0023 -1.1654  1.0829
  113MPD2    N1 1732   1.393   2.914   1.338 -0.6885 -0.0740  0.4645
  113MPD2    H7 1733   1.342   3.000   1.321 -0.0027  0.3008  0.2858
  114TCq2    C1 1734   0.990   2.787   1.018  0.5307  0.2275 -0.3199
  114TCq2    O2 1735   1.013   2.905   1.040  0.1732 -0.4349 -0.2922
  114TCq2    C2 1736   0.874   2.750   0.943 -0.0105  0.1209  0.1124
  114TCq2    C3 1737   0.794   2.856   0.908  0.0143 -0.0605 -0.4695
  114TCq2    C4 1738   0.678   2.835   0.836  1.0361 -0.3173  0.2569
  114TCq2    C5 1739   0.651   2.707   0.786 -0.5734  0.0540  0.6047
  114TCq2    C6 1740   0.744   2.606   0.811 -0.8203  0.0223 -0.2059
  114TCq2    C7 1741   0.856   2.622   0.891 -0.3110  0.2857  0.4903
  114TCq2    C8 1742   0.699   2.465   0.775 -0.5675  0.3939 -0.2718
  114TCq2    O4 1743   0.610   2.448   0.694  0.1835  0.3085 -0.1152
  114TCq2    C9 1744   0.585   2.944   0.804  0.3774  0.6092 -0.1559
  114TCq2    O5 1745   0.484   2.924   0.732  0.0852  0.1457  0.3033
  114TCq2    O6 1746   0.610   3.047   0.867 -0.3567  0.1567  0.0220
  114TCq2    H2 1747   0.806   2.954   0.952  0.3209  0.0111 -0.7140
  114TCq2    H3 1748   0.571   2.681   0.718  2.0287  0.3478 -2.5212
  114TCq2    H4 1749   0.941   2.554   0.892  0.8375  1.7295  1.0095
  115TMC2    C1 1750   2.816   0.381   0.401 -0.6003 -0.5350 -0.1245
  115TMC2    C2 1751   2.925   0.292   0.399 -0.8808  0.5493 -0.5742
  115TMC2    C3 1752   3.047   0.346   0.371 -0.8569 -0.6134  0.6693
  115TMC2    C4 1753   2.830   0.509   0.356 -0.4794  0.3285 -0.2410
  115TMC2    C5 1754   2.949   0.555   0.324 -0.4737 -0.0097 -0.4022
  115TMC2    C6 1755   3.058   0.487   0.351  0.5218  0.0190  0.0608
  115TMC2     C 1756   2.685   0.316   0.416  0.7226  0.2932 -0.2470
  115TMC2     O 1757   2.684   0.194   0.416  0.2958  0.0183 -0.0546
  115TMC2     H 1758   2.922   0.187   0.425  1.4890 -0.3746 -3.9457
  115TMC2    H1 1759   2.737   0.564   0.355 -0.5097  0.2658 -0.8281
  115TMC2    H2 1760   3.152   0.541   0.354  1.7799 -2.2299  0.8811
  115TMC2    C7 1761   2.971   0.694   0.354  0.1322 -0.6366 -0.0979
  115TMC2    C8 1762   3.160   0.314   0.449 -0.1382 -0.0176 -0.0688
  115TMC2    O1 1763   3.021   0.718   0.467 -0.7758 -0.1873 -0.4231
  115TMC2    O2 1764   3.271   0.350   0.418  0.1453 -0.5630  0.2488
  115TMC2    O5 1765   3.119   0.327   0.577  0.0094  0.6986 -0.7108
  115TMC2    H5 1766   3.022   0.341   0.580 -0.1175 -0.2576 -0.2286
  116MPD2     C 1767   2.181   0.349   0.425  0.2321  0.2462 -0.7564
  116MPD2    C1 1768   2.264   0.240   0.411 -0.0744 -0.0696 -0.2150
  116MPD2    C2 1769   2.398   0.257   0.437  0.5523 -0.4980 -0.3812
  116MPD2    C3 1770   2.450   0.383   0.446 -0.2936  0.7710  0.2354
  116MPD2    C4 1771   2.370   0.496   0.460 -0.5722 -0.2239 -0.7871
  116MPD2    C5 1772   2.232   0.480   0.443 -0.1879  0.4342  0.1217
  116MPD2     H 1773   2.471   0.177   0.433  0.2936 -0.5761 -3.5621
  116MPD2    H1 1774   2.400   0.598   0.479 -1.4699  0.0499 -0.8185
  116MPD2    H2 1775   2.075   0.329   0.423  0.0261  1.0372  2.7189
  116MPD2    H3 1776   2.173   0.570   0.453  0.1522  0.7906 -1.1092
  116MPD2     N 1777   2.587   0.406   0.452  0.0407  0.0566  0.6843
  116MPD2    H5 1778   2.616   0.499   0.480 -2.7671  0.2421  2.8663
  116MPD2    N1 1779   2.208   0.111   0.403 -0.4810 -0.1650 -0.2166
  116MPD2    H7 1780   2.109   0.113   0.382 -0.0891 -1.1137 -2.1613
  117TMC2    C1 1781   0.711   1.572  14.682  0.0380  0.1182 -0.0920
  117TMC2    C2 1782   0.716   1.556  14.819 -0.2298  0.1686  0.2925
  117TMC2    C3 1783   0.815   1.617  14.887 -0.2758  0.6492 -0.5635
  117TMC2    C4 1784   0.808   1.637  14.613  0.1902  0.6550 -0.2605
  117TMC2    C5 1785   0.904   1.705  14.689 -0.3101 -0.1550 -0.1010
  117TMC2    C6 1786   0.909   1.692  14.826  0.4763  0.4206 -0.4065
  117TMC2     C 1787   0.599   1.507  14.621 -0.3931 -0.3495 -0.1898
  117TMC2     O 1788   0.547   1.414  14.676  0.3606 -0.0564 -0.1075
  117TMC2     H 1789   0.641   1.500  14.873  1.3320 -1.7387  0.4690
  117TMC2    H1 1790   0.808   1.644  14.505  1.3596  0.0169 -0.3086
  117TMC2    H2 1791   0.989   1.729  14.889  1.3916 -1.0655 -0.6730
  117TMC2    C7 1792   0.984   1.815  14.626 -0.0117  0.6557  0.1930
  117TMC2    C8 1793   0.787   1.642  15.027 -0.3403  0.9812  0.0714
  117TMC2    O1 1794   0.929   1.882  14.538 -0.2748 -0.1038 -0.0768
  117TMC2    O2 1795   0.873   1.643  15.112 -0.6086  0.2548 -0.4333
  117TMC2    O5 1796   0.685   1.728  15.025 -0.2744  0.6772  0.0662
  117TMC2    H5 1797   0.655   1.739  14.932  1.8517  0.0909 -0.6782
  118MPD2     C 1798   1.306   1.958  14.745  0.1314 -0.1164 -0.1266
  118MPD2    C1 1799   1.199   1.936  14.660 -0.3238  0.2151  0.5651
  118MPD2    C2 1800   1.190   2.019  14.542 -0.2086 -0.1278  0.0584
  118MPD2    C3 1801   1.289   2.118  14.515  0.8057  0.1071  0.5278
  118MPD2    C4 1802   1.386   2.149  14.608  0.3745 -0.4097 -0.3977
  118MPD2    C5 1803   1.395   2.063  14.719  0.3400  0.2185 -0.0185
  118MPD2     H 1804   1.107   1.996  14.477 -0.0913 -0.0555 -0.1161
  118MPD2    H1 1805   1.452   2.235  14.602  2.9593 -2.3641 -0.1567
  118MPD2    H2 1806   1.327   1.897  14.833  1.4576  2.1040  1.1198
  118MPD2    H3 1807   1.482   2.076  14.783  1.5283 -0.8549 -1.4339
  118MPD2     N 1808   1.291   2.197  14.397  0.5441  0.0256  0.4525
  118MPD2    H5 1809   1.367   2.263  14.385 -0.7856  1.9044  2.3356
  118MPD2    N1 1810   1.102   1.834  14.688 -0.3502  0.1178 -0.6280
  118MPD2    H7 1811   1.122   1.766  14.762 -1.6139  0.5016  0.0724
  119MPD2     C 1812   4.159   3.114  14.428 -0.3782 -0.4450  0.2921
  119MPD2    C1 1813   4.034   3.111  14.366  0.6960  0.0680 -0.1032
  119MPD2    C2 1814   4.027   3.056  14.238 -0.0985 -0.2554  0.0328
  119MPD2    C3 1815   4.136   3.004  14.177  0.5679 -0.3100  0.2459
  119MPD2    C4 1816   4.259   3.003  14.243  0.7799  0.0834  0.6702
  119MPD2    C5 1817   4.270   3.048  14.372  0.0197 -0.3297 -0.0772
  119MPD2     H 1818   3.935   3.077  14.184  0.7047  0.3896 -1.0821
  119MPD2    H1 1819   4.352   2.976  14.195  0.5803 -0.5982  0.6573
  119MPD2    H2 1820   4.178   3.157  14.526  0.7424 -0.6761  0.1826
  119MPD2    H3 1821   4.361   3.054  14.429 -1.4808 -2.4532  2.5470
  119MPD2     N 1822   4.135   2.945  14.048 -0.5131 -0.5142  0.0494
  119MPD2    H5 1823   4.225   2.910  14.017 -0.8749 -0.3485 -1.1899
  119MPD2    N1 1824   3.924   3.169  14.435  1.3133 -0.3565  0.6846
  119MPD2    H7 1825   3.954   3.214  14.521 -0.5149  1.2074  0.5035
  120TCq2    C1 1826   4.018   2.927  13.973 -0.1749  0.1939 -0.8635
  120TCq2    O2 1827   3.908   2.964  14.006  0.5862  0.1882  0.3518
  120TCq2    C2 1828   4.032   2.860  13.852 -0.3700 -0.4565  0.3526
  120TCq2    C3 1829   4.156   2.850  13.794  0.2920 -0.0126 -0.1590
  120TCq2    C4 1830   4.179   2.825  13.663  0.3204  0.1302  0.6989
  120TCq2    C5 1831   4.070   2.823  13.580  0.0468  0.0141 -0.3872
  120TCq2    C6 1832   3.946   2.850  13.637  0.0649 -0.8102  0.6997
  120TCq2    C7 1833   3.930   2.860  13.773  0.1783  0.2658  0.3828
  120TCq2    C8 1834   3.832   2.815  13.551 -0.2508  0.1549  0.1140
  120TCq2    O4 1835   3.840   2.840  13.429  0.2759  0.2230 -0.2576
  120TCq2    C9 1836   4.305   2.803  13.596  0.6005  0.5248 -0.5444
  120TCq2    O5 1837   4.412   2.832  13.660 -1.1903  0.0941  0.3643
  120TCq2    O6 1838   4.304   2.720  13.501 -0.7172  0.3024  0.1297
  120TCq2    H2 1839   4.240   2.848  13.863  0.7208 -4.9529 -0.8508
  120TCq2    H3 1840   4.081   2.803  13.474 -1.1702 -2.0060 -0.1189
  120TCq2    H4 1841   3.834   2.885  13.816  0.3817 -1.6199  1.8968
  121TMC2    C1 1842   0.592   4.439  14.051  0.1400 -0.1249  0.5326
  121TMC2    C2 1843   0.677   4.373  14.135 -0.3171  0.6125 -0.6098
  121TMC2    C3 1844   0.627   4.250  14.187 -0.2018 -0.1527 -0.3397
  121TMC2    C4 1845   0.466   4.392  14.015  0.1467  0.2769 -0.7141
  121TMC2    C5 1846   0.425   4.268  14.072  0.3794 -0.3846 -0.4166
  121TMC2    C6 1847   0.499   4.201  14.163 -0.5705  0.2014  0.5642
  121TMC2     C 1848   0.644   4.569  14.006  0.2724  0.0598  0.0873
  121TMC2     O 1849   0.590   4.604  13.901 -0.2517  0.0067  0.5826
  121TMC2     H 1850   0.777   4.412  14.154 -0.5068  0.1298  1.4027
  121TMC2    H1 1851   0.413   4.454  13.944 -0.1590  0.2953 -0.4680
  121TMC2    H2 1852   0.463   4.108  14.207 -1.5414 -0.1079 -0.9010
  121TMC2    C7 1853   0.287   4.233  14.059 -0.4359  0.3824 -0.1790
  121TMC2    C8 1854   0.694   4.182  14.296 -0.2579 -0.1700 -0.6152
  121TMC2    O1 1855   0.272   4.115  14.093 -0.5406  0.2095  0.3727
  121TMC2    O2 1856   0.669   4.068  14.334 -0.2685 -0.2435  0.3676
  121TMC2    O5 1857   0.800   4.251  14.332  0.3806  0.5547 -0.1933
  121TMC2    H5 1858   0.783   4.348  14.335 -1.2857  0.2874 -1.4188
  122MPD2     C 1859   0.814   0.118  14.169  0.1521 -0.4369  0.0763
  122MPD2    C1 1860   0.785   0.031  14.070 -0.1180  1.1063 -0.4457
  122MPD2    C2 1861   0.811   0.060  13.937  0.2986 -0.4986 -0.1949
  122MPD2    C3 1862   0.887   0.174  13.911 -0.1069  0.0327 -0.0318
  122MPD2    C4 1863   0.918   0.261  14.011  0.1903  0.1404  0.5319
  122MPD2    C5 1864   0.868   0.237  14.135 -0.0561 -0.4380  0.1421
  122MPD2     H 1865   0.778   4.718  13.857 -1.5326 -0.6260  0.6682
  122MPD2    H1 1866   0.962   0.360  14.009  1.0616 -0.2648 -0.3368
  122MPD2    H2 1867   0.792   0.103  14.274  0.2712 -3.2061 -0.2992
  122MPD2    H3 1868   0.889   0.312  14.210 -0.2179 -1.4019  1.1554
  122MPD2     N 1869   0.915   0.204  13.777 -0.0502 -0.2484 -0.2675
  122MPD2    H5 1870   0.891   0.130  13.713 -3.4109  0.9468 -0.3738
  122MPD2    N1 1871   0.717   4.635  14.100 -0.2671  0.9128 -0.4786
  122MPD2    H7 1872   0.716   4.604  14.196  0.0209 -0.8630 -1.0545
  123MPD2     C 1873   3.980   1.752   8.846  0.3170 -0.4047 -0.5602
  123MPD2    C1 1874   3.991   1.812   8.966  0.1109  0.1367  0.2710
  123MPD2    C2 1875   4.076   1.915   8.993  0.4053  0.0819  0.1017
  123MPD2    C3 1876   4.146   1.957   8.878 -0.0822  0.4180  0.2597
  123MPD2    C4 1877   4.137   1.897   8.754 -0.0334  0.1615 -0.7142
  123MPD2    C5 1878   4.057   1.791   8.737  1.4393  0.5134  0.5424
  123MPD2     H 1879   4.077   1.964   9.090 -2.9692 -1.0309  0.7167
  123MPD2    H1 1880   4.196   1.919   8.666  0.0197 -1.0721 -0.9868
  123MPD2    H2 1881   3.913   1.670   8.824 -1.3500  0.3443  1.8438
  123MPD2    H3 1882   4.056   1.739   8.642 -0.4323 -0.6353  1.1908
  123MPD2     N 1883   4.223   2.075   8.881 -0.1427 -0.0460 -0.6684
  123MPD2    H5 1884   4.226   2.129   8.967 -0.3216 -0.9099 -0.1204
  123MPD2    N1 1885   3.911   1.759   9.072  0.3179 -0.0466  0.6290
  123MPD2    H7 1886   3.859   1.676   9.044  0.7654 -0.8920  2.3048
  124TCq2    C1 1887   4.319   2.116   8.792 -0.3263  0.3594 -0.0008
  124TCq2    O2 1888   4.371   2.053   8.698 -0.0746  0.5294  0.2768
  124TCq2    C2 1889   4.399   2.228   8.835 -0.2192  0.1707 -0.5424
  124TCq2    C3 1890   4.512   2.265   8.765  0.1538  0.1649  0.1826
  124TCq2    C4 1891   4.562   2.390   8.785  0.3167  0.7504  0.0579
  124TCq2    C5 1892   4.508   2.464   8.884  0.2993  0.3861 -0.2291
  124TCq2    C6 1893   4.416   2.411   8.972 -0.3190  0.1262 -0.0309
  124TCq2    C7 1894   4.361   2.290   8.948  0.9947 -0.8674 -0.0132
  124TCq2    C8 1895   4.387   2.475   9.097  0.2370 -0.0628 -0.0957
  124TCq2    O4 1896   4.331   2.404   9.180  0.1790 -0.4069 -0.2262
  124TCq2    C9 1897   4.654   2.441   8.686 -0.0595  0.3922  0.3334
  124TCq2    O5 1898   4.699   2.555   8.714 -0.3465 -0.0314  0.2802
  124TCq2    O6 1899   4.687   2.366   8.589 -0.3446 -0.1553  0.6022
  124TCq2    H2 1900   4.539   2.213   8.674 -1.0216 -0.4306  0.1770
  124TCq2    H3 1901   4.554   2.559   8.907  0.4364  0.1150  0.6337
  124TCq2    H4 1902   4.279   2.267   9.015  1.0893 -2.0302 -0.3107
  125TMC2    C1 1903   0.754   4.006   9.493  0.3620 -0.0555 -0.0791
  125TMC2    C2 1904   0.687   4.101   9.423 -0.5040 -1.2061 -1.0455
  125TMC2    C3 1905   0.562   4.125   9.461  0.3403  0.2565 -0.3578
  125TMC2    C4 1906   0.702   3.939   9.597 -0.5924  0.0052  0.1592
  125TMC2    C5 1907   0.576   3.967   9.634 -0.1558  0.2578 -0.1334
  125TMC2    C6 1908   0.503   4.065   9.571 -0.3085  0.0732  0.0923
  125TMC2     C 1909   0.896   4.003   9.493 -0.2020 -0.2601  0.9195
  125TMC2     O 1910   0.942   3.893   9.500  0.3303  0.2481 -0.3022
  125TMC2     H 1911   0.731   4.144   9.333  0.8382 -0.0959  0.1318
  125TMC2    H1 1912   0.759   3.859   9.644 -0.1313 -0.1382 -0.6338
  125TMC2    H2 1913   0.395   4.073   9.580 -0.5460 -0.5194 -2.1125
  125TMC2    C7 1914   0.510   3.916   9.754  0.7705 -0.6109 -0.4420
  125TMC2    C8 1915   0.483   4.217   9.387 -0.1209 -0.0310  0.3638
  125TMC2    O1 1916   0.392   3.915   9.758 -0.7285 -0.1281 -0.4335
  125TMC2    O2 1917   0.505   4.241   9.268 -0.0395 -0.4194 -0.1012
  125TMC2    O5 1918   0.459   4.314   9.479  0.3758  0.2846 -0.1630
  125TMC2    H5 1919   0.468   4.282   9.571 -0.6746  2.8013  0.8267
  126MPD1     C 1920   1.356   4.180   9.380  0.5245  0.1193 -0.1794
  126MPD1    C1 1921   1.268   4.276   9.354 -0.1788  0.4613  0.6889
  126MPD1    C2 1922   1.138   4.258   9.400  0.5547 -0.7167  0.5406
  126MPD1    C3 1923   1.097   4.135   9.447  0.1114 -0.1938 -0.3241
  126MPD1    C4 1924   1.184   4.029   9.446 -0.2591  0.1269 -0.2790
  126MPD1    C5 1925   1.314   4.050   9.414  0.0540  0.0778  0.1288
  126MPD1     H 1926   1.065   4.337   9.387  1.5831  0.2652  0.7656
  126MPD1    H1 1927   1.154   3.928   9.470  1.1455 -0.1665  0.2202
  126MPD1    H2 1928   1.461   4.187   9.352  0.8575  0.5374  1.1760
  126MPD1    H3 1929   1.388   3.972   9.428  1.2965  0.9136 -1.6788
  126MPD1     N 1930   0.963   4.118   9.474 -0.3071  0.8006  0.2424
  126MPD1    H5 1931   0.909   4.204   9.485 -0.1799  0.8928  0.1540
  126MPD1    N1 1932   1.308   4.403   9.316  0.8092 -0.3034  0.1282
  126MPD1    H6 1933   1.391   4.410   9.257 -0.3092  0.2151 -1.3918
  126MPD1    H7 1934   1.232   4.453   9.269  0.5816  0.4804  1.3298
  127MPD2     C 1935   1.876   2.785   9.693  0.2367 -0.2419 -0.2497
  127MPD2    C1 1936   1.769   2.830   9.763  0.7682  0.4395  0.1387
  127MPD2    C2 1937   1.794   2.909   9.874 -0.0759 -0.1541 -0.7213
  127MPD2    C3 1938   1.917   2.916   9.929 -0.2330  0.4857  0.3268
  127MPD2    C4 1939   2.026   2.853   9.871 -0.5415  0.4134  0.0869
  127MPD2    C5 1940   2.004   2.792   9.747  0.7562 -0.2374  0.4072
  127MPD2     H 1941   1.713   2.963   9.923 -0.4109 -1.4784  0.2030
  127MPD2    H1 1942   2.128   2.860   9.909  0.1013 -2.7451 -1.0192
  127MPD2    H2 1943   1.869   2.741   9.595 -1.3396 -0.0054 -0.2489
  127MPD2    H3 1944   2.088   2.744   9.699  1.6835 -1.0579  2.8354
  127MPD2     N 1945   1.927   2.987  10.050 -0.3400 -0.0772  0.2561
  127MPD2    H5 1946   1.844   3.034  10.085  0.9289  0.5832  2.3830
  127MPD2    N1 1947   1.640   2.806   9.706 -0.0223  0.1225 -0.4154
  127MPD2    H7 1948   1.635   2.763   9.614  0.0305  0.2068 -0.4574
  128TCq2    C1 1949   1.526   2.825   9.774 -0.1871 -0.6606 -0.3484
  128TCq2    O2 1950   1.500   2.852   9.890  0.1153  0.1872  0.0504
  128TCq2    C2 1951   1.420   2.788   9.676 -0.7441 -0.3877 -0.0327
  128TCq2    C3 1952   1.444   2.784   9.542  0.4430  0.3741  0.2715
  128TCq2    C4 1953   1.351   2.719   9.461  0.6391  0.5223 -0.1634
  128TCq2    C5 1954   1.231   2.671   9.511  0.4285 -0.6635 -0.4505
  128TCq2    C6 1955   1.211   2.685   9.644 -0.5302  0.8352 -0.3736
  128TCq2    C7 1956   1.301   2.749   9.730 -0.4998 -0.2564 -0.3693
  128TCq2    C8 1957   1.123   2.579   9.704  0.6045  0.1034 -0.4750
  128TCq2    O4 1958   1.113   2.471   9.640 -0.3213 -0.4950  0.0424
  128TCq2    C9 1959   1.372   2.708   9.324 -0.2110 -0.0247 -0.6420
  128TCq2    O5 1960   1.271   2.704   9.250 -0.1969  0.4515  0.1706
  128TCq2    O6 1961   1.484   2.745   9.288  0.1038 -0.0453 -0.1583
  128TCq2    H2 1962   1.523   2.838   9.490 -0.4934  0.1978 -1.3459
  128TCq2    H3 1963   1.165   2.618   9.443 -0.1417  0.2045 -0.5724
  128TCq2    H4 1964   1.288   2.749   9.838 -1.7208 -2.0759 -0.5151
  129MPD2     C 1965   4.716   4.019   1.800 -1.2755  0.3366  0.1249
  129MPD2    C1 1966   4.594   4.085   1.762 -0.3160  0.1176  0.6691
  129MPD2    C2 1967   4.618   4.202   1.687 -0.0362 -0.3655 -0.2674
  129MPD2    C3 1968   0.011   4.260   1.657  0.1023  0.0003  0.5185
  129MPD2    C4 1969   0.123   4.200   1.705  0.2767 -0.1974 -0.3476
  129MPD2    C5 1970   0.116   4.070   1.761 -0.6032 -0.3322 -0.2664
  129MPD2     H 1971   4.531   4.253   1.646 -0.7123 -0.1256  1.4331
  129MPD2    H1 1972   0.223   4.238   1.689  1.1651 -1.6298  1.9358
  129MPD2    H2 1973   4.708   3.924   1.851 -0.5649  1.1817  1.8186
  129MPD2    H3 1974   0.210   4.024   1.787  0.3955  0.9883 -1.5594
  129MPD2     N 1975   0.007   4.375   1.573  0.3386 -0.4167 -0.1728
  129MPD2    H5 1976   4.637   4.403   1.550  1.2078  2.5342 -0.0871
  129MPD2    N1 1977   4.463   4.029   1.773  0.4623 -1.0928  0.4404
  129MPD2    H7 1978   4.388   4.091   1.742  1.4989  1.0394  2.1858
  130TCq2    C1 1979   4.424   3.912   1.830  0.0819  0.4345 -0.4732
  130TCq2    O2 1980   4.483   3.820   1.879 -0.8185  0.1266 -0.1898
  130TCq2    C2 1981   4.281   3.905   1.819  0.2345 -0.5266  0.3855
  130TCq2    C3 1982   4.207   4.018   1.795  0.5138  0.7350  0.5141
  130TCq2    C4 1983   4.080   4.002   1.751 -0.0801 -0.2725 -0.8595
  130TCq2    C5 1984   4.026   3.882   1.726 -0.2200 -0.5206  0.1497
  130TCq2    C6 1985   4.106   3.780   1.744 -0.3939 -0.4922 -0.8155
  130TCq2    C7 1986   4.231   3.783   1.800  0.5791  0.0324  0.7123
  130TCq2    C8 1987   4.043   3.655   1.697 -0.0177 -0.2517  0.1718
  130TCq2    O4 1988   3.924   3.651   1.680  0.0909  0.1577 -0.5412
  130TCq2    C9 1989   3.993   4.118   1.740  0.5081  0.3911 -0.0933
  130TCq2    O5 1990   4.032   4.236   1.763 -0.1742  0.1849 -0.1215
  130TCq2    O6 1991   3.872   4.098   1.713  0.2583 -1.0047  0.0715
  130TCq2    H2 1992   4.238   4.116   1.830  2.8668  0.0336  0.3955
  130TCq2    H3 1993   3.927   3.871   1.685 -1.0341 -0.9129  2.2296
  130TCq2    H4 1994   4.285   3.696   1.835  1.2843  0.6930  1.2812
  131MPD2     C 1995   3.558   2.197   9.883 -0.2118 -0.3022 -0.0291
  131MPD2    C1 1996   3.646   2.231   9.786  0.0153  0.2439  0.1730
  131MPD2    C2 1997   3.666   2.143   9.681  0.6895  0.7761  0.1638
  131MPD2    C3 1998   3.588   2.027   9.675 -0.2303  0.0169 -0.1786
  131MPD2    C4 1999   3.488   2.004   9.764  0.3481 -0.6571 -0.5713
  131MPD2    C5 2000   3.483   2.085   9.879 -0.3569 -0.4792 -0.1302
  131MPD2     H 2001   3.728   2.170   9.596 -0.6083  0.1135 -0.9843
  131MPD2    H1 2002   3.423   1.917   9.758 -1.7205  0.9406 -1.2753
  131MPD2    H2 2003   3.533   2.264   9.965 -0.2800 -0.6764  0.2569
  131MPD2    H3 2004   3.421   2.047   9.959  0.5933 -0.4104  0.6303
  131MPD2     N 2005   3.621   1.936   9.579  0.7409 -0.1715  0.6551
  131MPD2    H5 2006   3.680   1.965   9.502 -0.1399 -1.4678 -0.5114
  131MPD2    N1 2007   3.723   2.350   9.792 -0.0036  0.3632 -0.2602
  131MPD2    H7 2008   3.789   2.353   9.715 -1.7590  0.3527 -1.7922
  132TCq2    C1 2009   3.936   2.853  10.045 -0.0555  0.2829  0.4106
  132TCq2    O2 2010   3.833   2.866  10.114 -0.2632  0.0672  0.6051
  132TCq2    C2 2011   3.920   2.749   9.943  0.3616  0.1714  0.2057
  132TCq2    C3 2012   3.986   2.762   9.821 -0.1405  0.2905  0.2521
  132TCq2    C4 2013   3.991   2.657   9.733  0.5671  0.1452 -0.6160
  132TCq2    C5 2014   3.915   2.547   9.763  0.5783 -0.9948 -0.3156
  132TCq2    C6 2015   3.831   2.552   9.869 -0.3979 -0.6593  0.3565
  132TCq2    C7 2016   3.822   2.654   9.959  0.4813 -0.6181 -0.3070
  132TCq2    C8 2017   3.740   2.441   9.896 -0.4401  0.0241  0.8022
  132TCq2    O4 2018   3.691   2.432  10.009 -0.7324 -0.3387  0.1891
  132TCq2    C9 2019   4.054   2.664   9.600  0.5721  0.0131  1.4327
  132TCq2    O5 2020   4.098   2.777   9.562 -0.0365  0.2008 -0.2990
  132TCq2    O6 2021   4.046   2.567   9.524 -0.0597  0.0480 -0.0658
  132TCq2    H2 2022   4.037   2.854   9.794 -1.7417  1.1122  0.0487
  132TCq2    H3 2023   3.915   2.461   9.696  1.9021 -2.5200  1.6506
  132TCq2    H4 2024   3.753   2.648  10.043 -0.1067 -0.7978 -0.8071
  133MPD2     C 2025   2.254   1.970   9.088 -0.0467  0.2106 -0.3428
  133MPD2    C1 2026   2.354   1.971   9.182 -0.1674 -0.4766  0.2348
  133MPD2    C2 2027   2.419   2.089   9.207  0.0157 -1.1537 -0.5177
  133MPD2    C3 2028   2.385   2.206   9.147 -0.2082 -0.7973 -0.2846
  133MPD2    C4 2029   2.280   2.208   9.055 -0.1734 -0.4385  0.4014
  133MPD2    C5 2030   2.217   2.087   9.026  0.7367  0.1597  0.4353
  133MPD2     H 2031   2.500   2.098   9.278  0.0432 -1.0335 -0.5630
  133MPD2    H1 2032   2.259   2.293   8.991  3.6092 -1.1134 -1.6868
  133MPD2    H2 2033   2.206   1.876   9.063  1.9143 -0.3720 -1.8655
  133MPD2    H3 2034   2.134   2.088   8.956  1.6421 -2.2667 -0.6728
  133MPD2     N 2035   2.459   2.330   9.168  0.0731 -0.2115 -1.0131
  133MPD2    H5 2036   2.424   2.406   9.110 -1.0054  0.2292  0.2224
  133MPD2    N1 2037   2.376   1.849   9.249 -0.1454  1.2235  0.0783
  133MPD2    H7 2038   2.334   1.764   9.215 -0.3221  1.1433  0.4962
  134TCq2    C1 2039   2.448   1.837   9.364  0.5877  0.5731  0.0485
  134TCq2    O2 2040   2.482   1.927   9.442 -0.1229  0.0211  0.2103
  134TCq2    C2 2041   2.446   1.708   9.423 -0.0958 -0.2784  0.5475
  134TCq2    C3 2042   2.470   1.598   9.347  0.2819 -0.0639 -0.0907
  134TCq2    C4 2043   2.478   1.473   9.405  0.3187 -0.4980  0.4101
  134TCq2    C5 2044   2.436   1.455   9.530  0.1813 -0.0566 -0.1880
  134TCq2    C6 2045   2.410   1.565   9.605 -0.3500  0.2473 -0.6636
  134TCq2    C7 2046   2.420   1.692   9.555 -0.0856 -0.0954  0.4153
  134TCq2    C8 2047   2.371   1.546   9.742 -0.1270  1.3500 -0.0593
  134TCq2    O4 2048   2.330   1.431   9.768  0.3369  0.2327 -0.1892
  134TCq2    C9 2049   2.521   1.356   9.325  0.4601  0.1066  0.2229
  134TCq2    O5 2050   2.521   1.244   9.384  0.1004  0.2059  0.2167
  134TCq2    O6 2051   2.539   1.376   9.201  0.0516  0.0140  0.8288
  134TCq2    H2 2052   2.515   1.607   9.249  1.1682  0.1698  0.3347
  134TCq2    H3 2053   2.445   1.357   9.575  1.4260  0.5081  0.7922
  134TCq2    H4 2054   2.394   1.784   9.606 -1.2572  0.3745 -1.0576
  135MPD2     C 2055   0.983   0.423  10.009  0.1204  0.3521  0.1853
  135MPD2    C1 2056   0.957   0.288   9.991 -0.3564 -0.5058 -0.2586
  135MPD2    C2 2057   1.069   0.200   9.966  0.3754 -0.3226  0.2049
  135MPD2    C3 2058   1.194   0.251   9.947 -0.5466  0.0601  0.5542
  135MPD2    C4 2059   1.214   0.383   9.966 -0.1098  0.0925 -0.4765
  135MPD2    C5 2060   1.113   0.463  10.012 -0.3321  0.2284 -0.7831
  135MPD2     H 2061   1.041   0.095   9.961 -2.2448  0.3531  0.5042
  135MPD2    H1 2062   1.312   0.431   9.962  0.8510 -2.0882 -2.4648
  135MPD2    H2 2063   0.906   0.495  10.037 -1.5453 -1.2880 -0.2215
  135MPD2    H3 2064   1.131   0.564  10.047  1.8049  0.5320 -2.7976
  135MPD2     N 2065   1.297   0.167   9.906  0.0429 -0.6638 -0.1897
  135MPD2    H5 2066   1.390   0.206   9.900 -0.9196  1.8277  0.9784
  135MPD2    N1 2067   0.831   0.228  10.006 -0.2300 -0.3105 -0.0329
  135MPD2    H7 2068   0.839   0.127  10.007 -0.2266 -0.3084  0.1049
  136TCq2    C1 2069   0.719   0.291  10.049  0.6540 -0.3941  0.2916
  136TCq2    O2 2070   0.715   0.395  10.105 -0.4977  0.5322  0.1640
  136TCq2    C2 2071   0.607   0.203  10.049  0.2700  0.4158 -0.1644
  136TCq2    C3 2072   0.605   0.085   9.976  0.4366 -0.1301  0.9813
  136TCq2    C4 2073   0.496   0.003   9.991 -0.0334 -0.0092 -0.0306
  136TCq2    C5 2074   0.398   0.030  10.085  0.2175 -0.1153  0.4293
  136TCq2    C6 2075   0.410   0.149  10.159  0.1196  0.2165  0.4542
  136TCq2    C7 2076   0.510   0.237  10.135 -0.0063 -0.1033  0.7692
  136TCq2    C8 2077   0.293   0.202  10.224 -0.7581  0.2463 -0.8886
  136TCq2    O4 2078   0.285   0.326  10.225  0.0591  0.3159 -0.5344
  136TCq2    C9 2079   0.493   4.610   9.918  0.3000  0.3648  0.2229
  136TCq2    O5 2080   0.397   4.529   9.936  0.1068  0.3450  0.1703
  136TCq2    O6 2081   0.585   4.599   9.833  0.2309  0.1885 -0.6599
  136TCq2    H2 2082   0.676   0.063   9.897  1.5435 -0.9325  2.2159
  136TCq2    H3 2083   0.322   4.677  10.095 -3.8907  4.3105  3.2734
  136TCq2    H4 2084   0.510   0.331  10.189 -1.9109 -0.1129  0.8017
  137MPD2     C 2085   0.804   3.228  10.797 -0.3015 -0.1380  0.4821
  137MPD2    C1 2086   0.730   3.284  10.694  0.2090 -0.0617  0.1966
  137MPD2    C2 2087   0.620   3.364  10.719 -0.2878 -0.3764 -0.2998
  137MPD2    C3 2088   0.596   3.403  10.849 -0.0794 -0.0680 -0.5438
  137MPD2    C4 2089   0.661   3.336  10.956  0.0602 -0.1094 -0.0607
  137MPD2    C5 2090   0.763   3.255  10.928 -0.5999 -0.2889  0.2535
  137MPD2     H 2091   0.554   3.410  10.645  0.8826  0.6603 -0.6919
  137MPD2    H1 2092   0.631   3.363  11.057  2.6356  0.2000  0.6032
  137MPD2    H2 2093   0.902   3.184  10.784  0.0082  1.1214 -1.3930
  137MPD2    H3 2094   0.817   3.209  11.009 -0.6183  1.5398  1.3049
  137MPD2     N 2095   0.501   3.509  10.857 -0.1577  0.3466  0.0801
  137MPD2    H5 2096   0.477   3.564  10.775  4.2154 -0.7602 -1.9158
  137MPD2    N1 2097   0.784   3.275  10.562 -0.3467  0.0781 -1.2458
  137MPD2    H7 2098   0.872   3.226  10.555 -0.2467 -0.3418  3.1654
  138TCq2    C1 2099   0.731   3.325  10.445  0.3395 -1.0420  0.3359
  138TCq2    O2 2100   0.619   3.371  10.433  0.0985 -0.0463 -0.4380
  138TCq2    C2 2101   0.818   3.319  10.322 -0.0870  0.0268 -0.8295
  138TCq2    C3 2102   0.951   3.294  10.340 -0.2406 -0.8284 -0.6908
  138TCq2    C4 2103   1.037   3.332  10.244 -0.8174 -0.5628 -0.2328
  138TCq2    C5 2104   0.998   3.377  10.121  0.5618 -0.0593  0.0157
  138TCq2    C6 2105   0.859   3.377  10.096  0.7358  0.5892  0.0543
  138TCq2    C7 2106   0.765   3.354  10.200  0.6876  0.1992 -1.2480
  138TCq2    C8 2107   0.809   3.411   9.960  0.4572  0.6054 -0.0496
  138TCq2    O4 2108   0.889   3.445   9.872 -0.0688  0.2861  0.0657
  138TCq2    C9 2109   1.173   3.317  10.277  0.6469  0.1599  0.1655
  138TCq2    O5 2110   1.249   3.345  10.184 -0.3668  0.1764  0.0444
  138TCq2    O6 2111   1.202   3.242  10.377  0.7339  0.2105  0.0389
  138TCq2    H2 2112   0.993   3.243  10.426  0.9280  0.5602 -0.4337
  138TCq2    H3 2113   1.069   3.400  10.043 -2.5695  1.4126 -2.3811
  138TCq2    H4 2114   0.663   3.390  10.200  0.4989 -0.3255 -3.0502
  139TMC2    C1 2115   0.465   2.386  13.329 -0.3028  0.9868 -0.2211
  139TMC2    C2 2116   0.418   2.446  13.215  0.3060  0.1490  0.2852
  139TMC2    C3 2117   0.375   2.574  13.208  0.2670  1.0877  0.3575
  139TMC2    C4 2118   0.468   2.458  13.447 -0.6146 -0.3698 -0.0555
  139TMC2    C5 2119   0.416   2.584  13.439  0.3346  0.6672  0.2256
  139TMC2    C6 2120   0.364   2.646  13.322 -0.5976 -0.7693 -0.1153
  139TMC2     C 2121   0.538   2.258  13.328 -0.4520  0.3007  0.2800
  139TMC2     O 2122   0.508   2.183  13.239  0.1019  0.1466 -0.6818
  139TMC2     H 2123   0.417   2.392  13.122  1.9269  3.5711 -1.7488
  139TMC2    H1 2124   0.499   2.419  13.543 -0.1683  0.0831 -0.0146
  139TMC2    H2 2125   0.312   2.741  13.316  2.6234  0.8483 -2.0903
  139TMC2    C7 2126   0.385   2.662  13.560  0.2390 -0.0136  0.1611
  139TMC2    C8 2127   0.319   2.618  13.084  0.1194  0.1296 -0.6986
  139TMC2    O1 2128   0.302   2.750  13.544 -0.1848 -0.1967 -0.6674
  139TMC2    O2 2129   0.219   2.692  13.078  0.2873 -0.0782  0.1883
  139TMC2    O5 2130   0.380   2.568  12.970  0.1064  0.1782 -0.1463
  139TMC2    H5 2131   0.474   2.543  12.982 -0.0566  0.3278  1.4367
  140MPD2     C 2132   0.844   2.175  13.528 -0.2473  0.5348  0.6207
  140MPD2    C1 2133   0.738   2.148  13.431  0.1775 -0.6582  0.7885
  140MPD2    C2 2134   0.738   2.029  13.359  0.1573 -0.7750 -0.3350
  140MPD2    C3 2135   0.842   1.938  13.375  0.4901 -0.0751 -0.3067
  140MPD2    C4 2136   0.953   1.970  13.455  0.0757 -0.0452 -0.9273
  140MPD2    C5 2137   0.960   2.094  13.528 -0.5843  0.1572 -0.1079
  140MPD2     H 2138   0.646   2.006  13.308  0.1938  1.5438 -1.4049
  140MPD2    H1 2139   1.037   1.903  13.452  0.4637  0.4660 -1.5432
  140MPD2    H2 2140   0.830   2.257  13.596 -2.8667  0.3724  0.2805
  140MPD2    H3 2141   1.034   2.119  13.603 -0.8057  2.4235 -0.6674
  140MPD2     N 2142   0.849   1.812  13.300 -0.7324  0.2773 -0.7079
  140MPD2    H5 2143   0.786   1.808  13.220 -0.8691 -0.3884 -0.5678
  140MPD2    N1 2144   0.632   2.246  13.425 -0.3869 -0.0389  0.0470
  140MPD2    H7 2145   0.654   2.324  13.485  0.4722  0.2446 -0.6282
  141TCq2    C1 2146   1.661   3.633  14.721 -0.3248  0.5772  0.4404
  141TCq2    O2 2147   1.601   3.714  14.652  0.7647  0.0424  0.3058
  141TCq2    C2 2148   1.689   3.680  14.858 -0.1065 -0.0051 -0.5590
  141TCq2    C3 2149   1.796   3.637  14.929  0.0287  0.2116 -0.1638
  141TCq2    C4 2150   1.802   3.683  15.062  0.0081 -0.2361 -0.4536
  141TCq2    C5 2151   1.712   3.773  15.112 -0.1684  0.3481  0.5525
  141TCq2    C6 2152   1.602   3.807  15.032 -0.5638  0.1853 -0.0571
  141TCq2    C7 2153   1.593   3.766  14.900 -0.0699  0.7748  0.3382
  141TCq2    C8 2154   1.509   3.903  15.090  0.6033 -0.9088  0.4141
  141TCq2    O4 2155   1.501   3.911  15.210  0.1909 -0.0155  0.7861
  141TCq2    C9 2156   1.911   3.645  15.153 -1.3629 -0.1691 -0.2723
  141TCq2    O5 2157   2.011   3.587  15.099 -0.1034  0.1563  0.5818
  141TCq2    O6 2158   1.904   3.691  15.269  0.0076 -0.0135  0.2413
  141TCq2    H2 2159   1.873   3.565  14.902 -1.7074 -1.2968 -1.1504
  141TCq2    H3 2160   1.723   3.815  15.211  0.9203  0.5379  0.3454
  141TCq2    H4 2161   1.511   3.798  14.836  0.7986  1.9497 -0.1918
  142MPD2     C 2162   4.075   1.973  10.286  0.1301  0.1595  0.5376
  142MPD2    C1 2163   4.085   1.954  10.150  1.1750 -1.0783  0.1694
  142MPD2    C2 2164   4.162   2.036  10.073  0.2837 -0.0713  0.7468
  142MPD2    C3 2165   4.245   2.121  10.136  0.0143  0.5120  0.7908
  142MPD2    C4 2166   4.243   2.138  10.271 -0.1062  0.0631  0.1444
  142MPD2    C5 2167   4.151   2.070  10.342  0.3712 -0.6063  0.7733
  142MPD2     H 2168   4.166   2.021   9.965  0.7016 -0.3863  0.8086
  142MPD2    H1 2169   4.309   2.208  10.321  0.9339 -1.0820  0.3804
  142MPD2    H2 2170   4.010   1.904  10.339  0.5531  0.2374  1.1619
  142MPD2    H3 2171   4.145   2.084  10.450 -1.0926  1.4193  0.4497
  142MPD2     N 2172   4.323   2.227  10.078  0.4563 -0.1006  0.7578
  142MPD2    H5 2173   4.363   2.302  10.133 -1.6636 -1.0232  3.5313
  142MPD2    N1 2174   4.016   1.842  10.097  0.2340  0.7796 -0.2671
  142MPD2    H7 2175   3.977   1.776  10.164  0.0379 -0.5377 -1.6960
  143TCq2    C1 2176   4.358   2.225   9.947 -0.2305  0.1185  0.1067
  143TCq2    O2 2177   4.313   2.154   9.860  0.5214 -0.3306  0.2119
  143TCq2    C2 2178   4.452   2.330   9.911  0.2818  0.2695 -0.3847
  143TCq2    C3 2179   4.489   2.419  10.010  0.3317  0.6616  0.0349
  143TCq2    C4 2180   4.532   2.541   9.974 -0.2398  0.2821  0.1783
  143TCq2    C5 2181   4.520   2.582   9.844  0.4172  0.0045  0.6709
  143TCq2    C6 2182   4.482   2.492   9.747  0.1559  0.0482  0.2801
  143TCq2    C7 2183   4.450   2.364   9.779 -0.9439 -0.6887  0.8471
  143TCq2    C8 2184   4.440   2.530   9.611 -0.1682  0.1881 -0.1239
  143TCq2    O4 2185   4.389   2.441   9.540 -0.9734 -0.1683 -0.1387
  143TCq2    C9 2186   4.566   2.633  10.081 -0.7564 -0.2303  0.0200
  143TCq2    O5 2187   4.539   2.596  10.200  0.6146 -0.3487  0.2154
  143TCq2    O6 2188   4.632   2.736  10.058 -0.0940  0.6234 -0.2425
  143TCq2    H2 2189   4.506   2.385  10.111 -2.0480 -0.8508 -0.0494
  143TCq2    H3 2190   4.560   2.679   9.820 -0.6917 -0.4307 -2.8836
  143TCq2    H4 2191   4.415   2.289   9.709 -1.6412 -0.2296  0.6980
  144MPD2     C 2192   1.051   1.836   0.851  0.0579 -0.3956 -0.3386
  144MPD2    C1 2193   1.105   1.714   0.835  0.0338 -0.3757  0.5715
  144MPD2    C2 2194   1.231   1.686   0.884  0.2523 -0.2381  0.2159
  144MPD2    C3 2195   1.294   1.789   0.956 -0.0890  0.1058  0.9732
  144MPD2    C4 2196   1.231   1.908   0.967 -0.7538 -0.0516  0.2234
  144MPD2    C5 2197   1.104   1.935   0.922  0.0377  0.2276 -0.5713
  144MPD2     H 2198   1.270   1.585   0.879  1.1224  0.0392  1.5265
  144MPD2    H1 2199   1.279   1.993   1.014 -1.1701  1.1329 -1.4588
  144MPD2    H2 2200   0.952   1.866   0.818  0.6145  1.9428  0.0605
  144MPD2    H3 2201   1.076   2.040   0.928  0.6512  0.3392  0.3393
  144MPD2     N 2202   1.425   1.775   1.011  0.5916  0.8747  0.6835
  144MPD2    H5 2203   1.464   1.861   1.049  0.7951  0.4982  1.3128
  144MPD2    N1 2204   1.033   1.616   0.767 -0.2248  0.6194  0.3895
  144MPD2    H7 2205   1.076   1.525   0.751 -0.9924  0.3363 -0.0387
  145TCq2    C1 2206   1.508   1.669   0.980  0.5389 -0.5344 -0.1779
  145TCq2    O2 2207   1.478   1.560   0.935 -0.3342 -0.1078 -0.4396
  145TCq2    C2 2208   1.641   1.700   1.015  0.1405  0.3070  0.0682
  145TCq2    C3 2209   1.732   1.615   0.958  0.3883 -0.3055 -0.0471
  145TCq2    C4 2210   1.866   1.611   1.000 -0.2820  0.3882  0.1098
  145TCq2    C5 2211   1.907   1.691   1.110  0.0229  0.5157  0.7441
  145TCq2    C6 2212   1.802   1.755   1.177 -0.8143 -0.4406 -0.2410
  145TCq2    C7 2213   1.666   1.757   1.136  0.3776  0.4141 -0.1320
  145TCq2    C8 2214   1.834   1.850   1.282 -0.5726  0.7189 -0.3029
  145TCq2    O4 2215   1.947   1.846   1.331 -0.4162 -0.5080 -0.2238
  145TCq2    C9 2216   1.967   1.539   0.925  0.1218 -0.0394  0.0956
  145TCq2    O5 2217   1.930   1.471   0.826 -0.5276  0.0405  0.2114
  145TCq2    O6 2218   2.091   1.541   0.968 -0.7849  0.2496 -0.5464
  145TCq2    H2 2219   1.689   1.554   0.880 -0.0874  0.1652 -0.1509
  145TCq2    H3 2220   2.013   1.688   1.133  0.3840  1.1416 -0.8269
  145TCq2    H4 2221   1.590   1.804   1.196  0.0236  1.6450 -1.5586
  146TMC2    C1 2222   3.002   4.322  12.656  0.7268 -0.1014  0.6063
  146TMC2    C2 2223   2.923   4.261  12.562 -0.2415  0.1312 -0.0270
  146TMC2    C3 2224   2.981   4.233  12.444  0.0371  0.1067  0.1930
  146TMC2    C4 2225   3.133   4.354  12.633  0.4808 -0.4464 -0.1600
  146TMC2    C5 2226   3.189   4.314  12.514  0.0820  0.1779  0.4938
  146TMC2    C6 2227   3.111   4.253  12.419 -0.2730 -0.2930  0.4454
  146TMC2     C 2228   2.942   4.342  12.783  0.3676  0.3553 -0.4490
  146TMC2     O 2229   2.819   4.330  12.776 -0.6182 -0.1677 -0.3135
  146TMC2     H 2230   2.821   4.231  12.585 -0.1394  1.1081  1.6832
  146TMC2    H1 2231   3.191   4.421  12.695  0.8373 -1.6045  0.7571
  146TMC2    H2 2232   3.157   4.215  12.329  0.2451  1.2903  0.0413
  146TMC2    C7 2233   3.336   4.309  12.485 -0.3128  0.5811 -0.1652
  146TMC2    C8 2234   2.905   4.134  12.376 -0.0102 -0.0415  0.4900
  146TMC2    O1 2235   3.370   4.290  12.369  0.2591 -0.5233 -0.0825
  146TMC2    O2 2236   2.815   4.067  12.419  0.9616 -0.8950  0.4219
  146TMC2    O5 2237   2.928   4.147  12.241  0.1985 -1.1362  0.2886
  146TMC2    H5 2238   2.979   4.229  12.222 -1.9568  0.0677 -0.3583
  147MPD2     C 2239   3.825   4.238  12.663 -0.4468  0.1281 -0.3334
  147MPD2    C1 2240   3.735   4.273  12.764  0.2950 -0.6415 -0.5348
  147MPD2    C2 2241   3.603   4.285  12.745 -0.1147 -0.9443 -0.3299
  147MPD2    C3 2242   3.554   4.284  12.612  0.1894  0.2834  0.1713
  147MPD2    C4 2243   3.639   4.262  12.506  0.2047  0.1945 -0.1371
  147MPD2    C5 2244   3.774   4.242  12.532 -0.1705  0.1554  0.2211
  147MPD2     H 2245   3.535   4.293  12.829 -1.0219 -1.3483 -1.0125
  147MPD2    H1 2246   3.608   4.264  12.402 -3.8180 -0.7508  1.0496
  147MPD2    H2 2247   3.930   4.228  12.685 -0.2506  2.6001 -0.1268
  147MPD2    H3 2248   3.842   4.237  12.448  1.9185 -1.8137  2.0551
  147MPD2     N 2249   3.413   4.304  12.599 -0.0942  0.3714  0.3600
  147MPD2    H5 2250   3.360   4.312  12.685  0.8721  0.9558  0.9004
  147MPD2    N1 2251   3.790   4.280  12.894 -0.4810  0.6326  0.0104
  147MPD2    H7 2252   3.875   4.225  12.899 -0.1338  1.4523  2.9138
  148MPD2     C 2253   3.652   3.335  10.340  0.1744 -0.1996  0.6143
  148MPD2    C1 2254   3.693   3.211  10.384  0.6679  0.7382  0.3428
  148MPD2    C2 2255   3.604   3.105  10.363 -0.1040  1.1892 -0.0642
  148MPD2    C3 2256   3.480   3.123  10.304 -1.3476  0.3186  0.9253
  148MPD2    C4 2257   3.454   3.244  10.247 -0.1129 -0.2956  0.1802
  148MPD2    C5 2258   3.533   3.355  10.267 -0.3584 -0.7227 -0.0432
  148MPD2     H 2259   3.640   3.005  10.386  1.7994  1.2398 -2.7639
  148MPD2    H1 2260   3.357   3.259  10.199  0.7576 -1.0971 -1.8250
  148MPD2    H2 2261   3.710   3.424  10.363 -2.7461  1.6145  0.9970
  148MPD2    H3 2262   3.509   3.453  10.230 -0.9879 -0.4512  1.0796
  148MPD2     N 2263   3.390   3.023  10.299  1.1088 -0.3144 -0.0059
  148MPD2    H5 2264   3.322   3.022  10.224  0.0141 -0.7905  0.9926
  148MPD2    N1 2265   3.810   3.202  10.455  0.4989  0.1889 -0.4014
  148MPD2    H7 2266   3.878   3.276  10.444  1.1640 -0.5675 -1.4218
  149TCq2    C1 2267   3.856   3.090  10.523 -0.2296  0.7940 -0.4880
  149TCq2    O2 2268   3.794   2.992  10.562 -0.3921 -0.0945  0.3170
  149TCq2    C2 2269   4.000   3.071  10.542  0.7906  0.4214  0.3921
  149TCq2    C3 2270   4.082   3.165  10.495 -0.3804  0.6778  0.0354
  149TCq2    C4 2271   4.208   3.131  10.446 -0.3665  0.0953 -0.3848
  149TCq2    C5 2272   4.245   2.997  10.437  0.6236  0.6886  0.3292
  149TCq2    C6 2273   4.149   2.911  10.492 -0.0053 -0.4886  0.1592
  149TCq2    C7 2274   4.037   2.946  10.553  0.4376 -0.0450 -0.0326
  149TCq2    C8 2275   4.150   2.771  10.458  0.5370  0.0483 -0.3674
  149TCq2    O4 2276   4.112   2.698  10.545 -0.0192  0.0623  0.4030
  149TCq2    C9 2277   4.314   3.230  10.428 -0.5926  0.1552 -1.1078
  149TCq2    O5 2278   4.426   3.193  10.378 -0.2626 -0.3321  0.7786
  149TCq2    O6 2279   4.287   3.346  10.473 -0.1505 -0.4079 -0.5742
  149TCq2    H2 2280   4.061   3.271  10.499 -0.3634  0.6628  0.4897
  149TCq2    H3 2281   4.338   2.960  10.396 -0.5379 -3.1110  1.1268
  149TCq2    H4 2282   3.975   2.872  10.602  0.0453  1.7982  2.2372
  150MPD2     C 2283   0.049   2.766  12.418 -0.0649  0.0163 -0.6543
  150MPD2    C1 2284   0.104   2.713  12.302 -0.3873 -0.7878  0.7143
  150MPD2    C2 2285   0.224   2.765  12.256 -0.4544  0.2606  0.5380
  150MPD2    C3 2286   0.289   2.859  12.340 -0.1680  0.3162  0.2126
  150MPD2    C4 2287   0.231   2.907  12.457  0.1381 -0.4018  0.0435
  150MPD2    C5 2288   0.111   2.856  12.497 -0.7547 -0.2568  0.2968
  150MPD2     H 2289   0.269   2.738  12.162 -1.7979  1.4343 -0.4422
  150MPD2    H1 2290   0.290   2.965  12.527 -1.2743  2.2268 -0.9733
  150MPD2    H2 2291   4.686   2.713  12.452 -0.3932  0.8541 -0.1964
  150MPD2    H3 2292   0.055   2.884  12.586 -0.3987  0.6576  0.2356
  150MPD2     N 2293   0.425   2.880  12.311  0.2608  0.7517 -0.5918
  150MPD2    H5 2294   0.462   2.831  12.230  0.1576 -0.1486 -0.0958
  150MPD2    N1 2295   0.022   2.625  12.226 -0.0620 -0.0192 -0.0968
  150MPD2    H7 2296   4.669   2.588  12.280 -0.8647  1.5001 -0.2302
  151TCq2    C1 2297   0.510   2.954  12.391 -0.7976 -0.0274  0.3067
  151TCq2    O2 2298   0.493   3.020  12.495 -0.3205 -0.4922 -0.0052
  151TCq2    C2 2299   0.653   2.962  12.347 -0.1175  0.3440 -0.3148
  151TCq2    C3 2300   0.692   2.856  12.272 -0.0850  0.2619 -0.5202
  151TCq2    C4 2301   0.830   2.822  12.269  1.3711 -0.2585 -0.1170
  151TCq2    C5 2302   0.911   2.866  12.369  0.6553  0.1650  0.1422
  151TCq2    C6 2303   0.862   2.972  12.456  0.4316  0.2943 -0.4644
  151TCq2    C7 2304   0.733   3.024  12.444  0.8443 -0.4047  0.2730
  151TCq2    C8 2305   0.948   3.028  12.556 -0.3848 -0.4735  0.1775
  151TCq2    O4 2306   0.958   3.148  12.558 -0.0434  0.2422  0.8034
  151TCq2    C9 2307   0.885   2.738  12.165 -0.8229 -0.1001  0.4029
  151TCq2    O5 2308   1.008   2.713  12.183 -0.6501  0.1193  0.5173
  151TCq2    O6 2309   0.813   2.700  12.071  0.0744  0.1629 -0.2018
  151TCq2    H2 2310   0.633   2.817  12.190  2.9597  1.7696 -3.4060
  151TCq2    H3 2311   1.016   2.841  12.358  1.0606  1.5784  0.7262
  151TCq2    H4 2312   0.705   3.104  12.511 -1.5889 -0.6918 -0.3916
  152MPD2     C 2313   0.025   2.281  12.419  0.2262  0.0612  0.2297
  152MPD2    C1 2314   0.056   2.383  12.509  0.6612 -0.5586 -0.6995
  152MPD2    C2 2315   4.673   2.449  12.567 -0.7049 -0.4392 -0.3907
  152MPD2    C3 2316   4.543   2.414  12.545  0.1960  0.8239 -0.0797
  152MPD2    C4 2317   4.513   2.304  12.474 -1.0484  0.3450  0.3334
  152MPD2    C5 2318   4.614   2.238  12.411  0.1957 -0.0361 -0.4052
  152MPD2     H 2319   4.686   2.528  12.640  1.3602 -1.6521  0.5542
  152MPD2    H1 2320   4.417   2.253  12.468 -2.9620  3.9344  0.3286
  152MPD2    H2 2321   0.099   2.216  12.373  0.9886  0.4901  0.8536
  152MPD2    H3 2322   4.589   2.159  12.341 -0.2988 -1.4846  1.3968
  152MPD2     N 2323   4.441   2.495  12.605 -0.0052  0.0074 -0.0126
  152MPD2    H5 2324   4.475   2.579  12.650  1.6041 -1.2456  1.1102
  152MPD2    N1 2325   0.189   2.425  12.541 -0.5791 -0.4823  0.0307
  152MPD2    H7 2326   0.264   2.389  12.482 -1.7002 -1.3253 -0.8635
  153TCq2    C1 2327   0.217   2.533  12.618 -0.3756 -0.9368  0.0360
  153TCq2    O2 2328   0.156   2.576  12.713 -0.5809 -0.1120  0.4385
  153TCq2    C2 2329   0.352   2.591  12.598 -0.0311 -0.1065 -0.6548
  153TCq2    C3 2330   0.446   2.531  12.515  0.0131  0.3121  0.4970
  153TCq2    C4 2331   0.572   2.573  12.530 -0.1052  0.4730  0.2776
  153TCq2    C5 2332   0.616   2.663  12.616  0.0340 -0.3698 -0.3879
  153TCq2    C6 2333   0.528   2.716  12.702  0.1975 -0.2159 -0.2446
  153TCq2    C7 2334   0.391   2.692  12.689 -0.5143 -0.5517 -0.5110
  153TCq2    C8 2335   0.556   2.823  12.793  0.1092 -0.0898  0.1688
  153TCq2    O4 2336   0.457   2.882  12.829  0.2693  0.3272 -0.5088
  153TCq2    C9 2337   0.676   2.509  12.453  0.5876 -0.4402  0.1260
  153TCq2    O5 2338   0.641   2.462  12.341 -0.5420 -0.3692 -0.1410
  153TCq2    O6 2339   0.792   2.501  12.502 -0.2348 -0.3754  0.5519
  153TCq2    H2 2340   0.427   2.458  12.438  0.1099  0.4492  0.3430
  153TCq2    H3 2341   0.723   2.682  12.617  0.2223 -1.4066 -0.5829
  153TCq2    H4 2342   0.317   2.736  12.754 -0.7829 -1.4649 -0.2134
  154MPD2     C 2343   2.491   4.121   0.916  0.0383  0.3402 -0.2433
  154MPD2    C1 2344   2.397   4.013   0.911  0.4756 -0.8293 -0.6761
  154MPD2    C2 2345   2.273   4.032   0.966 -0.3456 -0.4063 -0.9526
  154MPD2    C3 2346   2.250   4.141   1.054  0.6453 -0.4978  0.1955
  154MPD2    C4 2347   2.347   4.230   1.077 -0.1200  1.0262 -0.3328
  154MPD2    C5 2348   2.463   4.224   1.001 -0.3496 -0.2950 -0.7510
  154MPD2     H 2349   2.194   3.958   0.967  0.5734 -1.3733  0.0660
  154MPD2    H1 2350   2.339   4.320   1.138 -1.0986 -0.5266  1.8167
  154MPD2    H2 2351   2.584   4.125   0.860  0.0585  0.1100 -0.2250
  154MPD2    H3 2352   2.533   4.306   1.010 -0.8115  0.0687 -0.4342
  154MPD2     N 2353   2.126   4.144   1.129 -0.1450 -0.1410 -0.2110
  154MPD2    H5 2354   2.053   4.078   1.101 -3.4903  3.9410 -0.9937
  154MPD2    N1 2355   2.439   3.901   0.841  0.1720 -0.4210 -0.1832
  154MPD2    H7 2356   2.531   3.908   0.801  0.0866  0.7278 -0.1634
  155TCq2    C1 2357   2.373   3.783   0.823 -0.1553 -0.0824 -0.3719
  155TCq2    O2 2358   2.281   3.741   0.891 -0.6682  0.2825 -0.3519
  155TCq2    C2 2359   2.444   3.690   0.733  0.1023 -0.1166  0.0898
  155TCq2    C3 2360   2.568   3.724   0.690 -0.4018 -0.9200 -0.0655
  155TCq2    C4 2361   2.634   3.633   0.615  0.4444  0.2588  0.8505
  155TCq2    C5 2362   2.571   3.512   0.580 -0.3366  0.1644  0.3493
  155TCq2    C6 2363   2.437   3.496   0.615  0.0048 -0.6977 -0.0495
  155TCq2    C7 2364   2.372   3.579   0.698  0.3119  0.5387 -0.0011
  155TCq2    C8 2365   2.376   3.364   0.609  0.2584 -0.6090  0.5907
  155TCq2    O4 2366   2.252   3.364   0.615 -0.4634 -0.2679  0.2032
  155TCq2    C9 2367   2.771   3.659   0.584  0.5245 -0.7585  0.3073
  155TCq2    O5 2368   2.839   3.550   0.587 -0.3179 -0.0331  0.3575
  155TCq2    O6 2369   2.815   3.772   0.620 -0.0044  0.0459 -0.1654
  155TCq2    H2 2370   2.618   3.817   0.717 -3.3605  0.6192  0.0326
  155TCq2    H3 2371   2.616   3.434   0.519  0.3356  0.4371  0.4974
  155TCq2    H4 2372   2.275   3.562   0.744 -0.2185  0.0698 -1.2751
  156MPD2     C 2373   0.944   4.416  12.385  0.0455 -0.4977 -0.0375
  156MPD2    C1 2374   1.003   4.533  12.342  0.4421  0.0888  0.4746
  156MPD2    C2 2375   0.986   4.653  12.409 -0.6055 -0.3446  0.0004
  156MPD2    C3 2376   0.899   4.656  12.520 -0.3069 -0.3410  0.3657
  156MPD2    C4 2377   0.854   4.542  12.575 -0.5131 -0.0589  0.1003
  156MPD2    C5 2378   0.874   4.430  12.505  0.1193 -0.8226  0.3851
  156MPD2     H 2379   1.032   0.016  12.364  1.5673 -1.7527 -0.5312
  156MPD2    H1 2380   0.776   4.528  12.648  0.4603  1.9708  1.5288
  156MPD2    H2 2381   0.962   4.319  12.340 -0.4563 -1.3570  1.6026
  156MPD2    H3 2382   0.824   4.344  12.549 -1.7661  2.0347  3.8446
  156MPD2     N 2383   0.859   0.060  12.571 -0.6445 -0.2991  0.0017
  156MPD2    H5 2384   0.905   0.148  12.551  0.1119 -0.9675 -1.2178
  156MPD2    N1 2385   1.071   4.533  12.220 -0.6828  0.0050  0.0089
  156MPD2    H7 2386   1.076   4.440  12.178  0.1622 -0.1117  0.3672
  157TCq2    C1 2387   1.106   4.642  12.141 -0.4679 -0.6671  0.0353
  157TCq2    O2 2388   1.102   0.039  12.165 -0.0217 -0.1433 -0.2589
  157TCq2    C2 2389   1.116   4.607  12.002  0.8480  0.1976 -1.0900
  157TCq2    C3 2390   1.105   4.476  11.981 -0.5176 -0.4097 -0.0143
  157TCq2    C4 2391   1.016   4.436  11.881 -0.2405  0.4609  0.6424
  157TCq2    C5 2392   0.944   4.526  11.808  0.5430 -0.1079  0.1294
  157TCq2    C6 2393   0.949   4.661  11.838  0.0389 -0.2919  0.3943
  157TCq2    C7 2394   1.042   4.700  11.932 -0.8578 -0.3686  0.1495
  157TCq2    C8 2395   0.845   0.024  11.780 -0.1905  1.1311  0.0958
  157TCq2    O4 2396   0.870   0.147  11.774 -0.1302 -0.3418 -0.2067
  157TCq2    C9 2397   1.024   4.304  11.824  0.3248  0.2452 -0.2308
  157TCq2    O5 2398   1.003   4.285  11.700  0.2131 -0.4761  0.2422
  157TCq2    O6 2399   1.101   4.234  11.891 -0.6249 -0.1661 -0.3879
  157TCq2    H2 2400   1.181   4.405  12.012 -0.7223 -0.1942  0.9817
  157TCq2    H3 2401   0.890   4.485  11.723  1.6661  0.0524 -0.6586
  157TCq2    H4 2402   1.041   0.081  11.956  0.7594 -0.1864 -0.6084
  158TMC2    C1 2403   0.416   3.940  13.451  0.4256  0.3692 -0.3127
  158TMC2    C2 2404   0.408   4.054  13.375  0.4808 -0.3404 -0.1747
  158TMC2    C3 2405   0.285   4.081  13.322 -0.5871 -0.0575  0.2730
  158TMC2    C4 2406   0.311   3.864  13.472 -0.7144 -0.1893  0.1008
  158TMC2    C5 2407   0.187   3.911  13.429  0.4804  0.9059 -0.5371
  158TMC2    C6 2408   0.174   4.018  13.348 -0.5132  0.0597 -0.4092
  158TMC2     C 2409   0.532   3.935  13.540  0.4800 -0.4748 -0.6310
  158TMC2     O 2410   0.630   4.002  13.510  0.0461  0.0982 -0.0800
  158TMC2     H 2411   0.490   4.125  13.373 -1.0009  1.3724 -0.6096
  158TMC2    H1 2412   0.327   3.774  13.530 -0.0096  0.2332  0.5591
  158TMC2    H2 2413   0.079   4.059  13.314 -0.7165  0.0751  0.1904
  158TMC2    C7 2414   0.064   3.854  13.473  0.8067 -0.5821  0.5198
  158TMC2    C8 2415   0.285   4.192  13.227 -0.1014  0.3135 -0.3392
  158TMC2    O1 2416   4.690   3.901  13.425  0.0516  0.1246 -0.0850
  158TMC2    O2 2417   0.389   4.230  13.178 -0.6634 -0.1353 -0.4569
  158TMC2    O5 2418   0.175   4.267  13.226  0.2927  0.2349 -0.8813
  158TMC2    H5 2419   0.117   4.254  13.304 -0.5679  0.3609 -1.5004
  159MPD2     C 2420   0.807   3.862  13.964  0.1529  0.5529  0.5666
  159MPD2    C1 2421   0.677   3.850  13.996 -0.3724  0.2700 -0.2077
  159MPD2    C2 2422   0.579   3.851  13.892 -0.3152  0.0850  0.6251
  159MPD2    C3 2423   0.618   3.872  13.763 -0.2687  0.3291 -0.1473
  159MPD2    C4 2424   0.753   3.898  13.734 -0.0229  0.1239  0.0106
  159MPD2    C5 2425   0.845   3.886  13.835 -0.3627  0.2021  0.3545
  159MPD2     H 2426   0.478   3.838  13.927 -0.3603  2.5731  1.4389
  159MPD2    H1 2427   0.786   3.926  13.634  0.2202 -2.0035 -0.5033
  159MPD2    H2 2428   0.881   3.872  14.043  1.8228 -2.0500 -0.6789
  159MPD2    H3 2429   0.948   3.914  13.815 -0.3945 -0.2098 -0.3753
  159MPD2     N 2430   0.517   3.880  13.665 -0.4182 -0.3425 -0.5517
  159MPD2    H5 2431   0.428   3.839  13.693  0.1504 -1.6103 -0.6146
  159MPD2    N1 2432   0.635   3.824  14.133  0.1314  0.4525  0.3505
  159MPD2    H7 2433   0.708   3.809  14.203 -0.5833  2.1293  1.4520
  160TMC2    C1 2434   0.622   1.849   1.905 -0.1016  0.5056  0.7423
  160TMC2    C2 2435   0.705   1.765   1.976  0.2677  0.2412  0.2316
  160TMC2    C3 2436   0.746   1.648   1.917  0.7448  0.2382  0.3169
  160TMC2    C4 2437   0.591   1.820   1.773 -0.2676 -0.2945  0.2095
  160TMC2    C5 2438   0.640   1.706   1.715  0.4721 -0.0697 -0.6679
  160TMC2    C6 2439   0.722   1.611   1.788  0.0670 -1.0160 -0.0028
  160TMC2     C 2440   0.567   1.968   1.966  0.1091  0.4667 -0.0931
  160TMC2     O 2441   0.603   1.999   2.080 -0.3822  0.0678  0.6087
  160TMC2     H 2442   0.735   1.793   2.077  0.0557  0.1066  0.3329
  160TMC2    H1 2443   0.526   1.886   1.715  4.6873  1.9783 -2.7595
  160TMC2    H2 2444   0.772   1.526   1.744  0.8558 -0.0003 -1.0812
  160TMC2    C7 2445   0.597   1.675   1.577 -0.2242  0.1540 -0.3463
  160TMC2    C8 2446   0.837   1.572   2.003  0.0429 -0.2023 -0.3000
  160TMC2    O1 2447   0.607   1.558   1.541  0.0293 -0.2675  0.0683
  160TMC2    O2 2448   0.935   1.611   2.061 -0.2694 -0.7260 -0.4777
  160TMC2    O5 2449   0.799   1.445   1.978  0.5294  0.7380 -0.1416
  160TMC2    H5 2450   0.713   1.432   1.933  0.9913  0.3992 -0.9422
  161MPD2     C 2451   0.447   2.235   2.015  0.1558  0.8696 -0.2260
  161MPD2    C1 2452   0.432   2.166   1.897  0.0926 -0.2276  0.0460
  161MPD2    C2 2453   0.342   2.211   1.802 -0.0219 -0.2998 -0.3644
  161MPD2    C3 2454   0.275   2.338   1.804  0.5933  0.5918 -0.1231
  161MPD2    C4 2455   0.300   2.405   1.919 -0.0996  0.2997 -0.1924
  161MPD2    C5 2456   0.377   2.353   2.020  0.1500 -0.0183  0.0146
  161MPD2     H 2457   0.330   2.142   1.719 -1.6488  0.4402 -0.7557
  161MPD2    H1 2458   0.258   2.503   1.937 -1.6526 -0.9155  2.9059
  161MPD2    H2 2459   0.496   2.197   2.104 -1.4654 -1.0610 -0.1589
  161MPD2    H3 2460   0.394   2.426   2.099 -0.7582 -1.7689  1.8171
  161MPD2     N 2461   0.185   2.396   1.713 -0.2417 -0.5268  0.6425
  161MPD2    H5 2462   0.149   2.491   1.723  0.8572  0.1367 -1.6071
  161MPD2    N1 2463   0.501   2.047   1.873 -0.2802 -0.8648  0.1241
  161MPD2    H7 2464   0.502   2.014   1.777  0.8614 -0.0323 -0.1397
  162TMC2    C1 2465   3.082   3.923   1.123  0.1479  1.1112 -0.7021
  162TMC2    C2 2466   2.998   4.027   1.130 -0.1711 -0.0231 -0.4533
  162TMC2    C3 2467   2.899   4.031   1.223  0.1815 -0.4906 -0.0382
  162TMC2    C4 2468   3.070   3.823   1.212 -0.2471  0.0427  0.1441
  162TMC2    C5 2469   2.957   3.815   1.290 -0.5264 -0.6630  1.4124
  162TMC2    C6 2470   2.876   3.923   1.308  0.1266  0.0221 -0.4700
  162TMC2     C 2471   3.172   3.897   1.008  0.0621 -0.1234 -0.1877
  162TMC2     O 2472   3.217   3.788   0.989 -0.1047 -0.5036 -0.4794
  162TMC2     H 2473   3.006   4.108   1.059 -0.8016 -0.3515 -0.9039
  162TMC2    H1 2474   3.133   3.736   1.200  0.4678  0.5051  0.5309
  162TMC2    H2 2475   2.796   3.919   1.381 -0.7915 -1.4348 -1.5690
  162TMC2    C7 2476   2.936   3.708   1.382  0.0504 -0.6782  0.2224
  162TMC2    C8 2477   2.794   4.129   1.217  0.9322 -0.0292  0.1241
  162TMC2    O1 2478   2.822   3.714   1.438 -0.0537 -0.3076 -0.0924
  162TMC2    O2 2479   2.776   4.206   1.309 -0.3049 -0.3411  0.2829
  162TMC2    O5 2480   2.700   4.063   1.151  0.4079  0.6954 -0.3653
  162TMC2    H5 2481   2.722   3.974   1.116  0.7031  0.5112  0.3016
  163MPD2     C 2482   3.369   4.071   0.570 -0.7535  0.0695 -0.5903
  163MPD2    C1 2483   3.386   3.951   0.631 -0.8941  0.9095  0.4625
  163MPD2    C2 2484   3.333   3.939   0.759  0.5763  0.1250  0.5546
  163MPD2    C3 2485   3.246   4.033   0.804 -0.2659  0.0730  0.0409
  163MPD2    C4 2486   3.235   4.156   0.751  0.1912 -0.0531  0.0925
  163MPD2    C5 2487   3.293   4.169   0.628 -0.0885 -0.4355 -0.4614
  163MPD2     H 2488   3.363   3.857   0.823 -2.3221 -0.8880  0.6277
  163MPD2    H1 2489   3.173   4.239   0.782 -1.0782 -0.5979 -0.9793
  163MPD2    H2 2490   3.411   4.083   0.471  1.7003  1.6518  0.6448
  163MPD2    H3 2491   3.286   4.263   0.575 -0.5784  1.2300  2.5587
  163MPD2     N 2492   3.170   4.009   0.925 -0.7424  0.0729  0.7991
  163MPD2    H5 2493   3.119   4.092   0.952 -1.4438  0.4870 -1.7740
  163MPD2    N1 2494   3.470   3.858   0.562  0.4582 -0.3150  0.1089
  163MPD2    H7 2495   3.502   3.893   0.473  2.7966  0.9816  1.4569
  164TCq2    C1 2496   3.760   3.142  10.933  0.2674 -0.1467  0.4223
  164TCq2    O2 2497   3.677   3.085  10.999  0.1135  0.0127 -0.5722
  164TCq2    C2 2498   3.727   3.272  10.883 -1.0690 -0.8956 -1.0520
  164TCq2    C3 2499   3.792   3.327  10.781 -0.7494  0.3062 -0.2912
  164TCq2    C4 2500   3.756   3.446  10.720  0.0427  0.0930 -0.5836
  164TCq2    C5 2501   3.640   3.504  10.768  0.4045 -0.1233  0.1732
  164TCq2    C6 2502   3.586   3.454  10.885  0.6688 -0.0586  0.7606
  164TCq2    C7 2503   3.622   3.333  10.934  0.1825 -0.1658  0.8253
  164TCq2    C8 2504   3.475   3.526  10.950 -0.2919 -0.1566 -0.5031
  164TCq2    O4 2505   3.418   3.612  10.878  0.0273 -0.2685 -0.1081
  164TCq2    C9 2506   3.843   3.495  10.616  0.1518  0.6700 -0.7027
  164TCq2    O5 2507   3.943   3.422  10.590 -0.5854  0.0344 -0.0653
  164TCq2    O6 2508   3.832   3.609  10.571  0.1548  0.5108  0.6000
  164TCq2    H2 2509   3.862   3.260  10.733 -1.6947 -0.6691 -0.3137
  164TCq2    H3 2510   3.609   3.599  10.727  1.2773  0.1835  0.2218
  164TCq2    H4 2511   3.571   3.294  11.021  1.4802  2.1263  2.5845
  165MPD2     C 2512   4.623   1.246   0.923  0.3697 -0.2243 -0.2675
  165MPD2    C1 2513   4.639   1.113   0.885 -0.4661  0.7756  0.3397
  165MPD2    C2 2514   0.037   1.053   0.860 -0.2253  0.0600 -0.3888
  165MPD2    C3 2515   0.150   1.134   0.881 -0.1006 -0.0403  0.7776
  165MPD2    C4 2516   0.137   1.265   0.927 -0.8603 -0.3017 -0.2268
  165MPD2    C5 2517   0.011   1.323   0.944 -0.1244 -0.6683  0.5387
  165MPD2     H 2518   0.043   0.948   0.834  0.9401  0.1475 -0.4708
  165MPD2    H1 2519   0.228   1.323   0.939  0.8967 -2.4860 -2.7825
  165MPD2    H2 2520   4.531   1.298   0.949 -0.0462 -1.2000  0.2644
  165MPD2    H3 2521   4.718   1.424   0.977  0.5174  1.1106 -4.4896
  165MPD2     N 2522   0.282   1.101   0.846 -0.2534 -0.0451  0.4904
  165MPD2    H5 2523   0.354   1.168   0.869  0.1249  0.1816 -1.3184
  165MPD2    N1 2524   4.514   1.040   0.889  0.0449 -0.4174  0.4457
  165MPD2    H7 2525   4.433   1.090   0.925 -0.0215 -0.6551  0.6283
  166TCq2    C1 2526   0.318   0.983   0.793  0.2714 -0.3196  0.3708
  166TCq2    O2 2527   0.249   0.894   0.748 -0.1631  0.3659 -0.3614
  166TCq2    C2 2528   0.464   0.979   0.767  0.9489  0.1598  0.6147
  166TCq2    C3 2529   0.501   0.895   0.664 -0.1051 -0.2240  0.4058
  166TCq2    C4 2530   0.627   0.908   0.610 -0.1185  0.2909  0.4560
  166TCq2    C5 2531   0.699   1.012   0.643 -0.8620 -0.5177  0.3350
  166TCq2    C6 2532   0.658   1.098   0.746 -1.0825  0.1715 -0.3781
  166TCq2    C7 2533   0.548   1.076   0.815 -0.0446  0.5860  0.0859
  166TCq2    C8 2534   0.744   1.199   0.813 -0.2988 -0.4176 -0.5246
  166TCq2    O4 2535   0.686   1.283   0.880 -0.1937  0.0333  0.0656
  166TCq2    C9 2536   0.653   0.838   0.484 -0.4404  0.1204 -0.0764
  166TCq2    O5 2537   0.570   0.743   0.460  0.5565  0.6890 -0.4160
  166TCq2    O6 2538   0.764   0.850   0.431 -0.2983  0.4442  0.0095
  166TCq2    H2 2539   0.430   0.828   0.617 -1.0090 -0.1849  1.7090
  166TCq2    H3 2540   0.788   1.040   0.588 -0.9854  2.9189  1.9002
  166TCq2    H4 2541   0.519   1.136   0.901  2.5320  0.9613  0.7013
  167TMC2    C1 2542   3.018   3.935  12.957 -0.3820 -0.1185 -0.4070
  167TMC2    C2 2543   3.012   4.025  13.054  0.2206  1.0061  0.0059
  167TMC2    C3 2544   2.961   3.991  13.179  0.5736  0.2552  0.1385
  167TMC2    C4 2545   2.983   3.802  12.981  0.5084  0.4961 -0.1285
  167TMC2    C5 2546   2.936   3.771  13.109 -1.1582 -0.5957 -0.6229
  167TMC2    C6 2547   2.918   3.867  13.204  0.5962 -0.4771  0.9641
  167TMC2     C 2548   3.088   3.969  12.837  0.5808 -0.1633 -0.5197
  167TMC2     O 2549   3.142   4.081  12.839 -0.6885  0.0905 -0.1704
  167TMC2     H 2550   3.032   4.130  13.036 -1.8327  1.3596 -0.2123
  167TMC2    H1 2551   2.988   3.729  12.901  0.8364 -1.4677  1.6766
  167TMC2    H2 2552   2.895   3.843  13.307  0.4847  2.0637  1.5276
  167TMC2    C7 2553   2.885   3.636  13.130  0.0172 -0.2863  0.2584
  167TMC2    C8 2554   2.941   4.088  13.284  0.1552 -0.1225 -0.4165
  167TMC2    O1 2555   2.800   3.620  13.218  0.2612  0.7643 -0.2299
  167TMC2    O2 2556   2.838   4.100  13.341  0.7076 -0.3495  0.5047
  167TMC2    O5 2557   3.059   4.135  13.328 -0.3804 -0.8039 -0.2502
  167TMC2    H5 2558   3.138   4.097  13.285 -1.2486 -0.9126 -1.7508
  168MPD2     C 2559   3.210   3.966  12.560  0.1063  0.1902  0.4590
  168MPD2    C1 2560   3.099   3.894  12.599  0.0762 -0.2990 -0.0493
  168MPD2    C2 2561   3.042   3.799  12.506 -0.1442 -0.2980  0.9612
  168MPD2    C3 2562   3.119   3.764  12.397 -0.3246  0.4762  0.4349
  168MPD2    C4 2563   3.234   3.833  12.369 -0.1121 -0.1327  1.1275
  168MPD2    C5 2564   3.277   3.931  12.449  0.2160  0.4200  0.6025
  168MPD2     H 2565   2.946   3.751  12.521 -0.4364  0.8176  2.6165
  168MPD2    H1 2566   3.296   3.825  12.280  0.0468  1.4309  1.0896
  168MPD2    H2 2567   3.250   4.035  12.633 -2.4513  0.2137  1.8277
  168MPD2    H3 2568   3.371   3.984  12.435  0.4866 -0.3662 -0.5424
  168MPD2     N 2569   3.076   3.658  12.310 -0.1164  0.2596  0.0960
  168MPD2    H5 2570   3.134   3.637  12.229 -0.8109  2.3403 -0.9498
  168MPD2    N1 2571   3.049   3.890  12.732  0.3448 -0.1546  0.2792
  168MPD2    H7 2572   2.972   3.825  12.748  1.9620 -2.4508 -1.1018
  169MPD1     C 2573   1.182   2.233  10.726  0.2629 -0.3434  0.2648
  169MPD1    C1 2574   1.217   2.222  10.593  0.2271  0.4356  0.2168
  169MPD1    C2 2575   1.158   2.124  10.516 -0.0667 -0.0934 -0.1697
  169MPD1    C3 2576   1.058   2.035  10.570  0.2045  0.0324  0.0534
  169MPD1    C4 2577   1.025   2.047  10.702 -0.0351  0.3096  0.0302
  169MPD1    C5 2578   1.086   2.142  10.778 -0.3362 -0.4663  0.5294
  169MPD1     H 2579   1.190   2.107  10.414 -0.0568  0.4962 -0.2633
  169MPD1    H1 2580   0.953   1.981  10.748 -1.1898  2.0876  0.7658
  169MPD1    H2 2581   1.217   2.315  10.788  0.3813 -1.2324  1.3754
  169MPD1    H3 2582   1.052   2.135  10.880 -2.2019 -1.2759 -0.1313
  169MPD1     N 2583   1.006   1.936  10.479 -0.0495 -0.2309 -0.7908
  169MPD1    H5 2584   1.029   1.956  10.382 -0.2394  0.1285 -0.7614
  169MPD1    N1 2585   1.301   2.313  10.530  0.0470 -0.3686 -0.0660
  169MPD1    H6 2586   1.337   2.282  10.440 -0.7919 -0.3602 -0.4115
  169MPD1    H7 2587   1.376   2.359  10.580 -0.9108 -0.3109  1.3087
  170MPD1     C 2588   3.075   0.505  13.606  0.3002 -0.3832  0.3124
  170MPD1    C1 2589   3.070   0.564  13.732  0.3866  0.7629 -0.0242
  170MPD1    C2 2590   3.161   0.669  13.756 -0.2150 -0.1478 -0.1278
  170MPD1    C3 2591   3.264   0.703  13.674  0.5366 -0.3120  0.1683
  170MPD1    C4 2592   3.266   0.643  13.550  0.9957  0.6188 -0.2100
  170MPD1    C5 2593   3.170   0.549  13.522  0.3701 -0.2871 -0.1006
  170MPD1     H 2594   3.149   0.729  13.846 -3.4055  1.6899 -1.7781
  170MPD1    H1 2595   3.339   0.664  13.473  1.9214 -2.2448 -0.1042
  170MPD1    H2 2596   3.002   0.433  13.569  1.5001 -1.9975  1.0746
  170MPD1    H3 2597   3.175   0.500  13.426  0.1233 -1.3315  0.4276
  170MPD1     N 2598   3.359   0.802  13.713  0.3101  0.1852 -0.3112
  170MPD1    H5 2599   3.344   0.841  13.806 -2.5423  0.5069 -0.8987
  170MPD1    N1 2600   2.957   0.545  13.809  0.3613 -0.5286  0.1056
  170MPD1    H6 2601   2.958   0.445  13.829 -0.8812 -0.8372 -1.3479
  170MPD1    H7 2602   2.976   0.585  13.900  0.1679 -0.7985  0.2655
  171MPD1     C 2603   2.289   2.288  15.833 -0.1706  0.4217 -0.8973
  171MPD1    C1 2604   2.277   2.159  15.801 -0.5947 -0.1688  0.3809
  171MPD1    C2 2605   2.314   2.055  15.888 -0.4039  0.6774 -1.1927
  171MPD1    C3 2606   2.389   2.088  15.999 -0.3536  0.2072 -0.5869
  171MPD1    C4 2607   2.415   2.222  16.024 -0.0674 -1.1905  0.4272
  171MPD1    C5 2608   2.346   2.314  15.945 -0.1760 -0.1480 -0.5027
  171MPD1     H 2609   2.289   1.951  15.869 -0.6677  0.6263 -0.5673
  171MPD1    H1 2610   2.464   2.263  16.112  1.0571 -0.8289 -0.3789
  171MPD1    H2 2611   2.257   2.372  15.771 -1.8254  1.1032  0.8885
  171MPD1    H3 2612   2.356   2.419  15.971 -1.3480 -0.4290  1.1138
  171MPD1     N 2613   2.448   1.992  16.090  0.2756  0.1474  0.2569
  171MPD1    H5 2614   2.498   2.028  16.170  1.6799 -0.4800 -0.3440
  171MPD1    N1 2615   2.199   2.133  15.692  0.1131 -0.5719 -0.0068
  171MPD1    H6 2616   2.203   2.039  15.653  0.8403 -0.6694  0.2980
  171MPD1    H7 2617   2.219   2.205  15.623  2.3048 -0.9604  0.2279
  172MPD1     C 2618   1.360   1.140   0.609  0.0389  0.1111  0.6109
  172MPD1    C1 2619   1.275   1.216   0.525 -0.5280 -0.4623 -0.1276
  172MPD1    C2 2620   1.292   1.357   0.532  0.1568 -0.0149 -0.8547
  172MPD1    C3 2621   1.395   1.411   0.600  0.0031  0.5281  0.0532
  172MPD1    C4 2622   1.499   1.333   0.658 -0.1737 -0.0178  0.1343
  172MPD1    C5 2623   1.469   1.197   0.672 -0.4879  0.0573  0.2165
  172MPD1     H 2624   1.225   1.426   0.482 -0.6527  0.1498  0.4545
  172MPD1    H1 2625   1.587   1.381   0.700 -0.4813  0.5288  0.1630
  172MPD1    H2 2626   1.331   1.036   0.618  0.1908  0.0407  0.2746
  172MPD1    H3 2627   1.524   1.136   0.742 -0.3067 -2.3568 -2.0485
  172MPD1     N 2628   1.424   1.550   0.600  1.0443  0.5320 -0.0240
  172MPD1    H5 2629   1.506   1.573   0.656 -0.8575  0.1089  2.9151
  172MPD1    N1 2630   1.163   1.155   0.470  0.4816  0.2738 -0.0980
  172MPD1    H6 2631   1.190   1.066   0.430  1.3289  0.8518 -0.8171
  172MPD1    H7 2632   1.116   1.219   0.407  1.0359  1.6108  0.8368
  173MPD1     C 2633   2.980   1.476  13.965 -0.5149  0.6113 -0.7724
  173MPD1    C1 2634   2.968   1.345  13.928 -0.2512 -0.2440 -0.5498
  173MPD1    C2 2635   2.930   1.255  14.023  0.6189  0.5325  0.1539
  173MPD1    C3 2636   2.910   1.297  14.157  1.0426  0.0276  0.3927
  173MPD1    C4 2637   2.936   1.430  14.197 -0.0835 -0.0790  0.0327
  173MPD1    C5 2638   2.959   1.518  14.096  0.1534 -0.6089  0.1366
  173MPD1     H 2639   2.903   1.155  13.992 -0.1466  1.0897 -0.9775
  173MPD1    H1 2640   2.916   1.467  14.297  1.2776  0.5809  0.0637
  173MPD1    H2 2641   3.013   1.549  13.892 -2.0149  1.1431 -0.9275
  173MPD1    H3 2642   2.963   1.624  14.117  1.1472 -0.6041 -0.0807
  173MPD1     N 2643   2.876   1.187  14.247 -0.0096 -0.2108 -0.1909
  173MPD1    H5 2644   2.900   1.099  14.202 -0.8488 -2.3567  3.4808
  173MPD1    N1 2645   2.984   1.308  13.788  0.2633 -0.1312 -0.3137
  173MPD1    H6 2646   2.982   1.208  13.771 -1.1136 -0.4758  1.8374
  173MPD1    H7 2647   3.073   1.336  13.748  0.7574  0.3990  1.1832
  174MPD1     C 2648   2.604   0.257  14.126 -0.5545  0.3570 -0.6067
  174MPD1    C1 2649   2.637   0.377  14.062 -0.0502  0.1793 -0.6050
  174MPD1    C2 2650   2.669   0.484  14.146 -0.2302 -0.6348  0.3652
  174MPD1    C3 2651   2.636   0.491  14.276  0.1551  0.0103  0.5323
  174MPD1    C4 2652   2.581   0.375  14.333 -0.5387 -0.0988  0.4970
  174MPD1    C5 2653   2.567   0.256  14.261 -0.0909 -0.2889  0.8209
  174MPD1     H 2654   2.702   0.567  14.086 -1.8956  0.0154  0.3613
  174MPD1    H1 2655   2.545   0.378  14.435  0.0758 -1.4445  0.7502
  174MPD1    H2 2656   2.589   0.168  14.066  1.5864 -0.1668 -0.3797
  174MPD1    H3 2657   2.536   0.168  14.316 -1.0852  0.0137  0.7399
  174MPD1     N 2658   2.647   0.611  14.359  0.9457 -0.3658 -0.2948
  174MPD1    H5 2659   2.608   0.616  14.453 -1.5083 -1.3478 -1.2613
  174MPD1    N1 2660   2.689   0.371  13.930  0.9430 -0.3792 -0.7194
  174MPD1    H6 2661   2.691   0.455  13.871 -0.3266  0.3435  0.2518
  174MPD1    H7 2662   2.638   0.296  13.884  0.4594  1.0869 -2.5914
  175MPD1     C 2663   1.090   2.033  15.250 -0.1515 -0.3646 -1.0576
  175MPD1    C1 2664   1.089   2.157  15.293  0.0150  0.9769  0.4054
  175MPD1    C2 2665   1.129   2.187  15.422  0.0887  0.7806  0.3735
  175MPD1    C3 2666   1.148   2.088  15.515 -0.2779 -0.0202 -0.2364
  175MPD1    C4 2667   1.135   1.961  15.466  0.6746 -0.2597 -0.7822
  175MPD1    C5 2668   1.117   1.932  15.336  0.0374  0.1901  0.3279
  175MPD1     H 2669   1.141   2.291  15.448  0.2670  0.5145  1.3699
  175MPD1    H1 2670   1.156   1.875  15.527 -0.2980 -1.0268 -1.5284
  175MPD1    H2 2671   1.066   2.004  15.149 -0.0570 -1.3737 -0.7903
  175MPD1    H3 2672   1.124   1.828  15.308 -2.2778 -0.7637  3.2784
  175MPD1     N 2673   1.178   2.104  15.654  0.3463  0.6063 -0.6538
  175MPD1    H5 2674   1.201   2.023  15.710  0.9615  1.6255  0.5627
  175MPD1    N1 2675   1.068   2.265  15.208  0.2126 -0.5213 -0.0231
  175MPD1    H6 2676   1.035   2.231  15.119 -3.2806  0.5019  0.8815
  175MPD1    H7 2677   1.008   2.332  15.257  0.8970  0.8499 -1.0635
  176MPD1     C 2678   4.177   4.435   0.575  0.1695 -0.2086 -0.4315
  176MPD1    C1 2679   4.194   4.569   0.624  0.0255  0.4459 -0.3033
  176MPD1    C2 2680   4.090   4.650   0.611  0.3293  0.1260  0.6772
  176MPD1    C3 2681   3.988   4.619   0.513  0.3955  0.3402  0.4381
  176MPD1    C4 2682   3.984   4.492   0.458  0.0500 -0.4479 -0.1926
  176MPD1    C5 2683   4.075   4.400   0.486 -0.1133 -0.8842  0.6469
  176MPD1     H 2684   4.098   0.026   0.652  2.4206  0.6844 -1.1125
  176MPD1    H1 2685   3.916   4.460   0.379  2.3964 -1.9441 -1.6339
  176MPD1    H2 2686   4.254   4.359   0.573  2.2545  1.8447  2.2230
  176MPD1    H3 2687   4.071   4.305   0.434 -0.3348 -0.5322  0.0133
  176MPD1     N 2688   3.885   4.716   0.488 -0.2906 -0.7450 -0.7103
  176MPD1    H5 2689   3.883   0.080   0.537  0.4260 -0.3608 -1.3699
  176MPD1    N1 2690   4.295   4.590   0.720  0.2101  0.2338 -0.1040
  176MPD1    H6 2691   4.331   4.685   0.723 -0.7264  0.6976 -4.0041
  176MPD1    H7 2692   4.375   4.528   0.709 -1.2925 -1.5962 -0.5954
  177MPD1     C 2693   2.281   2.680  10.948 -0.6605 -0.5101 -0.0271
  177MPD1    C1 2694   2.251   2.617  10.830  0.4919  0.5037 -0.1923
  177MPD1    C2 2695   2.214   2.706  10.724 -0.4490 -0.2470 -0.4717
  177MPD1    C3 2696   2.194   2.836  10.741 -0.3856  0.2878 -0.4364
  177MPD1    C4 2697   2.213   2.894  10.862 -0.2852 -0.3937  0.3954
  177MPD1    C5 2698   2.261   2.818  10.966  0.0174 -0.2513  0.2989
  177MPD1     H 2699   2.211   2.669  10.623 -0.5596  1.2934 -1.0427
  177MPD1    H1 2700   2.200   3.000  10.881  1.5845 -0.1666  0.3403
  177MPD1    H2 2701   2.307   2.617  11.032  1.3707 -0.4217 -0.5822
  177MPD1    H3 2702   2.279   2.866  11.061  0.4919 -2.0981  1.1443
  177MPD1     N 2703   2.146   2.910  10.623 -0.1800  0.1159 -0.2988
  177MPD1    H5 2704   2.109   2.858  10.544 -1.4887  1.6532 -0.6961
  177MPD1    N1 2705   2.288   2.489  10.800 -0.2056 -0.1102  0.0121
  177MPD1    H6 2706   2.217   2.444  10.743 -0.6803 -1.2406  1.5103
  177MPD1    H7 2707   2.291   2.430  10.883 -1.9001 -1.2938 -0.7959
  178MPD1     C 2708   3.978   0.434  17.520  0.1981  0.4243  0.1623
  178MPD1    C1 2709   4.114   0.444  17.530 -0.5856 -0.3054 -0.3044
  178MPD1    C2 2710   4.183   0.327  17.554  0.3651  0.2088 -0.4426
  178MPD1    C3 2711   4.115   0.211  17.558  0.2706  0.0201  0.5623
  178MPD1    C4 2712   3.976   0.204  17.549  0.0491 -0.0829  0.1240
  178MPD1    C5 2713   3.909   0.316  17.514  0.2134 -0.2323  0.1669
  178MPD1     H 2714   4.291   0.324  17.550  0.4923  2.2951  1.2775
  178MPD1    H1 2715   3.921   0.112  17.561  0.3169 -0.3999 -1.0759
  178MPD1    H2 2716   3.910   0.517  17.506  0.4002  0.3902 -1.0814
  178MPD1    H3 2717   3.801   0.310  17.513  0.2324 -0.5978  0.4405
  178MPD1     N 2718   4.177   0.088  17.570 -0.0266  0.1844  0.4369
  178MPD1    H5 2719   4.114   0.009  17.554  1.3531 -1.0094  0.8647
  178MPD1    N1 2720   4.183   0.563  17.550  0.1929 -0.3556 -0.1471
  178MPD1    H6 2721   4.284   0.555  17.540  0.3735 -1.7297  2.7914
  178MPD1    H7 2722   4.151   0.634  17.484 -0.7503 -1.0911 -0.4824
  179MPD1     C 2723   2.725   2.943  16.723  0.1460  0.0985  0.2019
  179MPD1    C1 2724   2.684   2.905  16.597 -0.4039  0.0428  0.1123
  179MPD1    C2 2725   2.783   2.885  16.506  0.6293 -0.2258 -0.5498
  179MPD1    C3 2726   2.909   2.915  16.538 -0.4972 -0.2898 -0.5117
  179MPD1    C4 2727   2.946   2.959  16.661 -0.7403 -0.5084  0.3074
  179MPD1    C5 2728   2.847   2.983  16.754 -0.5133 -0.1343 -0.1300
  179MPD1     H 2729   2.757   2.834  16.414 -2.4971 -0.2155  0.3419
  179MPD1    H1 2730   3.046   2.993  16.687 -2.6426  3.1138  2.8800
  179MPD1    H2 2731   2.648   2.941  16.799 -0.9728 -2.7618 -1.0146
  179MPD1    H3 2732   2.870   3.024  16.851  2.4111  0.8106 -1.2161
  179MPD1     N 2733   3.023   2.887  16.451 -0.0845  0.5196 -0.3249
  179MPD1    H5 2734   3.115   2.901  16.490  1.0229 -2.5722 -1.8420
  179MPD1    N1 2735   2.548   2.873  16.589 -0.0926  0.0044 -0.1093
  179MPD1    H6 2736   2.510   2.905  16.500 -0.0687 -2.7339 -1.1118
  179MPD1    H7 2737   2.482   2.892  16.663 -1.4363  1.2632 -1.6374
  180MPD1     C 2738   3.338   0.323  15.356 -0.0530 -0.9652  0.0442
  180MPD1    C1 2739   3.432   0.353  15.257  0.2454 -0.0390 -0.0993
  180MPD1    C2 2740   3.419   0.283  15.139 -0.1340 -0.3824  0.2501
  180MPD1    C3 2741   3.315   0.194  15.112  0.0373 -0.3895 -0.3182
  180MPD1    C4 2742   3.217   0.178  15.211 -0.8256 -0.4036 -1.0646
  180MPD1    C5 2743   3.238   0.235  15.330  0.0583 -0.4698 -0.4522
  180MPD1     H 2744   3.499   0.301  15.067  0.1185  2.2407  1.1752
  180MPD1    H1 2745   3.129   0.116  15.195 -1.7591  0.5803  0.2794
  180MPD1    H2 2746   3.339   0.376  15.450 -1.0527  1.1308 -1.1365
  180MPD1    H3 2747   3.164   0.225  15.409 -2.9026 -0.6106 -3.2753
  180MPD1     N 2748   3.318   0.129  14.984 -0.1535 -0.0709  0.1024
  180MPD1    H5 2749   3.400   0.154  14.931  0.1096  0.0252  0.5501
  180MPD1    N1 2750   3.550   0.425  15.292  0.3689  0.1637 -0.2076
  180MPD1    H6 2751   3.529   0.508  15.348 -1.9797 -1.3772  1.1723
  180MPD1    H7 2752   3.594   0.463  15.208  2.0886 -0.2170  0.5304
  181MPD1     C 2753   2.223   1.107   9.688 -0.5898  1.2110  0.1804
  181MPD1    C1 2754   2.111   1.184   9.707 -0.4596  0.6113 -0.3675
  181MPD1    C2 2755   2.002   1.133   9.776 -0.1530  0.0936 -0.0488
  181MPD1    C3 2756   2.012   1.018   9.851  0.6993 -0.6910 -0.0525
  181MPD1    C4 2757   2.126   0.938   9.833 -0.0264 -0.5026 -0.3498
  181MPD1    C5 2758   2.233   0.980   9.747  0.1167 -0.0742  0.1069
  181MPD1     H 2759   1.910   1.190   9.772  0.2377  0.3885 -3.9336
  181MPD1    H1 2760   2.136   0.848   9.892 -2.3501 -0.8457 -0.4497
  181MPD1    H2 2761   2.311   1.145   9.637 -0.8646  1.0310 -0.4365
  181MPD1    H3 2762   2.321   0.919   9.739  0.9859  1.1714  0.1186
  181MPD1     N 2763   1.912   0.971   9.936 -0.3602  0.2735  0.4630
  181MPD1    H5 2764   1.932   0.880   9.977 -4.8953 -0.4415  1.0528
  181MPD1    N1 2765   2.102   1.318   9.655 -0.3173 -0.3978  0.7145
  181MPD1    H6 2766   2.189   1.370   9.660 -0.7140  0.2816  0.4732
  181MPD1    H7 2767   2.025   1.374   9.691 -1.5954 -2.1308  0.6806
  182MPD1     C 2768   1.983   0.593   1.906  0.7532  0.2822 -0.2304
  182MPD1    C1 2769   1.916   0.474   1.900 -0.0065 -0.1354  0.3412
  182MPD1    C2 2770   1.792   0.467   1.822 -0.1595 -0.3940 -0.1602
  182MPD1    C3 2771   1.738   0.572   1.758 -0.0424 -0.4316  0.0990
  182MPD1    C4 2772   1.805   0.693   1.776  0.6815 -0.1474  0.0669
  182MPD1    C5 2773   1.917   0.705   1.853 -0.3560 -0.0166  0.0842
  182MPD1     H 2774   1.755   0.368   1.798  4.1489 -1.8456 -0.8619
  182MPD1    H1 2775   1.771   0.785   1.731 -1.6092 -0.0565  2.0050
  182MPD1    H2 2776   2.069   0.601   1.972  0.9032 -2.1400 -0.1567
  182MPD1    H3 2777   1.958   0.805   1.858 -0.5192  0.0000  1.0793
  182MPD1     N 2778   1.624   0.579   1.671  0.3477 -0.2195  0.4111
  182MPD1    H5 2779   1.601   0.666   1.625  0.8348  0.2349  1.0138
  182MPD1    N1 2780   1.984   0.355   1.944  0.1794 -0.6627  0.0002
  182MPD1    H6 2781   2.057   0.370   2.014 -1.0559 -1.2248  1.3994
  182MPD1    H7 2782   1.924   0.285   1.986 -3.1166  1.4627 -1.1432
  183MPD1     C 2783   3.205   0.922  10.067 -0.9405 -0.2199 -0.0540
  183MPD1    C1 2784   3.097   0.964   9.994  0.2317 -0.2647 -0.2102
  183MPD1    C2 2785   2.975   0.903  10.023 -0.0229  0.4194 -0.1120
  183MPD1    C3 2786   2.962   0.818  10.125 -0.1010  0.3225  0.3690
  183MPD1    C4 2787   3.070   0.780  10.199 -0.0726 -0.1181 -0.0711
  183MPD1    C5 2788   3.194   0.831  10.166 -0.3167 -0.4071  0.2034
  183MPD1     H 2789   2.888   0.936   9.967 -1.2721 -0.1720  1.4774
  183MPD1    H1 2790   3.069   0.709  10.282 -0.6426 -1.8785 -1.5699
  183MPD1    H2 2791   3.304   0.966  10.057 -1.2516  0.0819 -1.8516
  183MPD1    H3 2792   3.281   0.795  10.220  2.6492  2.4062 -2.6923
  183MPD1     N 2793   2.837   0.767  10.141 -0.0416  0.6086  0.0142
  183MPD1    H5 2794   2.767   0.794  10.073 -0.5365 -0.7957 -0.0350
  183MPD1    N1 2795   3.105   1.041   9.881  0.3431  0.5900 -0.1210
  183MPD1    H6 2796   3.028   1.108   9.886  0.8462  1.1930 -0.5566
  183MPD1    H7 2797   3.177   1.111   9.869 -1.4178  2.2084 -1.3529
  184MPD1     C 2798   0.494   2.993  10.573  0.0975  0.3603 -0.1412
  184MPD1    C1 2799   0.611   2.957  10.640 -0.4269  0.4303  0.3573
  184MPD1    C2 2800   0.728   2.938  10.578  0.5931 -0.2869 -0.3612
  184MPD1    C3 2801   0.737   2.965  10.444 -1.1415 -0.3007 -0.0916
  184MPD1    C4 2802   0.625   3.002  10.380  0.2154  0.8220  0.5332
  184MPD1    C5 2803   0.504   3.016  10.438 -0.6880  0.4054 -0.2465
  184MPD1     H 2804   0.811   2.915  10.643 -0.6077 -0.0928  1.2289
  184MPD1    H1 2805   0.638   3.024  10.274  0.6877  0.4820  0.5202
  184MPD1    H2 2806   0.397   2.995  10.622 -0.1804 -0.2560 -0.6636
  184MPD1    H3 2807   0.425   3.058  10.376  0.2326 -0.9921 -2.3581
  184MPD1     N 2808   0.855   2.947  10.364 -0.4814 -1.2902 -0.5004
  184MPD1    H5 2809   0.833   2.941  10.265 -0.5881  2.3921 -0.7224
  184MPD1    N1 2810   0.613   2.929  10.781 -0.1946 -0.1136  0.2846
  184MPD1    H6 2811   0.542   2.978  10.835  1.0080  1.7235  0.2030
  184MPD1    H7 2812   0.706   2.945  10.818 -0.9321  1.5009  1.4091
  185MPD1     C 2813   1.196   3.099   9.483 -0.9317  0.0850  0.4046
  185MPD1    C1 2814   1.083   3.067   9.547 -0.8119 -0.4163  0.1843
  185MPD1    C2 2815   1.085   3.051   9.681  0.0303 -0.2591  0.4602
  185MPD1    C3 2816   1.201   3.078   9.753  0.2240 -0.3815 -0.1028
  185MPD1    C4 2817   1.306   3.138   9.689 -0.8862 -0.6006 -0.2479
  185MPD1    C5 2818   1.302   3.142   9.554  0.4926 -0.3922  0.1504
  185MPD1     H 2819   0.998   3.017   9.737 -0.9356  0.1022 -0.8069
  185MPD1    H1 2820   1.394   3.183   9.734 -0.4463 -0.9195 -0.7925
  185MPD1    H2 2821   1.213   3.099   9.376 -0.1358  2.4905  0.5356
  185MPD1    H3 2822   1.383   3.183   9.494  0.1841  0.3278  0.2241
  185MPD1     N 2823   1.209   3.045   9.896 -0.2967  0.2927  0.4117
  185MPD1    H5 2824   1.279   3.092   9.952 -0.7396  0.6828  0.6372
  185MPD1    N1 2825   0.965   3.028   9.476 -0.2488 -0.2234 -0.5706
  185MPD1    H6 2826   0.894   3.085   9.523 -1.1876  0.5492 -2.9392
  185MPD1    H7 2827   0.966   3.070   9.383  1.2129 -1.5601 -1.1450
  186MPD1     C 2828   4.006   3.022  15.538 -0.0897 -0.0928 -0.4328
  186MPD1    C1 2829   3.990   3.151  15.580 -0.2503 -0.2768 -0.1377
  186MPD1    C2 2830   4.068   3.199  15.688  0.4514  0.4658  0.0270
  186MPD1    C3 2831   4.159   3.112  15.744 -0.0140 -0.5302 -0.1680
  186MPD1    C4 2832   4.177   2.987  15.690 -0.0211 -0.0612 -0.1462
  186MPD1    C5 2833   4.095   2.938  15.592  0.6916  0.3452 -0.5928
  186MPD1     H 2834   4.054   3.300  15.725 -1.1407  0.9114 -1.7829
  186MPD1    H1 2835   4.257   2.927  15.732  2.7974  2.1413 -2.4145
  186MPD1    H2 2836   3.943   2.982  15.459  0.3171 -0.3608 -0.6221
  186MPD1    H3 2837   4.098   2.833  15.562  0.7246 -0.3441  1.8370
  186MPD1     N 2838   4.245   3.146  15.856  0.9326 -0.2259  0.1975
  186MPD1    H5 2839   4.306   3.073  15.892  0.0660 -1.8407 -1.5919
  186MPD1    N1 2840   3.880   3.220  15.534  0.2591 -0.5201  0.2858
  186MPD1    H6 2841   3.872   3.321  15.550  3.3171 -0.1492 -0.4538
  186MPD1    H7 2842   3.865   3.193  15.437  2.7235 -1.5425  0.1948
  187MPD1     C 2843   3.515   1.252   0.777  0.3718 -0.6349 -0.3169
  187MPD1    C1 2844   3.506   1.116   0.764 -0.1363  0.1117 -0.3975
  187MPD1    C2 2845   3.460   1.065   0.640  0.2973  0.1806 -0.0119
  187MPD1    C3 2846   3.415   1.143   0.541 -0.4778  0.0179 -0.4427
  187MPD1    C4 2847   3.413   1.284   0.562  0.0067  0.5568  0.5417
  187MPD1    C5 2848   3.461   1.330   0.679  0.2140 -0.1195 -0.7364
  187MPD1     H 2849   3.446   0.959   0.628 -3.1233  0.7894 -1.4138
  187MPD1    H1 2850   3.387   1.365   0.495  5.5985  1.5250 -0.4500
  187MPD1    H2 2851   3.560   1.307   0.859 -0.7282 -0.1912 -0.0094
  187MPD1    H3 2852   3.445   1.435   0.699  1.2281 -0.4222  1.7482
  187MPD1     N 2853   3.366   1.104   0.414 -0.1471 -0.1225  0.1706
  187MPD1    H5 2854   3.330   1.179   0.357 -2.1596  0.2551  1.9470
  187MPD1    N1 2855   3.558   1.024   0.857 -0.3861 -0.4589 -0.4076
  187MPD1    H6 2856   3.505   0.937   0.849 -1.5646  0.4216 -2.1028
  187MPD1    H7 2857   3.551   1.065   0.950 -2.5352 -2.0705  0.1483
  188MPD1     C 2858   2.825   4.176  10.379  0.4710 -0.5003  0.3618
  188MPD1    C1 2859   2.962   4.186  10.387  0.2883  0.1885 -0.2327
  188MPD1    C2 2860   3.030   4.108  10.293 -0.1134 -0.3470  0.0575
  188MPD1    C3 2861   2.974   4.001  10.218 -0.3508 -0.6968 -0.2164
  188MPD1    C4 2862   2.837   3.990  10.226  0.1419  0.0452 -0.0878
  188MPD1    C5 2863   2.761   4.071  10.305  0.1689  0.4267 -0.8672
  188MPD1     H 2864   3.138   4.120  10.291 -0.0270 -1.2034 -0.2317
  188MPD1    H1 2865   2.792   3.905  10.176 -2.7722  2.4975 -1.6631
  188MPD1    H2 2866   2.756   4.232  10.441 -0.2919 -0.3481 -0.6233
  188MPD1    H3 2867   2.654   4.057  10.308  0.4481 -1.0475  1.8445
  188MPD1     N 2868   3.043   3.925  10.128  0.2078  0.6395  0.2431
  188MPD1    H5 2869   2.988   3.854  10.081 -0.2899  0.4615  1.0921
  188MPD1    N1 2870   3.013   4.297  10.452  0.0051 -0.2804 -0.0690
  188MPD1    H6 2871   3.089   4.260  10.510 -0.3745 -0.2594  0.4421
  188MPD1    H7 2872   2.943   4.340  10.512 -0.8280 -0.9516 -0.5570
  189MPD1     C 2873   0.257   0.953   0.050 -0.0927 -0.7278 -0.0838
  189MPD1    C1 2874   0.162   0.860   0.092  0.0708 -0.5206 -0.2197
  189MPD1    C2 2875   0.041   0.908   0.132  0.0403 -0.5026  0.2718
  189MPD1    C3 2876   0.006   1.039   0.123  0.4806  0.9404  0.8198
  189MPD1    C4 2877   0.097   1.127   0.073  0.6522  0.0454 -0.4484
  189MPD1    C5 2878   0.221   1.084   0.031  0.0353 -0.6770  0.4643
  189MPD1     H 2879   4.691   0.837   0.164 -0.5492  0.0160  0.0512
  189MPD1    H1 2880   0.076   1.231   0.047 -2.0132  0.3085  2.7410
  189MPD1    H2 2881   0.355   0.909   0.031 -0.0896 -1.0754  0.7532
  189MPD1    H3 2882   0.286   1.155  17.681  0.1305 -0.4068  0.9713
  189MPD1     N 2883   4.598   1.073   0.151 -0.3445  0.4076 -0.8199
  189MPD1    H5 2884   4.536   0.993   0.161 -1.3808  1.4123  0.6854
  189MPD1    N1 2885   0.206   0.727   0.113 -0.2418 -0.2678 -0.7335
  189MPD1    H6 2886   0.291   0.699   0.065 -0.0359 -0.6561 -0.1354
  189MPD1    H7 2887   0.132   0.659   0.096 -0.5846 -0.4608  1.4948
  190MPD1     C 2888   4.456   0.402  15.195 -0.2513  0.0159  0.3003
  190MPD1    C1 2889   4.560   0.315  15.186 -0.0274 -0.6883 -0.1180
  190MPD1    C2 2890   4.557   0.209  15.279  0.1720  0.1911 -1.0380
  190MPD1    C3 2891   4.458   0.193  15.374 -0.3811 -0.1215 -0.4828
  190MPD1    C4 2892   4.353   0.289  15.388 -0.0482  0.7012  0.1193
  190MPD1    C5 2893   4.355   0.385  15.293 -0.3144  0.9149  0.8032
  190MPD1     H 2894   4.626   0.126  15.269  1.2093  0.7164  1.8741
  190MPD1    H1 2895   4.276   0.290  15.463  1.1162 -0.2526  1.3356
  190MPD1    H2 2896   4.445   0.475  15.116  1.7639  0.7965  0.7257
  190MPD1    H3 2897   4.273   0.456  15.298 -0.9556  0.2255 -0.0104
  190MPD1     N 2898   4.477   0.081  15.463  1.0945 -0.3508 -0.4984
  190MPD1    H5 2899   4.558   0.024  15.439  1.7741  0.3231  0.1769
  190MPD1    N1 2900   4.648   0.318  15.076  0.0756  0.6035  0.3783
  190MPD1    H6 2901   0.014   0.276  15.096 -0.4515  0.0698  1.7073
  190MPD1    H7 2902   4.662   0.412  15.041  0.5563  0.9670  1.5223
  191MPD1     C 2903   2.637   1.146  13.062  0.5332  0.6069  0.6419
  191MPD1    C1 2904   2.543   1.215  12.988  0.5034  0.8624  0.5891
  191MPD1    C2 2905   2.584   1.249  12.861  0.4601 -1.0073 -0.7030
  191MPD1    C3 2906   2.705   1.209  12.801  0.1563 -0.2153 -0.4568
  191MPD1    C4 2907   2.795   1.131  12.867 -0.3467 -0.6807  0.2468
  191MPD1    C5 2908   2.754   1.098  12.999 -0.0266  0.2431 -0.2999
  191MPD1     H 2909   2.520   1.323  12.814 -0.3176 -1.1967  0.0493
  191MPD1    H1 2910   2.892   1.108  12.825  0.3698  0.0761  1.4806
  191MPD1    H2 2911   2.629   1.126  13.168  1.5724  0.3981  0.6838
  191MPD1    H3 2912   2.819   1.043  13.067 -2.3648  0.0912  1.7925
  191MPD1     N 2913   2.739   1.273  12.676  0.4353  0.1868  0.4224
  191MPD1    H5 2914   2.671   1.342  12.646  3.8920  2.8321 -1.4087
  191MPD1    N1 2915   2.412   1.240  13.035  0.5770 -0.1371  0.0201
  191MPD1    H6 2916   2.383   1.178  13.111 -0.5786 -0.7542 -0.9251
  191MPD1    H7 2917   2.333   1.235  12.971 -0.0373  2.2738  0.5713
  192MPD1     C 2918   2.539   1.025  11.798  0.1994 -0.3806 -0.8203
  192MPD1    C1 2919   2.491   1.032  11.923  0.8323  0.2410 -0.0303
  192MPD1    C2 2920   2.549   1.121  12.010  0.5440  0.7271 -0.2421
  192MPD1    C3 2921   2.661   1.189  11.975 -0.7347 -0.4633  1.4305
  192MPD1    C4 2922   2.716   1.166  11.849  0.1307  0.4412  0.1204
  192MPD1    C5 2923   2.654   1.091  11.761  0.3328 -0.6660  0.3268
  192MPD1     H 2924   2.521   1.119  12.115  3.2099  3.3438  0.5018
  192MPD1    H1 2925   2.810   1.213  11.823  0.2509 -0.5715 -1.2383
  192MPD1    H2 2926   2.482   0.970  11.724  0.2434  0.1105 -1.2221
  192MPD1    H3 2927   2.685   1.084  11.657 -1.9199  3.3759 -0.5889
  192MPD1     N 2928   2.725   1.270  12.074 -0.1470  0.9029 -0.2163
  192MPD1    H5 2929   2.824   1.288  12.067 -0.2797  1.4288 -0.7815
  192MPD1    N1 2930   2.373   0.963  11.956 -0.7390  0.7115  0.2247
  192MPD1    H6 2931   2.356   0.940  12.054 -1.2222  1.6149  0.3532
  192MPD1    H7 2932   2.383   0.876  11.904 -1.6982  0.5478  0.3320
  193MPD1     C 2933   2.159   1.850  16.706  0.2970 -0.1367  0.4555
  193MPD1    C1 2934   2.281   1.794  16.642 -0.8568  0.4209  0.6624
  193MPD1    C2 2935   2.404   1.802  16.708  0.0757  0.0137 -0.7602
  193MPD1    C3 2936   2.420   1.880  16.820 -0.1821  0.5110  0.6519
  193MPD1    C4 2937   2.309   1.946  16.867 -0.5145  0.0311  0.6788
  193MPD1    C5 2938   2.184   1.920  16.823  0.1698  0.4845 -0.3660
  193MPD1     H 2939   2.489   1.756  16.659  0.2703 -0.3987 -0.0404
  193MPD1    H1 2940   2.320   2.010  16.954  0.3431  0.1513  0.4757
  193MPD1    H2 2941   2.063   1.850  16.656 -0.5046 -2.6196  2.0008
  193MPD1    H3 2942   2.105   1.971  16.876 -1.2539 -1.1503 -0.9058
  193MPD1     N 2943   2.542   1.916  16.883 -0.2229  0.4521 -0.0718
  193MPD1    H5 2944   2.543   1.991  16.951  1.0428  0.2643  0.1207
  193MPD1    N1 2945   2.257   1.725  16.525 -0.0431  0.3722  0.2257
  193MPD1    H6 2946   2.341   1.715  16.469 -0.0854 -0.5538  0.3289
  193MPD1    H7 2947   2.194   1.777  16.463  1.1948  0.6883 -0.7666
  194MPD1     C 2948   1.683   4.239   0.064  0.3695 -0.7647  0.1738
  194MPD1    C1 2949   1.774   4.190  17.678 -0.0268  0.2938 -0.1018
  194MPD1    C2 2950   1.775   4.056  17.653 -0.2634  0.1685 -0.4580
  194MPD1    C3 2951   1.694   3.970   0.021  0.1197 -0.0477  0.6128
  194MPD1    C4 2952   1.601   4.018   0.111 -0.3824 -0.3391 -0.0052
  194MPD1    C5 2953   1.602   4.156   0.133  0.8534  0.0264  0.0794
  194MPD1     H 2954   1.837   4.023  17.571  0.5791 -0.8416  0.5943
  194MPD1    H1 2955   1.536   3.953   0.168  2.5155 -1.0999  2.4137
  194MPD1    H2 2956   1.676   4.340   0.103 -1.8334 -0.1732 -1.8325
  194MPD1    H3 2957   1.542   4.199   0.212 -1.5905 -0.5287 -1.4873
  194MPD1     N 2958   1.693   3.830   0.001  0.6386  0.0119  0.0013
  194MPD1    H5 2959   1.623   3.779   0.054 -0.5723  1.7737  0.1107
  194MPD1    N1 2960   1.841   4.277  17.588 -0.4221  0.0209 -1.0056
  194MPD1    H6 2961   1.919   4.234  17.539  0.9732  1.0570  0.3254
  194MPD1    H7 2962   1.856   4.372  17.621  0.7705 -0.4824 -0.1131
  195MPD1     C 2963   2.894   1.514   0.307 -0.2217 -0.0244 -0.3909
  195MPD1    C1 2964   2.769   1.451   0.314 -0.1375  0.0962  0.0571
  195MPD1    C2 2965   2.742   1.363   0.417  0.2013  0.0239 -0.1534
  195MPD1    C3 2966   2.836   1.335   0.514 -0.3178  0.2616  0.1754
  195MPD1    C4 2967   2.957   1.410   0.509 -0.5888 -0.6326  0.0416
  195MPD1    C5 2968   2.981   1.494   0.411  0.1964  0.8958 -0.6845
  195MPD1     H 2969   2.656   1.298   0.403  0.4323 -0.2811 -0.1425
  195MPD1    H1 2970   3.035   1.387   0.580  0.1433  1.2798 -0.1572
  195MPD1    H2 2971   2.921   1.587   0.232  0.0272  0.8204  0.5129
  195MPD1    H3 2972   3.070   1.555   0.401  1.1475 -0.3726  0.0684
  195MPD1     N 2973   2.836   1.230   0.602  0.4150  0.8992  0.1508
  195MPD1    H5 2974   2.909   1.222   0.673  0.3392  1.0323  0.2436
  195MPD1    N1 2975   2.662   1.481   0.224  0.1358 -0.2017 -0.2969
  195MPD1    H6 2976   2.698   1.530   0.143 -2.0930  0.9591 -0.5964
  195MPD1    H7 2977   2.608   1.399   0.195  1.9412 -1.2056 -0.8398
  196MPD1     C 2978   1.851   4.362   0.880  0.1856  0.0892  0.2415
  196MPD1    C1 2979   1.774   4.474   0.896  0.0225  0.7278 -0.6116
  196MPD1    C2 2980   1.835   4.585   0.949  0.2412  0.5619 -0.1230
  196MPD1    C3 2981   1.968   4.590   0.972  0.2755  0.1333 -0.8078
  196MPD1    C4 2982   2.045   4.477   0.950 -0.4608 -0.1343  0.0080
  196MPD1    C5 2983   1.983   4.365   0.906 -0.5573 -0.0476  0.1724
  196MPD1     H 2984   1.774   4.670   0.979 -0.9991  0.2230 -1.7054
  196MPD1    H1 2985   2.147   4.467   0.985 -1.2744 -1.0182  2.1103
  196MPD1    H2 2986   1.799   4.270   0.854  1.8129 -0.8440  0.3112
  196MPD1    H3 2987   2.041   4.275   0.890 -1.6453 -0.8090  0.5008
  196MPD1     N 2988   2.036   4.712   1.013 -0.0528  0.5781  0.9903
  196MPD1    H5 2989   2.136   4.719   1.030  0.3329 -1.7270 -0.3799
  196MPD1    N1 2990   1.635   4.461   0.883  0.5786 -0.5292  0.5093
  196MPD1    H6 2991   1.605   4.555   0.857  0.6614 -1.2951 -2.4197
  196MPD1    H7 2992   1.610   4.386   0.818  1.7080 -0.3115 -0.1820
  197MPD1     C 2993   0.773   1.897  17.643  0.9210  0.1156  0.3371
  197MPD1    C1 2994   0.884   1.869   0.020 -0.2272 -0.5844 -0.3562
  197MPD1    C2 2995   1.000   1.933  17.692  0.2090  0.1418 -0.0566
  197MPD1    C3 2996   1.011   2.028  17.586 -0.2500  0.5811 -0.3021
  197MPD1    C4 2997   0.903   2.051  17.505  0.4986  0.0278 -0.0248
  197MPD1    C5 2998   0.781   1.986  17.540  0.1005 -0.1361 -0.1117
  197MPD1     H 2999   1.084   1.912   0.058  1.3185 -0.2145 -1.6221
  197MPD1    H1 3000   0.901   2.116  17.418 -1.0374  1.2651  0.9375
  197MPD1    H2 3001   0.673   1.862  17.666  0.3757  0.6882 -1.1847
  197MPD1    H3 3002   0.701   2.023  17.478 -1.6476 -1.0112  1.6142
  197MPD1     N 3003   1.130   2.094  17.552  0.0569  0.1574 -0.4515
  197MPD1    H5 3004   1.132   2.165  17.480 -1.6058 -0.2579 -0.9046
  197MPD1    N1 3005   0.866   1.797   0.141  0.7751 -0.1499 -0.4485
  197MPD1    H6 3006   0.792   1.727   0.136  0.3368  0.0109  3.5723
  197MPD1    H7 3007   0.949   1.742   0.161  1.4752  1.1983  0.3454
  198MPD1     C 3008   2.878   0.751  15.872 -0.4954 -0.1837 -0.5015
  198MPD1    C1 3009   2.988   0.776  15.790  0.1371  0.1250  0.3418
  198MPD1    C2 3010   3.105   0.815  15.856  0.1119 -0.3319  0.6113
  198MPD1    C3 3011   3.112   0.824  15.993 -0.0031 -0.0096  0.4238
  198MPD1    C4 3012   2.999   0.802  16.069 -0.0020  0.2930  0.6660
  198MPD1    C5 3013   2.882   0.762  16.003  0.1834  0.0044  0.0316
  198MPD1     H 3014   3.193   0.833  15.795  0.7712  0.9473  1.9403
  198MPD1    H1 3015   3.007   0.810  16.177  0.8134  1.5420  0.5241
  198MPD1    H2 3016   2.786   0.717  15.825  0.7264 -2.3268 -1.2993
  198MPD1    H3 3017   2.790   0.735  16.054  1.0151 -0.9095  1.0134
  198MPD1     N 3018   3.246   0.839  16.038  0.3588 -0.3058 -0.0672
  198MPD1    H5 3019   3.311   0.855  15.962 -0.5044  0.9323 -0.5273
  198MPD1    N1 3020   2.977   0.766  15.645 -0.6272  0.0412 -0.4233
  198MPD1    H6 3021   3.065   0.754  15.595 -1.9857 -3.2688 -1.9714
  198MPD1    H7 3022   2.901   0.705  15.618 -1.6060  1.2921 -0.4941
  199MPD1     C 3023   1.768   0.917   9.620 -0.1456  0.3942  0.2289
  199MPD1    C1 3024   1.740   0.797   9.687  0.3542  0.2595  0.3041
  199MPD1    C2 3025   1.605   0.783   9.718 -0.3727  0.1182 -0.3058
  199MPD1    C3 3026   1.507   0.881   9.704  0.2649 -0.4973 -0.0475
  199MPD1    C4 3027   1.541   1.003   9.652  0.0224 -0.7206  0.1266
  199MPD1    C5 3028   1.677   1.020   9.620 -0.9380 -0.1712  0.4329
  199MPD1     H 3029   1.580   0.685   9.758 -2.9403  0.5766 -0.8429
  199MPD1    H1 3030   1.478   1.091   9.649 -0.1390 -0.8530 -0.3419
  199MPD1    H2 3031   1.862   0.940   9.571 -0.3236  0.6358 -0.0021
  199MPD1    H3 3032   1.693   1.119   9.580  0.1842 -0.0832  1.1083
  199MPD1     N 3033   1.375   0.851   9.734 -0.6462 -0.2417 -0.5818
  199MPD1    H5 3034   1.306   0.919   9.704 -0.2669 -0.4342 -1.8746
  199MPD1    N1 3035   1.828   0.692   9.664 -0.0659  0.1769  0.6445
  199MPD1    H6 3036   1.925   0.717   9.642 -0.1217 -1.0873 -1.0216
  199MPD1    H7 3037   1.821   0.612   9.727  0.2383  0.1474  0.6452
  200MPD1     C 3038   4.172   2.610  15.390 -0.0496  0.0985  0.5693
  200MPD1    C1 3039   4.302   2.653  15.398  0.6348  0.2786  0.7112
  200MPD1    C2 3040   4.399   2.555  15.420  0.0973  1.0364  0.0512
  200MPD1    C3 3041   4.370   2.421  15.436  0.3458  0.1266 -0.0963
  200MPD1    C4 3042   4.238   2.381  15.423  0.0646  0.0137 -0.0322
  200MPD1    C5 3043   4.142   2.474  15.399 -0.6833 -0.2856 -0.3104
  200MPD1     H 3044   4.500   2.588  15.443  0.0143  0.1209  1.7308
  200MPD1    H1 3045   4.219   2.275  15.438 -2.2853  0.4351  0.0181
  200MPD1    H2 3046   4.082   2.671  15.391 -0.4697 -0.5355  1.7605
  200MPD1    H3 3047   4.038   2.447  15.417 -0.3467 -2.2600 -1.3127
  200MPD1     N 3048   4.477   2.328  15.453  0.0584 -0.1563 -0.0466
  200MPD1    H5 3049   4.571   2.367  15.449  0.6394 -1.5830 -0.4020
  200MPD1    N1 3050   4.338   2.787  15.414 -0.3688 -0.0095  0.5448
  200MPD1    H6 3051   4.431   2.807  15.376 -0.6334 -1.4958 -0.8637
  200MPD1    H7 3052   4.280   2.843  15.352  0.7595 -0.7344 -1.1337
  201MPD1     C 3053   2.178   0.652  12.875 -1.4510 -0.2951  0.4504
  201MPD1    C1 3054   2.127   0.680  12.999 -0.1821  0.0207  0.2571
  201MPD1    C2 3055   2.192   0.612  13.098  0.3393  0.2868 -0.0208
  201MPD1    C3 3056   2.281   0.507  13.081 -0.2525  0.3919  0.6609
  201MPD1    C4 3057   2.332   0.498  12.956  0.4236  0.7143 -0.2785
  201MPD1    C5 3058   2.276   0.564  12.850 -0.6113  0.3712 -1.0400
  201MPD1     H 3059   2.180   0.642  13.201  0.6344  2.8456 -0.7123
  201MPD1    H1 3060   2.413   0.429  12.936  0.9425  1.3359 -0.3157
  201MPD1    H2 3061   2.143   0.706  12.788 -0.0579  0.6120  0.4569
  201MPD1    H3 3062   2.315   0.562  12.749 -1.4246 -1.7490 -1.3218
  201MPD1     N 3063   2.317   0.431  13.199 -0.1460  0.4933  0.5866
  201MPD1    H5 3064   2.258   0.452  13.279  0.4735  0.9465  0.9318
  201MPD1    N1 3065   2.067   0.802  13.023 -0.1353 -0.4870 -0.2035
  201MPD1    H6 3066   2.004   0.825  12.947  0.4840 -0.4894 -0.7145
  201MPD1    H7 3067   2.022   0.793  13.114  0.8771 -0.0789  0.3499
  202MPD1     C 3068   3.495   4.604  10.451  0.4453  0.1449 -0.6215
  202MPD1    C1 3069   3.517   4.583  10.317 -0.6550  0.2641  0.1343
  202MPD1    C2 3070   3.401   4.537  10.246  1.2080 -0.4996 -0.2511
  202MPD1    C3 3071   3.287   4.494  10.315 -0.5335 -0.1882 -0.6113
  202MPD1    C4 3072   3.283   4.511  10.450 -0.2786  0.1798  0.0973
  202MPD1    C5 3073   3.389   4.556  10.519 -0.2608  0.5705 -0.4553
  202MPD1     H 3074   3.404   4.552  10.138 -1.4818 -1.6489 -0.4682
  202MPD1    H1 3075   3.194   4.481  10.503 -1.6960 -1.2394 -3.0661
  202MPD1    H2 3076   3.566   4.660  10.510 -0.7354  2.6056 -1.4995
  202MPD1    H3 3077   3.396   4.588  10.622 -0.5532 -1.4580  0.1854
  202MPD1     N 3078   3.174   4.452  10.245 -0.2409  0.2363 -0.3753
  202MPD1    H5 3079   3.088   4.437  10.297  1.5820  0.6224  2.7950
  202MPD1    N1 3080   3.607   4.668  10.250 -0.1735 -0.3496 -0.0988
  202MPD1    H6 3081   3.642   4.627  10.163  2.6387  0.2222  0.7644
  202MPD1    H7 3082   3.683   4.693  10.312  0.1722 -1.3911 -0.0972
  203MPD1     C 3083   1.127   1.893  12.800 -0.2179 -0.0213 -0.1190
  203MPD1    C1 3084   1.071   1.837  12.687  0.2871 -0.4448 -0.5449
  203MPD1    C2 3085   1.078   1.700  12.673  0.5414  0.1898 -0.1103
  203MPD1    C3 3086   1.149   1.623  12.758 -0.6841 -0.6510 -0.2541
  203MPD1    C4 3087   1.213   1.681  12.869 -0.1297  0.6262 -0.2347
  203MPD1    C5 3088   1.193   1.817  12.893 -0.0723  0.4943 -0.7897
  203MPD1     H 3089   1.027   1.647  12.593 -1.0701  1.7223 -0.1135
  203MPD1    H1 3090   1.275   1.633  12.944  1.9142  1.3140 -1.4800
  203MPD1    H2 3091   1.110   2.000  12.808  0.6580 -0.1048  2.8385
  203MPD1    H3 3092   1.239   1.853  12.985 -1.0276 -2.1301  0.7233
  203MPD1     N 3093   1.169   1.484  12.726 -0.3026 -0.4066 -0.1691
  203MPD1    H5 3094   1.114   1.450  12.647  0.1237 -3.2811  0.8095
  203MPD1    N1 3095   0.989   1.915  12.594  0.3821 -0.4056 -0.3873
  203MPD1    H6 3096   0.986   1.868  12.504  0.1541 -1.5209  0.2156
  203MPD1    H7 3097   1.019   2.013  12.594 -2.0889  0.3613  1.5536
  204MPD1     C 3098   4.518   1.792   0.018  0.0306 -0.5020  0.4500
  204MPD1    C1 3099   4.547   1.846  17.596  0.2631  0.6438 -0.5312
  204MPD1    C2 3100   4.649   1.792  17.520 -0.1497 -0.3347 -0.6552
  204MPD1    C3 3101   4.724   1.685  17.561  0.3203  0.2797 -0.1854
  204MPD1    C4 3102   4.700   1.637  17.683 -0.2758  0.2584 -0.0443
  204MPD1    C5 3103   4.600   1.689   0.069  0.1854  0.7553  0.1237
  204MPD1     H 3104   4.662   1.832  17.420 -1.4296 -2.1985 -1.5744
  204MPD1    H1 3105   0.031   1.555   0.029 -0.4108 -1.3971 -2.8274
  204MPD1    H2 3106   4.434   1.821   0.079 -0.9097 -0.6226 -0.7723
  204MPD1    H3 3107   4.570   1.637   0.160  1.8655 -0.5405 -0.0720
  204MPD1     N 3108   0.080   1.626  17.458 -0.1198 -0.5471 -0.3958
  204MPD1    H5 3109   0.083   1.670  17.366 -1.0018 -1.4600 -0.8656
  204MPD1    N1 3110   4.457   1.946  17.545 -0.2514  0.8285  0.4082
  204MPD1    H6 3111   4.401   1.982  17.622 -0.5433  0.0195  0.5738
  204MPD1    H7 3112   4.517   2.020  17.509  1.3356  0.2345  1.8126
  205MPD1     C 3113   1.330   1.359  16.753  0.3669 -0.0860  0.0025
  205MPD1    C1 3114   1.371   1.390  16.884  0.3949 -0.3028 -0.6702
  205MPD1    C2 3115   1.341   1.299  16.987  0.3177 -0.1836 -0.3873
  205MPD1    C3 3116   1.281   1.178  16.956 -0.5813 -0.3562  0.2108
  205MPD1    C4 3117   1.243   1.150  16.825  0.6304  0.8007  0.1074
  205MPD1    C5 3118   1.278   1.241  16.729 -0.2935 -0.7614 -0.1093
  205MPD1     H 3119   1.362   1.322  17.091  1.4909  0.2875 -0.7227
  205MPD1    H1 3120   1.212   1.052  16.789 -0.2143  1.5717 -1.2598
  205MPD1    H2 3121   1.343   1.422  16.666 -2.1104 -0.6806 -0.7731
  205MPD1    H3 3122   1.253   1.213  16.628  0.1958 -0.3355 -0.3500
  205MPD1     N 3123   1.257   1.072  17.048  0.2150  0.1524 -0.1123
  205MPD1    H5 3124   1.194   1.000  17.014 -0.4678  0.4540  0.5126
  205MPD1    N1 3125   1.402   1.522  16.916 -0.3711 -0.0182 -0.1118
  205MPD1    H6 3126   1.451   1.530  17.005 -2.2300  3.5446  0.5816
  205MPD1    H7 3127   1.454   1.568  16.843  1.0184  2.3299  2.3961
  206MPD1     C 3128   1.276   3.824  16.726  0.3877 -0.2438 -0.2373
  206MPD1    C1 3129   1.170   3.902  16.698  0.6066  0.2576 -0.1229
  206MPD1    C2 3130   1.100   3.904  16.578 -1.0281  0.2640  0.0540
  206MPD1    C3 3131   1.159   3.836  16.471 -0.1214 -0.4207 -0.0282
  206MPD1    C4 3132   1.284   3.783  16.488 -0.0260  0.6298  0.2358
  206MPD1    C5 3133   1.343   3.772  16.612  0.3899  0.4939 -0.4900
  206MPD1     H 3134   1.021   3.978  16.573 -1.1745  0.0536 -0.6821
  206MPD1    H1 3135   1.331   3.726  16.409 -1.1827  1.0851 -0.7715
  206MPD1    H2 3136   1.320   3.823  16.825 -2.4419  0.1205  1.0394
  206MPD1    H3 3137   1.437   3.719  16.623  1.3604  1.8623 -2.4569
  206MPD1     N 3138   1.101   3.822  16.342 -0.4274  0.2748  0.0395
  206MPD1    H5 3139   1.152   3.757  16.283 -0.6857 -0.2190  0.3625
  206MPD1    N1 3140   1.111   3.970  16.806  0.0984  0.5169  0.1289
  206MPD1    H6 3141   1.170   3.989  16.886 -2.8806  2.2266  1.9080
  206MPD1    H7 3142   1.055   4.047  16.770 -0.8015 -0.1786  0.0171
  207MPD1     C 3143   3.659   1.167   9.296 -0.0257  0.1213 -0.3374
  207MPD1    C1 3144   3.778   1.248   9.302  0.2105  0.7724 -0.0311
  207MPD1    C2 3145   3.812   1.295   9.430  0.3578 -0.2730 -0.3597
  207MPD1    C3 3146   3.725   1.297   9.535  0.3467 -0.2775 -0.0805
  207MPD1    C4 3147   3.602   1.236   9.520 -0.1838 -0.2782  1.0747
  207MPD1    C5 3148   3.573   1.162   9.405  0.2148 -0.2043  0.3460
  207MPD1     H 3149   3.914   1.330   9.440 -0.0484  0.6880  0.3939
  207MPD1    H1 3150   3.530   1.231   9.601  0.6499 -1.4185  1.7478
  207MPD1    H2 3151   3.619   1.127   9.204 -0.5300 -1.1015  0.4102
  207MPD1    H3 3152   3.471   1.127   9.391  0.5242 -0.2410 -1.6964
  207MPD1     N 3153   3.759   1.361   9.656 -0.1128  0.2836 -0.3271
  207MPD1    H5 3154   3.690   1.344   9.728 -0.0920 -0.1598 -0.4069
  207MPD1    N1 3155   3.872   1.231   9.200  0.1234  0.5769  0.2591
  207MPD1    H6 3156   3.816   1.217   9.117  2.0668  2.0632 -1.3080
  207MPD1    H7 3157   3.921   1.320   9.195 -1.9087  1.5448 -2.1277
  208MPD1     C 3158   1.222   4.286   0.133 -0.0829 -0.3220 -0.5683
  208MPD1    C1 3159   1.313   4.381   0.100  0.1796  0.5898 -0.4381
  208MPD1    C2 3160   1.305   4.508   0.163 -0.5370  0.0355 -0.2495
  208MPD1    C3 3161   1.205   4.528   0.263 -0.7467 -0.9372  0.0606
  208MPD1    C4 3162   1.123   4.425   0.292  0.1330  0.0027 -0.0414
  208MPD1    C5 3163   1.124   4.305   0.225 -0.1522  0.0186  0.1352
  208MPD1     H 3164   1.366   4.588   0.123  0.4890 -0.3402  0.5731
  208MPD1    H1 3165   1.045   4.441   0.364  0.4119 -1.0894  0.5149
  208MPD1    H2 3166   1.225   4.189   0.085 -1.5384 -0.3006 -0.6844
  208MPD1    H3 3167   1.058   4.222   0.246  0.0035 -0.0424  0.3842
  208MPD1     N 3168   1.206   4.648   0.340  0.3348 -0.0766 -0.4052
  208MPD1    H5 3169   1.264   4.720   0.299  0.7556 -1.4409 -2.2207
  208MPD1    N1 3170   1.389   4.356  17.688 -0.4156 -0.3155  0.0632
  208MPD1    H6 3171   1.471   4.413  17.674 -0.5839 -0.2245 -0.5658
  208MPD1    H7 3172   1.422   4.259  17.683  0.0321 -0.2585  1.9127
  209MPD1     C 3173   4.088   0.439  11.200  0.3500 -0.7467  0.2922
  209MPD1    C1 3174   4.148   0.555  11.237 -0.4299 -0.5327  0.5775
  209MPD1    C2 3175   4.106   0.681  11.189  0.2223 -0.5499  0.5697
  209MPD1    C3 3176   3.992   0.683  11.113  0.3122 -0.6382 -0.5310
  209MPD1    C4 3177   3.915   0.567  11.090 -0.2436  0.4667 -1.3312
  209MPD1    C5 3178   3.966   0.445  11.130  1.0750 -0.9199  0.6556
  209MPD1     H 3179   4.157   0.775  11.205 -2.3232  0.7842  0.8282
  209MPD1    H1 3180   3.821   0.564  11.036 -0.9560 -0.1711 -0.0595
  209MPD1    H2 3181   4.132   0.342  11.221 -0.1386 -0.5042  2.4266
  209MPD1    H3 3182   3.908   0.355  11.112  1.0468 -0.5843 -0.9706
  209MPD1     N 3183   3.953   0.806  11.068  0.8282 -0.5397  0.2620
  209MPD1    H5 3184   4.021   0.880  11.084 -1.2341  1.3955 -0.0737
  209MPD1    N1 3185   4.276   0.550  11.296  0.0061 -0.2069  0.3318
  209MPD1    H6 3186   4.286   0.459  11.342 -0.3152 -0.4524 -0.0865
  209MPD1    H7 3187   4.286   0.626  11.363 -2.4427  1.2597 -0.9655
  210MPD1     C 3188   3.679   1.746  11.331  0.3057 -0.7872 -0.5035
  210MPD1    C1 3189   3.700   1.623  11.391 -0.0730  0.0125  0.1863
  210MPD1    C2 3190   3.742   1.516  11.316 -0.9541  0.4004  0.4058
  210MPD1    C3 3191   3.752   1.524  11.180 -0.3624  0.2127 -0.0469
  210MPD1    C4 3192   3.730   1.648  11.123 -0.6435 -0.2783 -0.4732
  210MPD1    C5 3193   3.684   1.751  11.197 -1.2578 -0.4032  0.1486
  210MPD1     H 3194   3.769   1.423  11.365  1.3630  1.9504  2.0794
  210MPD1    H1 3195   3.733   1.665  11.016 -0.3249 -0.1823 -0.4462
  210MPD1    H2 3196   3.663   1.838  11.387 -2.6895 -1.0318 -0.9625
  210MPD1    H3 3197   3.662   1.844  11.146 -1.6610  0.9399  2.7280
  210MPD1     N 3198   3.791   1.420  11.093 -0.0701  0.3211 -0.2044
  210MPD1    H5 3199   3.776   1.442  10.995  0.3947  1.2783 -0.0644
  210MPD1    N1 3200   3.688   1.613  11.533 -0.4431 -0.1606 -0.4154
  210MPD1    H6 3201   3.667   1.522  11.572  1.1584  0.2757  1.5113
  210MPD1    H7 3202   3.657   1.697  11.583  0.5831 -0.8303  1.3544
  211MPD1     C 3203   1.453   0.749  15.996 -0.8915 -0.3270 -0.0942
  211MPD1    C1 3204   1.494   0.854  16.071  0.6571 -1.0238 -0.1498
  211MPD1    C2 3205   1.393   0.919  16.149 -0.2229 -0.0692 -0.0501
  211MPD1    C3 3206   1.264   0.877  16.165  0.6075  0.2264 -0.5348
  211MPD1    C4 3207   1.230   0.776  16.081 -0.6823  0.4747  0.2481
  211MPD1    C5 3208   1.321   0.709  16.006  0.3866  0.1317  0.1700
  211MPD1     H 3209   1.426   0.998  16.216  0.8000 -0.8752  0.3918
  211MPD1    H1 3210   1.130   0.733  16.084  0.1476 -1.3814  0.9142
  211MPD1    H2 3211   1.522   0.693  15.934  0.6495  2.2924 -0.7517
  211MPD1    H3 3212   1.284   0.627  15.946 -1.2614 -1.2338  3.0822
  211MPD1     N 3213   1.180   0.939  16.262  0.1484  0.3137 -0.2376
  211MPD1    H5 3214   1.207   1.022  16.313  2.5900 -0.8092  0.2938
  211MPD1    N1 3215   1.631   0.892  16.086  0.2356  0.1418  0.2262
  211MPD1    H6 3216   1.644   0.986  16.123 -0.6052 -0.3464  1.7535
  211MPD1    H7 3217   1.702   0.875  16.015 -0.1235  1.2147 -0.3933
  212MPD1     C 3218   0.347   4.400  16.632 -0.6385 -0.2841  0.3646
  212MPD1    C1 3219   0.408   4.278  16.603 -0.1004 -0.6810 -0.3962
  212MPD1    C2 3220   0.380   4.176  16.689  0.1973  0.3110 -0.5006
  212MPD1    C3 3221   0.287   4.182  16.788  0.4175  0.0464 -0.6343
  212MPD1    C4 3222   0.230   4.302  16.818  0.3079  0.1715 -0.7902
  212MPD1    C5 3223   0.267   4.412  16.743 -0.1416  0.2150 -0.3097
  212MPD1     H 3224   0.436   4.084  16.676 -1.0014 -0.3473 -1.0198
  212MPD1    H1 3225   0.162   4.312  16.901  1.1489  3.0631 -0.4664
  212MPD1    H2 3226   0.365   4.484  16.566  0.6645 -0.6394  0.2693
  212MPD1    H3 3227   0.232   4.513  16.763 -0.5527 -0.0099  0.1165
  212MPD1     N 3228   0.253   4.067  16.859  0.6147 -0.3877  0.3050
  212MPD1    H5 3229   0.214   4.085  16.951 -1.8781  0.2531 -0.8693
  212MPD1    N1 3230   0.501   4.274  16.500  0.6949 -0.4745  0.0507
  212MPD1    H6 3231   0.537   4.369  16.487  0.3176 -0.0445  2.2603
  212MPD1    H7 3232   0.576   4.206  16.504  0.7335 -0.6100 -2.7506
  213MPD1     C 3233   2.954   4.578  15.577  0.3836  0.2596 -0.2861
  213MPD1    C1 3234   3.008   4.674  15.491  0.8492 -0.8070  0.4734
  213MPD1    C2 3235   2.908   0.026  15.426  0.7795  0.0584  0.1634
  213MPD1    C3 3236   2.777   0.020  15.461 -0.8170 -0.3788 -0.5605
  213MPD1    C4 3237   2.734   4.666  15.563  0.7316 -0.4985  0.5326
  213MPD1    C5 3238   2.826   4.588  15.622  0.2514 -0.1998 -0.0775
  213MPD1     H 3239   2.940   0.091  15.346 -0.6518 -0.1941 -0.6132
  213MPD1    H1 3240   2.631   4.654  15.595  0.1474  1.4764 -0.6090
  213MPD1    H2 3241   3.021   4.506  15.622 -0.9902 -1.1687 -0.5350
  213MPD1    H3 3242   2.793   4.518  15.699  0.9004  1.0274  1.3109
  213MPD1     N 3243   2.687   0.089  15.372 -0.1816 -0.6769  0.2767
  213MPD1    H5 3244   2.739   0.145  15.305 -0.6188 -0.6189 -0.0171
  213MPD1    N1 3245   3.131   4.651  15.433 -0.4218  0.2379  0.7963
  213MPD1    H6 3246   3.191   4.595  15.494  0.0929 -0.9204 -0.7949
  213MPD1    H7 3247   3.187   0.006  15.402  0.9455 -0.3296  1.7903
  214MPD1     C 3248   1.912   4.522  14.826 -0.4729 -0.6477 -0.1336
  214MPD1    C1 3249   1.918   4.658  14.807 -0.4600 -1.3801 -0.3625
  214MPD1    C2 3250   2.013   0.003  14.875 -0.4668  0.3506 -0.5061
  214MPD1    C3 3251   2.105   4.668  14.952 -0.7664  0.9415 -0.2259
  214MPD1    C4 3252   2.094   4.534  14.973 -0.3408  0.5490  0.0664
  214MPD1    C5 3253   2.005   4.459  14.903  0.2116 -0.3767 -0.1978
  214MPD1     H 3254   2.018   0.111  14.867  1.4497  0.1791 -1.6552
  214MPD1    H1 3255   2.163   4.482  15.039 -0.8283 -0.6438 -0.3478
  214MPD1    H2 3256   1.852   4.460  14.760 -0.7451 -0.2139 -0.2949
  214MPD1    H3 3257   2.017   4.352  14.900  1.2463 -0.2437 -0.7638
  214MPD1     N 3258   2.216   0.013  15.015  0.2987 -0.4621 -0.4628
  214MPD1    H5 3259   2.275   4.691  15.083  1.4290  0.8031 -0.6019
  214MPD1    N1 3260   1.815   4.720  14.730 -0.4614 -0.6044 -0.2737
  214MPD1    H6 3261   1.808   4.649  14.657  0.6295 -0.3389 -0.6313
  214MPD1    H7 3262   1.845   0.087  14.699  0.1974 -1.0677 -1.0183
  215MPD1     C 3263   3.532   0.181  10.583  0.2869 -0.3469 -0.2788
  215MPD1    C1 3264   3.438   0.274  10.609 -0.6574  0.2383 -0.2994
  215MPD1    C2 3265   3.430   0.336  10.734 -0.3819 -0.8150  0.6650
  215MPD1    C3 3266   3.517   0.298  10.835  0.2254 -0.2843  0.4421
  215MPD1    C4 3267   3.615   0.204  10.810 -0.7597  0.2826  0.4526
  215MPD1    C5 3268   3.616   0.139  10.687  0.2017 -0.5748  0.1015
  215MPD1     H 3269   3.360   0.418  10.745  0.9560  0.5485 -1.0591
  215MPD1    H1 3270   3.696   0.180  10.878  0.6897  2.1424 -0.6076
  215MPD1    H2 3271   3.555   0.139  10.486  1.1433 -2.9774  1.0570
  215MPD1    H3 3272   3.695   0.068  10.664  0.6253  0.1927 -0.8425
  215MPD1     N 3273   3.516   0.365  10.957 -0.2801  0.1019  0.0435
  215MPD1    H5 3274   3.452   0.443  10.968  0.8432  1.0458 -0.1425
  215MPD1    N1 3275   3.355   0.314  10.508 -0.2070  0.2088 -0.0232
  215MPD1    H6 3276   3.267   0.349  10.544  0.4792  1.2184  0.6846
  215MPD1    H7 3277   3.337   0.244  10.437 -2.4840  0.2761  0.4830
  216MPD1     C 3278   0.657   3.059  16.135 -0.3534  0.6661 -0.0987
  216MPD1    C1 3279   0.535   2.998  16.148 -0.6701 -0.3014  0.2883
  216MPD1    C2 3280   0.506   2.936  16.266  0.8519  0.1268 -0.1395
  216MPD1    C3 3281   0.570   2.966  16.382  0.2708 -0.7020  0.5151
  216MPD1    C4 3282   0.689   3.040  16.374  0.3181  0.0461  0.2188
  216MPD1    C5 3283   0.729   3.081  16.249  0.1356  0.7384 -0.0764
  216MPD1     H 3284   0.430   2.858  16.270  1.5992 -0.6076 -0.1801
  216MPD1    H1 3285   0.752   3.071  16.456  2.0123 -2.5468 -0.1129
  216MPD1    H2 3286   0.694   3.101  16.042  2.8727  2.4908  2.0059
  216MPD1    H3 3287   0.830   3.119  16.241 -0.3019  1.9407  0.0401
  216MPD1     N 3288   0.507   2.934  16.505 -0.2483  0.0702  0.3489
  216MPD1    H5 3289   0.439   2.859  16.510  1.4579 -1.3836  2.0091
  216MPD1    N1 3290   0.478   2.958  16.027 -0.2659 -0.1173  0.1417
  216MPD1    H6 3291   0.382   2.927  16.040 -0.1073 -0.3654  0.7174
  216MPD1    H7 3292   0.479   3.032  15.957  1.5293 -1.0359 -0.7797
  217MPD1     C 3293   2.261   4.695   9.721 -0.6054  0.1065  0.1154
  217MPD1    C1 3294   2.188   0.092   9.733  0.3282 -0.0740 -0.0597
  217MPD1    C2 3295   2.054   0.079   9.775 -0.1141  0.3708  0.3939
  217MPD1    C3 3296   2.016   4.679   9.808 -0.6302  0.1814 -0.1863
  217MPD1    C4 3297   2.090   4.566   9.798  0.1344  0.1491  0.6841
  217MPD1    C5 3298   2.213   4.574   9.758 -0.0077  0.8645 -0.0756
  217MPD1     H 3299   1.991   0.164   9.799 -0.4941 -0.3456  1.9570
  217MPD1    H1 3300   2.044   4.468   9.805  1.0289 -0.2327  1.3222
  217MPD1    H2 3301   2.358   4.692   9.672  0.3305  0.2075  1.9769
  217MPD1    H3 3302   2.277   4.488   9.737 -2.2202 -0.4984 -1.2372
  217MPD1     N 3303   1.878   4.649   9.841 -0.1782 -0.0933 -0.4174
  217MPD1    H5 3304   1.852   4.561   9.883 -2.3495  1.1002  0.7573
  217MPD1    N1 3305   2.236   0.213   9.684 -1.1671  0.4068 -0.0124
  217MPD1    H6 3306   2.191   0.286   9.738 -0.0600  2.0737 -1.3344
  217MPD1    H7 3307   2.335   0.233   9.694 -0.3407 -2.5287 -2.1954
  218MPD1     C 3308   1.905   1.358  13.106 -0.8392  0.1452 -0.2277
  218MPD1    C1 3309   1.903   1.223  13.135 -0.2164 -0.2191 -0.4989
  218MPD1    C2 3310   1.998   1.136  13.079  0.0221 -0.0880  0.0027
  218MPD1    C3 3311   2.074   1.179  12.975  0.0961 -0.1687 -0.4578
  218MPD1    C4 3312   2.066   1.306  12.928 -0.7589 -0.0954  0.6384
  218MPD1    C5 3313   1.991   1.397  13.003 -0.1626 -0.7148 -0.6729
  218MPD1     H 3314   2.013   1.035  13.116  0.6170  0.3862  1.0675
  218MPD1    H1 3315   2.117   1.352  12.844  1.7071 -2.8158  0.6373
  218MPD1    H2 3316   1.843   1.434  13.152  2.1960  2.2808  0.3665
  218MPD1    H3 3317   2.004   1.501  12.974 -0.3697  0.0498  1.9734
  218MPD1     N 3318   2.153   1.077  12.922  1.1001 -0.5823 -0.5374
  218MPD1    H5 3319   2.138   0.982  12.956  0.2705 -0.6195 -0.9890
  218MPD1    N1 3320   1.829   1.189  13.248  0.3769  0.1932 -0.6908
  218MPD1    H6 3321   1.798   1.093  13.262 -1.4646  0.5737 -2.2371
  218MPD1    H7 3322   1.744   1.244  13.258 -0.5737 -1.6539  1.3083
  219MPD1     C 3323   2.920   0.959  12.158 -0.0553 -0.3006 -0.0329
  219MPD1    C1 3324   2.789   0.930  12.150  0.2789  0.3324 -0.6053
  219MPD1    C2 3325   2.708   0.934  12.264  0.7381  0.5510 -0.1207
  219MPD1    C3 3326   2.763   0.960  12.384  0.5437  0.0639  0.0864
  219MPD1    C4 3327   2.901   0.992  12.395 -0.5636 -0.0520  0.0645
  219MPD1    C5 3328   2.982   0.990  12.281  0.1606  0.1169  0.0661
  219MPD1     H 3329   2.608   0.892  12.266  1.0363 -0.0821  1.8504
  219MPD1    H1 3330   2.953   1.026  12.483 -1.0111  0.6853  0.0448
  219MPD1    H2 3331   2.985   0.945  12.073  1.0497  0.2551  0.7128
  219MPD1    H3 3332   3.086   1.016  12.296  0.0540  1.0411 -0.8669
  219MPD1     N 3333   2.692   0.957  12.507 -0.3118  0.3029 -0.0596
  219MPD1    H5 3334   2.743   0.975  12.593  1.1985  0.8227 -1.0519
  219MPD1    N1 3335   2.742   0.862  12.037  0.3540  0.2662 -0.4169
  219MPD1    H6 3336   2.646   0.877  12.009  0.7432  1.9696 -0.8388
  219MPD1    H7 3337   2.801   0.881  11.957  0.7057 -2.2934 -0.7812
  220MPD1     C 3338   3.531   1.713  10.017 -0.1784 -0.1356 -0.2212
  220MPD1    C1 3339   3.551   1.709  10.148 -0.4155  1.1894  0.1010
  220MPD1    C2 3340   3.480   1.614  10.225 -0.2580 -0.2200  0.0165
  220MPD1    C3 3341   3.392   1.522  10.163 -0.4401  0.4489 -0.3981
  220MPD1    C4 3342   3.372   1.533  10.027  0.3065  0.0990  0.7814
  220MPD1    C5 3343   3.440   1.629   9.957  0.3445 -0.4565  0.6506
  220MPD1     H 3344   3.489   1.605  10.333  3.5931 -1.9920 -0.4820
  220MPD1    H1 3345   3.304   1.472   9.969  1.1622 -0.4640  0.3803
  220MPD1    H2 3346   3.582   1.788   9.956 -0.9429 -0.1081 -0.8260
  220MPD1    H3 3347   3.419   1.632   9.850 -1.5538 -0.8085  1.0233
  220MPD1     N 3348   3.338   1.421  10.244 -0.3634 -0.1102  0.7585
  220MPD1    H5 3349   3.356   1.434  10.343 -1.5630  0.0017  0.9663
  220MPD1    N1 3350   3.644   1.797  10.202 -0.5961  0.8867 -0.0366
  220MPD1    H6 3351   3.673   1.882  10.154 -0.1975  0.6094 -0.2897
  220MPD1    H7 3352   3.630   1.818  10.301  0.4409  1.3438  0.0120
  221MPD1     C 3353   0.921   4.526  17.660 -0.2162 -0.1051 -0.1097
  221MPD1    C1 3354   0.805   4.598  17.636 -0.4659 -0.2502  0.5179
  221MPD1    C2 3355   0.778   4.628  17.501 -0.3446 -0.4391 -0.3723
  221MPD1    C3 3356   0.846   4.571  17.395  0.0679 -0.2092 -0.4797
  221MPD1    C4 3357   0.947   4.488  17.425  0.0727 -0.8327  0.5712
  221MPD1    C5 3358   0.979   4.457  17.553 -0.4642  0.8873 -1.0404
  221MPD1     H 3359   0.705   4.703  17.474 -0.2229  0.4104  1.6654
  221MPD1    H1 3360   1.007   4.449  17.343 -2.2414 -2.4826 -0.3208
  221MPD1    H2 3361   0.940   4.496   0.063 -0.3789 -1.2285 -0.4118
  221MPD1    H3 3362   1.065   4.397  17.579 -1.0594  0.1563 -0.7346
  221MPD1     N 3363   0.831   4.605  17.261 -0.7789 -0.2510 -0.0111
  221MPD1    H5 3364   0.898   4.573  17.191 -0.4886  0.6837 -0.1642
  221MPD1    N1 3365   0.741   4.666   0.043 -0.0196  0.4114 -0.2796
  221MPD1    H6 3366   0.729   4.603   0.123  0.1814  0.0531 -0.5316
  221MPD1    H7 3367   0.649   4.703   0.021 -1.0376 -2.2502 -0.5693
  222MPD1     C 3368   0.637   4.027  16.921  0.3021 -0.3279  0.0119
  222MPD1    C1 3369   0.625   3.894  16.872  0.8320  1.5183 -0.0980
  222MPD1    C2 3370   0.575   3.799  16.959 -0.2771 -0.3427  0.4456
  222MPD1    C3 3371   0.522   3.837  17.082  0.6506 -0.0976  0.0690
  222MPD1    C4 3372   0.501   3.971  17.112  0.7307 -0.3224 -0.5494
  222MPD1    C5 3373   0.567   4.064  17.034 -0.5216  0.5760 -0.5244
  222MPD1     H 3374   0.593   3.695  16.937  2.2197  0.3389 -0.7457
  222MPD1    H1 3375   0.453   4.006  17.203  0.7568 -1.6601 -0.0308
  222MPD1    H2 3376   0.684   4.108  16.868  0.7439 -0.0789  0.7851
  222MPD1    H3 3377   0.560   4.164  17.075 -6.3027 -0.5819  1.5099
  222MPD1     N 3378   0.487   3.742  17.177 -0.0970  0.1064 -0.1714
  222MPD1    H5 3379   0.458   3.781  17.266 -0.2074 -1.9152  0.6811
  222MPD1    N1 3380   0.701   3.852  16.760 -0.6452 -0.2156 -0.2771
  222MPD1    H6 3381   0.658   3.767  16.725  1.3308 -1.1439 -0.4558
  222MPD1    H7 3382   0.692   3.921  16.686  0.4197 -0.1043 -0.3032
  223MPD1     C 3383   4.689   2.883  17.039 -0.3670 -0.1925  0.3219
  223MPD1    C1 3384   0.023   2.979  16.954  0.3055  0.2197  0.1095
  223MPD1    C2 3385   0.108   3.072  17.013  0.2403  0.1109 -0.5975
  223MPD1    C3 3386   0.130   3.081  17.152  0.5571 -0.5859 -0.0181
  223MPD1    C4 3387   0.055   2.996  17.229  0.1752  0.1090  0.2026
  223MPD1    C5 3388   4.709   2.894  17.177  0.5236  0.0191 -0.3000
  223MPD1     H 3389   0.153   3.144  16.945 -1.6608  1.2378 -0.6746
  223MPD1    H1 3390   0.063   2.993  17.337  0.9373 -2.4908  0.0783
  223MPD1    H2 3391   4.624   2.804  17.004 -1.6443  0.6174  0.8557
  223MPD1    H3 3392   4.654   2.832  17.247  0.2710  1.8453  1.1036
  223MPD1     N 3393   0.207   3.187  17.204 -0.3080  0.2873 -0.3725
  223MPD1    H5 3394   0.234   3.256  17.134  0.5110 -0.6189 -0.9366
  223MPD1    N1 3395   0.012   2.968  16.815  0.2463  0.2309 -0.0907
  223MPD1    H6 3396   4.652   2.917  16.789  1.7790 -1.8895 -0.9370
  223MPD1    H7 3397   0.020   3.061  16.775  1.2140 -0.1311 -0.7385
  224MPD1     C 3398   2.921   4.677   9.726 -0.0086 -0.2589 -0.0073
  224MPD1    C1 3399   2.879   0.048   9.815 -0.3594  0.9102 -0.7630
  224MPD1    C2 3400   2.757   0.028   9.885 -0.8979  0.0610  0.5439
  224MPD1    C3 3401   2.670   4.656   9.853  0.5434 -0.1441 -0.5977
  224MPD1    C4 3402   2.715   4.559   9.767  0.2800 -0.5465 -0.7149
  224MPD1    C5 3403   2.842   4.566   9.706 -0.3954  0.8117 -0.9264
  224MPD1     H 3404   2.742   0.083   9.976  0.7597  2.3663 -0.5832
  224MPD1    H1 3405   2.647   4.475   9.753  0.9194 -1.0766 -0.6248
  224MPD1    H2 3406   3.019   4.674   9.681  0.6856  0.0771  1.5080
  224MPD1    H3 3407   2.873   4.486   9.639  1.7614  2.6684 -2.1495
  224MPD1     N 3408   2.548   4.647   9.918  0.2665  0.5361  0.2999
  224MPD1    H5 3409   2.497   4.559   9.913  2.3461 -0.6211 -0.2919
  224MPD1    N1 3410   2.969   0.145   9.863  0.2541 -0.1604 -0.0858
  224MPD1    H6 3411   2.924   0.222   9.913 -0.1585 -0.9419  0.7589
  224MPD1    H7 3412   3.034   0.188   9.798 -2.1822  2.1907 -0.9403
  225MPD1     C 3413   2.961   2.151  12.824 -0.1249 -0.1692 -1.0187
  225MPD1    C1 3414   2.974   2.052  12.733  0.1821 -0.0887  0.3706
  225MPD1    C2 3415   2.894   2.058  12.623 -0.1115 -0.0559 -0.4729
  225MPD1    C3 3416   2.776   2.135  12.625  0.3923  0.9935 -0.1880
  225MPD1    C4 3417   2.761   2.231  12.726  0.2122  0.0268  0.3608
  225MPD1    C5 3418   2.855   2.239  12.830  0.1580  0.2730  0.1223
  225MPD1     H 3419   2.912   1.989  12.541 -0.9708 -1.2173  0.3041
  225MPD1    H1 3420   2.670   2.290  12.726  1.2953  1.6917 -0.8353
  225MPD1    H2 3421   3.028   2.162  12.909  0.2249  0.7323 -1.4128
  225MPD1    H3 3422   2.846   2.302  12.918 -2.9332 -0.2637  0.1888
  225MPD1     N 3423   2.672   2.121  12.529  0.5086 -0.2607  0.2430
  225MPD1    H5 3424   2.583   2.166  12.548  0.6074  0.3499 -0.7519
  225MPD1    N1 3425   3.094   1.970  12.738 -0.4653 -0.2284 -0.2527
  225MPD1    H6 3426   3.083   1.894  12.670 -1.0498  0.0669 -0.4875
  225MPD1    H7 3427   3.101   1.920  12.826 -0.0835 -0.5270 -0.4485
  226MPD1     C 3428   1.518   2.016  10.569 -0.1564  0.0818 -0.4683
  226MPD1    C1 3429   1.471   1.884  10.537 -0.5360 -0.2822  0.1023
  226MPD1    C2 3430   1.561   1.805  10.473  0.3316  0.6886 -0.0792
  226MPD1    C3 3431   1.682   1.856  10.424 -0.5883  0.2441  0.1938
  226MPD1    C4 3432   1.730   1.980  10.463 -0.2379  0.1369  0.4806
  226MPD1    C5 3433   1.643   2.059  10.531 -0.6467 -0.5869 -0.0112
  226MPD1     H 3434   1.540   1.698  10.466  2.2676  0.1603  2.1267
  226MPD1    H1 3435   1.831   2.012  10.440 -0.7945 -1.1860 -3.8897
  226MPD1    H2 3436   1.456   2.086  10.624  0.8875 -0.6830  1.6994
  226MPD1    H3 3437   1.675   2.157  10.564  0.5623 -0.4160 -1.7038
  226MPD1     N 3438   1.758   1.763  10.349 -1.0185 -0.0827 -0.5095
  226MPD1    H5 3439   1.729   1.666  10.351 -0.8986 -0.1079  0.2840
  226MPD1    N1 3440   1.349   1.830  10.590  0.5542 -0.4464 -0.1440
  226MPD1    H6 3441   1.295   1.777  10.522 -2.2014  1.5180  0.5112
  226MPD1    H7 3442   1.285   1.899  10.627  2.2334  0.2913  1.3997
  227MPD1     C 3443   2.059   1.779   9.386 -0.6037  0.8462 -0.0246
  227MPD1    C1 3444   2.104   1.865   9.482 -0.0763  0.2033 -0.0056
  227MPD1    C2 3445   2.081   1.837   9.610  0.1951  1.0025 -1.1022
  227MPD1    C3 3446   2.043   1.709   9.649 -0.2113  1.0149  0.4465
  227MPD1    C4 3447   2.016   1.617   9.555  0.3914 -0.4012 -0.1501
  227MPD1    C5 3448   2.025   1.655   9.422 -0.1399 -0.2465 -0.3170
  227MPD1     H 3449   2.086   1.909   9.691  1.2346 -3.2839  2.6355
  227MPD1    H1 3450   1.972   1.519   9.570 -1.1318  0.4691  1.0451
  227MPD1    H2 3451   2.042   1.805   9.282  0.2749  1.4233 -0.0223
  227MPD1    H3 3452   1.994   1.585   9.345 -0.4571 -0.0385 -0.3816
  227MPD1     N 3453   2.004   1.692   9.793  0.3122  1.1376 -0.3267
  227MPD1    H5 3454   2.029   1.770   9.853  0.0379  0.9403  0.0477
  227MPD1    N1 3455   2.139   1.998   9.452  0.6055 -0.3608  0.3428
  227MPD1    H6 3456   2.215   2.030   9.511 -0.5371  0.1416  1.5488
  227MPD1    H7 3457   2.178   1.999   9.358  0.3558  0.7605  0.2523
  228MPD1     C 3458   4.583   4.429  13.112  0.5017 -1.2836 -0.7531
  228MPD1    C1 3459   4.499   4.530  13.070  0.3426 -0.1638  0.0005
  228MPD1    C2 3460   4.368   4.526  13.111 -0.1417  0.2450 -0.6301
  228MPD1    C3 3461   4.317   4.422  13.187  0.1062 -0.1113  0.2720
  228MPD1    C4 3462   4.401   4.323  13.224  0.0854  0.2071  0.0926
  228MPD1    C5 3463   4.538   4.324  13.191 -0.1098  0.5258  1.0701
  228MPD1     H 3464   4.299   4.604  13.078  0.2448  0.3130 -1.2696
  228MPD1    H1 3465   4.368   4.230  13.269 -0.8311  0.5236  0.0574
  228MPD1    H2 3466   4.686   4.432  13.080  0.6481  0.8909 -0.1240
  228MPD1    H3 3467   4.598   4.243  13.230 -2.3935 -2.5744 -1.8435
  228MPD1     N 3468   4.180   4.412  13.210  0.3946  0.3535 -0.0305
  228MPD1    H5 3469   4.111   4.481  13.185  0.6972  0.6169 -0.1443
  228MPD1    N1 3470   4.544   4.619  12.971 -0.5839 -0.6987 -0.0614
  228MPD1    H6 3471   4.521   4.714  12.999 -1.0270 -0.4628 -1.2041
  228MPD1    H7 3472   4.645   4.615  12.984 -0.6014  1.0901  0.6453
  229MPD1     C 3473   3.674   3.820  16.398  0.6310 -0.8036 -0.2216
  229MPD1    C1 3474   3.556   3.780  16.335 -0.5018  0.5146  0.2963
  229MPD1    C2 3475   3.561   3.663  16.254  0.4523  0.9347  0.0146
  229MPD1    C3 3476   3.679   3.601  16.216  0.1376  0.5517 -1.3379
  229MPD1    C4 3477   3.795   3.654  16.264  0.2712  1.0553 -0.5574
  229MPD1    C5 3478   3.789   3.766  16.354  0.1336 -0.1741 -1.0871
  229MPD1     H 3479   3.469   3.637  16.203 -0.0708 -0.2554  1.5801
  229MPD1    H1 3480   3.889   3.604  16.239 -0.8458 -1.1386 -0.3507
  229MPD1    H2 3481   3.679   3.902  16.469  1.5201 -1.9281  0.9911
  229MPD1    H3 3482   3.880   3.805  16.400 -0.5119  0.8740 -0.6818
  229MPD1     N 3483   3.698   3.494  16.129 -0.1396  0.1670 -0.1836
  229MPD1    H5 3484   3.791   3.467  16.097  0.6549  0.5873  1.7603
  229MPD1    N1 3485   3.431   3.840  16.374 -0.5800 -0.0934  0.5020
  229MPD1    H6 3486   3.358   3.834  16.303  1.7505  1.2504 -1.9920
  229MPD1    H7 3487   3.445   3.940  16.389 -0.4078 -0.1585  0.7806
  230MPD1     C 3488   4.181   2.642  16.003  0.1519  0.0438  0.2117
  230MPD1    C1 3489   4.127   2.642  15.880 -0.1291 -0.5107  0.0979
  230MPD1    C2 3490   4.026   2.736  15.859  0.6020 -0.1421  0.8769
  230MPD1    C3 3491   4.010   2.848  15.937 -0.0280  1.0224 -0.4675
  230MPD1    C4 3492   4.071   2.849  16.061  0.1820  0.3234  0.3149
  230MPD1    C5 3493   4.139   2.734  16.098 -1.1736 -0.0520  0.0822
  230MPD1     H 3494   3.966   2.733  15.769  0.4218 -0.7483  1.0194
  230MPD1    H1 3495   4.060   2.919  16.143 -1.0956  0.0515  0.3675
  230MPD1    H2 3496   4.230   2.553  16.040  0.3870  1.0415  2.3186
  230MPD1    H3 3497   4.178   2.721  16.198  0.5782 -0.2657 -0.6347
  230MPD1     N 3498   3.912   2.947  15.895 -0.6030  0.0597  0.1808
  230MPD1    H5 3499   3.861   2.935  15.808  0.6166  0.8439 -0.6519
  230MPD1    N1 3500   4.145   2.532  15.794 -0.5517 -0.0503 -0.1385
  230MPD1    H6 3501   4.125   2.552  15.697 -0.6134  0.7641  0.0417
  230MPD1    H7 3502   4.237   2.488  15.797 -1.4204 -1.7989  0.9273
  231MPD1     C 3503   1.768   4.505  15.595  0.0440  0.2812 -0.2982
  231MPD1    C1 3504   1.673   4.590  15.554 -0.1458 -0.0171 -0.6623
  231MPD1    C2 3505   1.705   4.710  15.502  0.7833 -0.8526  0.0667
  231MPD1    C3 3506   1.839   0.015  15.478 -0.0902 -0.0411  0.4391
  231MPD1    C4 3507   1.935   4.654  15.527  0.4942 -0.2070 -0.4285
  231MPD1    C5 3508   1.904   4.535  15.579 -0.3927 -0.8299 -0.8058
  231MPD1     H 3509   1.628   0.059  15.478  1.6077  0.8212  2.5597
  231MPD1    H1 3510   2.041   4.678  15.518  0.4376  0.4605  0.7122
  231MPD1    H2 3511   1.749   4.410  15.644  1.9317 -0.9010 -1.8123
  231MPD1    H3 3512   1.978   4.462  15.608 -0.1509 -0.8379 -1.4342
  231MPD1     N 3513   1.879   0.127  15.399 -0.2949  0.6881  0.2720
  231MPD1    H5 3514   1.805   0.181  15.356  1.4204  0.6601 -2.6835
  231MPD1    N1 3515   1.535   4.554  15.577  1.0147  0.0416 -0.3832
  231MPD1    H6 3516   1.517   4.458  15.548 -0.0284 -0.6789  2.5917
  231MPD1    H7 3517   1.473   4.610  15.517 -1.8021 -2.4420  0.1972
  232MPD1     C 3518   4.084   2.356   0.349  0.0471  0.1609  0.2521
  232MPD1    C1 3519   4.033   2.479   0.308 -0.2610  0.0167  0.2662
  232MPD1    C2 3520   3.927   2.479   0.221 -0.2553 -0.4626 -0.3372
  232MPD1    C3 3521   3.873   2.362   0.167 -0.3965  0.2819  0.1002
  232MPD1    C4 3522   3.927   2.243   0.212 -0.7136  0.7383  0.2543
  232MPD1    C5 3523   4.023   2.241   0.308 -0.2959 -0.3905  0.7129
  232MPD1     H 3524   3.887   2.575   0.191 -3.2821 -1.9365 -1.0088
  232MPD1    H1 3525   3.894   2.148   0.173 -0.1913  1.0323 -0.8890
  232MPD1    H2 3526   4.170   2.342   0.414  0.8098 -0.5321 -0.8921
  232MPD1    H3 3527   4.069   2.146   0.332 -0.3413 -0.2962  1.1602
  232MPD1     N 3528   3.765   2.351   0.074 -0.7929  0.3121 -0.6314
  232MPD1    H5 3529   3.718   2.260   0.075  0.4972 -0.3410  1.2490
  232MPD1    N1 3530   4.095   2.600   0.346 -0.7483  0.2487  0.4736
  232MPD1    H6 3531   4.031   2.678   0.363 -0.0356  0.6388  1.3773
  232MPD1    H7 3532   4.146   2.585   0.433  0.4948  1.7894  0.0111
  233MPD1     C 3533   0.917   0.387   1.584 -0.2073  0.2249 -0.1920
  233MPD1    C1 3534   0.852   0.490   1.513 -0.2659 -0.3291  0.9464
  233MPD1    C2 3535   0.848   0.616   1.570  0.3510  0.0021 -0.0462
  233MPD1    C3 3536   0.918   0.645   1.684 -0.3325 -0.1979  0.0797
  233MPD1    C4 3537   0.988   0.541   1.745  0.0562 -0.1078 -0.9313
  233MPD1    C5 3538   0.989   0.418   1.696 -0.4388  0.0588 -0.0140
  233MPD1     H 3539   0.813   0.697   1.507 -1.3129 -1.1598 -0.6329
  233MPD1    H1 3540   1.052   0.566   1.828  3.1333  1.7471 -3.8899
  233MPD1    H2 3541   0.904   0.288   1.543  2.8613  0.2453 -1.1990
  233MPD1    H3 3542   1.043   0.346   1.757  0.5398 -0.2758 -1.2712
  233MPD1     N 3543   0.930   0.773   1.737  0.1299  0.0306 -0.1136
  233MPD1    H5 3544   0.986   0.779   1.821  0.4007 -0.1913 -0.2759
  233MPD1    N1 3545   0.781   0.456   1.395  0.4444  0.2113 -0.2332
  233MPD1    H6 3546   0.820   0.370   1.356  2.0261  0.6969  0.2552
  233MPD1    H7 3547   0.759   0.531   1.330 -0.4268 -1.7295 -2.2001
  234MPD1     C 3548   1.804   3.134   9.621 -0.0183 -0.2957  0.1655
  234MPD1    C1 3549   1.918   3.182   9.671 -0.1764  0.7001 -0.0686
  234MPD1    C2 3550   1.910   3.284   9.765 -0.2719  0.3075  0.1757
  234MPD1    C3 3551   1.793   3.314   9.830  1.2297 -1.0936  0.3648
  234MPD1    C4 3552   1.676   3.258   9.783  0.2623 -0.1918  0.5415
  234MPD1    C5 3553   1.680   3.165   9.680  0.1419 -0.0112 -0.0742
  234MPD1     H 3554   2.002   3.324   9.805  0.9646 -1.1604 -1.1823
  234MPD1    H1 3555   1.582   3.280   9.834  0.6342 -0.5947  1.3935
  234MPD1    H2 3556   1.794   3.076   9.529  3.6358 -1.5302  0.5190
  234MPD1    H3 3557   1.590   3.113   9.651 -0.0883  0.7602 -0.7551
  234MPD1     N 3558   1.795   3.410   9.935  0.3710 -1.1255 -0.4853
  234MPD1    H5 3559   1.886   3.440   9.969  0.2660 -0.4413 -0.8066
  234MPD1    N1 3560   2.040   3.161   9.606  0.4236 -0.3567 -0.1908
  234MPD1    H6 3561   2.123   3.169   9.665 -0.5294 -0.1425  1.1157
  234MPD1    H7 3562   2.051   3.071   9.559 -0.3830 -1.5724  1.9699
  235MPD1     C 3563   3.098   1.209   9.140  0.0453  0.1908  0.3863
  235MPD1    C1 3564   3.070   1.300   9.234 -0.3819 -0.1603 -0.2005
  235MPD1    C2 3565   3.176   1.380   9.275 -1.1715  0.3740  0.3850
  235MPD1    C3 3566   3.302   1.384   9.216  0.1671  0.0827  0.0897
  235MPD1    C4 3567   3.326   1.277   9.122  0.3071  0.2215 -0.6557
  235MPD1    C5 3568   3.226   1.188   9.097  0.8418 -0.6373 -0.3485
  235MPD1     H 3569   3.152   1.454   9.351 -3.0013  0.6677 -0.4719
  235MPD1    H1 3570   3.421   1.257   9.074 -0.3768 -0.6607 -1.6361
  235MPD1    H2 3571   3.024   1.141   9.100  1.6028 -0.5374 -1.2864
  235MPD1    H3 3572   3.249   1.112   9.023  2.1225 -2.0312  1.4872
  235MPD1     N 3573   3.402   1.475   9.259 -0.4125  0.6466  0.3801
  235MPD1    H5 3574   3.377   1.549   9.324 -1.3035 -0.1756  0.9493
  235MPD1    N1 3575   2.949   1.285   9.301  0.0907  0.7575  0.9591
  235MPD1    H6 3576   2.916   1.363   9.357 -0.8090 -0.1301  1.6725
  235MPD1    H7 3577   2.877   1.267   9.231  0.6551  0.2029  0.5197
  236MPD1     C 3578   2.645   2.591   9.816 -0.6314 -0.3736  0.4688
  236MPD1    C1 3579   2.711   2.711   9.816  0.3448  0.2165 -0.0019
  236MPD1    C2 3580   2.831   2.714   9.881 -0.3955  0.6133  0.4065
  236MPD1    C3 3581   2.878   2.604   9.954  0.2529 -0.0530 -0.4674
  236MPD1    C4 3582   2.802   2.481   9.946 -0.5103  0.6965 -1.3406
  236MPD1    C5 3583   2.685   2.473   9.877 -0.4954  0.0958  0.4580
  236MPD1     H 3584   2.879   2.811   9.887 -0.7752  0.7101  1.8183
  236MPD1    H1 3585   2.844   2.399  10.004 -0.0623  0.7849 -1.5426
  236MPD1    H2 3586   2.551   2.583   9.763  0.2526  0.1442 -1.1651
  236MPD1    H3 3587   2.625   2.386   9.855  0.7246 -0.4408 -0.7555
  236MPD1     N 3588   2.989   2.609  10.039  0.1931  0.2866  0.3171
  236MPD1    H5 3589   3.002   2.530  10.101 -1.8469 -1.7165 -1.8311
  236MPD1    N1 3590   2.666   2.816   9.735  0.1398  0.1329  0.4718
  236MPD1    H6 3591   2.566   2.818   9.715 -0.2027  1.2658  2.2767
  236MPD1    H7 3592   2.702   2.909   9.758 -0.4359  0.2202  1.0073
  237MPD1     C 3593   2.910   1.938  15.791 -0.8902  0.5042  0.4456
  237MPD1    C1 3594   2.911   1.854  15.681 -0.3250 -0.4378  0.1706
  237MPD1    C2 3595   2.782   1.813  15.644  0.4676 -0.7117  0.3868
  237MPD1    C3 3596   2.671   1.851  15.707 -0.2070 -1.0056  0.1673
  237MPD1    C4 3597   2.679   1.938  15.813  0.3624  0.5682 -0.2357
  237MPD1    C5 3598   2.801   1.980  15.854 -0.7605  0.2880 -0.0427
  237MPD1     H 3599   2.778   1.759  15.550  1.5977  1.1977 -0.7710
  237MPD1    H1 3600   2.590   1.958  15.870  0.4063 -1.1624  0.4435
  237MPD1    H2 3601   3.003   1.979  15.827  1.1933 -2.1695 -1.8996
  237MPD1    H3 3602   2.814   2.059  15.926 -3.4378  2.2331 -1.7170
  237MPD1     N 3603   2.537   1.814  15.672 -0.5029  0.0990 -0.7950
  237MPD1    H5 3604   2.464   1.834  15.740 -2.2935  2.5450 -3.4793
  237MPD1    N1 3605   3.019   1.817  15.602 -0.3796  0.0736  0.3660
  237MPD1    H6 3606   3.005   1.728  15.554  0.3992  0.0609  0.1602
  237MPD1    H7 3607   3.104   1.810  15.659 -1.6407  0.0925  2.2329
  238MPD1     C 3608   3.389   0.731  15.599  0.0717  0.6325 -0.4970
  238MPD1    C1 3609   3.440   0.763  15.475  0.0413  0.3253 -1.0417
  238MPD1    C2 3610   3.369   0.734  15.362  0.0891 -0.3768 -0.0807
  238MPD1    C3 3611   3.256   0.648  15.367  0.4743 -0.3133 -0.5237
  238MPD1    C4 3612   3.212   0.606  15.492 -0.0713 -0.1025 -0.1703
  238MPD1    C5 3613   3.274   0.653  15.606  0.7059  0.1353 -0.0997
  238MPD1     H 3614   3.407   0.764  15.266 -1.6822  0.1230 -0.6335
  238MPD1    H1 3615   3.126   0.541  15.505  0.5717 -0.6581  1.2775
  238MPD1    H2 3616   3.430   0.763  15.694 -1.0853 -0.9675  0.5536
  238MPD1    H3 3617   3.226   0.627  15.700  1.0572 -2.0726 -0.5163
  238MPD1     N 3618   3.189   0.594  15.255  0.1773  1.1642  0.5541
  238MPD1    H5 3619   3.104   0.543  15.275  0.6395 -0.3891 -1.4335
  238MPD1    N1 3620   3.546   0.858  15.464  0.0668  0.6444  0.0154
  238MPD1    H6 3621   3.598   0.861  15.377  2.5675 -2.5937  1.4057
  238MPD1    H7 3622   3.618   0.847  15.535 -0.2626  0.0836  0.2707
  239MPD1     C 3623   4.119   0.287  15.094 -0.1229  0.3483 -0.3383
  239MPD1    C1 3624   4.039   0.358  15.173  0.1064 -0.4542 -0.0848
  239MPD1    C2 3625   4.044   0.495  15.164  0.2902 -0.5136 -0.2325
  239MPD1    C3 3626   4.134   0.560  15.075  0.8220  0.7079  0.1779
  239MPD1    C4 3627   4.210   0.482  14.994 -0.3959  0.1192 -0.6994
  239MPD1    C5 3628   4.202   0.345  15.010 -0.3728 -0.1694  0.0252
  239MPD1     H 3629   3.984   0.550  15.235 -0.2614 -1.0424 -0.2816
  239MPD1    H1 3630   4.283   0.511  14.919  0.4440 -0.0182  0.0711
  239MPD1    H2 3631   4.115   0.179  15.106  3.6587  0.4156  1.7691
  239MPD1    H3 3632   4.270   0.286  14.949 -0.7344  1.8486 -2.3738
  239MPD1     N 3633   4.148   0.700  15.052  0.2649  0.0829 -0.1813
  239MPD1    H5 3634   4.223   0.732  14.992 -1.6574  0.1551 -2.5527
  239MPD1    N1 3635   3.942   0.295  15.252  0.2413  0.2051 -0.3435
  239MPD1    H6 3636   3.990   0.221  15.303  0.7133  1.0784  0.4870
  239MPD1    H7 3637   3.906   0.353  15.328 -1.6071 -0.7713 -0.4559
  240MPD1     C 3638   3.563   0.502  13.819 -0.3091 -1.0002  0.2945
  240MPD1    C1 3639   3.601   0.565  13.941 -0.1685  0.6091 -0.3757
  240MPD1    C2 3640   3.514   0.545  14.044 -0.0557  0.8341 -0.4962
  240MPD1    C3 3641   3.391   0.479  14.035 -0.0538  0.0559 -0.6351
  240MPD1    C4 3642   3.355   0.430  13.916  0.5122 -0.6478 -0.3187
  240MPD1    C5 3643   3.441   0.443  13.811 -0.1261 -0.8896 -0.9426
  240MPD1     H 3644   3.541   0.587  14.140 -1.9752  0.0285  0.4135
  240MPD1    H1 3645   3.255   0.394  13.898 -0.4071  1.2236  0.9542
  240MPD1    H2 3646   3.631   0.507  13.735  0.2975  2.8909  1.0279
  240MPD1    H3 3647   3.412   0.398  13.716  1.3441  0.0887 -1.8705
  240MPD1     N 3648   3.310   0.477  14.151  0.9991 -0.1643 -0.2097
  240MPD1    H5 3649   3.344   0.524  14.235 -0.5547 -1.0558  0.9343
  240MPD1    N1 3650   3.741   0.599  13.962  0.2983 -0.4092 -0.6660
  240MPD1    H6 3651   3.752   0.668  14.036  0.4987 -1.7273  0.5133
  240MPD1    H7 3652   3.776   0.643  13.877 -0.9231  0.9023 -0.4890
  241MPD1     C 3653   3.174   1.241  14.503 -0.9716 -0.5207 -0.5119
  241MPD1    C1 3654   3.105   1.166  14.589 -0.1367  0.3876  0.4889
  241MPD1    C2 3655   3.094   1.032  14.563  0.1389 -0.2838  0.0459
  241MPD1    C3 3656   3.131   0.978  14.441  0.0407  0.4000 -0.0080
  241MPD1    C4 3657   3.178   1.062  14.346  0.0193  1.2945 -0.6317
  241MPD1    C5 3658   3.207   1.193  14.376  0.2558  0.4995  0.0943
  241MPD1     H 3659   3.061   0.973  14.648 -0.6877  1.6379  1.0540
  241MPD1    H1 3660   3.209   1.022  14.250  2.2674 -0.6749  0.9150
  241MPD1    H2 3661   3.205   1.344  14.523 -2.7844  0.1689 -1.2793
  241MPD1    H3 3662   3.244   1.270  14.310  0.0449  0.5410  0.0237
  241MPD1     N 3663   3.112   0.838  14.409  0.1524 -0.2285 -0.4880
  241MPD1    H5 3664   3.153   0.810  14.321  0.7447  3.1844 -1.2931
  241MPD1    N1 3665   3.072   1.217  14.714  0.4203  0.2712  0.3206
  241MPD1    H6 3666   3.030   1.308  14.698 -1.2454 -0.8408 -1.6894
  241MPD1    H7 3667   2.998   1.163  14.759 -0.5518  2.8949  1.8521
  242MPD1     C 3668   2.962   3.670  16.239  0.2277  0.2740  0.0058
  242MPD1    C1 3669   2.900   3.739  16.134  0.4900 -0.4453  0.1034
  242MPD1    C2 3670   2.939   3.704  16.000 -0.9299 -0.1040 -0.3018
  242MPD1    C3 3671   3.025   3.601  15.974 -0.1728  0.4426  0.0306
  242MPD1    C4 3672   3.079   3.537  16.081 -0.2948 -0.7094  0.7307
  242MPD1    C5 3673   3.048   3.566  16.210 -0.2993  0.4532  0.9658
  242MPD1     H 3674   2.887   3.755  15.921 -1.0734 -1.6392 -1.1892
  242MPD1    H1 3675   3.144   3.452  16.063  0.9659 -0.0768  2.2879
  242MPD1    H2 3676   2.934   3.683  16.343 -0.6882 -3.0855  0.1687
  242MPD1    H3 3677   3.093   3.518  16.297  2.9344  1.7065  0.0050
  242MPD1     N 3678   3.050   3.551  15.845 -0.3876  0.4269 -0.2221
  242MPD1    H5 3679   3.108   3.468  15.837 -2.5257 -0.7298 -3.8354
  242MPD1    N1 3680   2.823   3.855  16.166 -0.2152 -0.3788 -0.3295
  242MPD1    H6 3681   2.776   3.856  16.256  0.8208  0.2749  0.1895
  242MPD1    H7 3682   2.756   3.888  16.096 -1.2992 -0.6411  0.5784
  243MPD1     C 3683   0.967   3.205  16.968 -0.1372  0.0323  0.4154
  243MPD1    C1 3684   0.959   3.149  16.838 -0.2762 -0.3914 -0.2675
  243MPD1    C2 3685   0.889   3.028  16.829  0.9200  0.1406  0.2585
  243MPD1    C3 3686   0.840   2.957  16.942  0.4947  0.4879 -0.4471
  243MPD1    C4 3687   0.857   3.018  17.065  0.3021 -0.1130  0.7220
  243MPD1    C5 3688   0.923   3.136  17.079  0.9186  0.1527  0.3246
  243MPD1     H 3689   0.863   3.005  16.726 -0.7578  0.4011  0.6154
  243MPD1    H1 3690   0.832   2.973  17.160 -1.6992 -1.3749 -0.4057
  243MPD1    H2 3691   0.997   3.308  16.987 -1.7265  0.6931 -0.6477
  243MPD1    H3 3692   0.939   3.178  17.178 -1.6013  1.8331  0.0162
  243MPD1     N 3693   0.768   2.837  16.935 -0.4279 -0.5675  0.2775
  243MPD1    H5 3694   0.725   2.802  17.020 -1.3263  1.1128  0.5165
  243MPD1    N1 3695   0.983   3.235  16.727  0.2060 -0.1188 -0.2462
  243MPD1    H6 3696   1.015   3.183  16.646  0.1631 -0.7774  0.1621
  243MPD1    H7 3697   1.044   3.314  16.750 -2.5308  2.0951 -0.5663
  244MPD1     C 3698   0.264   2.492  17.505 -0.2644  0.1070 -1.1569
  244MPD1    C1 3699   0.354   2.598  17.483  0.2582  1.0337 -0.1016
  244MPD1    C2 3700   0.440   2.592  17.372 -0.1744  0.5572  0.5228
  244MPD1    C3 3701   0.403   2.509  17.266 -0.2024 -0.4182  0.3183
  244MPD1    C4 3702   0.301   2.415  17.287  0.0935 -0.0423 -1.0969
  244MPD1    C5 3703   0.248   2.397  17.412  0.1125 -0.7190 -0.1198
  244MPD1     H 3704   0.516   2.669  17.366 -0.2233  0.7048  1.7580
  244MPD1    H1 3705   0.259   2.349  17.212 -0.1741 -0.4390 -0.6009
  244MPD1    H2 3706   0.210   2.479  17.598  1.6736 -3.9887 -0.5871
  244MPD1    H3 3707   0.168   2.328  17.435 -0.5761 -0.1185 -0.6893
  244MPD1     N 3708   0.472   2.531  17.148  0.5798  0.2469  0.6403
  244MPD1    H5 3709   0.539   2.605  17.165 -0.6058  1.7044 -0.9000
  244MPD1    N1 3710   0.376   2.687  17.592 -1.0752  0.1467  0.0580
  244MPD1    H6 3711   0.294   2.713  17.646 -0.1677  0.5775  1.2245
  244MPD1    H7 3712   0.430   2.770  17.568  0.0475 -0.5195  0.2825
  245MPD1     C 3713   1.821   2.409  13.530 -0.3164  0.1515  0.5162
  245MPD1    C1 3714   1.741   2.467  13.623  0.4530 -0.0372  0.1781
  245MPD1    C2 3715   1.775   2.581  13.683  0.1082 -0.2615 -0.1335
  245MPD1    C3 3716   1.895   2.651  13.646 -0.4614  0.3204  0.3443
  245MPD1    C4 3717   1.963   2.600  13.540  0.2208  0.3748  0.3630
  245MPD1    C5 3718   1.923   2.480  13.491  0.0709  0.9778 -0.3541
  245MPD1     H 3719   1.706   2.612  13.761  1.6617 -0.8063  1.4220
  245MPD1    H1 3720   2.059   2.638  13.507  0.5753 -1.2632 -0.4783
  245MPD1    H2 3721   1.796   2.315  13.481  1.3371  2.5463 -5.0061
  245MPD1    H3 3722   1.984   2.439  13.411 -0.3774  0.8849 -0.6510
  245MPD1     N 3723   1.941   2.763  13.719 -0.3854 -0.7370 -0.1343
  245MPD1    H5 3724   1.890   2.790  13.802  1.1338  2.9270 -0.3886
  245MPD1    N1 3725   1.614   2.407  13.638 -0.9193  0.0890  0.3456
  245MPD1    H6 3726   1.572   2.424  13.729 -3.0540 -0.2307 -0.5978
  245MPD1    H7 3727   1.623   2.306  13.627  0.9474  0.2713  0.0706
  246MPD1     C 3728   2.411   1.668  10.228 -0.7513  0.2885  0.3957
  246MPD1    C1 3729   2.482   1.764  10.157  0.6733  0.8722  0.0780
  246MPD1    C2 3730   2.471   1.760  10.019 -0.1986  0.1725 -0.1658
  246MPD1    C3 3731   2.409   1.651   9.961  0.2837  0.5753 -0.3094
  246MPD1    C4 3732   2.354   1.556  10.036  0.5671 -0.8306  0.6147
  246MPD1    C5 3733   2.365   1.557  10.172 -0.5679  0.7699  0.0658
  246MPD1     H 3734   2.536   1.822   9.959 -0.2526  1.0198  0.6495
  246MPD1    H1 3735   2.290   1.484   9.987  1.3521 -1.3686  0.3883
  246MPD1    H2 3736   2.393   1.684  10.334 -2.1160 -0.2135  0.2369
  246MPD1    H3 3737   2.302   1.497  10.238  0.6722 -1.0240 -0.3717
  246MPD1     N 3738   2.415   1.646   9.824 -0.6913 -1.1573 -0.7418
  246MPD1    H5 3739   2.479   1.716   9.786 -1.0496 -0.0952  0.6543
  246MPD1    N1 3740   2.509   1.886  10.231  0.1948  0.4213 -0.4129
  246MPD1    H6 3741   2.534   1.849  10.322 -0.8897 -2.4899 -1.3069
  246MPD1    H7 3742   2.590   1.935  10.192  1.0791 -1.1132 -0.5123
  247MPD1     C 3743   1.483   2.001  15.494 -0.0960  0.2804  0.3032
  247MPD1    C1 3744   1.526   1.892  15.557  0.7535 -0.0257  0.0521
  247MPD1    C2 3745   1.621   1.906  15.656 -0.7469 -0.0104  0.5196
  247MPD1    C3 3746   1.679   2.028  15.679  0.1184 -0.4477  0.2093
  247MPD1    C4 3747   1.642   2.136  15.606 -0.8685  0.2119 -0.0205
  247MPD1    C5 3748   1.535   2.125  15.515 -0.3131 -0.6643 -0.2484
  247MPD1     H 3749   1.646   1.828  15.726 -1.4085 -0.6705  0.0229
  247MPD1    H1 3750   1.692   2.232  15.613  0.3564 -0.5455  1.7725
  247MPD1    H2 3751   1.409   1.985  15.417  0.6999 -0.7413 -0.2614
  247MPD1    H3 3752   1.494   2.205  15.455 -0.8935  0.3822  1.5744
  247MPD1     N 3753   1.776   2.061  15.778 -0.0056  0.0847  0.2657
  247MPD1    H5 3754   1.806   2.158  15.779  0.1416  0.0198  1.4394
  247MPD1    N1 3755   1.454   1.779  15.556 -0.0670  0.2261 -0.2018
  247MPD1    H6 3756   1.415   1.762  15.464  0.3503 -1.5241 -0.0554
  247MPD1    H7 3757   1.509   1.696  15.579 -1.5198 -1.1942 -1.8339
  248MPD1     C 3758   2.359   2.898   0.381 -0.6874 -0.2891  0.0870
  248MPD1    C1 3759   2.492   2.942   0.369 -0.1965 -0.1389 -0.1950
  248MPD1    C2 3760   2.518   3.061   0.433 -0.7287  0.1731 -0.7067
  248MPD1    C3 3761   2.422   3.138   0.500  0.9387 -0.0181 -1.0679
  248MPD1    C4 3762   2.299   3.094   0.509 -0.6805 -0.6728  0.4253
  248MPD1    C5 3763   2.268   2.976   0.449 -0.0471  0.0696  0.3260
  248MPD1     H 3764   2.622   3.092   0.431 -0.5889 -0.3219 -1.0439
  248MPD1    H1 3765   2.225   3.146   0.570 -0.5227 -1.5512  1.3748
  248MPD1    H2 3766   2.324   2.806   0.336 -0.6299  0.7211 -2.0440
  248MPD1    H3 3767   2.166   2.939   0.449  0.0962 -0.3099 -0.9269
  248MPD1     N 3768   2.457   3.261   0.556 -0.7430 -0.3823 -0.2130
  248MPD1    H5 3769   2.555   3.285   0.564 -0.9175  0.9499 -2.1162
  248MPD1    N1 3770   2.591   2.856   0.320  0.3842 -0.3282 -0.0527
  248MPD1    H6 3771   2.604   2.788   0.395 -0.8107 -1.6433 -1.0174
  248MPD1    H7 3772   2.679   2.901   0.297 -0.5693  0.4621 -2.2113
  249MPD1     C 3773   0.945   1.350   9.648  0.3867  0.1214 -0.4003
  249MPD1    C1 3774   0.877   1.445   9.720 -0.8111 -0.3356 -0.1349
  249MPD1    C2 3775   0.757   1.406   9.772 -0.7256 -0.2869 -0.3102
  249MPD1    C3 3776   0.714   1.276   9.767 -0.3122 -0.1761 -0.0084
  249MPD1    C4 3777   0.784   1.177   9.689  0.4268 -0.0414 -0.3218
  249MPD1    C5 3778   0.897   1.223   9.633  0.6836 -0.4740  0.4069
  249MPD1     H 3779   0.689   1.482   9.809 -1.2699  0.3341 -2.5919
  249MPD1    H1 3780   0.758   1.072   9.680  0.3524 -0.2252  2.0813
  249MPD1    H2 3781   1.039   1.379   9.601 -0.5336 -0.0977 -2.3558
  249MPD1    H3 3782   0.956   1.157   9.569 -1.2797  0.8368 -2.7472
  249MPD1     N 3783   0.606   1.250   9.846  0.4421 -0.0417 -0.4392
  249MPD1    H5 3784   0.572   1.327   9.903  2.3444 -0.5846  1.4557
  249MPD1    N1 3785   0.916   1.578   9.705  0.5126 -0.1252  0.4271
  249MPD1    H6 3786   0.880   1.640   9.777  0.9846 -0.4959  0.9726
  249MPD1    H7 3787   1.014   1.585   9.680  0.6607  0.7943  1.2761
  250MPD2     C 3788   4.598   1.387  13.697  0.4586  0.3648 -0.3618
  250MPD2    C1 3789   4.672   1.410  13.583  0.3883 -0.0498  0.1802
  250MPD2    C2 3790   4.674   1.303  13.496 -0.1422 -0.2965 -0.5790
  250MPD2    C3 3791   4.587   1.197  13.496  0.1489 -0.5277 -0.9082
  250MPD2    C4 3792   4.502   1.198  13.606 -0.0335  0.0567  0.0469
  250MPD2    C5 3793   4.508   1.287  13.704  0.0338  0.5572  0.1863
  250MPD2     H 3794   0.013   1.309  13.408  0.7374  2.1023  0.2336
  250MPD2    H1 3795   4.426   1.125  13.629 -0.3490  0.1636 -0.6427
  250MPD2    H2 3796   4.588   1.463  13.773 -0.6450 -0.2456  0.1039
  250MPD2    H3 3797   4.441   1.282  13.789  1.0804 -1.3877  0.8998
  250MPD2     N 3798   4.577   1.098  13.394 -0.3240  0.4789 -0.7079
  250MPD2    H5 3799   4.507   1.027  13.414  0.1514 -0.1344 -1.2327
  250MPD2    N1 3800   0.020   1.531  13.560 -0.1374 -0.0487  0.0780
  250MPD2    H7 3801   0.023   1.593  13.640  2.3701  0.2740 -0.2615
  251TMC3    C1 3802   0.179   1.664  13.476 -0.4116 -0.4152 -0.2945
  251TMC3    C2 3803   0.133   1.789  13.505  0.7364  0.0158 -0.0575
  251TMC3    C3 3804   0.198   1.894  13.455 -0.2971  0.0563 -0.0660
  251TMC3    C4 3805   0.295   1.645  13.403  0.2255 -0.2037 -0.0060
  251TMC3    C5 3806   0.373   1.760  13.369  0.1542  0.3346  0.4048
  251TMC3    C6 3807   0.322   1.881  13.397 -0.5699 -0.0138 -0.4695
  251TMC3     C 3808   0.086   1.560  13.448  0.0298  0.0680  0.1806
  251TMC3     O 3809   0.104   1.489  13.347  0.1775 -0.5698 -0.1368
  251TMC3     H 3810   0.036   1.801  13.552  1.2877 -3.6442  2.0100
  251TMC3    H1 3811   0.326   1.545  13.376 -0.3147  0.2089 -2.1638
  251TMC3    H2 3812   0.388   1.967  13.388 -2.1643  1.5685  3.1047
  251TMC3    C7 3813   0.477   1.740  13.269  0.1510  0.4015 -0.1136
  251TMC3    C8 3814   0.173   2.021  13.515 -0.0208  0.0032 -0.1698
  251TMC3    O1 3815   0.546   1.640  13.265  0.0288 -0.0859  0.1967
  251TMC3    O2 3816   0.116   2.015  13.623 -0.3836  0.4413  0.1686
  252TMC3    C1 3817   0.883   1.765  10.382 -0.2827 -0.0340 -0.4985
  252TMC3    C2 3818   0.907   1.814  10.255 -0.0436 -0.3347  0.1388
  252TMC3    C3 3819   0.876   1.738  10.142 -1.0613  0.2887  0.4119
  252TMC3    C4 3820   0.815   1.654  10.398  0.0045  0.2434  0.0235
  252TMC3    C5 3821   0.779   1.582  10.286 -0.1159  0.3244  0.9255
  252TMC3    C6 3822   0.805   1.619  10.157  0.8250 -0.6245  0.2323
  252TMC3     C 3823   0.906   1.846  10.501  0.9302  0.7444  0.5425
  252TMC3     O 3824   0.866   1.799  10.605 -0.1722  0.1830 -0.6961
  252TMC3     H 3825   0.940   1.917  10.256  1.2730 -0.7728  1.4301
  252TMC3    H1 3826   0.791   1.607  10.493 -3.0551 -0.7700 -1.2332
  252TMC3    H2 3827   0.789   1.572  10.061 -1.1371  0.9085 -0.1915
  252TMC3    C7 3828   0.709   1.456  10.305  0.0188  0.3774  0.4095
  252TMC3    C8 3829   0.894   1.795  10.009 -0.0673 -0.4734 -0.3669
  252TMC3    O1 3830   0.629   1.452  10.398 -0.5140  0.0061  0.1991
  252TMC3    O2 3831   0.826   1.761   9.911  0.3210 -0.5697 -0.1930
  253MPD2     C 3832   1.647   1.464  15.428  0.2347 -0.0548  0.6939
  253MPD2    C1 3833   1.518   1.420  15.446  0.0182 -0.1034 -0.0751
  253MPD2    C2 3834   1.452   1.435  15.568  0.0113 -0.4231 -0.0326
  253MPD2    C3 3835   1.520   1.496  15.676  0.5350 -0.1023  0.7158
  253MPD2    C4 3836   1.651   1.531  15.655 -0.1753 -0.5096 -0.4265
  253MPD2    C5 3837   1.717   1.517  15.534 -0.8111 -0.9275  0.3121
  253MPD2     H 3838   1.346   1.413  15.569  0.1207 -1.0568 -2.1085
  253MPD2    H1 3839   1.712   1.557  15.742 -0.2073 -0.8320 -0.3066
  253MPD2    H2 3840   1.699   1.452  15.334  1.0973 -0.0304  1.1696
  253MPD2    H3 3841   1.817   1.556  15.520 -0.8483 -0.6493  0.7930
  253MPD2     N 3842   1.462   1.518  15.799  0.3936 -0.1359  0.9371
  253MPD2    H5 3843   1.519   1.562  15.870  0.9918  0.5258  0.0419
  253MPD2    N1 3844   1.444   1.360  15.336  0.3034 -0.0543 -0.3521
  253MPD2    H7 3845   1.352   1.332  15.367  0.2775  0.3256 -0.0854
  254TMC3    C1 3846   1.312   1.556  15.964 -0.7219  0.6578  0.6291
  254TMC3    C2 3847   1.192   1.618  15.987  0.3736 -0.5096 -0.8016
  254TMC3    C3 3848   1.170   1.663  16.120  0.6521 -0.1769 -0.6355
  254TMC3    C4 3849   1.409   1.541  16.063  0.3766 -1.1930 -0.2040
  254TMC3    C5 3850   1.382   1.594  16.185 -0.1812 -0.3022  0.4573
  254TMC3    C6 3851   1.264   1.648  16.219 -0.0656 -0.4746 -0.1964
  254TMC3     C 3852   1.332   1.496  15.838 -0.1352  0.0642  0.1546
  254TMC3     O 3853   1.235   1.461  15.775  0.4841  0.6267  0.1798
  254TMC3     H 3854   1.115   1.622  15.911 -1.3380  0.1384  0.9604
  254TMC3    H1 3855   1.502   1.489  16.045  2.1977  1.9915 -0.1484
  254TMC3    H2 3856   1.251   1.696  16.316  0.4084 -2.1185  0.6926
  254TMC3    C7 3857   1.468   1.555  16.294 -1.2850 -0.7714 -0.0726
  254TMC3    C8 3858   1.083   1.774  16.136  0.5159  0.2582 -0.3787
  254TMC3    O1 3859   1.418   1.546  16.404  0.0397 -0.1489  0.1040
  254TMC3    O2 3860   1.051   1.784  16.253 -0.1651  0.0676  0.4275
  255MPD2     C 3861   4.314   3.888  10.775 -0.5704  0.4682 -0.8286
  255MPD2    C1 3862   4.383   4.008  10.770  0.3880  0.7106  0.4151
  255MPD2    C2 3863   4.502   4.009  10.841  0.2939  0.1914 -0.8285
  255MPD2    C3 3864   4.553   3.896  10.898  0.2123  0.0295  0.3486
  255MPD2    C4 3865   4.486   3.777  10.892 -0.1128  0.4134  0.7481
  255MPD2    C5 3866   4.365   3.776  10.840 -0.5509  0.3007 -0.1854
  255MPD2     H 3867   4.567   4.096  10.832 -0.4726  0.7942 -0.5362
  255MPD2    H1 3868   4.512   3.684  10.943 -4.0116 -1.3801 -0.5414
  255MPD2    H2 3869   4.218   3.868  10.728 -0.5543  1.1352 -1.1527
  255MPD2    H3 3870   4.315   3.681  10.831  1.7403 -0.7594 -1.7672
  255MPD2     N 3871   4.686   3.893  10.940  0.1115 -0.0755 -0.0678
  255MPD2    H5 3872   0.015   3.977  10.921  1.7639 -0.7265  1.7404
  255MPD2    N1 3873   4.330   4.112  10.690  0.0400  0.0976 -0.3007
  255MPD2    H7 3874   4.245   4.090  10.639  0.8187  0.6436 -1.8260
  256TMC3    C1 3875   4.315   4.307  10.566 -0.3535  0.3991  0.5469
  256TMC3    C2 3876   4.329   4.441  10.560  0.8857 -0.2762 -0.2207
  256TMC3    C3 3877   4.337   4.505  10.441 -1.1315  0.1796  0.7027
  256TMC3    C4 3878   4.303   4.233  10.451 -0.2498  0.1889  0.5646
  256TMC3    C5 3879   4.303   4.303  10.332  0.6771  0.1083 -0.7592
  256TMC3    C6 3880   4.323   4.436  10.326 -0.6202 -0.2999  0.0637
  256TMC3     C 3881   4.387   4.238  10.672  0.4960  0.0250 -0.1547
  256TMC3     O 3882   4.488   4.296  10.717  0.2337 -0.0736 -0.3561
  256TMC3     H 3883   4.352   4.498  10.649 -0.2481  0.7168 -0.5611
  256TMC3    H1 3884   4.324   4.127  10.449 -1.7371 -0.0804 -0.7450
  256TMC3    H2 3885   4.336   4.494  10.236  3.1797  1.8196  1.9659
  256TMC3    C7 3886   4.343   4.224  10.210 -0.9447 -0.0449  0.1951
  256TMC3    C8 3887   4.387   4.642  10.445  0.3447  0.5068 -0.2442
  256TMC3    O1 3888   4.301   4.108  10.202  0.2321  0.5375  0.0103
  256TMC3    O2 3889   4.339   4.711  10.534 -0.2954 -0.0114  0.1778
  257MPD2     C 3890   3.933   1.509  13.274 -0.3927  0.4379 -0.3179
  257MPD2    C1 3891   3.888   1.397  13.214  0.1345 -0.7914 -0.3720
  257MPD2    C2 3892   3.836   1.292  13.289 -0.1856  0.0344 -0.0647
  257MPD2    C3 3893   3.847   1.302  13.425 -0.6727 -0.5148  0.3785
  257MPD2    C4 3894   3.881   1.424  13.485 -0.0251  0.0271 -0.1103
  257MPD2    C5 3895   3.917   1.531  13.408  0.1768 -0.0709 -0.1001
  257MPD2     H 3896   3.802   1.195  13.255  1.3947 -0.7150  0.5274
  257MPD2    H1 3897   3.876   1.441  13.591 -1.4171 -0.7253 -0.0488
  257MPD2    H2 3898   3.970   1.593  13.217 -1.8685  1.0016 -0.4683
  257MPD2    H3 3899   3.946   1.628  13.445 -1.5712 -0.6162  2.6583
  257MPD2     N 3900   3.786   1.206  13.509 -0.1849  0.5779  0.5879
  257MPD2    H5 3901   3.728   1.132  13.472  1.1700 -0.7984  1.2002
  257MPD2    N1 3902   3.908   1.388  13.073  0.1062 -0.2432 -0.0349
  257MPD2    H7 3903   3.968   1.458  13.029 -0.6028  0.9231  0.8359
  258TMC3    C1 3904   3.724   1.086  13.705  0.5989  0.8755  0.1289
  258TMC3    C2 3905   3.602   1.046  13.647  0.0411 -0.1640  0.2023
  258TMC3    C3 3906   3.538   0.946  13.717  0.0529 -0.5100  0.2657
  258TMC3    C4 3907   3.757   1.051  13.828 -0.9222 -0.1468 -0.0807
  258TMC3    C5 3908   3.673   0.966  13.898  0.2485  0.3178  0.4981
  258TMC3    C6 3909   3.565   0.912  13.843  0.4525  0.2883  0.2061
  258TMC3     C 3910   3.804   1.189  13.644  0.6010  0.2355 -0.2957
  258TMC3     O 3911   3.875   1.253  13.723 -0.0664 -0.5299  0.3445
  258TMC3     H 3912   3.582   1.063  13.542 -0.4278 -0.9821  0.1564
  258TMC3    H1 3913   3.840   1.102  13.878 -2.0849  0.7991  0.8906
  258TMC3    H2 3914   3.507   0.841  13.901 -0.3043  1.1736  0.5352
  258TMC3    C7 3915   3.675   0.971  14.040 -0.0327 -0.6314  0.0616
  258TMC3    C8 3916   3.470   0.840  13.643  0.1352  0.2406 -0.5524
  258TMC3    O1 3917   3.573   0.943  14.104  0.2684 -0.4854  0.0415
  258TMC3    O2 3918   3.510   0.803  13.535 -0.1503  0.4475  0.0872
  259MPD2     C 3919   2.757   3.219   1.295 -0.4116  0.4502 -0.0049
  259MPD2    C1 3920   2.740   3.100   1.230  0.1259 -0.5194  0.2706
  259MPD2    C2 3921   2.801   3.076   1.114  0.2734 -0.4783  0.1582
  259MPD2    C3 3922   2.887   3.178   1.061 -0.2525  0.1792 -0.1840
  259MPD2    C4 3923   2.910   3.292   1.133 -0.1775 -0.0989  0.4561
  259MPD2    C5 3924   2.846   3.310   1.254  0.7378  0.2322 -0.2997
  259MPD2     H 3925   2.779   2.987   1.057 -3.5990 -0.0027  0.9482
  259MPD2    H1 3926   2.990   3.362   1.110 -2.0335  2.0282  0.4277
  259MPD2    H2 3927   2.710   3.234   1.391  1.6236  2.1186  0.7286
  259MPD2    H3 3928   2.860   3.400   1.312  0.0387 -0.1563  0.4726
  259MPD2     N 3929   2.972   3.144   0.950 -0.3377  0.1077 -0.4287
  259MPD2    H5 3930   2.951   3.062   0.895  1.6597 -0.4533 -0.3496
  259MPD2    N1 3931   2.665   3.003   1.296  0.0088  0.0045 -0.2562
  259MPD2    H7 3932   2.628   3.034   1.386  2.0260  1.3391  0.1312
  260TMC3    C1 3933   3.167   3.164   0.801 -0.1450 -0.2778 -0.5414
  260TMC3    C2 3934   3.221   3.230   0.698 -1.1094  0.3425 -0.2108
  260TMC3    C3 3935   3.315   3.165   0.620 -0.0121  0.1774  1.1268
  260TMC3    C4 3936   3.214   3.048   0.846 -0.0003  0.5027 -0.0028
  260TMC3    C5 3937   3.311   2.980   0.777  0.9254  0.1532  0.2604
  260TMC3    C6 3938   3.362   3.046   0.661  0.2686  0.2332 -0.2744
  260TMC3     C 3939   3.064   3.233   0.888  0.1390 -0.2885 -0.3279
  260TMC3     O 3940   3.061   3.356   0.888 -0.4105  0.0528  0.5413
  260TMC3     H 3941   3.172   3.325   0.678  1.6074  1.7754 -0.1122
  260TMC3    H1 3942   3.183   3.011   0.943  0.1841 -0.2580 -0.2333
  260TMC3    H2 3943   3.450   3.008   0.609  0.8198 -1.2021  1.6623
  260TMC3    C7 3944   3.281   2.841   0.754 -0.4736 -0.5192 -0.1521
  260TMC3    C8 3945   3.312   3.179   0.473 -0.5516  0.2920 -0.0210
  260TMC3    O1 3946   3.324   2.793   0.648 -0.5941 -0.6109 -0.1706
  260TMC3    O2 3947   3.280   3.291   0.434  0.3671  0.0675 -0.7012
  261MPD2     C 3948   4.234   1.038  12.709 -0.0896  0.0736 -0.2204
  261MPD2    C1 3949   4.367   1.052  12.720  0.2599  0.3642  0.5968
  261MPD2    C2 3950   4.428   1.119  12.611  0.3685  0.0611  0.3080
  261MPD2    C3 3951   4.352   1.186  12.515  0.1460  0.0832  0.0152
  261MPD2    C4 3952   4.211   1.164  12.514  0.0014 -0.1992  0.4225
  261MPD2    C5 3953   4.152   1.088  12.611  0.5076  0.9328 -0.2390
  261MPD2     H 3954   4.536   1.130  12.616  0.2951  1.3160 -1.0621
  261MPD2    H1 3955   4.151   1.215  12.440  1.1811  1.0047  0.2840
  261MPD2    H2 3956   4.179   0.979  12.782 -0.2159  1.3455  0.7124
  261MPD2    H3 3957   4.044   1.085  12.613  0.5856 -0.9573  1.1789
  261MPD2     N 3958   4.419   1.267  12.424  0.2508 -0.8874  0.1554
  261MPD2    H5 3959   4.518   1.275  12.441  0.5004 -1.5544 -0.9426
  261MPD2    N1 3960   4.444   0.985  12.813  0.0162 -0.8333 -0.2921
  261MPD2    H7 3961   4.543   0.972  12.797  0.2014  0.9884 -0.6323
  262TMC3    C1 3962   4.453   1.425  12.256 -0.2489  0.4567 -0.2628
  262TMC3    C2 3963   4.407   1.554  12.237  0.7709 -0.6386  0.1683
  262TMC3    C3 3964   4.506   1.640  12.195 -0.9839  0.3019 -0.0062
  262TMC3    C4 3965   4.577   1.381  12.229  0.3551  0.3975  0.5165
  262TMC3    C5 3966   4.666   1.473  12.177  0.8600 -0.3213 -0.2976
  262TMC3    C6 3967   4.633   1.605  12.163 -0.2779 -0.0952 -0.0706
  262TMC3     C 3968   4.362   1.334  12.321  0.3403 -0.0619  0.3139
  262TMC3     O 3969   4.249   1.359  12.294 -0.0418  0.2991 -0.1145
  262TMC3     H 3970   4.309   1.589  12.268  0.2442 -0.3646 -1.7758
  262TMC3    H1 3971   4.613   1.281  12.249 -0.3417  0.3322  1.4343
  262TMC3    H2 3972   4.716   1.672  12.143 -0.5468 -0.2540 -1.6682
  262TMC3    C7 3973   0.082   1.426  12.165 -0.6286 -0.1298  0.0348
  262TMC3    C8 3974   4.482   1.785  12.194 -0.8707 -0.6187  0.0816
  262TMC3    O1 3975   0.169   1.494  12.220  0.7527 -0.2490 -0.3010
  262TMC3    O2 3976   4.584   1.856  12.205  0.2897 -0.2473  0.3194
  263MPD2     C 3977   0.879   0.450  11.284  0.3859 -0.7125 -0.1028
  263MPD2    C1 3978   0.930   0.572  11.322 -0.3025  0.1436 -0.5634
  263MPD2    C2 3979   0.955   0.666  11.224 -0.0046 -0.0528 -0.5138
  263MPD2    C3 3980   0.949   0.633  11.085  0.2912  0.2183 -0.0733
  263MPD2    C4 3981   0.905   0.504  11.056 -0.1937  0.0513  0.6994
  263MPD2    C5 3982   0.868   0.419  11.153 -0.6028  0.1487  0.4888
  263MPD2     H 3983   1.003   0.762  11.237 -0.3739  0.1486 -0.6408
  263MPD2    H1 3984   0.915   0.475  10.952  0.7996  0.2807  0.7280
  263MPD2    H2 3985   0.861   0.376  11.361  1.1528  0.3658  1.1129
  263MPD2    H3 3986   0.826   0.321  11.133 -0.3917  0.7655 -2.9899
  263MPD2     N 3987   0.991   0.730  10.992 -0.5493 -0.6876  0.0529
  263MPD2    H5 3988   1.000   0.824  11.028  1.0611 -0.2987 -1.3749
  263MPD2    N1 3989   0.957   0.586  11.459  0.0682 -0.9053 -0.0139
  263MPD2    H7 3990   0.934   0.511  11.523 -0.4726 -1.2416 -0.5940
  264TMC3    C1 3991   1.066   0.809  10.782 -0.5778 -0.2176  0.1178
  264TMC3    C2 3992   1.019   0.942  10.808 -0.2704 -0.1178 -0.3836
  264TMC3    C3 3993   1.084   1.046  10.752 -0.0678  0.8090  0.1844
  264TMC3    C4 3994   1.180   0.790  10.712 -0.2577  0.5050  0.3635
  264TMC3    C5 3995   1.247   0.896  10.655 -0.6369  0.0534  0.4796
  264TMC3    C6 3996   1.190   1.017  10.671 -0.0858  0.5115  0.2099
  264TMC3     C 3997   1.022   0.701  10.859 -0.0142  0.7326  0.7155
  264TMC3     O 3998   1.044   0.593  10.810  0.2176 -0.3409  0.2009
  264TMC3     H 3999   0.941   0.949  10.884  1.7737 -0.3880  1.7411
  264TMC3    H1 4000   1.223   0.694  10.683  1.7175  1.9818 -1.6171
  264TMC3    H2 4001   1.231   1.101  10.616  0.9072  0.5498  1.0121
  264TMC3    C7 4002   1.387   0.887  10.675 -0.1606  0.1486  0.0325
  264TMC3    C8 4003   1.119   1.155  10.834  0.3047 -0.0697  0.0717
  264TMC3    O1 4004   1.438   0.780  10.642  0.0682 -0.2812  0.7033
  264TMC3    O2 4005   1.238   1.188  10.834 -0.0319 -0.1167 -0.2893
  265MPD2     C 4006   2.551   1.156  16.081  0.1864  0.1596 -0.0485
  265MPD2    C1 4007   2.623   1.262  16.039  0.4209  0.2567  0.5437
  265MPD2    C2 4008   2.706   1.239  15.930  0.0566  0.3964 -0.5743
  265MPD2    C3 4009   2.729   1.117  15.872  0.1829  0.3006 -0.5615
  265MPD2    C4 4010   2.649   1.014  15.918 -0.0810  0.1753  0.1742
  265MPD2    C5 4011   2.568   1.031  16.026 -0.3183  0.0719 -0.4646
  265MPD2     H 4012   2.760   1.327  15.897  0.4503  0.0987 -0.7330
  265MPD2    H1 4013   2.658   0.915  15.873 -1.3844  0.0146  0.2772
  265MPD2    H2 4014   2.480   1.151  16.162  1.9926  2.4341  1.6733
  265MPD2    H3 4015   2.516   0.942  16.060  0.1757 -0.9818 -2.4568
  265MPD2     N 4016   2.820   1.087  15.769 -0.0047  0.2439  0.0236
  265MPD2    H5 4017   2.825   0.987  15.752  0.7248  0.5350 -1.4679
  265MPD2    N1 4018   2.617   1.395  16.100  0.4391 -0.3746  0.6076
  265MPD2    H7 4019   2.667   1.463  16.043  1.5072 -0.9475  0.8592
  266TMC3    C1 4020   2.552   1.556  16.251 -0.0620  0.5980 -0.0194
  266TMC3    C2 4021   2.589   1.603  16.372 -0.2492  0.3613  0.1571
  266TMC3    C3 4022   2.588   1.740  16.388  0.2752 -0.6462 -0.3693
  266TMC3    C4 4023   2.524   1.641  16.146 -0.0573 -0.5356 -0.0452
  266TMC3    C5 4024   2.507   1.777  16.171 -0.6486 -0.8134  0.2673
  266TMC3    C6 4025   2.547   1.831  16.289 -0.7924 -0.3619 -0.1396
  266TMC3     C 4026   2.565   1.418  16.225 -0.1928  0.4722 -0.7265
  266TMC3     O 4027   2.560   1.342  16.318  0.1934  0.2077 -0.6810
  266TMC3     H 4028   2.622   1.532  16.447 -3.4137 -4.0544 -2.6831
  266TMC3    H1 4029   2.491   1.596  16.053  1.2100  1.3696 -1.3990
  266TMC3    H2 4030   2.557   1.936  16.310  0.9418 -0.5764  0.1550
  266TMC3    C7 4031   2.457   1.860  16.062 -0.1932  0.3949 -0.6429
  266TMC3    C8 4032   2.704   1.785  16.461  0.0968  0.0632 -0.2002
  266TMC3    O1 4033   2.451   1.799  15.959  0.8510  0.2759 -0.3095
  266TMC3    O2 4034   2.782   1.701  16.492  0.1877  0.0700  0.5682
  267MPD2     C 4035   0.772   3.230  17.436 -0.2683 -0.5036  0.5153
  267MPD2    C1 4036   0.724   3.104  17.451  0.4722 -0.5415 -0.1047
  267MPD2    C2 4037   0.634   3.060  17.349  0.0232 -0.3164  0.6063
  267MPD2    C3 4038   0.605   3.136  17.239  0.1120  0.2865  0.5496
  267MPD2    C4 4039   0.657   3.264  17.227 -0.0129  0.2891  0.2340
  267MPD2    C5 4040   0.730   3.313  17.329  0.1385  0.4204  0.5210
  267MPD2     H 4041   0.578   2.969  17.365 -0.1037 -0.0241  1.8034
  267MPD2    H1 4042   0.644   3.326  17.138  2.7661 -0.8705 -0.9766
  267MPD2    H2 4043   0.834   3.271  17.515  0.4555  0.0840 -0.3449
  267MPD2    H3 4044   0.776   3.409  17.311 -2.9136  1.4381 -1.8825
  267MPD2     N 4045   0.536   3.092  17.126 -0.1417 -0.3502  0.3100
  267MPD2    H5 4046   0.524   3.161  17.053 -3.1098 -1.6352 -0.4150
  267MPD2    N1 4047   0.768   3.020  17.557 -0.3112 -0.6530  0.1247
  267MPD2    H7 4048   0.834   3.060  17.623  0.8848 -0.0835 -1.4116
  268TMC3    C1 4049   0.788   2.832  17.692 -0.2003  0.1248 -0.0003
  268TMC3    C2 4050   0.903   2.879   0.056  0.4291 -0.3668 -0.3728
  268TMC3    C3 4051   0.915   2.853   0.189  0.1154  0.8542  0.9517
  268TMC3    C4 4052   0.693   2.755   0.059 -0.9709  0.1071 -0.3046
  268TMC3    C5 4053   0.703   2.741   0.193  0.2618 -0.3527  0.4640
  268TMC3    C6 4054   0.815   2.793   0.259 -0.2828 -0.2219  0.9059
  268TMC3     C 4055   0.738   2.888  17.569  0.0015 -0.3549 -0.1415
  268TMC3     O 4056   0.648   2.819  17.520  0.0915  0.9947 -0.0809
  268TMC3     H 4057   0.987   2.894  17.690 -0.4200 -0.5173 -1.4991
  268TMC3    H1 4058   0.607   2.715   0.005 -0.9860 -1.8726  1.1794
  268TMC3    H2 4059   0.839   2.772   0.363 -2.7103  0.0813  1.5304
  268TMC3    C7 4060   0.627   2.649   0.273  0.0748 -0.5628 -0.2626
  268TMC3    C8 4061   1.026   2.914   0.267 -0.0808 -0.2058  0.4465
  268TMC3    O1 4062   0.679   2.604   0.368 -0.3135  0.1876 -0.0806
  268TMC3    O2 4063   1.042   2.861   0.377 -0.3775  0.1915 -0.5796
  269MPD2     C 4064   0.724   1.962  15.545 -0.0308  0.7514  0.2545
  269MPD2    C1 4065   0.693   2.035  15.654  0.1091  0.2693 -0.3172
  269MPD2    C2 4066   0.698   2.169  15.654  0.8510 -0.3470 -0.3855
  269MPD2    C3 4067   0.750   2.242  15.545  0.2091  0.7064  0.2175
  269MPD2    C4 4068   0.787   2.170  15.437 -1.1240 -0.0550  0.1523
  269MPD2    C5 4069   0.772   2.026  15.433 -0.0120  0.2614  0.0572
  269MPD2     H 4070   0.679   2.224  15.745 -1.1278  1.1039 -1.6696
  269MPD2    H1 4071   0.836   2.209  15.349 -0.7518  2.6710  1.5571
  269MPD2    H2 4072   0.724   1.854  15.557  0.6884  0.8834  1.4942
  269MPD2    H3 4073   0.799   1.959  15.353 -0.9129  1.1668 -1.0128
  269MPD2     N 4074   0.773   2.381  15.545  0.2965 -0.2770 -0.1248
  269MPD2    H5 4075   0.760   2.431  15.632 -0.8544 -0.7685 -0.0190
  269MPD2    N1 4076   0.666   1.962  15.770  0.3932 -0.4362  0.5779
  269MPD2    H7 4077   0.692   1.865  15.764  2.2845  0.2041 -1.4251
  270TMC3    C1 4078   0.603   1.898  15.989 -0.1863 -0.6468  0.0197
  270TMC3    C2 4079   0.476   1.891  16.039  0.2899 -0.0640  0.0986
  270TMC3    C3 4080   0.429   1.766  16.065  0.0688 -0.4678  0.7403
  270TMC3    C4 4081   0.684   1.787  15.979  0.4733  0.0769  0.2376
  270TMC3    C5 4082   0.636   1.665  16.010 -0.0937 -0.3901  0.3950
  270TMC3    C6 4083   0.507   1.656  16.044  0.5454 -0.1376 -0.1000
  270TMC3     C 4084   0.628   2.008  15.899 -0.4925 -0.3879  0.7350
  270TMC3     O 4085   0.594   2.118  15.942 -0.0855 -0.1717  0.3845
  270TMC3     H 4086   0.415   1.981  16.037 -0.0789 -0.3037  0.4430
  270TMC3    H1 4087   0.791   1.804  15.971  0.4652  1.6262  3.7358
  270TMC3    H2 4088   0.469   1.559  16.073  0.8723  0.0373  0.9059
  270TMC3    C7 4089   0.722   1.551  15.990 -0.5223 -0.0402 -0.0742
  270TMC3    C8 4090   0.289   1.737  16.055 -0.8658 -0.4662  0.1035
  270TMC3    O1 4091   0.833   1.569  15.944 -0.7674 -0.1634  0.0523
  270TMC3    O2 4092   0.209   1.808  16.114  0.0657 -0.3103 -0.4684
  271MPD2     C 4093   4.226   1.779  14.424  0.8231 -0.2966 -0.3714
  271MPD2    C1 4094   4.181   1.656  14.466 -0.3175  0.7043  0.1660
  271MPD2    C2 4095   4.051   1.613  14.439 -0.8908 -0.9359 -0.7155
  271MPD2    C3 4096   3.981   1.686  14.349  0.5031  0.4484  0.3720
  271MPD2    C4 4097   4.024   1.813  14.316 -0.5866 -0.6344  0.2949
  271MPD2    C5 4098   4.140   1.864  14.354 -0.0636 -0.1475  0.0713
  271MPD2     H 4099   4.005   1.525  14.482 -1.5052  0.4349  1.4331
  271MPD2    H1 4100   3.959   1.873  14.253  0.7220 -0.9091 -1.3060
  271MPD2    H2 4101   4.326   1.814  14.450  2.2331 -3.6790 -1.2060
  271MPD2    H3 4102   4.162   1.963  14.317  1.1979 -1.7527 -3.5250
  271MPD2     N 4103   3.855   1.637  14.308  0.5617  0.3940 -0.0582
  271MPD2    H5 4104   3.796   1.697  14.252  0.5672 -1.1477 -1.6993
  271MPD2    N1 4105   4.251   1.578  14.563 -0.4790  0.1529 -0.7277
  271MPD2    H7 4106   4.197   1.506  14.610 -1.1813  0.1913 -1.4870
  272TMC3    C1 4107   4.408   1.499  14.704  0.7519  0.1849 -0.0372
  272TMC3    C2 4108   4.525   1.427  14.694 -0.9969 -0.4015 -0.0730
  272TMC3    C3 4109   4.568   1.349  14.801 -0.6122  0.5653 -0.1031
  272TMC3    C4 4110   4.349   1.500  14.823  0.2167  0.6328  0.0081
  272TMC3    C5 4111   4.386   1.421  14.928 -0.8667  0.0027  0.5093
  272TMC3    C6 4112   4.499   1.346  14.920  0.6558 -1.0766 -0.3331
  272TMC3     C 4113   4.381   1.594  14.602 -0.5426  0.2104  0.4119
  272TMC3     O 4114   4.470   1.659  14.557  0.0955 -0.0280 -0.2911
  272TMC3     H 4115   4.578   1.429  14.599 -3.6610  3.3170 -1.4866
  272TMC3    H1 4116   4.265   1.569  14.832  0.1909  0.4889  0.7874
  272TMC3    H2 4117   4.536   1.300  15.011 -3.0321 -0.6186  1.4201
  272TMC3    C7 4118   4.334   1.460  15.055 -0.5081  0.2481 -0.1301
  272TMC3    C8 4119   4.665   1.244  14.777  0.8332  0.6680  0.1025
  272TMC3    O1 4120   4.213   1.475  15.056  0.1323  0.4618  0.0909
  272TMC3    O2 4121   4.684   1.225  14.657 -0.4746 -0.0324  0.1491
  273MPD2     C 4122   1.686   4.032  12.575 -0.9415  0.5425  0.5360
  273MPD2    C1 4123   1.790   4.079  12.500  0.2644  0.4561 -0.3700
  273MPD2    C2 4124   1.764   4.114  12.368  0.2736  0.4743 -0.8900
  273MPD2    C3 4125   1.632   4.108  12.317 -0.4586  0.1797  0.4014
  273MPD2    C4 4126   1.528   4.057  12.395  0.4661  0.8330  1.0453
  273MPD2    C5 4127   1.556   4.010  12.522 -0.4272 -0.4862 -0.0444
  273MPD2     H 4128   1.842   4.148  12.300 -0.1798 -1.0791 -2.2006
  273MPD2    H1 4129   1.424   4.054  12.364  0.0102  1.3310  2.5163
  273MPD2    H2 4130   1.700   4.000  12.678 -0.2545  0.0580  0.2941
  273MPD2    H3 4131   1.478   3.967  12.584 -1.2773  0.3111 -0.5628
  273MPD2     N 4132   1.624   4.172  12.186  0.1302 -0.8781 -0.2204
  273MPD2    H5 4133   1.709   4.209  12.145  0.4586  0.5551  1.7362
  273MPD2    N1 4134   1.916   4.092  12.560 -0.3206  0.4282  0.1427
  273MPD2    H7 4135   1.921   4.072  12.659 -2.4349 -0.6717  0.0296
  274TMC3    C1 4136   1.539   4.247  11.984 -0.2582 -0.5370  0.3728
  274TMC3    C2 4137   1.459   4.219  11.881 -0.1124  0.0087 -0.5722
  274TMC3    C3 4138   1.443   4.317  11.790  0.3666 -0.9970 -0.2698
  274TMC3    C4 4139   1.601   4.367  12.000  0.3732 -0.0176 -0.3982
  274TMC3    C5 4140   1.575   4.464  11.904  0.5946  0.0838  0.7931
  274TMC3    C6 4141   1.510   4.435  11.789  0.1107 -0.3654 -0.3638
  274TMC3     C 4142   1.518   4.174  12.103  0.0654  0.2471 -0.4303
  274TMC3     O 4143   1.421   4.102  12.123 -0.2773 -0.4782 -0.4926
  274TMC3     H 4144   1.402   4.128  11.867  1.2861 -0.6653 -1.9462
  274TMC3    H1 4145   1.635   4.400  12.098  4.4432 -3.8904 -0.4592
  274TMC3    H2 4146   1.478   4.510  11.718 -0.4093 -0.8437 -0.6195
  274TMC3    C7 4147   1.633   4.590  11.923  0.6100  0.0957  0.5489
  274TMC3    C8 4148   1.386   4.279  11.662  0.2544 -0.4395 -0.6071
  274TMC3    O1 4149   1.727   4.599  12.003  0.0828  0.3861 -0.2360
  274TMC3    O2 4150   1.305   4.187  11.654 -0.3129  0.0220 -0.1923
  275MPD2     C 4151   1.216   2.462  14.626  0.0440  0.7417 -0.5899
  275MPD2    C1 4152   1.227   2.398  14.745  0.1014  0.2205  0.0889
  275MPD2    C2 4153   1.137   2.302  14.783  0.0076  0.0587 -0.0068
  275MPD2    C3 4154   1.027   2.282  14.698  0.0203 -0.5840 -0.2834
  275MPD2    C4 4155   1.015   2.347  14.578  0.0775 -0.7463 -0.4831
  275MPD2    C5 4156   1.114   2.438  14.536  0.1202  0.1668 -0.0046
  275MPD2     H 4157   1.147   2.247  14.875  0.2909  1.6185  0.9040
  275MPD2    H1 4158   0.926   2.330  14.519  0.8053  0.3901 -1.9076
  275MPD2    H2 4159   1.296   2.528  14.593  1.3230 -0.7395 -0.4369
  275MPD2    H3 4160   1.101   2.490  14.442 -0.4697 -1.5976 -0.9067
  275MPD2     N 4161   0.917   2.195  14.738 -1.0712 -0.1725 -0.6383
  275MPD2    H5 4162   0.836   2.190  14.677 -1.3266  0.6604 -0.3616
  275MPD2    N1 4163   1.334   2.430  14.826  0.4993 -0.4968 -0.0106
  275MPD2    H7 4164   1.347   2.364  14.902  0.4589 -0.1096  0.3272
  276TMC3    C1 4165   1.531   2.508  14.918 -0.6741  0.3108  1.1430
  276TMC3    C2 4166   1.568   2.383  14.959  0.0799  0.1180 -0.2708
  276TMC3    C3 4167   1.662   2.390  15.059  0.2848 -0.1032  0.1931
  276TMC3    C4 4168   1.598   2.626  14.951  0.0810  0.5829 -0.3597
  276TMC3    C5 4169   1.706   2.614  15.040 -0.4839  0.7460 -0.6553
  276TMC3    C6 4170   1.731   2.495  15.103 -0.1227  0.5488 -0.0022
  276TMC3     C 4171   1.421   2.532  14.821 -0.1944  0.1646 -0.4390
  276TMC3     O 4172   1.424   2.626  14.749 -0.1893 -0.1820  0.4904
  276TMC3     H 4173   1.520   2.289  14.930  1.0484 -0.3503 -0.3597
  276TMC3    H1 4174   1.554   2.717  14.914 -0.8827  1.3828  2.7824
  276TMC3    H2 4175   1.808   2.482  15.178  0.5964  0.0947 -0.8122
  276TMC3    C7 4176   1.776   2.730  15.088 -0.0973 -0.0418 -0.5477
  276TMC3    C8 4177   1.702   2.261  15.114 -0.3308  0.0111  0.1535
  276TMC3    O1 4178   1.864   2.713  15.174 -0.2523  0.4436  0.5757
  276TMC3    O2 4179   1.823   2.249  15.142 -1.0488  0.6415  0.6842
  277MPD2     C 4180   3.145   1.065  13.352 -0.2363  0.2832  0.5784
  277MPD2    C1 4181   3.033   1.141  13.337 -0.0436  0.0340 -0.2216
  277MPD2    C2 4182   2.935   1.128  13.438  0.2373  0.7395 -0.5538
  277MPD2    C3 4183   2.961   1.054  13.553  0.4612  0.4379 -0.4100
  277MPD2    C4 4184   3.088   0.997  13.576  0.2213  0.0885 -0.4680
  277MPD2    C5 4185   3.173   1.001  13.467 -0.2237  0.3842 -0.6121
  277MPD2     H 4186   2.838   1.175  13.433 -0.0711  0.3594  2.0544
  277MPD2    H1 4187   3.116   0.948  13.669 -1.6981  1.9975  1.0859
  277MPD2    H2 4188   3.220   1.072  13.274 -1.2852  1.6522 -0.3083
  277MPD2    H3 4189   3.263   0.941  13.477  1.5841  3.4077  1.1125
  277MPD2     N 4190   2.856   1.048  13.647  0.5197 -0.2587  0.1055
  277MPD2    H5 4191   2.768   1.084  13.613  1.0562  1.9250  1.0597
  277MPD2    N1 4192   3.014   1.225  13.222 -0.0207  0.1270 -0.1050
  277MPD2    H7 4193   3.089   1.219  13.154 -0.8160 -1.9484 -0.7919
  278TMC3    C1 4194   2.739   1.007  13.845  0.2891 -0.3107  0.0470
  278TMC3    C2 4195   2.684   0.907  13.922 -0.1099  0.0841  0.3244
  278TMC3    C3 4196   2.577   0.941  13.996  0.4540  0.5661 -1.0952
  278TMC3    C4 4197   2.671   1.129  13.821 -0.3988 -0.4974  0.0367
  278TMC3    C5 4198   2.554   1.147  13.889  0.1260  0.1206 -0.5050
  278TMC3    C6 4199   2.510   1.059  13.977 -0.0582  0.5738 -0.1547
  278TMC3     C 4200   2.858   0.975  13.765  0.4813 -0.7164  0.0334
  278TMC3     O 4201   2.955   0.922  13.822  0.5353 -0.0218  0.2964
  278TMC3     H 4202   2.737   0.812  13.930  0.1020  0.1439 -0.3360
  278TMC3    H1 4203   2.709   1.209  13.760 -0.0563 -0.2579  0.5641
  278TMC3    H2 4204   2.427   1.087  14.042 -0.7796 -1.4838 -0.1868
  278TMC3    C7 4205   2.481   1.270  13.863 -0.7743 -0.1524  0.2742
  278TMC3    C8 4206   2.495   0.831  14.032  0.1241  0.0940  0.2618
  278TMC3    O1 4207   2.547   1.361  13.812 -0.7480 -0.6788  0.2738
  278TMC3    O2 4208   2.419   0.837  14.124  0.3244  0.1366  0.6341
  279MPD2     C 4209   1.916   2.190   0.638 -0.0842  0.5858  0.2921
  279MPD2    C1 4210   1.871   2.066   0.619 -0.0535 -0.4211 -0.6167
  279MPD2    C2 4211   1.932   1.988   0.522 -0.0031 -0.0532 -0.0147
  279MPD2    C3 4212   2.035   2.039   0.444 -0.8365 -0.0396  0.8179
  279MPD2    C4 4213   2.085   2.168   0.471 -0.1304  0.4309 -0.0732
  279MPD2    C5 4214   2.023   2.240   0.572  0.1476  0.1723 -0.1851
  279MPD2     H 4215   1.877   1.903   0.483 -0.6174  0.4616 -0.2703
  279MPD2    H1 4216   2.170   2.208   0.416  2.0000 -0.3884  2.6538
  279MPD2    H2 4217   1.871   2.251   0.715  0.8443  0.5212  0.8803
  279MPD2    H3 4218   2.066   2.337   0.594  0.3044  0.1790 -0.5210
  279MPD2     N 4219   2.075   1.976   0.320 -0.4980 -0.1482 -0.1927
  279MPD2    H5 4220   2.131   2.025   0.252 -0.9461  1.9234  0.9407
  279MPD2    N1 4221   1.757   2.023   0.693  0.3763 -0.2986 -0.5797
  279MPD2    H7 4222   1.704   2.081   0.757 -0.7347 -1.9246 -0.0453
  280TMC3    C1 4223   1.575   1.882   0.706  0.4185 -0.7217  0.6410
  280TMC3    C2 4224   1.535   1.773   0.641  0.1741  0.0654 -0.2514
  280TMC3    C3 4225   1.416   1.780   0.575  0.7054  0.0333  0.1448
  280TMC3    C4 4226   1.503   1.991   0.713 -0.4048 -0.2093  0.5025
  280TMC3    C5 4227   1.379   1.995   0.644 -0.4179 -0.1547  0.1222
  280TMC3    C6 4228   1.337   1.886   0.582 -0.1320 -0.8966  0.4654
  280TMC3     C 4229   1.720   1.902   0.694 -0.2910 -0.1123 -0.9069
  280TMC3     O 4230   1.788   1.799   0.685 -0.1194 -0.2075  0.5612
  280TMC3     H 4231   1.609   1.701   0.608 -0.2699 -0.6593  0.3389
  280TMC3    H1 4232   1.536   2.081   0.762 -1.1445  0.6414 -0.5618
  280TMC3    H2 4233   1.238   1.888   0.540  0.1657  0.4323 -0.1531
  280TMC3    C7 4234   1.327   2.129   0.613  0.4853 -0.5700 -0.6032
  280TMC3    C8 4235   1.354   1.656   0.549  0.3724  0.3287  0.2108
  280TMC3    O1 4236   1.381   2.219   0.673  0.3317  0.0322  0.0417
  280TMC3    O2 4237   1.246   1.662   0.488  0.2981 -0.5035  0.2715
  281TMC3    C1 4238   0.910   1.610  13.227 -0.3374  0.6524 -0.5850
  281TMC3    C2 4239   0.881   1.645  13.097  0.8003 -0.1432  0.2984
  281TMC3    C3 4240   0.814   1.564  13.016 -0.0893  0.2817 -0.2066
  281TMC3    C4 4241   0.851   1.498  13.273 -0.8868 -0.5347  0.0213
  281TMC3    C5 4242   0.771   1.421  13.194  0.3433 -0.7632  0.0437
  281TMC3    C6 4243   0.766   1.442  13.061  0.0024 -0.3457 -0.0576
  281TMC3     C 4244   0.939   1.708  13.323 -0.6050  0.3859  0.1574
  281TMC3     O 4245   1.020   1.676  13.412  0.0463 -0.2238  0.3352
  281TMC3     H 4246   0.915   1.743  13.065  1.5557 -0.2997  0.6062
  281TMC3    H1 4247   0.856   1.486  13.381 -1.0509 -0.1259  0.0738
  281TMC3    H2 4248   0.706   1.381  12.995  0.0872 -0.2934 -0.1841
  281TMC3    C7 4249   0.652   1.352  13.249 -0.3403  0.2919  0.2807
  281TMC3    C8 4250   0.825   1.585  12.874 -0.1078 -0.0419  0.3259
  281TMC3    O1 4251   0.583   1.288  13.168 -0.5279  0.1545  0.0747
  281TMC3    O2 4252   0.860   1.484  12.807 -0.3085  0.4607  0.0270
  282MPD2     C 4253   2.981   3.238  15.586 -0.5607 -0.2159 -0.3151
  282MPD2    C1 4254   2.847   3.282  15.594 -0.5190 -0.0727 -0.0618
  282MPD2    C2 4255   2.776   3.281  15.475 -0.3977 -0.6270  0.2270
  282MPD2    C3 4256   2.817   3.214  15.356  0.2956  0.2012  0.2677
  282MPD2    C4 4257   2.946   3.164  15.363 -0.2485  1.0044  0.4698
  282MPD2    C5 4258   3.021   3.180  15.475 -0.0530 -0.6070  0.1362
  282MPD2     H 4259   2.679   3.327  15.464  0.1048  0.6754  1.0824
  282MPD2    H1 4260   3.000   3.120  15.280 -0.5384  1.1790  0.1861
  282MPD2    H2 4261   3.063   3.260  15.654 -0.9070  1.5324 -0.4707
  282MPD2    H3 4262   3.123   3.143  15.472 -0.1308 -0.6812 -2.0190
  282MPD2     N 4263   2.734   3.214  15.240 -0.4115  0.8005 -0.3926
  282MPD2    H5 4264   2.643   3.259  15.243 -0.6098  0.4934 -1.7920
  282MPD2    N1 4265   2.791   3.314  15.711  0.5473  0.2551  0.0781
  282MPD2    H7 4266   2.701   3.361  15.707  0.0440 -0.8400 -1.3582
  283TMC3    C1 4267   2.728   3.298  15.930 -0.2605  0.5810 -0.2565
  283TMC3    C2 4268   2.687   3.426  15.927 -0.2353  0.3233  0.1049
  283TMC3    C3 4269   2.575   3.452  15.993  0.0319  0.3239 -0.0568
  283TMC3    C4 4270   2.655   3.196  15.975 -0.1043  0.5096 -0.1451
  283TMC3    C5 4271   2.546   3.229  16.047 -0.2790  0.6300  0.9152
  283TMC3    C6 4272   2.516   3.361  16.067  0.4740  0.1280 -0.4584
  283TMC3     C 4273   2.831   3.262  15.834 -0.3925  0.4691  0.3582
  283TMC3     O 4274   2.908   3.172  15.863  0.5504 -0.2095  0.3982
  283TMC3     H 4275   2.757   3.502  15.894 -0.1030  0.1089 -0.1087
  283TMC3    H1 4276   2.696   3.095  15.977  0.5995  0.7407 -2.3393
  283TMC3    H2 4277   2.452   3.387  16.151 -0.3710 -2.3463 -0.3314
  283TMC3    C7 4278   2.473   3.133  16.132  0.1357 -1.0370  0.4632
  283TMC3    C8 4279   2.564   3.595  16.025  0.1590  0.5620 -0.6363
  283TMC3    O1 4280   2.379   3.171  16.194  0.4482 -0.0638 -0.2041
  283TMC3    O2 4281   2.541   3.615  16.144 -0.3370  0.0911 -0.3872
  284MPD2     C 4282   0.940   2.288  11.609  0.3402  0.3697 -0.9686
  284MPD2    C1 4283   1.054   2.369  11.633  0.4351 -0.2455 -0.7103
  284MPD2    C2 4284   1.126   2.354  11.748  0.1735 -0.6159  0.5292
  284MPD2    C3 4285   1.101   2.249  11.838  1.0217 -0.3587 -0.0889
  284MPD2    C4 4286   0.984   2.168  11.812 -0.2095  0.0086  0.0599
  284MPD2    C5 4287   0.908   2.190  11.702  0.5883  0.2756  1.0079
  284MPD2     H 4288   1.210   2.419  11.771  0.6167 -0.9976  0.0028
  284MPD2    H1 4289   0.940   2.101  11.884 -1.6880  0.5014 -0.3883
  284MPD2    H2 4290   0.878   2.304  11.521 -0.9314  0.1386 -0.1204
  284MPD2    H3 4291   0.818   2.131  11.696  0.1574  1.1178 -0.9418
  284MPD2     N 4292   1.176   2.245  11.959  0.4075 -0.0455  0.2776
  284MPD2    H5 4293   1.254   2.309  11.972 -1.7682  2.3253  1.6406
  284MPD2    N1 4294   1.079   2.469  11.534  0.1157 -0.3833  0.2651
  284MPD2    H7 4295   1.039   2.438  11.447  0.9368  3.3552 -1.4534
  285TMC3    C1 4296   1.222   2.634  11.434 -0.6725 -0.3442 -0.7734
  285TMC3    C2 4297   1.288   2.530  11.366 -0.4972  0.1635  0.4764
  285TMC3    C3 4298   1.423   2.529  11.377 -0.0662  0.1604  0.5557
  285TMC3    C4 4299   1.283   2.748  11.474 -0.2023 -0.0611  0.4415
  285TMC3    C5 4300   1.419   2.737  11.474 -0.0806  0.3590 -0.0525
  285TMC3    C6 4301   1.492   2.631  11.436 -0.0114 -0.0512 -0.4713
  285TMC3     C 4302   1.168   2.574  11.551 -0.3634  0.2694 -0.1186
  285TMC3     O 4303   1.209   2.633  11.652 -0.8474 -0.1050  0.1220
  285TMC3     H 4304   1.226   2.448  11.331  0.4538  0.2948 -1.5074
  285TMC3    H1 4305   1.232   2.826  11.528 -0.2968 -1.0617  1.7822
  285TMC3    H2 4306   1.599   2.634  11.453 -0.1510 -1.3479  0.6238
  285TMC3    C7 4307   1.494   2.843  11.548  0.6615 -0.1493 -0.4656
  285TMC3    C8 4308   1.489   2.399  11.364 -0.3346 -0.7808 -0.3479
  285TMC3    O1 4309   1.477   2.961  11.522 -0.2056 -0.3778  0.4083
  285TMC3    O2 4310   1.421   2.296  11.351  0.1253 -0.4050 -0.3818
  286MPD2     C 4311   1.191   1.818   1.821 -0.1056 -0.3352 -0.7211
  286MPD2    C1 4312   1.150   1.711   1.743  0.2984 -0.3625  0.4833
  286MPD2    C2 4313   1.224   1.598   1.743  0.2441  0.9019 -0.2603
  286MPD2    C3 4314   1.343   1.585   1.817  0.3198  0.2521 -0.1221
  286MPD2    C4 4315   1.384   1.692   1.891  0.1211  0.1327  0.0975
  286MPD2    C5 4316   1.309   1.803   1.895 -1.1027  0.3916  0.3310
  286MPD2     H 4317   1.190   1.519   1.676 -0.4221  1.1036 -0.1574
  286MPD2    H1 4318   1.483   1.688   1.936 -0.1193  1.9205  0.7896
  286MPD2    H2 4319   1.125   1.903   1.826  0.2646 -0.1399  0.7038
  286MPD2    H3 4320   1.342   1.883   1.960  0.8393 -0.1724  0.0341
  286MPD2     N 4321   1.421   1.473   1.804 -0.0591  0.3172 -0.3520
  286MPD2    H5 4322   1.493   1.472   1.877 -0.8969  1.3348  0.4820
  286MPD2    N1 4323   1.036   1.711   1.664 -0.4163  0.0541  0.1426
  286MPD2    H7 4324   1.032   1.619   1.620 -1.0308  0.5451 -0.8190
  287TMC3    C1 4325   1.504   1.262   1.709  0.2055 -0.3460  0.0556
  287TMC3    C2 4326   1.480   1.154   1.626  0.3893  0.4338  0.9871
  287TMC3    C3 4327   1.575   1.063   1.609  0.5975  0.6066 -0.5313
  287TMC3    C4 4328   1.626   1.273   1.774  0.2095 -0.1154  0.3104
  287TMC3    C5 4329   1.719   1.169   1.758  0.1278  0.3229 -0.8866
  287TMC3    C6 4330   1.690   1.065   1.680  0.1260 -0.5633  0.0816
  287TMC3     C 4331   1.401   1.363   1.717 -0.0315  0.3652 -1.0889
  287TMC3     O 4332   1.318   1.348   1.630 -0.2150  0.1775  0.1107
  287TMC3     H 4333   1.376   1.131   1.606  0.8235  1.2765 -2.1979
  287TMC3    H1 4334   1.648   1.359   1.836  1.0638 -0.9901  1.2144
  287TMC3    H2 4335   1.759   0.981   1.675  2.8200  1.4914  2.6799
  287TMC3    C7 4336   1.825   1.153   1.853 -0.6639  0.2979  0.0008
  287TMC3    C8 4337   1.568   0.959   1.509  0.8944 -0.1160 -0.9636
  287TMC3    O1 4338   1.907   1.065   1.834 -0.1191  0.5124 -0.8845
  287TMC3    O2 4339   1.639   0.860   1.523 -0.3363 -0.2351  0.4804
  288TMC3    C1 4340   2.727   0.836  14.405  0.0057 -0.2833 -0.5923
  288TMC3    C2 4341   2.682   0.832  14.537 -0.3695  0.3535  0.3296
  288TMC3    C3 4342   2.692   0.948  14.614 -0.4623  0.1008  0.4766
  288TMC3    C4 4343   2.765   0.954  14.348  0.7418 -0.0060 -0.1639
  288TMC3    C5 4344   2.780   1.065  14.430 -0.2506  0.4111  0.0508
  288TMC3    C6 4345   2.737   1.067  14.565 -0.8312  0.0376 -0.6193
  288TMC3     C 4346   2.715   0.726  14.307 -0.3027 -0.4298 -0.1636
  288TMC3     O 4347   2.750   0.753  14.191 -0.0075 -0.1757  0.1893
  288TMC3     H 4348   2.649   0.740  14.583  0.2874  0.4960  1.0907
  288TMC3    H1 4349   2.802   0.954  14.246  1.0986  2.2014 -0.0367
  288TMC3    H2 4350   2.744   1.156  14.627 -1.0677  0.2298 -0.8725
  288TMC3    C7 4351   2.837   1.194  14.377 -0.4180  0.5743 -0.0511
  288TMC3    C8 4352   2.666   0.951  14.760  0.2626  0.5811 -0.0745
  288TMC3    O1 4353   2.823   1.295  14.447  0.3200 -0.0742 -0.1521
  288TMC3    O2 4354   2.707   1.047  14.817 -0.5306  0.0221  0.0784
  289MPD2     C 4355   2.867   4.664  14.484  0.6058  0.5952  0.1786
  289MPD2    C1 4356   2.824   0.067  14.513  1.0018 -0.1357 -0.2835
  289MPD2    C2 4357   2.689   0.088  14.548 -0.3209  0.6806  0.3313
  289MPD2    C3 4358   2.599   4.706  14.540 -0.3229  0.1037  0.3334
  289MPD2    C4 4359   2.648   4.588  14.503  0.4648 -0.3494 -0.0143
  289MPD2    C5 4360   2.781   4.559  14.478 -0.6815 -0.0472 -0.6726
  289MPD2     H 4361   2.662   0.192  14.565 -0.9510  0.6709 -0.6566
  289MPD2    H1 4362   2.572   4.512  14.492  0.7703 -0.4922 -1.0928
  289MPD2    H2 4363   2.973   4.645  14.475  0.6489  1.4555 -1.0705
  289MPD2    H3 4364   2.813   4.458  14.453  1.8914  1.2230 -2.4394
  289MPD2     N 4365   2.462   4.723  14.554 -0.7265  0.8307  0.1011
  289MPD2    H5 4366   2.406   4.654  14.505  0.7532 -1.7014  1.9834
  289MPD2    N1 4367   2.918   0.167  14.490 -0.6141 -0.0888 -0.1697
  289MPD2    H7 4368   3.006   0.144  14.446 -0.5106 -1.0478  0.5379
  290TMC3    C1 4369   2.257   0.104  14.587 -0.2869  0.0346  0.2893
  290TMC3    C2 4370   2.203   0.207  14.519 -0.4955  0.2420 -0.3665
  290TMC3    C3 4371   2.080   0.194  14.465  0.2294  0.1652 -0.1716
  290TMC3    C4 4372   2.210   4.697  14.569  0.1247  0.4153  0.2593
  290TMC3    C5 4373   2.093   4.688  14.502 -0.7979  0.0607 -0.0035
  290TMC3    C6 4374   2.025   0.066  14.448 -0.1860  0.0291 -0.4132
  290TMC3     C 4375   2.398   0.113  14.592 -1.0812  0.1280  0.4292
  290TMC3     O 4376   2.445   0.224  14.621  0.1057 -0.2481  0.0943
  290TMC3     H 4377   2.244   0.307  14.527  1.9236 -0.5558 -2.6549
  290TMC3    H1 4378   2.257   4.608  14.608 -0.5298 -0.3681 -0.7495
  290TMC3    H2 4379   1.929   0.059  14.398 -0.1793  4.9759 -1.1904
  290TMC3    C7 4380   2.014   4.567  14.502  0.1919  0.1030  0.1244
  290TMC3    C8 4381   2.013   0.315  14.409  0.4878 -0.0743  0.7944
  290TMC3    O1 4382   1.894   4.579  14.481 -0.3158  0.5716 -0.8433
  290TMC3    O2 4383   1.896   0.315  14.381 -0.0779  0.3214  0.3028
  291MPD2     C 4384   2.211   0.438   0.791  0.4543  0.8500  0.1612
  291MPD2    C1 4385   2.339   0.385   0.793 -0.4620  0.1652  0.0117
  291MPD2    C2 4386   2.444   0.472   0.776 -0.1616 -0.1238 -0.1473
  291MPD2    C3 4387   2.429   0.610   0.764  0.2133  1.0541  0.2750
  291MPD2    C4 4388   2.301   0.662   0.761  0.3821  0.4645 -0.2280
  291MPD2    C5 4389   2.188   0.578   0.781 -0.7210 -1.0332 -0.3908
  291MPD2     H 4390   2.544   0.433   0.787 -1.0664 -2.8217 -1.3998
  291MPD2    H1 4391   2.281   0.769   0.756  0.8436  0.5465 -0.3125
  291MPD2    H2 4392   2.123   0.379   0.810 -0.8624  2.2283 -1.6962
  291MPD2    H3 4393   2.090   0.625   0.785  0.0129  0.7772 -3.4492
  291MPD2     N 4394   2.534   0.702   0.750 -0.4710  0.1278  0.3059
  291MPD2    H5 4395   2.524   0.799   0.778  0.9806  1.2632 -3.1063
  291MPD2    N1 4396   2.361   0.243   0.794  0.4817  0.0763 -0.1687
  291MPD2    H7 4397   2.455   0.209   0.811  0.5167  0.0896 -0.3362
  292TMC3    C1 4398   2.306   0.012   0.793  0.5671  0.5219 -0.2658
  292TMC3    C2 4399   2.413   4.719   0.873 -0.1199 -0.2479  0.2629
  292TMC3    C3 4400   2.468   4.591   0.881 -0.3123 -0.2055 -0.3190
  292TMC3    C4 4401   2.246   4.638   0.725 -0.0173  0.2594 -0.2313
  292TMC3    C5 4402   2.314   4.513   0.727  0.2512  0.4590  0.4008
  292TMC3    C6 4403   2.426   4.492   0.800 -0.2419 -0.0783 -0.0476
  292TMC3     C 4404   2.257   0.149   0.775  0.2502  0.0432 -0.7567
  292TMC3     O 4405   2.134   0.155   0.765 -0.2490  0.4514  0.6764
  292TMC3     H 4406   2.454   0.071   0.938  1.5913 -0.1781 -0.9054
  292TMC3    H1 4407   2.180   4.661   0.642 -1.3939  0.3835  0.8778
  292TMC3    H2 4408   2.467   4.394   0.817  0.6512  0.0548 -1.4544
  292TMC3    C7 4409   2.270   4.399   0.650  0.3305  0.0215 -0.1321
  292TMC3    C8 4410   2.579   4.563   0.974 -0.0945  0.3424 -0.6969
  292TMC3    O1 4411   2.360   4.318   0.637  0.2603  0.5771  0.0682
  292TMC3    O2 4412   2.665   4.485   0.936  0.5109 -0.0416 -0.2091
  293MPD2     C 4413   4.282   1.240  13.226  0.9583 -0.1324 -0.2129
  293MPD2    C1 4414   4.197   1.159  13.296  0.0062  0.2703 -0.1354
  293MPD2    C2 4415   4.172   1.189  13.426 -0.1199 -0.8922 -0.5549
  293MPD2    C3 4416   4.211   1.311  13.481  0.6486  0.2895  0.0667
  293MPD2    C4 4417   4.300   1.384  13.409 -0.3311 -0.0614  0.4305
  293MPD2    C5 4418   4.336   1.349  13.278 -0.4380 -0.0278  0.0211
  293MPD2     H 4419   4.105   1.122  13.480  1.2305  0.1471  2.4519
  293MPD2    H1 4420   4.328   1.483  13.441 -0.4270 -0.0211  0.3889
  293MPD2    H2 4421   4.323   1.205  13.132  0.6572  2.0275 -1.1311
  293MPD2    H3 4422   4.395   1.414  13.215  0.2199 -1.0520 -0.4205
  293MPD2     N 4423   4.160   1.349  13.607 -0.2014 -0.7580 -0.1863
  293MPD2    H5 4424   4.089   1.290  13.648 -1.0706 -0.9916 -2.0203
  293MPD2    N1 4425   4.139   1.052  13.223  0.6426 -0.1487 -0.1622
  293MPD2    H7 4426   4.176   1.038  13.129  1.7554 -0.5983  0.3477
  294TMC3    C1 4427   4.040   0.852  13.176  0.3814 -0.3723  0.2629
  294TMC3    C2 4428   4.016   0.725  13.221  0.6190 -1.0089  0.4700
  294TMC3    C3 4429   3.966   0.635  13.130 -0.7134 -0.1270  0.3951
  294TMC3    C4 4430   4.006   0.889  13.048 -0.4786 -0.2282  0.3068
  294TMC3    C5 4431   3.944   0.796  12.965  0.3737  0.7303  0.4451
  294TMC3    C6 4432   3.913   0.667  13.005 -0.1164 -0.0478 -0.2676
  294TMC3     C 4433   4.064   0.950  13.279  0.3337 -0.0016  0.1107
  294TMC3     O 4434   4.013   0.935  13.393  0.7277  0.3047  0.4909
  294TMC3     H 4435   4.032   0.695  13.324  3.6768  3.2711  1.2635
  294TMC3    H1 4436   4.018   0.989  13.007 -3.3759 -0.1444 -0.3255
  294TMC3    H2 4437   3.835   0.607  12.959  0.6190  0.0143 -1.5901
  294TMC3    C7 4438   3.934   0.833  12.825 -0.4625  0.4064  0.1848
  294TMC3    C8 4439   3.927   0.504  13.179 -0.2593  0.4110  0.7078
  294TMC3    O1 4440   3.930   0.952  12.805  0.7292 -0.0722 -0.8135
  294TMC3    O2 4441   3.924   0.487  13.301 -0.3503  0.0093  0.3445
  295MPD2     C 4442   0.464   4.469   0.720  0.0340 -0.4151  0.2101
  295MPD2    C1 4443   0.328   4.464   0.718 -0.2509  0.1849 -1.0619
  295MPD2    C2 4444   0.265   4.514   0.833 -0.3559 -0.5834 -0.0024
  295MPD2    C3 4445   0.337   4.557   0.949  0.3985  0.3975  0.0766
  295MPD2    C4 4446   0.471   4.534   0.948  0.3544  0.3155  0.4819
  295MPD2    C5 4447   0.538   4.499   0.834  0.0786 -0.1085 -0.1105
  295MPD2     H 4448   0.157   4.522   0.844 -0.1814  0.4191  1.0429
  295MPD2    H1 4449   0.526   4.569   1.034  0.8514 -1.6890  0.9633
  295MPD2    H2 4450   0.529   4.439   0.638 -0.1088 -1.1536  0.3646
  295MPD2    H3 4451   0.645   4.508   0.820  0.3509 -1.5700  1.1390
  295MPD2     N 4452   0.274   4.605   1.071 -0.0803  0.0999 -0.0889
  295MPD2    H5 4453   0.342   4.625   1.144  2.4125 -1.2964 -2.0329
  295MPD2    N1 4454   0.250   4.406   0.616  0.2751 -0.1650  0.3760
  295MPD2    H7 4455   0.151   4.392   0.634 -0.6312  3.2709 -1.8773
  296TMC3    C1 4456   0.099   4.670   1.240 -0.0429 -0.5818 -0.0908
  296TMC3    C2 4457   4.690   4.715   1.244 -0.2878  0.6469  0.6359
  296TMC3    C3 4458   4.615   4.677   1.356 -0.2627  0.5755  0.0858
  296TMC3    C4 4459   0.159   4.597   1.338  0.2430 -0.8138  0.9378
  296TMC3    C5 4460   0.075   4.553   1.441 -0.1756 -0.5706  0.9144
  296TMC3    C6 4461   4.669   4.591   1.453 -0.4309  0.0834  0.4210
  296TMC3     C 4462   0.144   4.627   1.100  0.4702 -0.2121  0.0102
  296TMC3     O 4463   0.053   4.617   1.014  0.7628 -0.3481 -0.3542
  296TMC3     H 4464   4.665   0.049   1.156 -0.3824  1.1210  0.9747
  296TMC3    H1 4465   0.260   4.557   1.341  0.0410 -1.4157 -0.1973
  296TMC3    H2 4466   4.608   4.573   1.540 -0.3442  3.6707  1.2248
  296TMC3    C7 4467   0.118   4.444   1.520  0.5565  0.0287  0.3410
  296TMC3    C8 4468   4.490   0.013   1.387 -0.0369 -0.2090 -0.2795
  296TMC3    O1 4469   0.241   4.429   1.528  0.0759 -0.3034  0.1786
  296TMC3    O2 4470   4.414   4.686   1.472  0.2509  0.5408 -0.3347
  297MPD2     C 4471   1.610   1.922  16.292  0.2444 -0.0003 -0.1643
  297MPD2    C1 4472   1.671   2.013  16.214 -0.2949  0.0675  0.6363
  297MPD2    C2 4473   1.778   2.088  16.262  0.0050 -0.4188  0.6250
  297MPD2    C3 4474   1.840   2.052  16.383  0.2192  0.9581  0.5689
  297MPD2    C4 4475   1.783   1.953  16.461  0.2643  0.3096  0.3886
  297MPD2    C5 4476   1.669   1.889  16.417 -0.2334  0.2117 -0.2389
  297MPD2     H 4477   1.819   2.168  16.201 -1.2637  0.0589  0.3927
  297MPD2    H1 4478   1.826   1.910  16.551  1.5547  0.8759  0.0502
  297MPD2    H2 4479   1.520   1.865  16.269  1.2368 -0.0270 -3.8860
  297MPD2    H3 4480   1.618   1.814  16.476  0.8764  0.6930  1.3307
  297MPD2     N 4481   1.948   2.128  16.435 -0.0421  0.2324 -0.0834
  297MPD2    H5 4482   1.995   2.190  16.370  1.2734  0.8872  1.4722
  297MPD2    N1 4483   1.601   2.065  16.102 -0.0254  0.3198 -0.5987
  297MPD2    H7 4484   1.617   2.163  16.081  0.8805 -0.1896 -2.2438
  298TMC3    C1 4485   1.407   2.133  16.000  0.2294 -0.9828 -0.7405
  298TMC3    C2 4486   1.338   2.118  15.885  0.0062  0.0697 -0.2107
  298TMC3    C3 4487   1.257   2.220  15.845  0.4408 -0.5027 -0.9013
  298TMC3    C4 4488   1.392   2.239  16.083 -1.1009  0.2715  0.2886
  298TMC3    C5 4489   1.306   2.337  16.048 -0.1802 -1.0931 -0.6263
  298TMC3    C6 4490   1.239   2.329  15.927 -0.1263  0.3930  0.2495
  298TMC3     C 4491   1.486   2.012  16.045  0.6994  0.3991 -0.2783
  298TMC3     O 4492   1.443   1.901  16.032  0.1157 -0.5202 -0.1657
  298TMC3     H 4493   1.357   2.025  15.833 -1.2743 -1.1576  1.5000
  298TMC3    H1 4494   1.438   2.238  16.182 -0.2633  0.1729 -0.1048
  298TMC3    H2 4495   1.170   2.407  15.897 -0.9375 -0.2176  0.5397
  298TMC3    C7 4496   1.272   2.439  16.148 -0.0602 -0.1487  0.1696
  298TMC3    C8 4497   1.199   2.224  15.710  0.0457 -0.2690 -0.0484
  298TMC3    O1 4498   1.329   2.425  16.256  0.5425 -0.1057  0.9397
  298TMC3    O2 4499   1.178   2.336  15.661  0.2778 -0.2217 -0.0562
  299MPD2     C 4500   3.152   1.040  11.100 -0.0801  0.5402  0.7926
  299MPD2    C1 4501   3.134   1.175  11.063  0.2844  0.5766  0.1558
  299MPD2    C2 4502   3.038   1.207  10.960  0.0811  0.7258 -0.4314
  299MPD2    C3 4503   2.968   1.100  10.905 -0.0380 -0.5966  0.3608
  299MPD2    C4 4504   3.000   0.976  10.932  0.0866 -0.2840 -0.0756
  299MPD2    C5 4505   3.076   0.941  11.037 -0.4368  0.6461  0.7272
  299MPD2     H 4506   3.023   1.309  10.925  1.0729  0.7325 -0.8403
  299MPD2    H1 4507   2.960   0.888  10.882 -2.8685 -0.1027  1.9002
  299MPD2    H2 4508   3.231   1.008  11.167  1.0024  1.1997 -0.1704
  299MPD2    H3 4509   3.107   0.837  11.047 -0.1120  0.7600  0.9041
  299MPD2     N 4510   2.871   1.113  10.807 -0.0677  0.2041 -0.4609
  299MPD2    H5 4511   2.823   1.027  10.783  2.3226 -0.6202 -2.2505
  299MPD2    N1 4512   3.201   1.272  11.138  0.0353  0.0889 -0.0651
  299MPD2    H7 4513   3.246   1.233  11.220 -0.7725 -1.5445 -0.3955
  300TMC3    C1 4514   2.681   1.201  10.706 -1.2575  0.8627  0.3270
  300TMC3    C2 4515   2.635   1.295  10.623 -0.6549  1.2028 -0.1964
  300TMC3    C3 4516   2.493   1.322  10.625 -0.0234 -0.2484 -0.0154
  300TMC3    C4 4517   2.601   1.130  10.796  0.1119 -0.3383 -0.0393
  300TMC3    C5 4518   2.467   1.157  10.782  0.0054  0.2897 -0.0147
  300TMC3    C6 4519   2.411   1.248  10.703 -0.3350 -0.1542  0.6044
  300TMC3     C 4520   2.818   1.226  10.758 -1.0604 -0.2290 -0.2146
  300TMC3     O 4521   2.877   1.332  10.734 -0.3718 -0.3524  0.1276
  300TMC3     H 4522   2.708   1.351  10.566  1.6109 -0.6833  0.8616
  300TMC3    H1 4523   2.640   1.064  10.873 -1.7244 -1.2279  0.1069
  300TMC3    H2 4524   2.304   1.263  10.697 -0.7228 -2.7918  1.1516
  300TMC3    C7 4525   2.391   1.119  10.898 -0.1871 -0.3130 -0.3270
  300TMC3    C8 4526   2.444   1.451  10.579 -1.1392  0.9810 -0.7813
  300TMC3    O1 4527   2.426   1.017  10.949 -0.2472  0.0614 -0.1339
  300TMC3    O2 4528   2.531   1.526  10.543 -0.8530 -0.2734  0.0661
  301MPD2     C 4529   4.693   3.211   1.548  0.0304  0.0623  0.5843
  301MPD2    C1 4530   4.614   3.148   1.446 -0.1838 -0.6893  0.0343
  301MPD2    C2 4531   4.629   3.015   1.430 -0.0708  0.5067  0.4907
  301MPD2    C3 4532   4.717   2.937   1.500  0.5856  0.4017 -0.2936
  301MPD2    C4 4533   0.078   2.998   1.589  0.4637  0.9295 -0.0074
  301MPD2    C5 4534   0.067   3.134   1.606 -0.2500  0.0403 -0.1043
  301MPD2     H 4535   4.547   2.966   1.379  1.7809  0.6646 -2.6104
  301MPD2    H1 4536   0.149   2.941   1.647 -0.5797  1.1157  1.4582
  301MPD2    H2 4537   4.676   3.315   1.569  0.4494  0.2373  0.0781
  301MPD2    H3 4538   0.134   3.177   1.680 -0.8771  1.2852 -0.2526
  301MPD2     N 4539   0.007   2.801   1.497 -0.6716 -0.0657  0.5858
  301MPD2    H5 4540   0.068   2.748   1.558  0.0140  1.7149  1.4333
  301MPD2    N1 4541   4.507   3.213   1.383  0.1503  0.0468 -0.1638
  301MPD2    H7 4542   4.451   3.146   1.333 -0.7327  1.1617 -0.6764
  302TMC3    C1 4543   4.647   2.580   1.463  0.0088 -0.0147  0.2538
  302TMC3    C2 4544   0.032   2.530   1.527  0.6729  0.0662 -0.2862
  302TMC3    C3 4545   0.029   2.395   1.535 -0.2310 -0.4009  0.0018
  302TMC3    C4 4546   4.542   2.508   1.413  0.0344 -0.5558 -0.0207
  302TMC3    C5 4547   4.545   2.375   1.426 -0.2964 -0.9336 -1.5908
  302TMC3    C6 4548   4.649   2.320   1.490 -0.3010  0.4572 -0.6273
  302TMC3     C 4549   4.632   2.723   1.437  0.5283 -0.5537  0.7758
  302TMC3     O 4550   4.552   2.746   1.348  0.0953  0.0762  0.0894
  302TMC3     H 4551   0.120   2.589   1.553 -0.4320  1.4078  0.3964
  302TMC3    H1 4552   4.454   2.553   1.368 -0.6780 -2.3402 -0.4266
  302TMC3    H2 4553   4.653   2.215   1.514  1.8703  0.9806  1.2698
  302TMC3    C7 4554   4.480   2.279   1.334  0.1470  0.7734 -0.1228
  302TMC3    C8 4555   0.127   2.322   1.612  0.6622  0.7789  0.3023
  302TMC3    O1 4556   4.509   2.156   1.341 -0.2906  0.4093  0.4103
  302TMC3    O2 4557   0.140   2.200   1.597  0.0465  0.3893 -0.0567
  303MPD2     C 4558   4.628   1.094   9.985 -0.3214 -0.9821  0.4750
  303MPD2    C1 4559   4.560   1.005  10.063  0.0003 -0.0823  0.1298
  303MPD2    C2 4560   4.600   0.871  10.067  0.2049  0.3543 -0.5299
  303MPD2    C3 4561   4.703   0.818   9.989  0.1975  0.6547  0.2922
  303MPD2    C4 4562   0.058   0.915   9.925  0.1348 -0.3985  0.1299
  303MPD2    C5 4563   0.020   1.052   9.927 -0.3196 -1.0040  0.4801
  303MPD2     H 4564   4.534   0.805  10.121 -0.1022  0.6908 -0.4951
  303MPD2    H1 4565   0.146   0.876   9.874  1.8547  0.9576  2.0345
  303MPD2    H2 4566   4.608   1.201   9.988  0.5312 -0.8570  1.9553
  303MPD2    H3 4567   0.084   1.124   9.878 -1.4448  0.8947  1.7876
  303MPD2     N 4568   0.008   0.678   9.977  0.0230  0.8104  0.2281
  303MPD2    H5 4569   0.063   0.642   9.900 -0.9480 -0.0858 -0.0495
  303MPD2    N1 4570   4.443   1.039  10.140  0.0134 -0.0436  0.1587
  303MPD2    H7 4571   4.395   0.971  10.197 -0.7830 -0.1321 -0.6077
  304TMC3    C1 4572   4.255   1.183  10.189  0.2755 -0.0387  0.0342
  304TMC3    C2 4573   4.148   1.213  10.117 -0.1404  0.5304 -0.3904
  304TMC3    C3 4574   4.029   1.199  10.186 -0.1296 -0.2348 -0.1924
  304TMC3    C4 4575   4.256   1.148  10.326  0.3965  0.5700  0.0483
  304TMC3    C5 4576   4.137   1.151  10.394 -0.2201  0.1283  0.1571
  304TMC3    C6 4577   4.025   1.181  10.322  0.3859  0.5409 -0.2830
  304TMC3     C 4578   4.372   1.152  10.106 -0.3034 -0.4134 -0.7049
  304TMC3     O 4579   4.374   1.227  10.009  0.3350  0.1825  0.5592
  304TMC3     H 4580   4.152   1.222  10.009 -0.9318  3.2064 -0.1783
  304TMC3    H1 4581   4.345   1.114  10.378 -0.9523  1.0967  2.6984
  304TMC3    H2 4582   3.932   1.183  10.378 -0.3558 -1.1749 -1.4615
  304TMC3    C7 4583   4.102   1.038  10.482 -0.2445 -0.1339  0.3794
  304TMC3    C8 4584   3.944   1.104  10.104  0.5102 -0.5646 -0.3444
  304TMC3    O1 4585   3.996   0.983  10.447  0.3345 -0.0412  0.4558
  304TMC3    O2 4586   3.940   1.120   9.986  0.1251  0.0823  0.5594
  305MPD2     C 4587   2.958   3.542  14.020 -0.3812  0.6698  0.5416
  305MPD2    C1 4588   2.928   3.412  14.038  0.3788  0.5898  0.4242
  305MPD2    C2 4589   2.892   3.329  13.929  0.0115 -0.1345  0.0185
  305MPD2    C3 4590   2.891   3.385  13.805  0.0422 -0.8127 -0.2878
  305MPD2    C4 4591   2.919   3.514  13.793 -0.6124 -0.4113  0.2036
  305MPD2    C5 4592   2.960   3.596  13.897 -0.8236  0.2816 -0.1846
  305MPD2     H 4593   2.857   3.229  13.953 -0.4962 -0.1624 -0.8455
  305MPD2    H1 4594   2.918   3.548  13.690 -1.7657 -1.1533 -0.0305
  305MPD2    H2 4595   2.973   3.608  14.105  0.7675  1.0831  0.0123
  305MPD2    H3 4596   2.980   3.701  13.879 -1.3921  0.0663 -2.1424
  305MPD2     N 4597   2.859   3.316  13.684 -0.2341  0.6325 -0.2395
  305MPD2    H5 4598   2.873   3.374  13.601 -0.0386  2.0239  0.7599
  305MPD2    N1 4599   2.933   3.359  14.172  0.2818 -0.9677  0.3807
  305MPD2    H7 4600   2.959   3.423  14.246 -2.7012  0.6286  0.0574
  306TMC3    C1 4601   2.929   3.204  14.346 -0.3249  0.1205 -0.1588
  306TMC3    C2 4602   2.978   3.087  14.391  0.1787  0.1663 -0.0282
  306TMC3    C3 4603   2.986   3.065  14.525  0.2232 -0.2149 -0.0636
  306TMC3    C4 4604   2.884   3.304  14.433 -0.0519 -0.3660 -0.3233
  306TMC3    C5 4605   2.906   3.281  14.566  0.3846 -0.3571  0.8464
  306TMC3    C6 4606   2.955   3.164  14.615 -0.7893  0.2037  0.1067
  306TMC3     C 4607   2.926   3.225  14.211  0.3232 -0.6223 -0.1062
  306TMC3     O 4608   2.918   3.125  14.140  0.7416  0.2037  0.7905
  306TMC3     H 4609   3.009   3.013  14.318  0.5179  1.6582 -1.3818
  306TMC3    H1 4610   2.825   3.390  14.402  1.6500  1.1511  0.6009
  306TMC3    H2 4611   2.959   3.144  14.722 -2.4335  2.0696  0.5053
  306TMC3    C7 4612   2.818   3.357  14.659 -0.0701 -0.5508 -0.3884
  306TMC3    C8 4613   3.041   2.932  14.568 -0.4726 -0.0835  0.0674
  306TMC3    O1 4614   2.718   3.405  14.608  0.9491  0.1146 -0.1864
  306TMC3    O2 4615   3.151   2.909  14.526 -0.0957 -0.1805  0.2447
  307MPD2     C 4616   0.702   1.121   0.008 -0.0238 -0.1201 -0.1582
  307MPD2    C1 4617   0.652   1.247   0.039  0.3536 -0.1813 -0.1725
  307MPD2    C2 4618   0.559   1.255   0.145 -0.2653 -0.1163 -0.3775
  307MPD2    C3 4619   0.520   1.141   0.211  0.3982 -0.1049  0.6109
  307MPD2    C4 4620   0.569   1.017   0.173  0.3131  0.3849  0.1799
  307MPD2    C5 4621   0.663   1.010   0.071 -0.2613 -0.1621 -0.2848
  307MPD2     H 4622   0.530   1.354   0.177  0.9878  0.0095  0.3539
  307MPD2    H1 4623   0.554   0.919   0.217 -2.5252  1.1933  1.0580
  307MPD2    H2 4624   0.781   1.103  17.636  0.7086  3.0581 -0.1767
  307MPD2    H3 4625   0.713   0.915   0.053  0.7600 -0.0332  1.8559
  307MPD2     N 4626   0.426   1.157   0.312 -0.3049  0.0857  0.2859
  307MPD2    H5 4627   0.393   1.251   0.330 -2.8106 -0.7109 -0.1568
  307MPD2    N1 4628   0.673   1.362  17.667  0.8225  0.4352 -0.2842
  307MPD2    H7 4629   0.612   1.441  17.687  1.6223  1.2729 -1.1521
  308TMC3    C1 4630   0.038   1.161   0.495  0.1607 -0.2067 -0.5345
  308TMC3    C2 4631   0.060   1.280   0.567  0.4412  0.7850  0.5082
  308TMC3    C3 4632   0.199   1.310   0.582 -0.6721 -0.3316  0.0314
  308TMC3    C4 4633   0.140   1.078   0.455  0.0130 -0.5067  0.6171
  308TMC3    C5 4634   0.273   1.111   0.473  0.9910  0.1003 -0.2835
  308TMC3    C6 4635   0.304   1.231   0.531 -0.2402  0.0687  0.3974
  308TMC3     C 4636   4.628   1.115   0.497 -0.2589  0.1788 -0.4808
  308TMC3     O 4637   4.606   0.997   0.489  0.0782  0.4013 -0.2996
  308TMC3     H 4638   4.708   1.342   0.612  0.1000  1.1888 -0.6195
  308TMC3    H1 4639   0.117   0.982   0.410 -2.4857  1.6849 -2.8103
  308TMC3    H2 4640   0.406   1.260   0.554 -0.7520 -0.2143  3.0891
  308TMC3    C7 4641   0.367   1.052   0.383 -0.0800  0.4566  0.1002
  308TMC3    C8 4642   0.239   1.442   0.632 -0.5378  0.6846 -0.3616
  308TMC3    O1 4643   0.381   0.926   0.373  0.4609  0.0024  0.1281
  308TMC3    O2 4644   0.346   1.452   0.689 -0.2256 -0.5069  0.5707
  309MPD2     C 4645   4.400   1.529  16.919  0.1781 -1.3381 -0.6638
  309MPD2    C1 4646   4.413   1.665  16.887  0.1846  0.6758 -0.0346
  309MPD2    C2 4647   4.314   1.753  16.921 -0.1737 -0.3021  0.4101
  309MPD2    C3 4648   4.205   1.710  16.993  0.0101 -0.0134 -0.3542
  309MPD2    C4 4649   4.196   1.580  17.029 -0.1095 -0.1186  0.2104
  309MPD2    C5 4650   4.290   1.490  16.985  0.3115 -0.3008 -0.2136
  309MPD2     H 4651   4.326   1.857  16.892  0.7348  0.0553  2.1018
  309MPD2    H1 4652   4.125   1.542  17.101 -0.5464  1.2502  0.4996
  309MPD2    H2 4653   4.479   1.458  16.898  1.1767  0.5540 -3.3337
  309MPD2    H3 4654   4.286   1.385  17.010  0.7273  0.1588  1.8020
  309MPD2     N 4655   4.100   1.789  17.048 -0.4858 -0.0112  0.1527
  309MPD2    H5 4656   4.033   1.739  17.106  2.7493 -2.3374  1.9128
  309MPD2    N1 4657   4.523   1.715  16.816 -0.3677  0.3002  0.3232
  309MPD2    H7 4658   4.535   1.808  16.778 -3.9126  1.4691  2.0512
  310TMC3    C1 4659   4.709   1.716  16.680 -0.0698  0.1940  0.1185
  310TMC3    C2 4660   4.635   1.786  16.583 -0.5722 -1.1993 -0.6434
  310TMC3    C3 4661   4.705   1.821  16.471  0.1397 -0.0763  0.2124
  310TMC3    C4 4662   0.109   1.666  16.651  0.3039 -0.1240  0.1857
  310TMC3    C5 4663   0.169   1.706  16.535  0.3052 -0.2162  0.0915
  310TMC3    C6 4664   0.106   1.775  16.438  0.4428  0.2277  0.5528
  310TMC3     C 4665   4.629   1.641  16.773  0.5827 -0.1812 -0.1304
  310TMC3     O 4666   4.672   1.532  16.812 -0.4612  0.0446 -0.5954
  310TMC3     H 4667   4.527   1.800  16.587 -0.3734  0.2117 -0.2557
  310TMC3    H1 4668   0.159   1.597  16.718  0.2779 -0.0151  0.3169
  310TMC3    H2 4669   0.160   1.800  16.347 -1.8429  0.2052 -0.7927
  310TMC3    C7 4670   0.275   1.625  16.485  1.0067  0.1209 -0.4764
  310TMC3    C8 4671   4.622   1.899  16.378  0.1559  0.0545  1.1779
  310TMC3    O1 4672   0.276   1.513  16.535  0.2239  0.1618 -0.4180
  310TMC3    O2 4673   4.502   1.916  16.410  0.3302  0.1825 -0.0660
  311MPD2     C 4674   2.036   2.545  13.072  0.1053 -0.0872  0.4031
  311MPD2    C1 4675   2.026   2.683  13.071 -0.4674  0.1156 -0.4683
  311MPD2    C2 4676   1.904   2.738  13.106 -0.2958  0.2946  0.1153
  311MPD2    C3 4677   1.801   2.659  13.163 -0.4662  0.3261  0.1783
  311MPD2    C4 4678   1.824   2.523  13.186  0.2332  0.2662 -0.1660
  311MPD2    C5 4679   1.947   2.466  13.143  0.2436 -0.5374 -0.2692
  311MPD2     H 4680   1.875   2.841  13.086 -2.8253  0.2833  3.6055
  311MPD2    H1 4681   1.747   2.462  13.231 -0.7632 -0.0707 -2.3347
  311MPD2    H2 4682   2.120   2.494  13.026  0.9381 -0.1591  1.9892
  311MPD2    H3 4683   1.955   2.358  13.140 -2.4485 -0.7339 -0.2827
  311MPD2     N 4684   1.676   2.706  13.202 -0.0474 -0.0942 -0.4049
  311MPD2    H5 4685   1.618   2.650  13.263  0.4747 -0.1527  0.0380
  311MPD2    N1 4686   2.128   2.770  13.017 -0.5327  0.4931  0.2710
  311MPD2    H7 4687   2.101   2.868  13.022  1.8890  1.1289  0.9831
  312TMC3    C1 4688   1.485   2.845  13.192  0.0327 -0.0082  0.3440
  312TMC3    C2 4689   1.392   2.894  13.101 -0.0061  0.0815  0.0922
  312TMC3    C3 4690   1.267   2.926  13.150  0.2684 -0.4331  0.3097
  312TMC3    C4 4691   1.453   2.812  13.315 -0.4714  0.3324  0.0692
  312TMC3    C5 4692   1.325   2.838  13.359 -0.5384 -0.0499 -0.1298
  312TMC3    C6 4693   1.232   2.895  13.277 -0.1290 -0.1807  0.4921
  312TMC3     C 4694   1.619   2.815  13.143  0.6057  0.2555  0.7802
  312TMC3     O 4695   1.641   2.870  13.033 -0.1400  0.1685  0.3880
  312TMC3     H 4696   1.418   2.911  12.997  1.8093 -2.4566  0.1296
  312TMC3    H1 4697   1.527   2.777  13.386 -0.2560 -1.0368 -0.8199
  312TMC3    H2 4698   1.131   2.923  13.306  0.6971  1.8649  1.3776
  312TMC3    C7 4699   1.288   2.813  13.496 -0.2297 -0.4302 -0.3016
  312TMC3    C8 4700   1.158   2.921  13.056 -0.1269  0.1236  0.1306
  312TMC3    O1 4701   1.169   2.799  13.500 -0.0922  0.3256 -0.3646
  312TMC3    O2 4702   1.166   2.822  12.984  0.2165 -0.3131  0.3426
  313MPD2     C 4703   1.929   1.783  10.880 -0.0253  0.1121 -0.1878
  313MPD2    C1 4704   1.833   1.879  10.896  0.1576  0.2685 -0.7823
  313MPD2    C2 4705   1.707   1.851  10.885 -0.9477  0.2490 -0.0166
  313MPD2    C3 4706   1.667   1.721  10.851 -0.5542 -0.5324  0.4928
  313MPD2    C4 4707   1.763   1.625  10.831  0.6058  0.3999 -0.2634
  313MPD2    C5 4708   1.894   1.655  10.841  0.8355  0.1175 -0.0467
  313MPD2     H 4709   1.641   1.938  10.889 -1.4406 -0.1322  0.1472
  313MPD2    H1 4710   1.740   1.522  10.807  1.8584 -0.1257  0.7976
  313MPD2    H2 4711   2.034   1.800  10.897 -0.2587 -0.0740  1.4413
  313MPD2    H3 4712   1.978   1.586  10.837  0.0090 -0.7895 -1.5730
  313MPD2     N 4713   1.525   1.698  10.833  0.7886 -0.2120  0.7187
  313MPD2    H5 4714   1.456   1.769  10.855 -0.8222 -2.0404  1.5188
  313MPD2    N1 4715   1.861   2.016  10.926  0.1233  0.2091 -1.0122
  313MPD2    H7 4716   1.778   2.074  10.925  0.9832  1.4641  0.0803
  314TMC3    C1 4717   1.986   2.209  10.899 -0.4673 -0.4927 -0.1695
  314TMC3    C2 4718   2.038   2.289  10.989 -0.1592 -0.4849  0.0709
  314TMC3    C3 4719   1.981   2.413  11.005  0.5111  0.8932 -0.5637
  314TMC3    C4 4720   1.895   2.243  10.803  0.1310  0.5250 -0.6017
  314TMC3    C5 4721   1.846   2.374  10.811  0.2642  0.5903 -0.4585
  314TMC3    C6 4722   1.893   2.465  10.910  0.8028  0.2215 -0.6869
  314TMC3     C 4723   1.989   2.074  10.937  0.1155 -0.2217  0.7683
  314TMC3     O 4724   2.095   2.029  10.975 -0.5127  0.5233 -0.1816
  314TMC3     H 4725   2.102   2.245  11.065  0.1271  0.1895  0.2183
  314TMC3    H1 4726   1.853   2.169  10.736  1.3551  0.6445 -1.4975
  314TMC3    H2 4727   1.835   2.554  10.928  1.5144  0.4388  0.5070
  314TMC3    C7 4728   1.757   2.419  10.706  0.2166 -0.6898 -0.3924
  314TMC3    C8 4729   2.018   2.500  11.116 -0.0714  0.1921  0.4001
  314TMC3    O1 4730   1.769   2.366  10.596  0.3450 -0.1812 -0.6798
  314TMC3    O2 4731   1.957   2.606  11.128  0.5770 -0.1672  0.1808
  315MPD2     C 4732   0.372   1.710   0.290  0.4175 -0.4429  0.5864
  315MPD2    C1 4733   0.490   1.752   0.339 -0.6595 -0.1813 -0.0849
  315MPD2    C2 4734   0.536   1.878   0.310  0.5101 -0.4324  0.5482
  315MPD2    C3 4735   0.463   1.961   0.215 -0.2543 -0.2266  0.7340
  315MPD2    C4 4736   0.335   1.919   0.180  0.2100  0.2642 -0.1896
  315MPD2    C5 4737   0.290   1.793   0.215 -0.4386  0.3111  0.0437
  315MPD2     H 4738   0.633   1.904   0.351  0.7204 -2.1177  1.0907
  315MPD2    H1 4739   0.267   1.986   0.128  0.4813  1.4768  1.0068
  315MPD2    H2 4740   0.329   1.624   0.340  0.6882  0.8402  3.0142
  315MPD2    H3 4741   0.189   1.757   0.202 -0.4151  0.3225 -0.1779
  315MPD2     N 4742   0.533   2.076   0.162 -0.5177 -0.3456  0.5533
  315MPD2    H5 4743   0.632   2.092   0.175 -0.0984 -1.1416 -1.5641
  315MPD2    N1 4744   0.566   1.664   0.425 -0.2032 -0.2688  0.3687
  315MPD2    H7 4745   0.657   1.701   0.450  0.0759 -0.3580 -0.5252
  316TMC3    C1 4746   0.552   2.275   0.031  0.1004  0.3509  0.0090
  316TMC3    C2 4747   0.649   2.319   0.120 -0.3615  0.0635  0.4888
  316TMC3    C3 4748   0.751   2.384   0.051 -0.1760  0.3736  0.4543
  316TMC3    C4 4749   0.547   2.295  17.595 -0.2949 -0.1837 -0.8543
  316TMC3    C5 4750   0.653   2.363  17.535  0.2299  0.0338  0.7091
  316TMC3    C6 4751   0.757   2.403  17.615  0.7387  0.0346  0.3318
  316TMC3     C 4752   0.471   2.168   0.077 -0.0043 -0.1901 -0.1714
  316TMC3     O 4753   0.356   2.180   0.036 -0.1528 -0.0208 -0.2246
  316TMC3     H 4754   0.636   2.311   0.227 -0.7554 -3.9479  0.1510
  316TMC3    H1 4755   0.460   2.263  17.539 -1.3170  1.5161 -0.2407
  316TMC3    H2 4756   0.850   2.438  17.572 -0.3648  2.9093  0.3281
  316TMC3    C7 4757   0.668   2.337  17.395  0.3839 -0.3355  0.1092
  316TMC3    C8 4758   0.877   2.422   0.121 -0.0694  0.0613 -0.4869
  316TMC3    O1 4759   0.622   2.231  17.360 -0.2205  0.0809  0.7686
  316TMC3    O2 4760   0.931   2.524   0.092  0.3740 -0.0501  0.3423
  317MPD2     C 4761   2.845   4.428  13.056  0.0439 -0.3749 -0.0843
  317MPD2    C1 4762   2.974   4.406  13.027  0.2050 -0.0420 -0.1088
  317MPD2    C2 4763   3.073   4.410  13.129  0.6020 -0.1519  0.4328
  317MPD2    C3 4764   3.040   4.452  13.258 -0.1495  0.0124 -0.2753
  317MPD2    C4 4765   2.909   4.499  13.271  0.4844  0.5125  0.5509
  317MPD2    C5 4766   2.820   4.486  13.175  0.1390  0.3767 -0.0360
  317MPD2     H 4767   3.177   4.389  13.107  0.6384  1.6055 -1.1401
  317MPD2    H1 4768   2.871   4.548  13.360  0.0343  2.2346 -0.6122
  317MPD2    H2 4769   2.760   4.442  12.990 -0.1717  0.9290  0.4857
  317MPD2    H3 4770   2.720   4.525  13.195 -0.1933  0.2690 -1.4698
  317MPD2     N 4771   3.143   4.469  13.356 -0.0357 -0.0791 -0.3343
  317MPD2    H5 4772   3.237   4.440  13.334  0.7401  0.4146  2.4459
  317MPD2    N1 4773   3.026   4.378  12.895  0.2036  0.5690  0.1185
  317MPD2    H7 4774   3.125   4.361  12.883  0.6201  3.0888  0.0278
  318TMC3    C1 4775   3.224   4.529  13.567 -0.2593 -0.2377 -0.9863
  318TMC3    C2 4776   3.197   4.520  13.702 -0.0824  0.5402 -0.1839
  318TMC3    C3 4777   3.298   4.490  13.787 -0.7368  0.4426  0.5898
  318TMC3    C4 4778   3.351   4.536  13.518 -0.3155  0.5329  0.1882
  318TMC3    C5 4779   3.445   4.507  13.607 -0.4667  0.1563  0.5543
  318TMC3    C6 4780   3.424   4.487  13.745  0.3310 -0.4351  0.7964
  318TMC3     C 4781   3.109   4.492  13.487 -0.1646 -0.1122 -0.8187
  318TMC3     O 4782   3.001   4.506  13.540 -0.2788  0.5272 -0.1351
  318TMC3     H 4783   3.096   4.532  13.741 -1.0313 -0.8597 -2.1884
  318TMC3    H1 4784   3.377   4.545  13.413  2.3696 -0.4084  0.7595
  318TMC3    H2 4785   3.502   4.467  13.817  1.2422 -0.3043 -0.1498
  318TMC3    C7 4786   3.583   4.527  13.566 -0.6007 -0.2708  0.1382
  318TMC3    C8 4787   3.266   4.409  13.899 -0.7987 -0.2197 -0.0702
  318TMC3    O1 4788   3.589   4.601  13.466 -0.3542  0.3638 -0.2507
  318TMC3    O2 4789   3.347   4.398  13.992  0.0428 -0.0717  0.1928
  319MPD2     C 4790   4.097   1.217  16.828  0.5671  0.4936  0.0058
  319MPD2    C1 4791   4.031   1.148  16.934 -0.2932 -0.2286  0.0594
  319MPD2    C2 4792   3.895   1.126  16.914  0.6494 -0.0757  0.1383
  319MPD2    C3 4793   3.827   1.168  16.802  0.3292  0.5785  0.0466
  319MPD2    C4 4794   3.898   1.233  16.711  0.0031 -0.1096 -0.2071
  319MPD2    C5 4795   4.026   1.262  16.723 -0.8629  0.0407 -0.2969
  319MPD2     H 4796   3.853   1.065  16.993  1.0265 -0.9920 -0.3677
  319MPD2    H1 4797   3.849   1.266  16.621 -0.4360  0.2116  0.1507
  319MPD2    H2 4798   4.198   1.254  16.841  1.1147  0.1184 -3.2117
  319MPD2    H3 4799   4.084   1.320  16.652 -2.4350  0.9225 -0.8426
  319MPD2     N 4800   3.689   1.145  16.774  0.0531 -0.0368  0.0978
  319MPD2    H5 4801   3.649   1.178  16.687 -1.4897  1.7536  1.4560
  319MPD2    N1 4802   4.104   1.104  17.055  0.3195 -0.4120  0.2940
  319MPD2    H7 4803   4.049   1.068  17.132 -1.5452 -0.3840 -1.0314
  320TMC3    C1 4804   3.477   1.052  16.797 -0.0304 -1.2013  0.2290
  320TMC3    C2 4805   3.433   1.112  16.681  0.2801  0.5772  0.2753
  320TMC3    C3 4806   3.314   1.068  16.637  0.7554 -0.2100 -0.2212
  320TMC3    C4 4807   3.411   0.947  16.860 -0.4334 -0.0246  0.0670
  320TMC3    C5 4808   3.296   0.900  16.803 -0.0508  0.9175 -0.1132
  320TMC3    C6 4809   3.240   0.965  16.702 -0.3415 -0.9715 -0.4739
  320TMC3     C 4810   3.603   1.080  16.857 -0.6692  0.1307 -0.5520
  320TMC3     O 4811   3.618   1.043  16.974  0.7819 -0.4709  0.4368
  320TMC3     H 4812   3.489   1.196  16.641  0.2412  0.3024 -0.3545
  320TMC3    H1 4813   3.465   0.892  16.936 -0.3008 -0.0173 -0.0216
  320TMC3    H2 4814   3.144   0.926  16.670 -1.4132  1.0848  0.2029
  320TMC3    C7 4815   3.290   0.755  16.792 -0.1977  0.6165 -0.0047
  320TMC3    C8 4816   3.243   1.165  16.551 -0.3065 -0.2555  0.5316
  320TMC3    O1 4817   3.269   0.704  16.682 -0.4956 -0.5665  0.4022
  320TMC3    O2 4818   3.290   1.275  16.540  0.1928 -0.1370 -0.0369
  321TMC3    C1 4819   4.273   1.123  17.218  0.0598 -0.2676  0.4756
  321TMC3    C2 4820   4.407   1.086  17.246 -0.2096  0.0130 -0.8791
  321TMC3    C3 4821   4.450   1.098  17.373  0.2011 -0.8902  0.5675
  321TMC3    C4 4822   4.175   1.141  17.315  0.0918 -0.0954  0.2855
  321TMC3    C5 4823   4.227   1.140  17.444 -0.5775  0.4414  0.8343
  321TMC3    C6 4824   4.363   1.128  17.476 -0.9310 -0.2490 -0.0214
  321TMC3     C 4825   4.235   1.122  17.084 -0.3957  0.6888  0.0142
  321TMC3     O 4826   4.324   1.135  17.001  0.0188 -0.1982  0.5875
  321TMC3     H 4827   4.465   1.056  17.159 -0.5040 -1.2883 -0.6141
  321TMC3    H1 4828   4.071   1.169  17.301  0.5745  1.4685 -0.1506
  321TMC3    H2 4829   4.390   1.143  17.579  0.9209 -1.6095 -0.2938
  321TMC3    C7 4830   4.155   1.057  17.536  0.4058 -0.0457 -0.3297
  321TMC3    C8 4831   4.546   0.995  17.414  0.3824 -0.1640 -0.4350
  321TMC3    O1 4832   4.231   0.973  17.586  0.2853  0.2047 -0.1414
  321TMC3    O2 4833   4.646   0.969  17.343  0.3382 -0.5673 -0.1391
  322MPD2     C 4834   3.241   2.415  13.120 -0.1796  0.1398 -0.0497
  322MPD2    C1 4835   3.167   2.388  13.239  0.1882 -0.2055 -0.5429
  322MPD2    C2 4836   3.119   2.255  13.245 -0.2897  0.5744  0.2298
  322MPD2    C3 4837   3.159   2.165  13.148 -0.2907 -0.2956 -0.1466
  322MPD2    C4 4838   3.249   2.196  13.050  0.9154 -0.5243 -0.3593
  322MPD2    C5 4839   3.289   2.322  13.034 -0.6551 -0.4862 -0.6176
  322MPD2     H 4840   3.054   2.212  13.320  1.1131 -0.1104  1.0620
  322MPD2    H1 4841   3.290   2.127  12.977 -1.1820 -1.0787 -1.0399
  322MPD2    H2 4842   3.259   2.520  13.097 -0.4089  0.1939  0.0163
  322MPD2    H3 4843   3.354   2.348  12.951  0.7206  1.2560  1.0130
  322MPD2     N 4844   3.106   2.033  13.172 -0.0049  0.1537  0.0866
  322MPD2    H5 4845   3.036   2.018  13.244  1.1778 -1.7763  0.8463
  322MPD2    N1 4846   3.132   2.495  13.323 -0.3350 -0.4932  0.0783
  322MPD2    H7 4847   3.169   2.587  13.301 -2.5775  0.6040  0.8845
  323TMC3    C1 4848   3.036   2.606  13.507  0.0674  0.3548 -0.4952
  323TMC3    C2 4849   3.116   2.712  13.503 -0.0391 -0.3495 -0.2159
  323TMC3    C3 4850   3.092   2.826  13.579 -0.7382  0.6377  0.0637
  323TMC3    C4 4851   2.918   2.621  13.574  0.0899 -0.6045 -0.7475
  323TMC3    C5 4852   2.892   2.723  13.660 -0.1991  0.2510 -0.2997
  323TMC3    C6 4853   2.981   2.827  13.661 -0.7281 -0.2077  0.1912
  323TMC3     C 4854   3.047   2.485  13.429 -0.1689  0.3523 -0.1145
  323TMC3     O 4855   2.963   2.396  13.457 -0.1318  0.3498  0.0913
  323TMC3     H 4856   3.212   2.703  13.453 -0.0011 -1.7782  0.1012
  323TMC3    H1 4857   2.855   2.534  13.580 -3.6840  2.2789  1.6713
  323TMC3    H2 4858   2.947   2.921  13.702  0.7475  0.7518 -0.7926
  323TMC3    C7 4859   2.856   2.676  13.791  0.2942  0.0349  0.4648
  323TMC3    C8 4860   3.199   2.877  13.647  0.4789 -0.3530  0.1263
  323TMC3    O1 4861   2.771   2.591  13.808 -0.5429 -0.0095  0.1125
  323TMC3    O2 4862   3.180   2.875  13.767 -0.1326  0.1271  0.7216
  324MPD2     C 4863   0.091   4.258  14.828 -0.4778  0.0289  0.0035
  324MPD2    C1 4864   0.137   4.311  14.712  0.4909 -0.2344 -0.3955
  324MPD2    C2 4865   0.044   4.329  14.614 -0.4135  0.1122  0.6497
  324MPD2    C3 4866   4.631   4.305  14.638 -0.4614  0.1372  0.2585
  324MPD2    C4 4867   4.594   4.246  14.760 -0.5316  0.0381  0.1881
  324MPD2    C5 4868   4.685   4.221  14.849  0.0067 -0.4140  0.3780
  324MPD2     H 4869   0.069   4.370  14.516  0.2216  1.0541  1.2120
  324MPD2    H1 4870   4.491   4.214  14.766 -0.5453  0.0626  0.0831
  324MPD2    H2 4871   0.155   4.240  14.914  0.1745 -3.0343 -1.1209
  324MPD2    H3 4872   4.662   4.173  14.943 -1.2356 -1.7956 -0.6171
  324MPD2     N 4873   4.521   4.331  14.549  0.1782  0.4650  0.2208
  324MPD2    H5 4874   4.435   4.288  14.580  0.8924  1.2056  3.2536
  324MPD2    N1 4875   0.269   4.333  14.682  0.0547  0.7296 -0.3995
  324MPD2    H7 4876   0.283   4.386  14.597  2.0250 -0.6598 -0.9328
  325TMC3    C1 4877   4.389   4.410  14.388 -0.6558  0.1737 -0.0905
  325TMC3    C2 4878   4.315   4.293  14.395 -0.0415 -0.7548  0.2378
  325TMC3    C3 4879   4.183   4.298  14.360 -0.3491  0.0000  0.1398
  325TMC3    C4 4880   4.326   4.528  14.366 -0.2039  0.5719  0.0345
  325TMC3    C5 4881   4.191   4.532  14.329  0.3377  0.3521 -0.7853
  325TMC3    C6 4882   4.118   4.413  14.318  0.4279  0.8695 -0.1881
  325TMC3     C 4883   4.524   4.406  14.439 -0.4240  0.5628 -0.0176
  325TMC3     O 4884   4.612   4.473  14.391  0.3617  0.1053  0.0831
  325TMC3     H 4885   4.364   4.200  14.422  1.8994  0.2914  0.2837
  325TMC3    H1 4886   4.391   4.615  14.372  2.0334 -1.0896 -0.3056
  325TMC3    H2 4887   4.018   4.415  14.276  0.2981  2.9961  0.2388
  325TMC3    C7 4888   4.127   4.662  14.323  0.5771  0.0274  0.5661
  325TMC3    C8 4889   4.122   4.170  14.362 -0.2820  0.3877  0.2877
  325TMC3    O1 4890   4.190   0.035  14.293 -0.1161 -0.4395  0.9273
  325TMC3    O2 4891   4.194   4.071  14.379 -0.3648 -0.1276 -0.1778
  326MPD2     C 4892   0.916   0.062  11.391  0.0030 -0.0290  0.3310
  326MPD2    C1 4893   0.978   4.708  11.307  0.1421  0.3932 -0.2530
  326MPD2    C2 4894   1.116   0.001  11.277 -0.5705  0.0399 -0.5739
  326MPD2    C3 4895   1.184   0.105  11.336 -0.0865  0.2135  0.1452
  326MPD2    C4 4896   1.123   0.177  11.431  0.2983 -0.2918 -0.2142
  326MPD2    C5 4897   0.994   0.146  11.467  0.4462 -0.0315  0.3686
  326MPD2     H 4898   1.163   4.650  11.216 -1.7825  1.2212 -2.9826
  326MPD2    H1 4899   1.173   0.261  11.478 -4.0327  0.3407  3.2797
  326MPD2    H2 4900   0.809   0.059  11.406  0.3571  1.0671  3.2198
  326MPD2    H3 4901   0.953   0.206  11.547  0.8003  0.5374  0.1202
  326MPD2     N 4902   1.325   0.126  11.318 -0.1784  0.4121 -0.0151
  326MPD2    H5 4903   1.375   0.201  11.364  1.2115 -1.1502  1.0134
  326MPD2    N1 4904   0.917   4.604  11.232 -0.3003  0.4102  0.2357
  326MPD2    H7 4905   0.976   4.547  11.174 -0.6766 -0.4637  0.7122
  327TMC3    C1 4906   0.771   4.426  11.182  0.8214  0.0018 -1.3804
  327TMC3    C2 4907   0.710   4.426  11.059  0.1081  0.1412  0.0244
  327TMC3    C3 4908   0.760   4.348  10.961 -0.5234  0.2179  0.1406
  327TMC3    C4 4909   0.872   4.336  11.206  0.1035 -0.0888  0.4285
  327TMC3    C5 4910   0.936   4.270  11.098 -0.6941  0.2143 -0.6049
  327TMC3    C6 4911   0.873   4.276  10.978 -0.3656 -0.4042 -0.1949
  327TMC3     C 4912   0.785   4.555  11.249 -0.8998  0.2517 -0.1519
  327TMC3     O 4913   0.694   4.603  11.314 -0.1633  0.3913  0.0767
  327TMC3     H 4914   0.630   4.497  11.039  0.6427  0.4598 -0.9855
  327TMC3    H1 4915   0.901   4.312  11.308  0.2077 -1.9337 -0.0486
  327TMC3    H2 4916   0.922   4.241  10.888  0.9913 -0.1557  0.4516
  327TMC3    C7 4917   1.084   4.251  11.094  0.1332  0.1204 -0.0471
  327TMC3    C8 4918   0.737   4.394  10.834 -0.0479 -0.5728 -0.4596
  327TMC3    O1 4919   1.142   4.241  10.987 -0.4671 -0.0719 -0.4525
  327TMC3    O2 4920   0.832   4.410  10.763 -0.6035  0.0493 -0.0945
  328MPD2     C 4921   3.567   0.572  17.641 -0.3638  0.3055  0.0696
  328MPD2    C1 4922   3.522   0.443  17.642 -0.0917 -0.5273  0.1058
  328MPD2    C2 4923   3.444   0.390  17.539 -0.1761  0.0096  0.0648
  328MPD2    C3 4924   3.407   0.472  17.438  0.6214  0.2732 -0.3797
  328MPD2    C4 4925   3.450   0.603  17.437 -0.1616 -0.1595 -0.1155
  328MPD2    C5 4926   3.523   0.655  17.539 -0.5870 -0.2153  0.2451
  328MPD2     H 4927   3.404   0.290  17.547 -1.1220  0.2322 -2.0919
  328MPD2    H1 4928   3.392   0.674  17.379  1.3298 -0.5013 -2.0175
  328MPD2    H2 4929   3.615   0.623   0.023 -0.6263  0.8328 -0.1031
  328MPD2    H3 4930   3.533   0.762  17.555 -2.1583 -0.1912  1.0543
  328MPD2     N 4931   3.302   0.438  17.348  0.1291 -0.1991  0.5048
  328MPD2    H5 4932   3.263   0.512  17.291  0.7405  0.3783  0.8430
  328MPD2    N1 4933   3.559   0.376   0.063  0.0597 -0.6757 -0.0443
  328MPD2    H7 4934   3.611   0.434   0.128  0.0155  0.6599 -1.1892
  329TMC3    C1 4935   3.551   0.224   0.244  0.4578 -0.6526  0.3823
  329TMC3    C2 4936   3.551   0.330   0.337  0.4486 -0.3014  0.6600
  329TMC3    C3 4937   3.635   0.318   0.448 -0.5112  0.0872 -0.0334
  329TMC3    C4 4938   3.624   0.109   0.269 -0.6122  0.0342  0.0852
  329TMC3    C5 4939   3.712   0.104   0.375  0.3775 -0.4305 -0.2700
  329TMC3    C6 4940   3.722   0.208   0.465  0.4637 -0.2840  0.0011
  329TMC3     C 4941   3.527   0.251   0.101  0.0973  0.0225 -0.3661
  329TMC3     O 4942   3.489   0.156   0.035  0.5537 -0.1790 -0.3226
  329TMC3     H 4943   3.497   0.423   0.322  1.0387 -0.0250  0.2402
  329TMC3    H1 4944   3.605   0.022   0.206  0.9588 -2.4823  3.0989
  329TMC3    H2 4945   3.771   0.196   0.561  1.2412 -0.5038 -0.4256
  329TMC3    C7 4946   3.782   4.705   0.396 -0.0414  0.0489  1.3865
  329TMC3    C8 4947   3.622   0.415   0.547  0.2877  0.0712  0.0566
  329TMC3    O1 4948   3.756   4.617   0.312  0.4895  0.0243  0.6814
  329TMC3    O2 4949   3.721   0.437   0.616  0.0368  0.0239  0.0325
  330TMC3    C1 4950   1.954   3.239  10.360 -0.2703 -0.1817  0.7061
  330TMC3    C2 4951   1.961   3.174  10.242  0.3863  0.1298  0.2473
  330TMC3    C3 4952   2.031   3.054  10.254  0.5279 -0.1700  0.4263
  330TMC3    C4 4953   2.000   3.200  10.481 -0.4140  0.5412 -0.9018
  330TMC3    C5 4954   2.065   3.080  10.485 -0.1734  0.3259  1.0514
  330TMC3    C6 4955   2.081   3.003  10.373 -0.2719  0.5456  0.1093
  330TMC3     C 4956   1.918   3.376  10.363  0.2799 -0.3163 -0.6676
  330TMC3     O 4957   1.998   3.462  10.394 -0.3358  0.0930  0.3778
  330TMC3     H 4958   1.927   3.224  10.152 -2.3671 -0.9946  0.6462
  330TMC3    H1 4959   2.004   3.271  10.563 -1.6206 -1.2605  0.6979
  330TMC3    H2 4960   2.139   2.912  10.378  2.0955  2.0911  0.9595
  330TMC3    C7 4961   2.125   3.043  10.608  0.0935  1.1330  0.7293
  330TMC3    C8 4962   2.036   2.968  10.139 -1.1165  0.3563  0.1644
  330TMC3    O1 4963   2.142   3.132  10.687 -0.3978 -0.1239  0.2921
  330TMC3    O2 4964   2.133   2.893  10.142 -0.5458  0.0611 -0.3889
  331MPD2     C 4965   4.205   3.336  13.087  0.5644  0.3846  0.7794
  331MPD2    C1 4966   4.312   3.330  13.000 -0.0747  0.8161 -0.0902
  331MPD2    C2 4967   4.348   3.222  12.915 -0.1981  0.2065 -0.3921
  331MPD2    C3 4968   4.259   3.116  12.919 -0.1431  0.0093  0.3757
  331MPD2    C4 4969   4.154   3.116  13.009 -0.3693  0.2194 -0.6642
  331MPD2    C5 4970   4.128   3.225  13.093 -0.4406 -0.2988 -0.2705
  331MPD2     H 4971   4.424   3.236  12.839 -1.4522 -0.1522 -1.6964
  331MPD2    H1 4972   4.080   3.036  13.013  1.1060 -1.1063  0.0491
  331MPD2    H2 4973   4.179   3.426  13.140 -0.0564  1.3624 -1.1734
  331MPD2    H3 4974   4.040   3.237  13.155  0.9229  2.2176  1.1861
  331MPD2     N 4975   4.287   3.011  12.828  0.2079  0.2432 -0.0410
  331MPD2    H5 4976   4.370   3.017  12.769 -0.4473 -2.9689 -1.2928
  331MPD2    N1 4977   4.391   3.450  12.991 -0.0823  0.4488  0.3519
  331MPD2    H7 4978   4.350   3.525  13.046 -0.0673  0.1275  0.7975
  332TMC3    C1 4979   4.250   2.825  12.700  0.2832 -0.0490  0.3048
  332TMC3    C2 4980   4.282   2.905  12.592  0.4238  0.4689  0.3968
  332TMC3    C3 4981   4.308   2.837  12.478 -0.2315  0.1679  0.4397
  332TMC3    C4 4982   4.237   2.688  12.698 -0.1503  0.5099  0.1442
  332TMC3    C5 4983   4.258   2.630  12.576 -0.3808 -0.0863 -0.1521
  332TMC3    C6 4984   4.291   2.706  12.469 -1.0823 -0.0532 -0.5739
  332TMC3     C 4985   4.217   2.893  12.822 -0.5268  0.1951 -0.7008
  332TMC3     O 4986   4.147   2.837  12.906  0.1967  0.6642 -0.2778
  332TMC3     H 4987   4.304   3.011  12.602 -0.8562  0.6990  0.7037
  332TMC3    H1 4988   4.215   2.631  12.787  0.7973  0.8134  0.5702
  332TMC3    H2 4989   4.316   2.654  12.377  0.1930  0.9892 -0.8278
  332TMC3    C7 4990   4.307   2.494  12.566  0.3390  1.0184 -0.2845
  332TMC3    C8 4991   4.397   2.906  12.382  0.0666 -0.1672  0.2467
  332TMC3    O1 4992   4.248   2.420  12.490 -0.6725 -0.0997 -0.2287
  332TMC3    O2 4993   4.463   3.001  12.418 -0.5875  0.2963  0.7017
  333MPD2     C 4994   3.863   3.017  11.417  0.8044  0.3317 -0.4764
  333MPD2    C1 4995   3.962   2.923  11.398  0.8843 -0.2058 -0.4725
  333MPD2    C2 4996   3.952   2.801  11.458 -0.1297 -0.3343 -0.3267
  333MPD2    C3 4997   3.850   2.772  11.539  0.2239  0.2414 -0.5425
  333MPD2    C4 4998   3.751   2.859  11.563 -1.0118  0.3141  0.2591
  333MPD2    C5 4999   3.764   2.984  11.508  0.6130 -0.3311  0.2767
  333MPD2     H 5000   4.031   2.727  11.457 -1.8024 -2.1574  1.9234
  333MPD2    H1 5001   3.668   2.846  11.632  0.1108  0.9250  1.7120
  333MPD2    H2 5002   3.864   3.118  11.377  1.1770 -0.6409 -2.8899
  333MPD2    H3 5003   3.700   3.067  11.536 -2.1666 -2.0718 -0.7901
  333MPD2     N 5004   3.876   2.657  11.617  0.4947  0.6284 -0.2981
  333MPD2    H5 5005   3.963   2.608  11.599  1.6213  2.2795  0.7377
  333MPD2    N1 5006   4.079   2.958  11.317 -0.4585  0.2993  0.1732
  333MPD2    H7 5007   4.087   3.047  11.269  0.5305  0.5846  0.8570
  334TMC3    C1 5008   4.275   2.925  11.194  0.6434  0.3766 -0.0629
  334TMC3    C2 5009   4.388   2.847  11.177 -0.2580  0.5985 -0.5683
  334TMC3    C3 5010   4.503   2.908  11.134  0.4681  0.3130 -0.4861
  334TMC3    C4 5011   4.261   3.051  11.136  0.7063 -0.0308 -0.3624
  334TMC3    C5 5012   4.381   3.110  11.094  0.0605  0.3037  0.0304
  334TMC3    C6 5013   4.504   3.044  11.096  0.2342 -0.6231 -0.8651
  334TMC3     C 5014   4.176   2.872  11.284  0.1156 -0.2271  0.2858
  334TMC3     O 5015   4.199   2.761  11.329  0.7161 -0.9463  0.3161
  334TMC3     H 5016   4.391   2.744  11.211  0.3717  0.8277  0.0767
  334TMC3    H1 5017   4.164   3.100  11.135  0.8990  0.3663  0.6185
  334TMC3    H2 5018   4.596   3.089  11.061  0.0536  0.0578 -0.4614
  334TMC3    C7 5019   4.402   3.253  11.082  0.5824 -0.1999 -0.3269
  334TMC3    C8 5020   4.621   2.821  11.113 -0.5902 -0.1351  0.1723
  334TMC3    O1 5021   4.509   3.293  11.120  0.3533 -0.2990  0.1825
  334TMC3    O2 5022   4.599   2.702  11.095  0.0478  0.6782  0.4981
  335TMC3    C1 5023   4.363   4.660  17.584 -0.5282  0.2557 -0.1647
  335TMC3    C2 5024   4.335   4.612  17.453  0.0838  0.0870  0.1555
  335TMC3    C3 5025   4.440   4.575  17.373  0.1328  0.3672 -0.2711
  335TMC3    C4 5026   4.491   4.654  17.635  0.0501  0.2604 -0.0535
  335TMC3    C5 5027   4.589   4.607  17.546 -0.6939 -0.4954  0.8919
  335TMC3    C6 5028   4.567   4.566  17.417 -0.1597  0.2461 -0.1286
  335TMC3     C 5029   4.309   0.068  17.608 -0.1817  0.0491 -0.1152
  335TMC3     O 5030   4.384   0.149  17.659  0.3777  0.3282  0.5202
  335TMC3     H 5031   4.233   4.617  17.414  0.9423 -2.5107 -2.4492
  335TMC3    H1 5032   4.493   4.654   0.044 -0.4403 -0.4211 -0.0427
  335TMC3    H2 5033   4.643   4.508  17.366 -1.4777 -0.7940 -0.8750
  335TMC3    C7 5034   4.718   4.574  17.608 -0.3496 -0.0777  0.2104
  335TMC3    C8 5035   4.418   4.530  17.238  0.0128  0.5333 -0.1739
  335TMC3    O1 5036   0.061   4.506  17.534  0.6562 -0.2557  0.1058
  335TMC3    O2 5037   4.509   4.528  17.161 -0.3845 -1.0460  0.5836
  336MPD2     C 5038   3.684   2.549  16.596 -0.4387  0.5142  0.1549
  336MPD2    C1 5039   3.620   2.495  16.494  0.2041  0.6833 -0.0688
  336MPD2    C2 5040   3.631   2.360  16.468 -0.0195  0.0635  0.3339
  336MPD2    C3 5041   3.720   2.278  16.536 -0.6153 -0.3778  0.3676
  336MPD2    C4 5042   3.791   2.336  16.640  0.0229  0.7546  0.2266
  336MPD2    C5 5043   3.766   2.466  16.671  0.0409 -0.2055  0.8409
  336MPD2     H 5044   3.589   2.319  16.377  0.3455  1.9048 -0.6437
  336MPD2    H1 5045   3.865   2.287  16.702 -2.3808 -1.5717  1.2632
  336MPD2    H2 5046   3.680   2.655  16.620 -1.1210  0.3957  0.5451
  336MPD2    H3 5047   3.825   2.504  16.754 -1.4826  0.9455  1.3843
  336MPD2     N 5048   3.737   2.140  16.502  0.4910  0.3132  0.5166
  336MPD2    H5 5049   3.791   2.090  16.572 -1.0964 -1.2017  0.6621
  336MPD2    N1 5050   3.523   2.558  16.409 -1.1074 -0.4344 -0.1577
  336MPD2    H7 5051   3.504   2.517  16.318 -0.0240  0.6817 -0.8765
  337TMC3    C1 5052   3.348   2.696  16.340 -0.2051 -0.0617  0.2849
  337TMC3    C2 5053   3.341   2.621  16.226  0.1704 -0.2799  0.0184
  337TMC3    C3 5054   3.251   2.647  16.134 -0.2035  0.6262 -0.2172
  337TMC3    C4 5055   3.256   2.794  16.368  0.3917 -0.2170 -0.2432
  337TMC3    C5 5056   3.155   2.809  16.274  0.3375  0.3455  0.3044
  337TMC3    C6 5057   3.151   2.739  16.154  0.4340 -0.2261  0.7031
  337TMC3     C 5058   3.449   2.670  16.438  0.3861  1.0832  0.5435
  337TMC3     O 5059   3.456   2.746  16.529 -0.3779 -0.2633 -0.0700
  337TMC3     H 5060   3.409   2.539  16.207 -0.0039 -1.0022  2.4766
  337TMC3    H1 5061   3.263   2.855  16.458  1.1613  0.8078 -1.0019
  337TMC3    H2 5062   3.067   2.752  16.087  0.2564  1.2073  1.2118
  337TMC3    C7 5063   3.020   2.843  16.322  0.5746 -0.3582  0.0578
  337TMC3    C8 5064   3.265   2.576  16.005  0.5291 -0.3597  0.3808
  337TMC3    O1 5065   2.926   2.815  16.250 -0.1074  0.8501  0.1138
  337TMC3    O2 5066   3.369   2.514  15.988 -0.0529 -0.8495 -0.1527
  338MPD2     C 5067   3.881   2.055   0.897  0.3922 -0.0041 -0.5039
  338MPD2    C1 5068   3.812   2.067   0.782  0.0809  0.2774  0.5274
  338MPD2    C2 5069   3.711   2.160   0.773 -0.0113  0.3612 -0.1885
  338MPD2    C3 5070   3.679   2.234   0.884  0.6692  0.3199  0.5581
  338MPD2    C4 5071   3.759   2.234   0.997  0.2433 -0.1602 -0.3813
  338MPD2    C5 5072   3.854   2.138   1.008 -0.9244  0.0082  0.0665
  338MPD2     H 5073   3.651   2.166   0.683 -0.0312  0.5461 -0.1637
  338MPD2    H1 5074   3.740   2.293   1.085  0.3327  0.4110 -0.7469
  338MPD2    H2 5075   3.957   1.979   0.911  0.1144 -0.5192 -1.8548
  338MPD2    H3 5076   3.904   2.124   1.103 -1.5607 -0.1767  0.3816
  338MPD2     N 5077   3.559   2.314   0.876 -0.0151 -0.2360 -0.1881
  338MPD2    H5 5078   3.514   2.300   0.787  0.7917  0.2956 -0.6800
  338MPD2    N1 5079   3.833   1.986   0.667 -0.8879  0.5109  0.2284
  338MPD2    H7 5080   3.763   1.999   0.595 -0.9716  1.2637  0.4493
  339TMC3    C1 5081   3.345   2.406   0.941 -0.9395 -0.0241 -0.2011
  339TMC3    C2 5082   3.258   2.369   1.039 -0.2684  0.1712  0.1362
  339TMC3    C3 5083   3.128   2.349   1.008 -0.7102  0.2833  0.2427
  339TMC3    C4 5084   3.311   2.415   0.810 -0.4138  0.2198  0.2485
  339TMC3    C5 5085   3.183   2.378   0.778  0.3879  0.8915 -0.2701
  339TMC3    C6 5086   3.083   2.349   0.879  0.1793  0.0555 -0.0577
  339TMC3     C 5087   3.485   2.379   0.973  0.0385  0.5479 -0.3865
  339TMC3     O 5088   3.526   2.405   1.083  0.0007 -0.5912 -0.4087
  339TMC3     H 5089   3.276   2.360   1.146  0.1264 -1.3025 -0.0581
  339TMC3    H1 5090   3.374   2.467   0.738 -0.7067  0.7476  0.3718
  339TMC3    H2 5091   2.982   2.318   0.853  0.5863  0.8763 -2.6296
  339TMC3    C7 5092   3.185   2.330   0.647 -0.4665 -0.1133 -1.3731
  339TMC3    C8 5093   3.047   2.281   1.107  0.4037 -0.5308  0.4504
  339TMC3    O1 5094   3.293   2.290   0.604  0.3334 -0.2108  0.5514
  339TMC3    O2 5095   2.931   2.307   1.093  0.1580  0.1619 -0.6450
  340MPD2     C 5096   4.646   4.099   9.821  0.4107  0.2593 -0.2932
  340MPD2    C1 5097   4.578   4.017   9.912 -0.8506  0.8730 -0.0471
  340MPD2    C2 5098   4.497   4.076  10.008 -0.6365  0.2402  0.3945
  340MPD2    C3 5099   4.490   4.212  10.020 -0.2317 -0.6836 -0.2539
  340MPD2    C4 5100   4.556   4.291   9.932  0.1806  0.3935 -0.6447
  340MPD2    C5 5101   4.637   4.238   9.836  1.0272  0.4921 -0.4103
  340MPD2     H 5102   4.447   4.008  10.077 -0.0582 -1.2566 -0.6591
  340MPD2    H1 5103   4.563   4.396   9.955 -2.4766  0.8489 -1.8484
  340MPD2    H2 5104   4.709   4.058   9.742 -0.7641 -0.5366 -0.8183
  340MPD2    H3 5105   4.699   4.306   9.779 -0.9515  1.5705 -1.2586
  340MPD2     N 5106   4.422   4.285  10.123 -0.0840  0.3760 -0.1798
  340MPD2    H5 5107   4.439   4.384  10.140 -0.2847  0.0043  2.1788
  340MPD2    N1 5108   4.598   3.876   9.897 -0.5104  0.0829  0.6221
  340MPD2    H7 5109   4.673   3.854   9.831 -0.8202  0.8824  0.0014
  341TMC3    C1 5110   4.580   3.636   9.946 -0.2087 -0.5443  0.3361
  341TMC3    C2 5111   4.482   3.542   9.975  0.3948 -0.5069  0.3990
  341TMC3    C3 5112   4.520   3.411   9.970 -0.3335 -0.1017 -0.2522
  341TMC3    C4 5113   4.704   3.596   9.910 -1.2965 -0.6786 -0.0146
  341TMC3    C5 5114   0.008   3.464   9.911 -0.5465  0.4787 -0.8266
  341TMC3    C6 5115   4.640   3.367   9.937  0.0854  0.4194  0.2427
  341TMC3     C 5116   4.541   3.777   9.974 -0.9349 -0.2699 -0.3243
  341TMC3     O 5117   4.435   3.787  10.037  0.4732 -0.1506  0.1765
  341TMC3     H 5118   4.377   3.568   9.978  0.1921 -1.2966  0.2757
  341TMC3    H1 5119   0.060   3.669   9.910  0.3960 -2.5522 -2.0238
  341TMC3    H2 5120   4.670   3.263   9.943  0.1680  0.3729 -1.0869
  341TMC3    C7 5121   0.155   3.428   9.913 -0.3057 -0.0386 -0.1201
  341TMC3    C8 5122   4.419   3.308   9.990 -0.2573  0.2451 -0.0990
  341TMC3    O1 5123   0.189   3.323   9.967 -0.4110  0.0607 -0.1531
  341TMC3    O2 5124   4.455   3.193   9.966  0.1681  0.5303  0.3997
  342MPD2     C 5125   1.899   2.967   0.259  0.3957  0.0947  0.0115
  342MPD2    C1 5126   2.027   2.983   0.199  0.0152  0.0579  0.2441
  342MPD2    C2 5127   2.083   3.107   0.211  0.0042  0.3107  0.4534
  342MPD2    C3 5128   2.037   3.203   0.297  0.0651  0.1353 -0.0300
  342MPD2    C4 5129   1.922   3.176   0.366 -0.4767  0.2073 -0.0143
  342MPD2    C5 5130   1.847   3.064   0.335  0.2971  0.2563 -0.8015
  342MPD2     H 5131   2.165   3.115   0.140 -0.5311  2.2785  0.0582
  342MPD2    H1 5132   1.885   3.251   0.434  0.4787  0.1554  0.5671
  342MPD2    H2 5133   1.834   2.885   0.231  1.1896  0.2985 -2.4730
  342MPD2    H3 5134   1.748   3.051   0.376  1.3306 -0.6576  1.4023
  342MPD2     N 5135   2.092   3.334   0.322 -0.4980 -0.0508  0.0886
  342MPD2    H5 5136   2.056   3.382   0.405  1.0934 -1.0125  1.3315
  342MPD2    N1 5137   2.070   2.882   0.108 -0.1950  0.0197 -0.0839
  342MPD2    H7 5138   2.148   2.900   0.045 -1.4247  1.8855 -1.0741
  343TMC3    C1 5139   2.073   2.659  17.693 -0.4282  0.1871  0.6348
  343TMC3    C2 5140   2.201   2.676  17.643 -0.4661  1.1966 -0.2491
  343TMC3    C3 5141   2.256   2.581  17.561 -0.4094  0.0694 -0.4827
  343TMC3    C4 5142   2.009   2.541  17.677 -0.3908  0.1373 -0.3152
  343TMC3    C5 5143   2.066   2.450  17.593  0.0294  0.5191 -0.6628
  343TMC3    C6 5144   2.193   2.464  17.533  0.3107 -0.5260  0.4169
  343TMC3     C 5145   2.016   2.749   0.099 -0.1065  0.0841  0.1520
  343TMC3     O 5146   1.937   2.692   0.179 -0.5058 -0.3177 -0.5028
  343TMC3     H 5147   2.251   2.768  17.670  1.0849  0.8280 -1.8927
  343TMC3    H1 5148   1.910   2.510   0.009 -0.6595  2.3409  1.0384
  343TMC3    H2 5149   2.236   2.372  17.493 -1.0865  0.0575 -2.4002
  343TMC3    C7 5150   2.017   2.311  17.608  0.0700  0.3457  0.0084
  343TMC3    C8 5151   2.388   2.616  17.507 -0.2141 -0.1410 -0.3910
  343TMC3    O1 5152   2.021   2.231  17.516 -0.7407 -0.0962  0.2203
  343TMC3    O2 5153   2.441   2.719  17.548 -0.1680 -0.2816  0.2817
  344MPD2     C 5154   3.474   2.084  11.190 -0.0349  0.2239  0.2388
  344MPD2    C1 5155   3.431   1.987  11.100 -0.9309 -0.0421 -0.2018
  344MPD2    C2 5156   3.447   2.014  10.962 -0.6242  0.7053  0.4663
  344MPD2    C3 5157   3.514   2.120  10.914  0.0203 -0.3465 -0.3810
  344MPD2    C4 5158   3.561   2.206  11.005  0.0257  0.1897  0.3225
  344MPD2    C5 5159   3.548   2.185  11.141  0.1910 -0.1493  0.1143
  344MPD2     H 5160   3.411   1.943  10.889  0.1267 -1.0712  1.8154
  344MPD2    H1 5161   3.621   2.292  10.977 -0.2846 -0.1687 -1.4646
  344MPD2    H2 5162   3.461   2.081  11.297  2.8700  2.3417  0.6552
  344MPD2    H3 5163   3.589   2.253  11.214  0.5315 -0.6821  0.4184
  344MPD2     N 5164   3.537   2.152  10.772  0.2838  0.5570 -0.3432
  344MPD2    H5 5165   3.579   2.242  10.750 -0.8279  1.1757  0.0540
  344MPD2    N1 5166   3.358   1.871  11.144  0.5387 -0.2183  0.1524
  344MPD2    H7 5167   3.337   1.801  11.074 -1.3058 -0.1038  0.5921
  345TMC3    C1 5168   3.562   2.147  10.541  0.3971 -0.3442  0.1609
  345TMC3    C2 5169   3.685   2.218  10.533 -0.4874 -0.2536 -0.0511
  345TMC3    C3 5170   3.730   2.253  10.405 -0.0032 -0.6129  0.4468
  345TMC3    C4 5171   3.492   2.119  10.428  0.2344  0.2171  0.1907
  345TMC3    C5 5172   3.528   2.169  10.307  0.2772 -0.0087  0.0280
  345TMC3    C6 5173   3.654   2.227  10.291  0.0343  0.6616  0.2396
  345TMC3     C 5174   3.523   2.074  10.664 -0.4370  0.2235 -0.2558
  345TMC3     O 5175   3.463   1.966  10.647  0.3457 -0.3919 -0.1307
  345TMC3     H 5176   3.740   2.254  10.619 -0.2935 -1.6540  0.4227
  345TMC3    H1 5177   3.394   2.075  10.445  0.8621 -1.4566 -0.4581
  345TMC3    H2 5178   3.680   2.263  10.192  1.7769 -1.2687 -0.0257
  345TMC3    C7 5179   3.427   2.244  10.237 -0.3647  0.3476  0.0763
  345TMC3    C8 5180   3.856   2.329  10.388 -0.1903 -0.3406 -0.0651
  345TMC3    O1 5181   3.455   2.356  10.202  0.6139 -0.1438  0.2793
  345TMC3    O2 5182   3.908   2.369  10.492  0.0051  0.3498 -0.0978
  346MPD2     C 5183   3.141   3.915  14.471 -0.0769  0.0120  0.1421
  346MPD2    C1 5184   3.229   3.989  14.396  0.3835  0.1524 -0.2230
  346MPD2    C2 5185   3.264   4.116  14.426  0.0497 -0.5977 -0.4426
  346MPD2    C3 5186   3.205   4.179  14.537 -0.2531 -0.1909 -0.3820
  346MPD2    C4 5187   3.117   4.108  14.613 -0.1153  0.6992 -0.2849
  346MPD2    C5 5188   3.087   3.973  14.580 -0.6622  0.0503 -0.1763
  346MPD2     H 5189   3.340   4.172  14.371  1.0115 -1.0956  0.3762
  346MPD2    H1 5190   3.065   4.146  14.700  0.5911  0.6534  0.1621
  346MPD2    H2 5191   3.117   3.811  14.450  0.4814 -0.1215  0.1553
  346MPD2    H3 5192   3.019   3.916  14.642  0.0151 -0.6550 -0.0788
  346MPD2     N 5193   3.228   4.318  14.565  0.5927 -0.3743 -0.4609
  346MPD2    H5 5194   3.311   4.356  14.521  0.0213  1.9093  0.4481
  346MPD2    N1 5195   3.291   3.939  14.282 -0.1678  0.4962  0.5420
  346MPD2    H7 5196   3.355   4.001  14.232  0.0126  0.4035  0.6583
  347TMC3    C1 5197   3.205   4.534  14.664 -0.5197 -0.0506 -0.3409
  347TMC3    C2 5198   3.320   4.561  14.596  0.2184  0.0225  0.4525
  347TMC3    C3 5199   3.394   4.674  14.631  0.3997 -0.2849 -0.0730
  347TMC3    C4 5200   3.168   4.616  14.769 -0.3207 -0.7001  0.0401
  347TMC3    C5 5201   3.246   4.717  14.812 -0.4624  0.1944 -0.0166
  347TMC3    C6 5202   3.363   0.023  14.747 -0.5229  0.0772  0.4725
  347TMC3     C 5203   3.154   4.395  14.655  0.5605  0.4781  0.2939
  347TMC3     O 5204   3.063   4.367  14.733 -0.2154 -0.2833  0.0442
  347TMC3     H 5205   3.344   4.512  14.502  0.4349 -1.1003  1.0835
  347TMC3    H1 5206   3.077   4.590  14.821  1.0639 -1.1592  2.2456
  347TMC3    H2 5207   3.425   0.107  14.774  2.7021 -2.5932  1.4288
  347TMC3    C7 5208   3.225   0.035  14.949  0.1110  0.8258  0.9308
  347TMC3    C8 5209   3.524   4.681  14.566 -0.0766 -0.2124 -0.1314
  347TMC3    O1 5210   3.127   4.714  15.006  0.6515  0.5306  0.2503
  347TMC3    O2 5211   3.559   4.584  14.502 -0.1936  0.3141 -0.1914
  348MPD2     C 5212   1.975   3.551  12.736 -0.3041 -1.0422  0.6751
  348MPD2    C1 5213   2.056   3.558  12.621 -0.6707  0.0187  0.2706
  348MPD2    C2 5214   2.024   3.628  12.511 -0.0053  0.0105 -0.1265
  348MPD2    C3 5215   1.899   3.687  12.504  0.3726 -0.8729 -0.4964
  348MPD2    C4 5216   1.816   3.678  12.610  0.9643  0.3702 -0.6103
  348MPD2    C5 5217   1.849   3.613  12.726  0.3798 -0.5573  0.0582
  348MPD2     H 5218   2.095   3.630  12.430  0.2743  1.6870  0.1605
  348MPD2    H1 5219   1.711   3.704  12.601  0.0262 -3.2856 -0.2819
  348MPD2    H2 5220   2.006   3.507  12.830  2.6793  1.4673  0.8893
  348MPD2    H3 5221   1.783   3.599  12.811 -0.2966  3.2013  0.1482
  348MPD2     N 5222   1.866   3.761  12.384  0.1275  0.4864  0.0197
  348MPD2    H5 5223   1.949   3.768  12.326  1.0855 -0.5738  1.2727
  348MPD2    N1 5224   2.188   3.495  12.622 -0.6316 -0.5210 -0.2274
  348MPD2    H7 5225   2.243   3.511  12.538  0.9210 -0.6596  0.7530
  349TMC3    C1 5226   2.347   3.326  12.659 -0.0261  0.5085  0.0028
  349TMC3    C2 5227   2.330   3.188  12.672  1.1622  0.3226  0.0657
  349TMC3    C3 5228   2.362   3.103  12.566 -0.2073  0.4136 -0.2720
  349TMC3    C4 5229   2.385   3.379  12.540  0.4624 -0.3101 -0.4186
  349TMC3    C5 5230   2.411   3.292  12.437 -0.3177  1.0422 -0.1625
  349TMC3    C6 5231   2.408   3.157  12.448  0.6697  0.3870  0.5101
  349TMC3     C 5232   2.228   3.394  12.707  0.7976 -0.0523 -0.4803
  349TMC3     O 5233   2.172   3.352  12.807  0.2804  0.6118 -0.5838
  349TMC3     H 5234   2.296   3.147  12.767 -0.2905 -0.8156 -0.9498
  349TMC3    H1 5235   2.424   3.480  12.536  2.9687 -1.3363 -1.7985
  349TMC3    H2 5236   2.442   3.094  12.367 -0.6744  0.4243 -0.0897
  349TMC3    C7 5237   2.355   3.334  12.320 -0.6809  0.1084  0.1546
  349TMC3    C8 5238   2.351   2.960  12.586 -0.1785 -0.0351 -0.5780
  349TMC3    O1 5239   2.283   3.258  12.259 -0.0172 -0.1909 -0.5350
  349TMC3    O2 5240   2.262   2.913  12.658  0.0746  0.0900 -0.0574
  350MPD2     C 5241   1.112   1.011  10.291  0.2368  0.3657 -0.1823
  350MPD2    C1 5242   1.235   1.075  10.277 -0.4952  0.4085 -0.0987
  350MPD2    C2 5243   1.242   1.197  10.346  0.0812  0.4306 -0.0775
  350MPD2    C3 5244   1.136   1.249  10.418 -0.0350 -0.3988 -0.4745
  350MPD2    C4 5245   1.024   1.177  10.442 -0.6156 -0.0635  0.5807
  350MPD2    C5 5246   1.015   1.058  10.385 -0.2080  0.6406 -0.0214
  350MPD2     H 5247   1.338   1.247  10.354  0.4577 -0.3269  0.0322
  350MPD2    H1 5248   0.953   1.214  10.515  0.1458 -0.2447  1.3993
  350MPD2    H2 5249   1.092   0.914  10.247  1.3536  0.4133 -0.8014
  350MPD2    H3 5250   0.922   1.006  10.402  0.5344 -0.1958  1.4989
  350MPD2     N 5251   1.164   1.370  10.488 -0.1961 -0.3598 -0.4207
  350MPD2    H5 5252   1.247   1.426  10.469 -1.9143  1.0982 -3.5513
  350MPD2    N1 5253   1.348   1.024  10.206  0.4765 -0.7284 -0.5107
  350MPD2    H7 5254   1.421   1.089  10.178 -0.7479  0.5684 -0.7150
  351TMC3    C1 5255   1.491   0.862  10.099 -0.3057  0.8625 -0.4109
  351TMC3    C2 5256   1.534   0.731  10.115 -0.1858 -0.1144  0.6899
  351TMC3    C3 5257   1.669   0.711  10.106 -0.0359  0.0086 -0.2952
  351TMC3    C4 5258   1.577   0.968  10.058 -0.0489 -0.0710 -0.0238
  351TMC3    C5 5259   1.712   0.941  10.045  0.2255  0.3461 -0.1216
  351TMC3    C6 5260   1.753   0.810  10.076 -0.1871 -0.1474  0.3320
  351TMC3     C 5261   1.355   0.893  10.166  0.7134 -0.8508  0.0258
  351TMC3     O 5262   1.284   0.797  10.186 -0.5127 -0.4656 -0.1543
  351TMC3     H 5263   1.462   0.652  10.132  0.1933 -0.2844  1.4644
  351TMC3    H1 5264   1.540   1.064  10.023 -1.6383 -0.8809 -0.5737
  351TMC3    H2 5265   1.859   0.793  10.091 -0.5872 -1.1927  1.8453
  351TMC3    C7 5266   1.797   1.032   9.971 -0.2351  0.0903 -0.0060
  351TMC3    C8 5267   1.731   0.586  10.124 -0.3063 -0.7011  0.3603
  351TMC3    O1 5268   1.749   1.145   9.950  0.0365 -0.2901  0.3915
  351TMC3    O2 5269   1.853   0.582  10.106 -0.6710  0.4885  0.2313
  352MPD2     C 5270   4.083   4.130   1.360 -0.4851 -0.0481 -0.4974
  352MPD2    C1 5271   4.015   4.051   1.273  0.2587  1.0172 -0.1530
  352MPD2    C2 5272   4.049   3.915   1.267  0.0985 -0.2156  0.0622
  352MPD2    C3 5273   4.142   3.861   1.359  0.7984 -0.1973  0.2422
  352MPD2    C4 5274   4.208   3.942   1.446  0.2912 -0.3347 -0.3481
  352MPD2    C5 5275   4.180   4.072   1.444 -0.1744  0.3741  0.5397
  352MPD2     H 5276   3.992   3.851   1.201 -2.1715  1.8341  0.0224
  352MPD2    H1 5277   4.286   3.916   1.517 -0.2235  0.3291  0.4444
  352MPD2    H2 5278   4.063   4.237   1.354 -0.0486  0.2065  2.5684
  352MPD2    H3 5279   4.235   4.135   1.513  2.1293 -2.4251  1.2779
  352MPD2     N 5280   4.157   3.719   1.376  0.2180 -0.1064  0.2814
  352MPD2    H5 5281   4.234   3.681   1.430  0.7673 -0.3827 -0.6984
  352MPD2    N1 5282   3.903   4.105   1.199 -0.2914  0.0021 -0.1525
  352MPD2    H7 5283   3.859   4.196   1.213  0.6640  0.4895 -0.3382
  353TMC3    C1 5284   4.148   3.493   1.314  0.4364  0.2669  0.0104
  353TMC3    C2 5285   4.285   3.487   1.332 -0.0399 -0.0573  0.2412
  353TMC3    C3 5286   4.339   3.365   1.320  0.4626 -0.1238  0.7125
  353TMC3    C4 5287   4.061   3.392   1.283  0.0913 -0.1219  1.0140
  353TMC3    C5 5288   4.118   3.265   1.289 -0.0168  0.0267 -0.3593
  353TMC3    C6 5289   4.257   3.251   1.302  0.0115 -0.9393  0.2011
  353TMC3     C 5290   4.084   3.631   1.306  0.2982 -0.3788 -0.0551
  353TMC3     O 5291   3.974   3.636   1.259 -0.3027 -0.3486 -0.1645
  353TMC3     H 5292   4.350   3.569   1.359 -0.9770  0.7591  0.0039
  353TMC3    H1 5293   3.955   3.408   1.267  0.7539  1.3460 -1.8629
  353TMC3    H2 5294   4.296   3.151   1.294 -0.3927 -1.1356  0.6756
  353TMC3    C7 5295   4.041   3.150   1.240  0.6336  0.2491  0.0542
  353TMC3    C8 5296   4.471   3.342   1.375  0.3370  0.3497  0.0233
  353TMC3    O1 5297   4.105   3.047   1.212 -0.3511 -0.4987 -0.5463
  353TMC3    O2 5298   4.536   3.445   1.411  0.3762 -0.3302  0.8910
  354TMC3    C1 5299   0.980   0.324  13.578 -0.0667  0.3417  0.6088
  354TMC3    C2 5300   0.969   0.433  13.508  0.0729  0.0602 -0.3549
  354TMC3    C3 5301   0.998   0.435  13.377 -0.1737  0.6297  0.5615
  354TMC3    C4 5302   1.009   0.210  13.520  0.5087  0.3657 -0.6571
  354TMC3    C5 5303   1.076   0.220  13.401 -0.1843 -0.1198 -0.2870
  354TMC3    C6 5304   1.047   0.326  13.321 -0.2362 -0.5486  0.3593
  354TMC3     C 5305   0.961   0.318  13.726  0.7744 -0.6539 -0.4915
  354TMC3     O 5306   0.976   0.423  13.783  0.3455  0.1881  0.0628
  354TMC3     H 5307   0.933   0.521  13.561 -1.8388 -1.7556  1.3807
  354TMC3    H1 5308   1.057   0.140  13.587 -1.9295  0.0658  0.7988
  354TMC3    H2 5309   1.092   0.329  13.222 -1.3976  4.0181 -0.0529
  354TMC3    C7 5310   1.156   0.104  13.362 -0.1678  0.3230 -1.4602
  354TMC3    C8 5311   1.011   0.558  13.296  0.1124 -0.4208  0.8711
  354TMC3    O1 5312   1.150   4.716  13.416  0.3380  0.8028  0.1427
  354TMC3    O2 5313   1.099   0.566  13.214  0.0844  0.4234  0.4514
  355MPD2     C 5314   1.079   1.170  11.837  0.3271  0.4769 -0.5547
  355MPD2    C1 5315   1.158   1.144  11.725  0.0748  0.2108 -0.0676
  355MPD2    C2 5316   1.297   1.129  11.739 -0.7673  0.2663 -0.3824
  355MPD2    C3 5317   1.356   1.163  11.859 -1.2392  0.3782 -0.2003
  355MPD2    C4 5318   1.276   1.204  11.968  0.9769  0.3192  0.3941
  355MPD2    C5 5319   1.136   1.195  11.957  0.0593 -0.2876  0.0333
  355MPD2     H 5320   1.366   1.109  11.659 -1.4423 -0.2815 -0.8286
  355MPD2    H1 5321   1.318   1.228  12.065  1.5904 -0.3156  0.2847
  355MPD2    H2 5322   0.971   1.175  11.840  0.3408 -1.0941  3.2237
  355MPD2    H3 5323   1.066   1.227  12.033 -0.7216 -0.7161 -0.5121
  355MPD2     N 5324   1.494   1.159  11.886  0.3395  0.2090  0.4150
  355MPD2    H5 5325   1.513   1.205  11.975  0.2257  0.1211  0.4853
  355MPD2    N1 5326   1.090   1.114  11.604  0.6399  0.0505 -0.3320
  355MPD2    H7 5327   0.993   1.085  11.615  0.4807  0.1628 -1.4445
  356TMC3    C1 5328   1.727   1.176  11.837  0.1720 -0.0309  0.4864
  356TMC3    C2 5329   1.779   1.247  11.733  0.0307 -0.0950  0.0380
  356TMC3    C3 5330   1.846   1.364  11.756  0.0104 -0.1931  0.4107
  356TMC3    C4 5331   1.753   1.209  11.974  0.3276  0.0267 -0.3464
  356TMC3    C5 5332   1.835   1.315  11.986  0.0566  0.2484 -0.2688
  356TMC3    C6 5333   1.881   1.398  11.886  0.3533 -0.2376  0.0244
  356TMC3     C 5334   1.598   1.112  11.805 -0.9124  0.3114 -0.0658
  356TMC3     O 5335   1.589   1.054  11.699  0.5188  0.3165  0.1880
  356TMC3     H 5336   1.740   1.225  11.634 -0.7967 -0.4847  0.4495
  356TMC3    H1 5337   1.722   1.161  12.066 -1.1207  1.2210 -0.2034
  356TMC3    H2 5338   1.915   1.500  11.902  0.8142 -0.0490 -2.1463
  356TMC3    C7 5339   1.815   1.380  12.116 -0.1798  0.7433 -0.1650
  356TMC3    C8 5340   1.912   1.416  11.637  0.6068 -0.1004 -1.0514
  356TMC3    O1 5341   1.710   1.352  12.174 -0.0334 -0.9492  1.0882
  356TMC3    O2 5342   1.862   1.382  11.531  0.2150 -0.0776 -0.8594
  357MPD2     C 5343   1.012   0.939   1.250 -0.4307  0.3182 -0.3123
  357MPD2    C1 5344   1.077   0.947   1.369  0.2558  0.1057 -0.0649
  357MPD2    C2 5345   1.081   1.067   1.442  0.8373  0.6979 -0.3544
  357MPD2    C3 5346   1.010   1.179   1.395 -0.2172 -0.3200  0.5977
  357MPD2    C4 5347   0.964   1.171   1.267  0.6367 -0.2801 -0.3607
  357MPD2    C5 5348   0.961   1.050   1.201  0.6491 -0.4414 -0.0913
  357MPD2     H 5349   1.140   1.068   1.533 -1.6085 -1.4891  1.2308
  357MPD2    H1 5350   0.910   1.253   1.221  0.0235 -0.6035 -0.2143
  357MPD2    H2 5351   1.019   0.847   1.193 -0.6294  1.7862 -2.6996
  357MPD2    H3 5352   0.908   1.046   1.107 -1.7821  0.0645  1.2703
  357MPD2     N 5353   0.974   1.300   1.463  0.1561  0.0989  0.5286
  357MPD2    H5 5354   0.926   1.370   1.407 -0.5659  0.0308  1.0716
  357MPD2    N1 5355   1.147   0.829   1.404  0.0704  0.0462 -0.2741
  357MPD2    H7 5356   1.136   0.754   1.336 -1.3333  0.0227 -0.0266
  358TMC3    C1 5357   1.257   0.655   1.525  0.1658  0.6459 -0.2756
  358TMC3    C2 5358   1.183   0.564   1.465  0.2095 -1.2729 -0.7156
  358TMC3    C3 5359   1.224   0.436   1.484  0.0068 -0.3027 -1.0914
  358TMC3    C4 5360   1.373   0.633   1.602 -0.8723 -0.4277  0.1155
  358TMC3    C5 5361   1.407   0.508   1.615 -0.0000 -0.1913 -0.2392
  358TMC3    C6 5362   1.334   0.403   1.560  0.3146  0.3930 -0.0392
  358TMC3     C 5363   1.203   0.791   1.526 -0.0001 -0.7093  0.3137
  358TMC3     O 5364   1.220   0.858   1.626  0.4238 -0.2685 -0.2396
  358TMC3     H 5365   1.094   0.595   1.411  1.3948  0.7104 -1.5773
  358TMC3    H1 5366   1.420   0.712   1.659 -1.4929 -0.1467  0.2398
  358TMC3    H2 5367   1.376   0.304   1.550  0.6467  0.6947 -1.6693
  358TMC3    C7 5368   1.534   0.474   1.676  0.7057 -0.4467 -0.1983
  358TMC3    C8 5369   1.192   0.347   1.371  0.1122  0.1098 -0.5422
  358TMC3    O1 5370   1.550   0.356   1.707  0.2563 -0.3662 -0.2307
  358TMC3    O2 5371   1.144   0.407   1.279 -0.1505 -0.3430  0.1616
  359MPD2     C 5372   1.934   4.442  13.116 -0.1806  0.0451 -0.0036
  359MPD2    C1 5373   1.910   4.369  13.000  0.0033  0.3403  0.1119
  359MPD2    C2 5374   1.788   4.309  12.975 -0.3653  0.4008 -0.8800
  359MPD2    C3 5375   1.694   4.313  13.071 -0.0488 -0.0890 -0.0913
  359MPD2    C4 5376   1.721   4.370  13.193 -0.4106  0.0968 -0.4741
  359MPD2    C5 5377   1.838   4.437  13.209  0.3726  0.9438 -0.2265
  359MPD2     H 5378   1.786   4.258  12.880  1.9375 -0.2823 -0.5545
  359MPD2    H1 5379   1.647   4.360  13.272  0.2177  0.0432  0.1110
  359MPD2    H2 5380   2.021   4.505  13.132 -0.7529  1.0699 -0.9591
  359MPD2    H3 5381   1.860   4.489  13.301  1.3002 -2.5973  1.5874
  359MPD2     N 5382   1.574   4.239  13.054 -0.3211 -0.1443  0.1191
  359MPD2    H5 5383   1.521   4.241  13.140  1.2871 -0.3728  1.1107
  359MPD2    N1 5384   2.002   4.349  12.896  0.8045 -0.8496  0.7876
  359MPD2    H7 5385   1.962   4.303  12.815 -0.2010  0.5535  0.4845
  360TMC3    C1 5386   2.183   4.323  12.763  0.4544 -0.8504  0.6071
  360TMC3    C2 5387   2.278   4.398  12.705 -0.2138  0.2529  0.0793
  360TMC3    C3 5388   2.309   4.354  12.578  0.3229  0.6031  0.1824
  360TMC3    C4 5389   2.106   4.227  12.707  0.6426  0.3301 -0.7069
  360TMC3    C5 5390   2.139   4.196  12.576  0.6201 -0.5377  0.1281
  360TMC3    C6 5391   2.243   4.257  12.505 -0.4983  1.0576  0.0087
  360TMC3     C 5392   2.139   4.379  12.888 -0.3734  0.1743 -0.2260
  360TMC3     O 5393   2.208   4.448  12.965  0.2267 -0.1692 -0.2676
  360TMC3     H 5394   2.344   4.464  12.761  3.6383 -3.6831  0.1554
  360TMC3    H1 5395   2.029   4.171  12.759  0.1141  0.7212 -1.0673
  360TMC3    H2 5396   2.265   4.227  12.403  1.5010  0.6165  0.5737
  360TMC3    C7 5397   2.035   4.124  12.497  0.1705  0.3284  0.0792
  360TMC3    C8 5398   2.428   4.405  12.521 -0.4090  0.1718 -0.0837
  360TMC3    O1 5399   2.067   4.113  12.376 -0.5171  0.6015  0.5318
  360TMC3    O2 5400   2.452   4.523  12.545  0.2034  0.1775 -0.3062
  361MPD2     C 5401   3.230   3.805  17.571 -0.7219  0.9870 -0.5278
  361MPD2    C1 5402   3.163   3.703  17.508 -0.0102  0.0365  0.3604
  361MPD2    C2 5403   3.238   3.590  17.490  0.4612  0.0789  0.1514
  361MPD2    C3 5404   3.372   3.571  17.534  0.2982  1.0617 -0.4688
  361MPD2    C4 5405   3.435   3.683  17.588 -0.1642 -0.3720  0.2583
  361MPD2    C5 5406   3.363   3.798  17.604 -0.5218 -0.3110 -0.0189
  361MPD2     H 5407   3.179   3.507  17.453 -1.7243  1.9839 -0.6736
  361MPD2    H1 5408   3.537   3.687  17.623 -0.6354 -0.9675  1.7145
  361MPD2    H2 5409   3.181   3.899  17.593 -0.4334  0.9155  0.4076
  361MPD2    H3 5410   3.411   3.883  17.650 -2.9042  0.6014  0.7896
  361MPD2     N 5411   3.442   3.445  17.516 -0.1870  0.0118  0.3022
  361MPD2    H5 5412   3.537   3.444  17.551 -0.0604 -0.5537 -0.0712
  361MPD2    N1 5413   3.026   3.705  17.477 -0.6991  0.2714 -0.3812
  361MPD2    H7 5414   2.986   3.642  17.409 -2.2525  0.3160  0.4885
  362TMC3    C1 5415   2.809   3.785  17.455 -0.6499  0.1205 -0.2807
  362TMC3    C2 5416   2.700   3.772  17.535  0.0519  0.3554  0.5623
  362TMC3    C3 5417   2.582   3.738  17.469 -0.9336 -0.0723 -0.0035
  362TMC3    C4 5418   2.810   3.763  17.323 -0.0466  0.6306  0.0777
  362TMC3    C5 5419   2.690   3.723  17.270  0.2193 -0.3706  0.3209
  362TMC3    C6 5420   2.572   3.708  17.336 -0.0248  0.1900  0.0299
  362TMC3     C 5421   2.937   3.806  17.519 -1.3094  0.0750  0.2048
  362TMC3     O 5422   2.943   3.879  17.616 -0.5587  0.3739 -0.0941
  362TMC3     H 5423   2.697   3.784  17.643  1.6754  0.1355  0.6291
  362TMC3    H1 5424   2.894   3.789  17.259  0.9721 -3.1248 -0.1171
  362TMC3    H2 5425   2.476   3.672  17.300  0.0155  0.0772  0.0359
  362TMC3    C7 5426   2.664   3.776  17.139  0.0394 -0.2594  0.3235
  362TMC3    C8 5427   2.453   3.746  17.545 -0.3569  0.2802 -0.0110
  362TMC3    O1 5428   2.734   3.864  17.091  0.5134 -0.2622 -0.0241
  362TMC3    O2 5429   2.371   3.659  17.510 -0.0413  0.0010  0.1014
  363TMC3    C1 5430   2.646   0.657  10.253 -0.3737 -0.1644  0.6538
  363TMC3    C2 5431   2.611   0.536  10.307  0.8023  0.3050 -0.1946
  363TMC3    C3 5432   2.480   0.502  10.301 -0.5469  0.7349  0.0712
  363TMC3    C4 5433   2.560   0.741  10.186  0.4091  0.1281  0.7112
  363TMC3    C5 5434   2.422   0.713  10.203  0.1924 -0.0506 -0.5693
  363TMC3    C6 5435   2.381   0.587  10.258 -0.3933 -0.6073 -0.1309
  363TMC3     C 5436   2.793   0.677  10.239 -0.8639  0.3225 -0.1920
  363TMC3     O 5437   2.853   0.612  10.322  0.9681  0.3655 -0.0497
  363TMC3     H 5438   2.675   0.468  10.363  0.8367 -0.3766 -1.0742
  363TMC3    H1 5439   2.590   0.837  10.148  2.5117  0.1043  2.3193
  363TMC3    H2 5440   2.278   0.555  10.268 -0.8450  0.4260 -1.4923
  363TMC3    C7 5441   2.329   0.818  10.173  0.8153 -0.0329 -0.8413
  363TMC3    C8 5442   2.441   0.368  10.340 -0.1197 -0.7535 -0.3127
  363TMC3    O1 5443   2.380   0.924  10.144  0.3553 -0.2974 -0.1557
  363TMC3    O2 5444   2.327   0.348  10.373 -0.3675  0.4807 -0.2578
  364MPD2     C 5445   0.433   4.687  10.553 -0.4590  0.5050 -0.1579
  364MPD2    C1 5446   0.572   4.697  10.569 -0.5243  0.5212 -0.5067
  364MPD2    C2 5447   0.627   4.607  10.656 -0.2356  0.2568 -0.2358
  364MPD2    C3 5448   0.556   4.509  10.715  0.3733  0.2324 -0.4683
  364MPD2    C4 5449   0.419   4.501  10.693 -0.1490 -0.4108  0.6237
  364MPD2    C5 5450   0.357   4.590  10.618  0.5234  0.0940  0.9887
  364MPD2     H 5451   0.733   4.621  10.674 -0.1793 -0.5442  0.0334
  364MPD2    H1 5452   0.354   4.426  10.735  0.4329 -1.2138  0.0875
  364MPD2    H2 5453   0.374   0.035  10.497 -1.2361  0.7223  0.9527
  364MPD2    H3 5454   0.250   4.597  10.603  0.4664  0.6035  1.6153
  364MPD2     N 5455   0.604   4.411  10.805  0.1246  0.1199 -0.1858
  364MPD2    H5 5456   0.535   4.374  10.870 -0.0717 -1.9951 -1.6245
  364MPD2    N1 5457   0.658   0.075  10.521  0.3080  0.2381  0.2201
  364MPD2    H7 5458   0.753   0.077  10.559  0.2837  2.3993  0.1749
  365TMC3    C1 5459   0.734   0.275  10.418 -0.0106 -0.0311 -0.2466
  365TMC3    C2 5460   0.858   0.220  10.393 -0.5295 -0.4142 -0.4665
  365TMC3    C3 5461   0.960   0.304  10.362  0.2727 -0.7096 -0.1331
  365TMC3    C4 5462   0.705   0.410  10.412 -0.2266  0.3992 -0.1177
  365TMC3    C5 5463   0.811   0.489  10.376 -0.3882 -0.5686  0.0073
  365TMC3    C6 5464   0.934   0.433  10.364  0.0817 -0.6460 -0.0562
  365TMC3     C 5465   0.618   0.187  10.458  0.6868  0.0155 -0.7085
  365TMC3     O 5466   0.501   0.225  10.462  0.0310  0.3192 -0.1435
  365TMC3     H 5467   0.870   0.113  10.406 -1.1551 -0.2525  1.5287
  365TMC3    H1 5468   0.603   0.444  10.408 -0.6654 -0.7722  1.1363
  365TMC3    H2 5469   1.016   0.501  10.342  0.8225 -0.4989  3.1968
  365TMC3    C7 5470   0.807   0.618  10.437 -0.0339 -0.0480  0.3759
  365TMC3    C8 5471   1.096   0.258  10.371  0.2023  0.4746  0.2301
  365TMC3    O1 5472   0.894   0.694  10.412 -0.3498 -0.1689 -0.0758
  365TMC3    O2 5473   1.184   0.334  10.402 -0.1854  0.3249 -0.2307
  366MPD2     C 5474   3.228   2.594  15.159 -0.1889  0.2167 -0.0856
  366MPD2    C1 5475   3.281   2.562  15.283  0.5964  0.4630  0.3622
  366MPD2    C2 5476   3.337   2.435  15.295 -0.1129 -0.0665 -0.6238
  366MPD2    C3 5477   3.351   2.342  15.190  1.2549  1.0593  0.3145
  366MPD2    C4 5478   3.310   2.386  15.068  0.3480  0.1679  0.2076
  366MPD2    C5 5479   3.243   2.506  15.054 -0.7020  0.4687  0.3762
  366MPD2     H 5480   3.375   2.406  15.393  0.0356  1.2540 -0.3017
  366MPD2    H1 5481   3.328   2.330  14.977  1.5719  1.0326 -0.0803
  366MPD2    H2 5482   3.171   2.685  15.142 -0.8283 -0.1207  0.2349
  366MPD2    H3 5483   3.209   2.543  14.958 -0.6157 -0.5023 -0.0281
  366MPD2     N 5484   3.404   2.210  15.197  0.1030  0.3752  0.1932
  366MPD2    H5 5485   3.429   2.168  15.108  1.4499  1.1642  0.1988
  366MPD2    N1 5486   3.280   2.647  15.395 -0.4730  0.6323 -0.2977
  366MPD2    H7 5487   3.327   2.626  15.482 -1.5661  0.2291  0.1908
  367TMC3    C1 5488   3.211   2.831  15.522  0.1983 -0.3145  0.2923
  367TMC3    C2 5489   3.322   2.827  15.598 -0.1930  0.5264  0.6345
  367TMC3    C3 5490   3.315   2.850  15.734 -0.0184  0.3804  0.8460
  367TMC3    C4 5491   3.092   2.840  15.577  0.4945  0.0036  1.2189
  367TMC3    C5 5492   3.085   2.877  15.713  0.3526 -0.1114  0.0122
  367TMC3    C6 5493   3.196   2.876  15.789  0.2138 -0.3393 -0.2392
  367TMC3     C 5494   3.209   2.764  15.393  0.3455 -0.2542 -0.2088
  367TMC3     O 5495   3.123   2.808  15.315 -0.5077  0.4934  0.0218
  367TMC3     H 5496   3.420   2.810  15.555  0.1119 -1.1890  2.0129
  367TMC3    H1 5497   3.005   2.838  15.513  1.0626 -1.5020  0.5012
  367TMC3    H2 5498   3.187   2.883  15.897 -0.5315 -1.2097 -0.2459
  367TMC3    C7 5499   2.955   2.848  15.783 -0.7736 -0.6904 -0.2356
  367TMC3    C8 5500   3.436   2.811  15.811  0.1971  0.7180  0.6740
  367TMC3    O1 5501   2.943   2.774  15.883 -0.8200 -0.2928  0.3935
  367TMC3    O2 5502   3.529   2.748  15.761  0.7036  0.3013  0.5599
  368MPD2     C 5503   0.383   3.144  13.830 -0.0713  0.1093 -0.4824
  368MPD2    C1 5504   0.400   3.181  13.701 -0.1849  0.0987  0.5074
  368MPD2    C2 5505   0.533   3.194  13.650  0.4860 -0.6864  0.2058
  368MPD2    C3 5506   0.642   3.177  13.731  0.6816  0.2483 -0.4187
  368MPD2    C4 5507   0.624   3.137  13.858  0.7326  0.6373 -0.3330
  368MPD2    C5 5508   0.495   3.120  13.902 -0.8695  0.1334 -0.4000
  368MPD2     H 5509   0.547   3.222  13.546 -0.5705 -0.0680  0.2330
  368MPD2    H1 5510   0.701   3.121  13.933  2.1629  0.6086 -1.7792
  368MPD2    H2 5511   0.283   3.126  13.868  0.0571 -0.0824 -0.2446
  368MPD2    H3 5512   0.485   3.094  14.007 -0.0386  1.8133  0.0982
  368MPD2     N 5513   0.771   3.188  13.671 -0.2094  0.5332 -1.0665
  368MPD2    H5 5514   0.772   3.211  13.573 -1.8088  0.8048 -1.0160
  368MPD2    N1 5515   0.280   3.201  13.625 -0.7709 -0.5332 -0.2528
  368MPD2    H7 5516   0.199   3.155  13.665 -1.1631  0.0779 -0.3461
  369TMC3    C1 5517   0.142   3.288  13.461  0.7041 -0.0873 -0.3733
  369TMC3    C2 5518   0.127   3.385  13.364  0.7850 -0.1018  0.4332
  369TMC3    C3 5519   4.721   3.410  13.330 -0.2028  0.6269  0.3687
  369TMC3    C4 5520   0.041   3.209  13.518 -1.2003  0.3651  0.6229
  369TMC3    C5 5521   4.640   3.244  13.473  0.3771  0.4292  0.3101
  369TMC3    C6 5522   4.614   3.343  13.386  0.4994  0.4505  0.2990
  369TMC3     C 5523   0.278   3.270  13.510  0.0739  0.3588  0.0742
  369TMC3     O 5524   0.370   3.337  13.461  0.1739  0.0855 -0.7855
  369TMC3     H 5525   0.200   3.464  13.358 -0.0135  0.5001 -1.2404
  369TMC3    H1 5526   0.052   3.134  13.596 -2.2358 -1.9663 -1.4786
  369TMC3    H2 5527   4.511   3.361  13.357  0.2380  1.7214  2.0279
  369TMC3    C7 5528   4.530   3.203  13.559  0.5791  0.3394  0.2478
  369TMC3    C8 5529   4.695   3.527  13.240 -0.0844  0.4087  0.0711
  369TMC3    O1 5530   4.562   3.186  13.677  0.1884 -0.1949  0.4037
  369TMC3    O2 5531   4.581   3.566  13.237 -0.2096  0.2114  0.3484
  370TMC3    C1 5532   4.567   4.403  16.559  0.7327  0.2282  0.2315
  370TMC3    C2 5533   4.571   4.340  16.683 -0.6366  0.2534 -0.1737
  370TMC3    C3 5534   4.627   4.218  16.686 -0.4598 -0.4900  0.3592
  370TMC3    C4 5535   4.604   4.344  16.442  0.2214  0.5843 -0.7008
  370TMC3    C5 5536   4.648   4.216  16.443 -0.1268  0.6427 -0.7907
  370TMC3    C6 5537   4.662   4.160  16.564  0.3013 -0.2841 -0.3999
  370TMC3     C 5538   4.463   4.501  16.545  0.0132 -0.2325 -0.7116
  370TMC3     O 5539   4.363   4.477  16.606 -0.1634 -0.0797  0.3326
  370TMC3     H 5540   4.553   4.398  16.773 -0.8036  1.8756 -1.2374
  370TMC3    H1 5541   4.590   4.392  16.346 -1.1586 -0.4161 -1.0008
  370TMC3    H2 5542   4.697   4.058  16.557  1.2394  0.1604 -2.2720
  370TMC3    C7 5543   4.703   4.144  16.327  0.0873 -1.0551 -0.8191
  370TMC3    C8 5544   4.601   4.129  16.788 -0.4438 -0.2670 -0.4432
  370TMC3    O1 5545   0.063   4.064  16.366  0.3766  0.5989  0.4591
  370TMC3    O2 5546   4.559   4.021  16.751  0.3497  0.3590 -0.2835
  371TMC3    C1 5547   0.842   2.590  15.481 -0.4118  0.5922 -0.2079
  371TMC3    C2 5548   0.721   2.640  15.531 -0.4033  0.3215 -0.0502
  371TMC3    C3 5549   0.695   2.770  15.506  0.2210  0.5578  0.0002
  371TMC3    C4 5550   0.932   2.660  15.416 -0.3379 -0.2738  0.3069
  371TMC3    C5 5551   0.896   2.790  15.391  0.1863  0.4014 -0.2184
  371TMC3    C6 5552   0.781   2.846  15.438  0.4932 -0.4652  0.2864
  371TMC3     C 5553   0.830   2.454  15.443  0.4206 -0.4010 -0.0805
  371TMC3     O 5554   0.855   2.429  15.326 -0.1595  0.1635 -0.0705
  371TMC3     H 5555   0.648   2.578  15.583 -1.8737 -0.4022 -3.0008
  371TMC3    H1 5556   1.017   2.609  15.371 -0.8520  0.5059 -1.5669
  371TMC3    H2 5557   0.760   2.950  15.417 -1.7049 -0.8704  0.4532
  371TMC3    C7 5558   0.996   2.883  15.354  0.5646 -0.5587  0.0067
  371TMC3    C8 5559   0.568   2.834  15.539 -0.6661 -0.6933  0.2978
  371TMC3    O1 5560   0.958   2.990  15.321  0.3057  0.6229  0.2947
  371TMC3    O2 5561   0.526   2.819  15.653  0.1459 -0.4287  0.1311
  372MPD2     C 5562   4.563   3.703  13.587 -1.0301 -0.8805 -0.0375
  372MPD2    C1 5563   4.698   3.678  13.628  0.2724  0.3728  0.2789
  372MPD2    C2 5564   4.717   3.576  13.722 -1.1609  0.0117  0.2740
  372MPD2    C3 5565   4.612   3.507  13.781 -0.3180  0.1161  0.9702
  372MPD2    C4 5566   4.483   3.538  13.747  0.5337 -0.5667  0.5855
  372MPD2    C5 5567   4.464   3.632  13.645 -0.1551 -0.0204  0.0054
  372MPD2     H 5568   0.093   3.547  13.750 -0.3332  0.6294 -2.0556
  372MPD2    H1 5569   4.391   3.494  13.781 -0.7849  1.7287  0.0253
  372MPD2    H2 5570   4.539   3.763  13.500  0.8283  0.0999  0.1232
  372MPD2    H3 5571   4.358   3.646  13.627 -0.2434 -1.2941 -0.4080
  372MPD2     N 5572   4.642   3.416  13.884  0.0970  0.4644  0.1149
  372MPD2    H5 5573   0.014   3.410  13.914 -0.3314  2.0414  1.8128
  372MPD2    N1 5574   0.079   3.750  13.571 -0.1500 -0.0572 -0.5051
  372MPD2    H7 5575   0.171   3.726  13.607 -0.1818  1.0431  0.3088
  373TMC3    C1 5576   4.617   3.242  14.043 -0.9920 -0.8047  0.4854
  373TMC3    C2 5577   4.558   3.199  14.155 -0.9253  0.5677 -0.4194
  373TMC3    C3 5578   4.604   3.079  14.209  0.3559 -0.3447  0.1843
  373TMC3    C4 5579   4.718   3.172  13.986  0.4302 -0.1417  0.2270
  373TMC3    C5 5580   0.034   3.055  14.041 -0.5417 -0.3628 -0.0655
  373TMC3    C6 5581   4.695   3.000  14.153  0.3572  0.5949 -0.0021
  373TMC3     C 5582   4.550   3.341  13.954  0.4637  0.4514  0.5274
  373TMC3     O 5583   4.427   3.338  13.948  0.1844  0.4996 -0.0703
  373TMC3     H 5584   4.490   3.262  14.211 -1.1139 -0.0197  0.0012
  373TMC3    H1 5585   0.035   3.206  13.892 -1.3599  2.7507  0.4810
  373TMC3    H2 5586   0.014   2.916  14.205  0.1866 -0.3783 -1.4455
  373TMC3    C7 5587   0.109   2.964  13.953 -0.7309 -0.3670  0.9441
  373TMC3    C8 5588   4.632   3.078  14.348 -0.1166  0.1301 -0.2944
  373TMC3    O1 5589   0.092   2.952  13.833  0.2675 -0.1187 -0.3921
  373TMC3    O2 5590   4.624   2.976  14.415  0.6075 -0.4766 -0.1590
  374TMC3    C1 5591   1.090   2.916  10.311 -0.2593 -0.7095 -0.1396
  374TMC3    C2 5592   1.216   2.942  10.361  0.8655 -0.1503 -0.5537
  374TMC3    C3 5593   1.314   2.958  10.274  0.0953 -0.0730 -0.2404
  374TMC3    C4 5594   1.060   2.919  10.175  0.1970  0.2908  0.5281
  374TMC3    C5 5595   1.160   2.953  10.098  0.0567 -0.6268 -0.1990
  374TMC3    C6 5596   1.288   2.968  10.138  0.4603  0.0132  0.1069
  374TMC3     C 5597   0.985   2.931  10.410  0.3037  0.6014  0.7575
  374TMC3     O 5598   1.020   2.929  10.524  0.5018  0.2020  0.1123
  374TMC3     H 5599   1.246   2.938  10.465 -1.8067 -0.0412  0.2200
  374TMC3    H1 5600   0.957   2.899  10.147  0.9286 -0.0702 -1.8242
  374TMC3    H2 5601   1.370   2.996  10.071  2.5073 -0.5886  2.3664
  374TMC3    C7 5602   1.123   2.961   9.961 -0.4196  0.2513  0.9478
  374TMC3    C8 5603   1.440   2.996  10.330  0.1616  0.3465 -0.0976
  374TMC3    O1 5604   1.054   2.871   9.917 -0.0632 -0.1568  0.0053
  374TMC3    O2 5605   1.543   2.954  10.278 -0.3661  0.8652  0.5045
  375MPD2     C 5606   1.233   4.068  17.546  0.1343 -0.7537  0.0713
  375MPD2    C1 5607   1.148   4.124  17.450 -0.1424  0.2147 -0.3675
  375MPD2    C2 5608   1.196   4.170  17.336  0.3238 -0.0684 -0.3063
  375MPD2    C3 5609   1.326   4.153  17.307 -0.3108 -0.2281 -0.0814
  375MPD2    C4 5610   1.421   4.120  17.398 -0.6382 -0.0541 -0.4082
  375MPD2    C5 5611   1.369   4.072  17.518  0.0089  0.0487  0.4739
  375MPD2     H 5612   1.130   4.214  17.262  0.2732  0.7026  0.2057
  375MPD2    H1 5613   1.524   4.099  17.371  0.0749  2.8713  0.0658
  375MPD2    H2 5614   1.199   4.024  17.639  0.1375  1.5166  1.1477
  375MPD2    H3 5615   1.440   4.037  17.591  0.9339 -2.7644 -1.7933
  375MPD2     N 5616   1.381   4.170  17.179  0.3077  0.0230  0.5895
  375MPD2    H5 5617   1.482   4.173  17.172  0.5710 -5.6284  2.0564
  375MPD2    N1 5618   1.008   4.135  17.473  0.2434  0.0119  0.1502
  375MPD2    H7 5619   0.951   4.183  17.404 -1.4188  1.5004  2.5372
  376TMC3    C1 5620   1.391   4.259  16.960  0.5056 -0.4940  0.2170
  376TMC3    C2 5621   1.505   4.330  16.987  0.0407  0.2331  0.0368
  376TMC3    C3 5622   1.547   4.418  16.898  0.3147 -0.9911 -0.1960
  376TMC3    C4 5623   1.322   4.280  16.847  0.2852  0.7092 -0.8891
  376TMC3    C5 5624   1.365   4.372  16.759  0.4215  0.5265  0.9867
  376TMC3    C6 5625   1.482   4.443  16.775 -0.6175 -0.0998  0.0891
  376TMC3     C 5626   1.308   4.199  17.065 -0.5444 -0.0491  0.1655
  376TMC3     O 5627   1.186   4.188  17.045  0.2560 -0.3900 -0.2930
  376TMC3     H 5628   1.551   4.314  17.084 -0.4255 -1.8560 -0.0858
  376TMC3    H1 5629   1.235   4.219  16.823  1.0195 -0.1796 -1.3156
  376TMC3    H2 5630   1.501   4.535  16.720  1.7257 -0.3841  0.4227
  376TMC3    C7 5631   1.322   4.398  16.621  0.2031 -0.1319 -0.5001
  376TMC3    C8 5632   1.672   4.495  16.913 -0.2792  0.2876 -0.1796
  376TMC3    O1 5633   1.307   4.514  16.588  0.1241  0.0761  0.0419
  376TMC3    O2 5634   1.687   4.588  16.831  0.5953 -0.6980  0.4073
  377MPD2     C 5635   3.803   3.873  12.325 -0.4030 -0.6696  0.4135
  377MPD2    C1 5636   3.877   3.912  12.427 -0.2107  0.5189 -0.5236
  377MPD2    C2 5637   3.834   3.902  12.561 -0.5553 -0.1837 -0.9537
  377MPD2    C3 5638   3.707   3.846  12.577  0.3339  0.7315  0.2255
  377MPD2    C4 5639   3.635   3.807  12.473  0.7965  0.0308  0.0709
  377MPD2    C5 5640   3.679   3.828  12.342 -0.0226  0.2004 -0.4303
  377MPD2     H 5641   3.889   3.928  12.651 -1.2742  0.7825 -0.7959
  377MPD2    H1 5642   3.536   3.770  12.494 -0.4289  1.5813 -3.0344
  377MPD2    H2 5643   3.841   3.894  12.226 -1.0425  0.9445  0.5087
  377MPD2    H3 5644   3.614   3.819  12.256  2.3224 -1.2116 -2.0283
  377MPD2     N 5645   3.655   3.810  12.705 -0.2979 -0.1492 -0.4395
  377MPD2    H5 5646   3.577   3.748  12.688  0.2232 -1.6181  2.7001
  377MPD2    N1 5647   4.008   3.943  12.385 -0.2509 -0.2502 -0.1504
  377MPD2    H7 5648   4.037   3.916  12.291  0.2344  1.3753 -0.4577
  378TMC3    C1 5649   4.362   3.950  12.204  0.3694 -1.4888 -0.4136
  378TMC3    C2 5650   4.234   3.965  12.261  0.0380  0.5322  0.2260
  378TMC3    C3 5651   4.231   4.002  12.392  0.4279  0.5920 -0.5543
  378TMC3    C4 5652   4.481   3.967  12.278  1.0906 -0.5869  0.8663
  378TMC3    C5 5653   4.470   4.019  12.402  0.5719 -0.1733  0.2421
  378TMC3    C6 5654   4.349   4.025  12.466 -0.4749 -0.2871 -0.2291
  378TMC3     C 5655   4.367   3.914  12.061  0.4955 -0.5875  0.3014
  378TMC3     O 5656   4.260   3.922  12.001 -0.3640 -0.3167  0.4218
  378TMC3     H 5657   4.147   3.939  12.203 -0.4795  2.0408  0.3042
  378TMC3    H1 5658   4.572   3.975  12.221  1.2875  1.5295  1.4996
  378TMC3    H2 5659   4.347   4.060  12.568 -0.4219 -1.4103  0.1548
  378TMC3    C7 5660   4.589   4.018  12.491  0.7669  0.1128  0.0935
  378TMC3    C8 5661   4.101   4.011  12.463  0.4419  0.5884  0.2072
  378TMC3    O1 5662   4.561   4.018  12.609  0.1411  0.7849  0.2713
  378TMC3    O2 5663   4.097   4.052  12.579  0.1979  0.6291 -0.0922
  379MPD2     C 5664   4.576   2.224  15.991  0.4673  0.7687 -0.1220
  379MPD2    C1 5665   4.490   2.189  16.084 -0.1279 -0.0659  0.4283
  379MPD2    C2 5666   4.526   2.109  16.188 -0.7423  1.0048  0.1404
  379MPD2    C3 5667   4.647   2.049  16.187 -0.2762 -0.6759  0.9836
  379MPD2    C4 5668   0.006   2.072  16.084  0.8546  0.8693  0.1046
  379MPD2    C5 5669   4.696   2.157  15.979 -1.4541 -0.6215 -0.4903
  379MPD2     H 5670   4.465   2.093  16.275 -0.9531  0.2220 -0.1523
  379MPD2    H1 5671   0.099   2.018  16.072  1.0305  1.8868 -3.0530
  379MPD2    H2 5672   4.553   2.293  15.911 -3.5684 -0.3062  0.1150
  379MPD2    H3 5673   0.038   2.171  15.895 -1.6320  0.8618 -0.3807
  379MPD2     N 5674   4.695   1.960  16.279  0.4277 -0.7851 -0.2384
  379MPD2    H5 5675   0.072   1.949  16.287  0.6359  1.1512 -0.0699
  379MPD2    N1 5676   4.359   2.238  16.067  0.8585 -0.2842 -0.5145
  379MPD2    H7 5677   4.327   2.271  15.977  1.8249  1.1579 -0.3330
  380TMC3    C1 5678   4.128   2.296  16.121 -0.0788 -0.7472  0.3117
  380TMC3    C2 5679   4.084   2.240  16.004  0.5157  0.2592  0.4206
  380TMC3    C3 5680   3.954   2.274  15.963  0.3265 -0.2556 -0.6612
  380TMC3    C4 5681   4.053   2.377  16.201 -0.1857  0.2250  0.1003
  380TMC3    C5 5682   3.935   2.410  16.149 -0.0167 -0.0879  0.2764
  380TMC3    C6 5683   3.879   2.368  16.027 -0.5228 -0.6419  0.1856
  380TMC3     C 5684   4.266   2.267  16.166 -0.2014  0.0223  0.3553
  380TMC3     O 5685   4.283   2.259  16.289 -0.2425  0.6558 -0.4003
  380TMC3     H 5686   4.160   2.192  15.944  0.4307 -0.0694  0.5781
  380TMC3    H1 5687   4.084   2.409  16.300  2.1941  1.7240 -1.1235
  380TMC3    H2 5688   3.773   2.384  16.012 -0.6596  0.7325  2.4666
  380TMC3    C7 5689   3.872   2.528  16.208  0.6974 -0.0547 -0.3748
  380TMC3    C8 5690   3.922   2.258  15.820  0.1335  1.1976  0.2804
  380TMC3    O1 5691   3.930   2.587  16.298  0.6575 -0.2451 -0.5789
  380TMC3    O2 5692   3.858   2.348  15.764  0.3345 -0.3243  0.2945
  381TMC3    C1 5693   4.332   3.264  16.036  0.8385  0.1357 -0.4230
  381TMC3    C2 5694   4.402   3.376  16.075  0.1754  0.1173  0.0036
  381TMC3    C3 5695   4.412   3.408  16.207 -0.5420  0.4240 -0.0519
  381TMC3    C4 5696   4.270   3.180  16.133 -0.0194 -0.0120 -0.5819
  381TMC3    C5 5697   4.281   3.220  16.262  0.7383 -0.4083 -0.7317
  381TMC3    C6 5698   4.364   3.324  16.298  0.3550  0.6488 -0.1348
  381TMC3     C 5699   4.261   3.270  15.911  0.5412 -0.8332  0.6785
  381TMC3     O 5700   4.229   3.379  15.865  0.0114 -0.0157 -0.5729
  381TMC3     H 5701   4.444   3.436  15.996  0.2408 -0.6182 -0.5219
  381TMC3    H1 5702   4.197   3.107  16.099 -0.7903  0.9649 -1.0010
  381TMC3    H2 5703   4.390   3.335  16.403  0.7418  0.8255 -0.2513
  381TMC3    C7 5704   4.201   3.159  16.365 -0.4121 -0.3463  0.0439
  381TMC3    C8 5705   4.518   3.494  16.246 -0.2629  0.1233  0.0788
  381TMC3    O1 5706   4.184   3.037  16.356 -0.4527  0.2898 -0.5443
  381TMC3    O2 5707   4.621   3.489  16.183 -0.1720 -0.6091  0.0123
  382MPD2     C 5708   3.346   1.467  17.191  0.1016  0.5151 -0.2733
  382MPD2    C1 5709   3.300   1.502  17.322  0.0297  0.1201 -0.0018
  382MPD2    C2 5710   3.287   1.403  17.419 -0.0531 -0.6591 -0.1470
  382MPD2    C3 5711   3.336   1.278  17.392 -0.5887 -0.0890 -0.2055
  382MPD2    C4 5712   3.385   1.245  17.273 -0.0458 -0.1570 -0.2957
  382MPD2    C5 5713   3.385   1.334  17.172 -0.1646  1.0766  0.3164
  382MPD2     H 5714   3.261   1.445  17.515  0.6999 -0.3320 -0.0836
  382MPD2    H1 5715   3.426   1.147  17.250  0.1307 -0.0516 -0.4268
  382MPD2    H2 5716   3.366   1.539  17.113 -0.9012  0.0749 -0.9360
  382MPD2    H3 5717   3.431   1.301  17.079 -1.8136  0.0618 -0.1369
  382MPD2     N 5718   3.340   1.177  17.488 -0.5276  0.4226  0.5428
  382MPD2    H5 5719   3.377   1.091  17.449  0.5951  0.7936  0.7920
  382MPD2    N1 5720   3.274   1.631  17.365 -0.0695 -0.2572 -0.5859
  382MPD2    H7 5721   3.231   1.644  17.456 -1.3487  0.0149 -1.2318
  383TMC3    C1 5722   3.346   1.061   0.000 -0.1750  0.1418 -0.2714
  383TMC3    C2 5723   3.300   0.944  17.647  0.1467 -0.1046  0.3814
  383TMC3    C3 5724   3.270   0.844   0.027  0.1379  0.0982  0.3043
  383TMC3    C4 5725   3.360   1.071   0.136  0.1090  0.3945 -0.1636
  383TMC3    C5 5726   3.327   0.969   0.221 -0.7095 -0.1509  0.0808
  383TMC3    C6 5727   3.282   0.847   0.165  0.7564 -0.1753  0.2323
  383TMC3     C 5728   3.326   1.186  17.629 -0.0765 -0.0442 -0.6079
  383TMC3     O 5729   3.306   1.289  17.692 -0.0517 -0.3432  0.5415
  383TMC3     H 5730   3.259   0.951  17.547  0.6727 -1.8624  0.0492
  383TMC3    H1 5731   3.404   1.160   0.177 -0.4007  0.4890  0.1794
  383TMC3    H2 5732   3.267   0.761   0.230  1.5123  0.7725  1.6751
  383TMC3    C7 5733   3.382   0.979   0.357  0.4917  0.0257  0.7910
  383TMC3    C8 5734   3.179   0.747  17.665 -0.2340 -0.4218  0.0325
  383TMC3    O1 5735   3.414   0.876   0.406 -0.4679  0.5883  0.5448
  383TMC3    O2 5736   3.117   0.778  17.562 -0.4913  0.4316  0.2990
  384MPD2     C 5737   0.639   1.731  12.526 -0.6150  0.3150 -0.1801
  384MPD2    C1 5738   0.587   1.615  12.580 -0.5708  0.7314 -0.2063
  384MPD2    C2 5739   0.660   1.499  12.556 -0.1639  0.4113  0.1042
  384MPD2    C3 5740   0.771   1.495  12.477 -0.2974 -0.6185  0.4201
  384MPD2    C4 5741   0.808   1.614  12.420 -0.4795  0.0544 -0.6688
  384MPD2    C5 5742   0.754   1.731  12.450  0.3502 -1.2494 -0.3104
  384MPD2     H 5743   0.621   1.404  12.592  1.0891  0.2247  0.9714
  384MPD2    H1 5744   0.891   1.619  12.350 -3.1825  0.3897 -3.8434
  384MPD2    H2 5745   0.587   1.825  12.537 -0.0177  0.4547  1.3837
  384MPD2    H3 5746   0.787   1.825  12.408  1.3585 -0.7975  1.4838
  384MPD2     N 5747   0.844   1.378  12.446 -0.1452 -0.9923 -0.2043
  384MPD2    H5 5748   0.919   1.389  12.377  1.5296  0.1673  1.7833
  384MPD2    N1 5749   0.462   1.606  12.644 -0.2937 -0.3200 -0.1887
  384MPD2    H7 5750   0.438   1.515  12.680  1.0161 -0.7765 -0.4471
  385TMC3    C1 5751   0.896   1.148  12.435 -0.2340  1.0649  0.8789
  385TMC3    C2 5752   0.903   1.146  12.298  0.2978  0.4669  0.2277
  385TMC3    C3 5753   0.872   1.034  12.229 -0.8470  0.7028 -0.4917
  385TMC3    C4 5754   0.850   1.030  12.489 -0.5157 -0.2176  0.5123
  385TMC3    C5 5755   0.820   0.916  12.419  0.1707  0.2840  0.5951
  385TMC3    C6 5756   0.841   0.911  12.285  0.0838  1.2274 -0.5170
  385TMC3     C 5757   0.821   1.255  12.499  0.2128 -0.8294  0.0439
  385TMC3     O 5758   0.743   1.214  12.584  0.1273 -0.3400 -1.1735
  385TMC3     H 5759   0.929   1.239  12.247  2.5042 -0.3428 -0.1303
  385TMC3    H1 5760   0.843   1.016  12.597  2.2467  0.7708  0.8011
  385TMC3    H2 5761   0.805   0.823  12.233  0.4434 -0.6240  2.3858
  385TMC3    C7 5762   0.694   0.856  12.468 -0.3563 -0.4112  0.9168
  385TMC3    C8 5763   0.800   1.062  12.110  0.5480  0.3313 -0.2929
  385TMC3    O1 5764   0.663   0.757  12.409 -0.2103 -0.4163 -0.4816
  385TMC3    O2 5765   0.759   1.176  12.090  0.0807 -0.1942 -0.3063
  386TMC3    C1 5766   0.561   4.148  12.349 -0.1316 -0.0358 -0.8818
  386TMC3    C2 5767   0.553   4.106  12.219  0.5698  0.2617 -0.5510
  386TMC3    C3 5768   0.472   4.182  12.136 -0.5623  0.1539 -0.7267
  386TMC3    C4 5769   0.481   4.247  12.397  0.1377 -0.0202  0.1675
  386TMC3    C5 5770   0.403   4.316  12.321  0.1580 -0.0619 -0.1785
  386TMC3    C6 5771   0.397   4.283  12.188 -1.3455  0.1002  0.5883
  386TMC3     C 5772   0.658   4.095  12.436 -0.2009  0.5834 -0.0523
  386TMC3     O 5773   0.656   4.129  12.555 -0.3747 -0.0613 -0.2949
  386TMC3     H 5774   0.594   4.009  12.193  3.4862  1.5246 -0.6656
  386TMC3    H1 5775   0.498   4.276  12.500 -2.1344  2.8415 -0.2473
  386TMC3    H2 5776   0.335   4.344  12.123 -0.6145  1.8954  1.5810
  386TMC3    C7 5777   0.272   4.329  12.377 -0.2761  0.1164  0.3475
  386TMC3    C8 5778   0.395   4.110  12.039  0.2898 -0.5457  0.8498
  386TMC3    O1 5779   0.270   4.360  12.495  0.3101 -0.3686  0.1454
  386TMC3    O2 5780   0.274   4.136  12.041  0.2430  0.6649  0.0812
  387MPD2     C 5781   2.871   3.444   9.577 -0.2011 -0.5508 -0.9370
  387MPD2    C1 5782   2.962   3.410   9.674  0.4883 -0.7137  0.2244
  387MPD2    C2 5783   2.995   3.276   9.700  0.4863 -0.5073 -0.3239
  387MPD2    C3 5784   2.944   3.181   9.616 -0.7055 -0.1558  0.3562
  387MPD2    C4 5785   2.864   3.222   9.503  0.4128  0.6226  0.3506
  387MPD2    C5 5786   2.825   3.353   9.492 -0.1132 -0.1468  0.8001
  387MPD2     H 5787   3.047   3.231   9.784 -2.1570 -1.4407  0.8106
  387MPD2    H1 5788   2.834   3.155   9.424 -0.4674  1.4618 -0.0333
  387MPD2    H2 5789   2.820   3.538   9.562 -1.7617 -1.2678 -0.0842
  387MPD2    H3 5790   2.763   3.378   9.407 -1.6363 -1.3871  1.5205
  387MPD2     N 5791   2.975   3.049   9.639  0.2117  0.2753  0.2933
  387MPD2    H5 5792   3.027   3.028   9.724 -2.5333 -2.9939  1.1682
  387MPD2    N1 5793   3.023   3.500   9.759 -0.5621 -0.9419  0.1369
  387MPD2    H7 5794   3.081   3.462   9.833  1.7551  1.0658 -0.6328
  388TMC3    C1 5795   3.130   3.687   9.836 -0.0080 -0.6319 -0.1010
  388TMC3    C2 5796   3.103   3.798   9.910 -0.3273 -0.4407 -0.0014
  388TMC3    C3 5797   3.209   3.830  10.002 -0.2460  0.6127  0.0818
  388TMC3    C4 5798   3.244   3.611   9.842 -0.2457  0.2739  0.2182
  388TMC3    C5 5799   3.340   3.649   9.935 -0.1950 -0.0835  0.7052
  388TMC3    C6 5800   3.324   3.758  10.017 -0.3676  0.5336  1.0509
  388TMC3     C 5801   3.025   3.640   9.750 -0.7017 -0.6857  0.6115
  388TMC3     O 5802   2.968   3.721   9.678  0.3893 -0.1347 -0.4943
  388TMC3     H 5803   3.012   3.855   9.893  0.7411  1.1649 -0.3263
  388TMC3    H1 5804   3.270   3.540   9.764  1.3894  2.7402 -1.4981
  388TMC3    H2 5805   3.409   3.775  10.082  0.3411 -0.0768  0.2762
  388TMC3    C7 5806   3.453   3.564   9.961  0.1493 -0.2710  0.3626
  388TMC3    C8 5807   3.178   3.925  10.103  0.0932 -0.2779 -0.5868
  388TMC3    O1 5808   3.563   3.599  10.003 -0.2200 -0.5475  0.3320
  388TMC3    O2 5809   3.272   3.973  10.168  0.2871  0.1216 -0.3433
  389MPD2     C 5810   2.722   2.263  11.226 -0.4539 -0.2584  0.5760
  389MPD2    C1 5811   2.600   2.246  11.173  0.1083 -0.4729 -0.9372
  389MPD2    C2 5812   2.495   2.213  11.263 -0.1855 -0.2896 -0.1672
  389MPD2    C3 5813   2.509   2.217  11.401  0.2236 -0.8394  0.1088
  389MPD2    C4 5814   2.635   2.252  11.455 -0.0765 -0.3512  0.1836
  389MPD2    C5 5815   2.739   2.278  11.367 -0.0934  0.2871  0.2664
  389MPD2     H 5816   2.401   2.180  11.221  0.5344 -0.4205 -1.6587
  389MPD2    H1 5817   2.663   2.269  11.558 -0.9542 -1.2966  0.5744
  389MPD2    H2 5818   2.813   2.268  11.167 -0.3846 -0.4064  0.6708
  389MPD2    H3 5819   2.842   2.287  11.399 -0.3727 -3.0530  2.0916
  389MPD2     N 5820   2.411   2.195  11.502  0.3433  0.2256  0.2716
  389MPD2    H5 5821   2.428   2.235  11.594  1.0552 -0.2437  0.3405
  389MPD2    N1 5822   2.576   2.243  11.030 -0.2960 -0.2353 -0.8166
  389MPD2    H7 5823   2.657   2.234  10.969  0.2943  1.7609 -0.3204
  390TMC3    C1 5824   2.204   2.117  11.597  0.0822 -0.2660  0.2132
  390TMC3    C2 5825   2.128   2.003  11.615  0.0377  0.3167 -0.6080
  390TMC3    C3 5826   2.030   1.996  11.707  0.2123 -0.0205  0.0706
  390TMC3    C4 5827   2.190   2.218  11.685  0.1443  0.2276 -0.5961
  390TMC3    C5 5828   2.083   2.212  11.765  0.2157 -0.5750 -0.1248
  390TMC3    C6 5829   1.998   2.107  11.777 -0.6085 -0.3708  0.7858
  390TMC3     C 5830   2.290   2.127  11.478 -0.1171  1.2375  0.4154
  390TMC3     O 5831   2.249   2.069  11.376 -0.0830  0.2016 -0.4376
  390TMC3     H 5832   2.150   1.915  11.556  1.2199  1.3476 -1.6851
  390TMC3    H1 5833   2.246   2.308  11.659  1.4941 -0.7585 -1.0995
  390TMC3    H2 5834   1.921   2.103  11.853  0.6940 -2.9269  1.9713
  390TMC3    C7 5835   2.071   2.331  11.853  0.5870  0.0412  0.0443
  390TMC3    C8 5836   1.942   1.872  11.713 -0.1261  0.4285  0.4309
  390TMC3    O1 5837   2.171   2.398  11.882 -0.2352  0.2800 -0.7258
  390TMC3    O2 5838   1.944   1.814  11.607 -0.0504 -0.3267  0.0969
  391MPD2     C 5839   1.281   3.649  11.742  0.0282  0.4548 -0.0123
  391MPD2    C1 5840   1.413   3.676  11.712 -0.3793 -0.4844 -1.0304
  391MPD2    C2 5841   1.457   3.666  11.584  0.0461 -0.1669  0.0964
  391MPD2    C3 5842   1.372   3.635  11.484 -0.0794  0.7826  0.3089
  391MPD2    C4 5843   1.237   3.605  11.507 -0.4224  0.7077 -0.6430
  391MPD2    C5 5844   1.193   3.611  11.638 -0.4092  0.1276  0.4947
  391MPD2     H 5845   1.565   3.670  11.573  0.2439 -2.3533  1.1562
  391MPD2    H1 5846   1.168   3.589  11.424  0.5168 -1.1873 -1.0538
  391MPD2    H2 5847   1.235   3.673  11.837 -0.1339 -0.5938  0.1730
  391MPD2    H3 5848   1.090   3.597  11.668 -0.9197  2.5454 -0.0772
  391MPD2     N 5849   1.424   3.628  11.354 -0.2112  0.4438 -0.7270
  391MPD2    H5 5850   1.525   3.625  11.349 -0.0648  1.3824  1.2143
  391MPD2    N1 5851   1.517   3.698  11.809 -0.1069  0.7370 -0.0998
  391MPD2    H7 5852   1.610   3.670  11.782 -0.5101  0.1923 -0.9425
  392TMC3    C1 5853   1.431   3.616  11.123 -0.3405 -0.1594  0.3807
  392TMC3    C2 5854   1.386   3.574  11.003 -0.3813 -0.1373  0.3529
  392TMC3    C3 5855   1.466   3.581  10.893 -0.1490 -0.7115 -0.1020
  392TMC3    C4 5856   1.555   3.682  11.131 -0.0705 -0.5082  0.1172
  392TMC3    C5 5857   1.636   3.692  11.020 -0.2730 -0.2012 -0.4856
  392TMC3    C6 5858   1.591   3.634  10.903 -0.0785  0.3537  1.0148
  392TMC3     C 5859   1.346   3.615  11.237  0.5122  0.9247  0.4309
  392TMC3     O 5860   1.226   3.626  11.216  0.7658 -0.1436 -1.0799
  392TMC3     H 5861   1.294   3.518  10.996 -0.3436  0.0376 -1.6463
  392TMC3    H1 5862   1.584   3.731  11.223 -1.3032  0.2215  0.1215
  392TMC3    H2 5863   1.644   3.645  10.809 -1.1075  0.3724  0.4404
  392TMC3    C7 5864   1.762   3.763  11.030 -0.3654  0.0011 -0.0355
  392TMC3    C8 5865   1.448   3.473  10.805  0.8176 -0.2172 -0.2622
  392TMC3    O1 5866   1.779   3.814  11.141  0.5555 -0.3371 -0.2527
  392TMC3    O2 5867   1.332   3.434  10.785 -0.1413  0.0113 -0.1358
  393TMC3    C1 5868   0.380   2.188  11.074 -0.0044 -1.1637  0.1453
  393TMC3    C2 5869   0.320   2.060  11.089  0.7649  0.7474 -0.4625
  393TMC3    C3 5870   0.369   1.981  11.185  0.1368  0.2184  0.2404
  393TMC3    C4 5871   0.484   2.226  11.152 -0.1598  0.0341  0.3844
  393TMC3    C5 5872   0.523   2.148  11.258  0.8837 -0.2088 -0.1530
  393TMC3    C6 5873   0.470   2.019  11.272  0.0568  0.4741 -0.7566
  393TMC3     C 5874   0.348   2.273  10.961  0.1412  0.1935 -0.0357
  393TMC3     O 5875   0.428   2.359  10.934 -0.3831  0.1192  0.2309
  393TMC3     H 5876   0.240   2.023  11.026  2.1532 -1.3628 -0.9761
  393TMC3    H1 5877   0.534   2.319  11.130  0.2939 -0.2654  0.1659
  393TMC3    H2 5878   0.529   1.947  11.327 -0.1090  0.8842 -0.0347
  393TMC3    C7 5879   0.663   2.162  11.281  0.1714  0.3933  0.6283
  393TMC3    C8 5880   0.316   1.858  11.214 -0.1984 -0.7719 -0.1631
  393TMC3    O1 5881   0.703   2.265  11.341 -0.0855  0.5835 -0.0974
  393TMC3    O2 5882   0.312   1.826  11.331 -0.1529  0.9300 -0.1264
  394TMC3    C1 5883   2.473   2.232  10.831 -0.2133  0.0622  0.5933
  394TMC3    C2 5884   2.352   2.203  10.770 -0.2000 -0.5389 -0.3193
  394TMC3    C3 5885   2.355   2.161  10.643  0.0672 -0.1222 -0.1000
  394TMC3    C4 5886   2.592   2.225  10.765 -1.0088  0.0201 -0.1326
  394TMC3    C5 5887   2.586   2.184  10.636 -0.3793  0.4617  0.4720
  394TMC3    C6 5888   2.469   2.150  10.569  0.1737  0.6298  0.0259
  394TMC3     C 5889   2.459   2.269  10.967  0.2283 -0.6301  0.3262
  394TMC3     O 5890   2.351   2.302  11.014  0.5021 -0.4031  0.2379
  394TMC3     H 5891   2.262   2.217  10.829  1.3966 -0.0861  2.0443
  394TMC3    H1 5892   2.685   2.273  10.794 -0.7240 -1.7038  1.7630
  394TMC3    H2 5893   2.475   2.118  10.466  3.3556 -3.8509  1.5965
  394TMC3    C7 5894   2.709   2.176  10.561 -0.1044 -0.7294  0.0403
  394TMC3    C8 5895   2.245   2.084  10.597 -0.1758 -0.0455  0.3498
  394TMC3    O1 5896   2.698   2.171  10.441  0.1562  0.3040 -0.0131
  394TMC3    O2 5897   2.132   2.129  10.613  0.7901 -0.2829 -0.2976
  395TMC3    C1 5898   1.248   4.570  14.510 -0.2446  0.0965  0.3124
  395TMC3    C2 5899   1.182   4.503  14.609  0.3990 -0.6882  0.6933
  395TMC3    C3 5900   1.139   4.569  14.723  0.1977 -0.4088  0.2215
  395TMC3    C4 5901   1.262   4.707  14.522  0.1519 -0.4269  0.5245
  395TMC3    C5 5902   1.223   0.048  14.632 -0.0328  0.0764  0.1583
  395TMC3    C6 5903   1.163   4.705  14.735 -0.6388  0.7250 -0.6026
  395TMC3     C 5904   1.364   4.496  14.464 -0.3176 -0.4346 -0.1689
  395TMC3     O 5905   1.470   4.555  14.478  0.3917  0.3941  0.0237
  395TMC3     H 5906   1.168   4.396  14.608  0.7799 -0.7373 -0.0005
  395TMC3    H1 5907   1.299   0.036  14.435 -0.6943  0.5927  0.8037
  395TMC3    H2 5908   1.117   0.033  14.817  0.9074  0.8968  0.1517
  395TMC3    C7 5909   1.269   0.181  14.656  0.3557 -0.4524  0.0163
  395TMC3    C8 5910   1.130   4.491  14.845 -0.5082  0.9688 -0.2324
  395TMC3    O1 5911   1.243   0.261  14.569 -0.2719  0.5010  0.1476
  395TMC3    O2 5912   1.075   4.546  14.944 -0.2757  0.4560  0.4073
  396MPD2     C 5913   1.560   0.470  17.255  0.2049  0.4497  0.8407
  396MPD2    C1 5914   1.604   0.564  17.344  0.3312  0.1601 -0.5430
  396MPD2    C2 5915   1.625   0.689  17.288 -0.0840  0.0540  0.5075
  396MPD2    C3 5916   1.622   0.712  17.151  0.3758  0.6255 -0.2757
  396MPD2    C4 5917   1.580   0.609  17.065 -0.1352 -0.1137  0.1206
  396MPD2    C5 5918   1.548   0.489  17.117 -0.2997 -0.1985  0.2151
  396MPD2     H 5919   1.651   0.772  17.353  1.6700 -1.9009  2.2975
  396MPD2    H1 5920   1.586   0.627  16.959  1.1288  1.7883  0.5122
  396MPD2    H2 5921   1.543   0.371  17.294  2.6062 -0.6521 -0.8390
  396MPD2    H3 5922   1.526   0.405  17.052  1.7639 -0.6787  0.1447
  396MPD2     N 5923   1.641   0.843  17.105 -0.3539 -0.2210 -0.6224
  396MPD2    H5 5924   1.682   0.909  17.170  0.5432  0.4134 -1.8239
  396MPD2    N1 5925   1.618   0.522  17.484 -0.2885 -0.4799 -0.3545
  396MPD2    H7 5926   1.597   0.423  17.497 -0.2584 -0.5328 -0.7043
  397TMC3    C1 5927   1.730   0.507  17.689  0.3834  0.3864 -0.5935
  397TMC3    C2 5928   1.850   0.466  17.641  0.0075  0.0512 -0.2880
  397TMC3    C3 5929   1.862   0.341  17.591 -0.2113  0.3013 -0.1238
  397TMC3    C4 5930   1.643   0.412   0.030 -0.4727 -0.3776  0.2525
  397TMC3    C5 5931   1.665   0.279   0.002  0.0942 -0.2123 -0.9108
  397TMC3    C6 5932   1.770   0.245  17.626 -0.6215  0.2153 -0.3352
  397TMC3     C 5933   1.679   0.595  17.583 -0.6816 -0.5598  0.6351
  397TMC3     O 5934   1.720   0.709  17.576  0.2897 -0.3266  0.5318
  397TMC3     H 5935   1.906   0.550  17.600  2.1904 -0.1376  2.3147
  397TMC3    H1 5936   1.569   0.438   0.104 -0.1909 -0.1191  0.4421
  397TMC3    H2 5937   1.769   0.155  17.565  0.4557 -0.2889  0.3972
  397TMC3    C7 5938   1.623   0.174   0.087 -0.3277  0.0550  0.4647
  397TMC3    C8 5939   1.891   0.341  17.451  0.5244 -0.4829  0.0028
  397TMC3    O1 5940   1.636   0.068   0.038 -0.0455  0.5935  0.1057
  397TMC3    O2 5941   1.805   0.304  17.372 -0.4714 -0.1803  0.3024
  398MPD2     C 5942   4.049   1.708   0.012 -0.0541 -0.0352  0.8751
  398MPD2    C1 5943   4.135   1.687   0.117 -0.3517 -0.7210 -0.2985
  398MPD2    C2 5944   4.203   1.800   0.168  0.2642  0.3140 -0.2411
  398MPD2    C3 5945   4.189   1.925   0.123  0.6330  0.8546  0.4534
  398MPD2    C4 5946   4.103   1.948   0.020  0.1216  0.3833  0.1175
  398MPD2    C5 5947   4.033   1.841  17.665  0.0827  0.3158  0.9552
  398MPD2     H 5948   4.277   1.792   0.247  3.4033  3.7856 -2.8385
  398MPD2    H1 5949   4.094   2.047  17.677 -2.3094 -0.8716 -2.3289
  398MPD2    H2 5950   3.997   1.622  17.670  0.6130 -0.3722  0.7359
  398MPD2    H3 5951   3.956   1.867  17.594  1.6703 -1.8406 -1.5416
  398MPD2     N 5952   4.280   2.017   0.182  0.0004  0.5419  0.0787
  398MPD2    H5 5953   4.356   1.994   0.245 -1.5834  1.1714  2.2133
  398MPD2    N1 5954   4.179   1.555   0.165  0.0778  0.2980 -0.7092
  398MPD2    H7 5955   4.257   1.562   0.230 -0.6767  2.7121 -0.0517
  399TMC3    C1 5956   4.203   1.318   0.166  0.6763 -0.6781 -0.0228
  399TMC3    C2 5957   4.341   1.319   0.170 -0.2617 -0.0230 -0.6630
  399TMC3    C3 5958   4.408   1.199   0.158  0.4951  1.1187  0.3403
  399TMC3    C4 5959   4.141   1.199   0.162 -0.6500  0.2779  0.2612
  399TMC3    C5 5960   4.208   1.079   0.180  0.8449 -0.2745 -0.6849
  399TMC3    C6 5961   4.343   1.080   0.172 -0.7491 -0.6476  0.3646
  399TMC3     C 5962   4.119   1.434   0.126 -0.0294 -0.6076  0.3636
  399TMC3     O 5963   4.010   1.414   0.068  0.1924 -0.1385  0.4664
  399TMC3     H 5964   4.391   1.416   0.165  1.9997 -1.1956 -0.8818
  399TMC3    H1 5965   4.033   1.192   0.164 -0.5248 -1.3835  1.0627
  399TMC3    H2 5966   4.392   0.985   0.187 -1.9092 -1.5434 -1.6012
  399TMC3    C7 5967   4.149   0.959   0.235 -0.6754  0.3876 -0.4485
  399TMC3    C8 5968   4.549   1.203   0.151 -0.3124  0.2035 -0.2224
  399TMC3    O1 5969   4.215   0.853   0.237  0.0611  0.8538 -0.9221
  399TMC3    O2 5970   4.608   1.311   0.144 -0.2118 -0.5308  0.2629
  400TMC3    C1 5971   3.134   0.311  17.242  0.0549  0.0616 -0.1790
  400TMC3    C2 5972   3.061   0.195  17.251 -0.1881 -0.0032  0.7984
  400TMC3    C3 5973   2.950   0.190  17.166  0.5978 -0.0834 -0.5540
  400TMC3    C4 5974   3.114   0.409  17.147 -0.7208  0.9587  0.6136
  400TMC3    C5 5975   3.007   0.397  17.059 -0.1586 -0.9211  0.0758
  400TMC3    C6 5976   2.925   0.285  17.072 -0.2952 -0.2808  0.2405
  400TMC3     C 5977   3.240   0.314  17.342  0.0701 -0.0815 -0.8927
  400TMC3     O 5978   3.247   0.217  17.412 -0.5904  0.5099 -0.6347
  400TMC3     H 5979   3.079   0.111  17.317  3.8244 -0.1832 -0.4967
  400TMC3    H1 5980   3.169   0.502  17.139  1.4157 -0.2829  0.9438
  400TMC3    H2 5981   2.836   0.279  17.010 -1.4381  2.0757  1.6414
  400TMC3    C7 5982   2.969   0.508  16.977 -0.9972  0.0135  0.6418
  400TMC3    C8 5983   2.833   0.112  17.210 -0.1137  0.0456  0.0306
  400TMC3    O1 5984   2.899   0.480  16.883  0.2174 -0.2825 -0.7168
  400TMC3    O2 5985   2.825   0.085  17.329 -1.1018 -0.3974  0.3708
  401MPD2     C 5986   1.933   4.655   1.912 -0.0131 -0.0758 -0.1423
  401MPD2    C1 5987   2.021   4.659   1.806 -0.3788  0.3060  0.4404
  401MPD2    C2 5988   1.988   4.605   1.685  0.2892 -0.3319  0.2443
  401MPD2    C3 5989   1.875   4.533   1.671  0.3946 -0.1107 -0.3155
  401MPD2    C4 5990   1.788   4.526   1.776 -0.4784 -0.1344 -0.0889
  401MPD2    C5 5991   1.815   4.582   1.897 -0.5070 -0.2705  0.2003
  401MPD2     H 5992   2.057   4.610   1.602 -0.7282 -0.3301 -0.5962
  401MPD2    H1 5993   1.685   4.494   1.762  0.7684 -2.7454 -3.2418
  401MPD2    H2 5994   1.958   4.706   2.004  1.3669 -0.2114 -0.4455
  401MPD2    H3 5995   1.750   4.571   1.983 -0.0412  1.7129  0.8103
  401MPD2     N 5996   1.844   4.475   1.545 -0.1472 -0.5976  0.3090
  401MPD2    H5 5997   1.898   4.497   1.462 -2.7200  2.7848 -0.4756
  401MPD2    N1 5998   2.151   4.710   1.807  0.2903  0.4062 -0.4292
  401MPD2    H7 5999   2.201   4.723   1.719 -0.5923 -0.0886 -1.0040
  402TMC3    C1 6000   1.782   4.289   1.412  0.5804 -0.0563 -0.6061
  402TMC3    C2 6001   1.730   4.163   1.412 -0.2919  0.4920  0.1651
  402TMC3    C3 6002   1.795   4.068   1.339 -0.1970  0.0689 -0.0596
  402TMC3    C4 6003   1.897   4.317   1.343 -0.3631  0.0879  0.6541
  402TMC3    C5 6004   1.963   4.217   1.272  0.4012 -0.4323  0.2250
  402TMC3    C6 6005   1.910   4.090   1.270  0.5194 -0.1763  0.5567
  402TMC3     C 6006   1.761   4.363   1.535  0.5781 -0.2072  0.1493
  402TMC3     O 6007   1.672   4.324   1.609  0.7766 -0.0447 -0.3310
  402TMC3     H 6008   1.653   4.133   1.483 -0.7387 -2.2339 -1.4850
  402TMC3    H1 6009   1.936   4.418   1.338 -0.5729  0.1976  1.2620
  402TMC3    H2 6010   1.947   4.000   1.222  2.1200  1.8186 -1.9387
  402TMC3    C7 6011   2.098   4.237   1.227  0.4290 -0.4670  0.4103
  402TMC3    C8 6012   1.737   3.938   1.323  0.0566 -0.0042 -0.5441
  402TMC3    O1 6013   2.153   4.342   1.260 -0.0410  0.5008  0.2118
  402TMC3    O2 6014   1.808   3.843   1.284 -0.3538 -0.0639 -0.7644
  403MPD2     C 6015   4.233   2.121  13.913  0.0932 -0.4675 -0.0678
  403MPD2    C1 6016   4.261   2.001  13.972 -0.4283 -0.3439  0.3003
  403MPD2    C2 6017   4.373   2.006  14.044 -0.1894 -0.1352  0.4115
  403MPD2    C3 6018   4.448   2.117  14.079  0.0233 -0.4605 -0.0837
  403MPD2    C4 6019   4.410   2.235  14.023 -0.0411 -0.1107 -0.1204
  403MPD2    C5 6020   4.304   2.234  13.933  0.1452  0.4214 -0.3862
  403MPD2     H 6021   4.392   1.922  14.110 -2.6636 -1.9295 -1.1662
  403MPD2    H1 6022   4.465   2.327  14.040  0.4647 -0.3384 -0.5179
  403MPD2    H2 6023   4.145   2.139  13.852 -0.2787 -1.4911  0.1616
  403MPD2    H3 6024   4.271   2.331  13.898  0.3025  0.3586 -0.7125
  403MPD2     N 6025   4.537   2.102  14.186  0.1470 -0.4155  0.3951
  403MPD2    H5 6026   4.578   2.010  14.199  2.4768  0.6787  0.8814
  403MPD2    N1 6027   4.176   1.890  13.957  0.2434  0.1197 -0.7071
  403MPD2    H7 6028   4.101   1.908  13.891  0.1078 -0.8707 -0.8254
  404TMC3    C1 6029   4.116   1.656  13.963 -0.1914  0.4302  0.1097
  404TMC3    C2 6030   4.106   1.558  14.055  0.0186  0.0838  0.5604
  404TMC3    C3 6031   4.123   1.430  14.008  0.3113 -0.6665 -0.4730
  404TMC3    C4 6032   4.126   1.630  13.833  0.3050 -0.0838  0.0980
  404TMC3    C5 6033   4.120   1.500  13.787 -0.1389  0.3574  0.1455
  404TMC3    C6 6034   4.131   1.398  13.877  0.4009  0.8807 -0.2210
  404TMC3     C 6035   4.203   1.759  14.000 -0.1469 -0.2968  0.3205
  404TMC3     O 6036   4.304   1.718  14.053 -0.0371 -0.2261  0.3306
  404TMC3     H 6037   4.128   1.590  14.156 -2.3476  0.6400  0.8854
  404TMC3    H1 6038   4.121   1.710  13.759 -1.8206  1.1607  1.6033
  404TMC3    H2 6039   4.165   1.299  13.849  0.1120  0.7489 -0.1091
  404TMC3    C7 6040   4.188   1.472  13.666 -0.2367 -0.0093 -0.2874
  404TMC3    C8 6041   4.208   1.354  14.091 -0.4172  0.3026  0.1634
  404TMC3    O1 6042   4.244   1.573  13.621 -0.0616 -0.0352 -0.0669
  404TMC3    O2 6043   4.311   1.305  14.047  0.8673  0.8857  0.3169
  405MPD2     C 6044   0.154   2.675  15.380 -0.0147 -0.6746  0.3873
  405MPD2    C1 6045   0.113   2.569  15.303  0.0365 -0.5344  0.5895
  405MPD2    C2 6046   0.078   2.599  15.172  0.3733  0.1756  0.1931
  405MPD2    C3 6047   0.070   2.730  15.126 -0.6270  0.1901 -0.5227
  405MPD2    C4 6048   0.114   2.835  15.209 -0.3755  0.8132 -0.3181
  405MPD2    C5 6049   0.158   2.805  15.334  0.0577 -0.1534  0.1510
  405MPD2     H 6050   0.039   2.521  15.108 -2.4272  1.3061  0.5375
  405MPD2    H1 6051   0.125   2.935  15.168 -0.6833  1.1100  0.3282
  405MPD2    H2 6052   0.194   2.654  15.478 -0.0096 -2.2709  0.0444
  405MPD2    H3 6053   0.190   2.894  15.387  0.8311 -2.6350  3.8491
  405MPD2     N 6054   0.024   2.748  14.997 -0.6580  0.8011 -0.2040
  405MPD2    H5 6055   4.712   2.669  14.944 -0.0734  0.6689 -0.4118
  405MPD2    N1 6056   0.114   2.435  15.357  0.6399  0.1137 -0.0693
  405MPD2    H7 6057   0.129   2.421  15.456  0.3603  1.7791  0.2156
  406TMC3    C1 6058   4.464   2.851  14.682  0.0966  0.0509  0.4722
  406TMC3    C2 6059   4.492   2.741  14.601 -0.0680  0.2660  0.4479
  406TMC3    C3 6060   4.595   2.661  14.641 -0.4964  0.0631 -0.2504
  406TMC3    C4 6061   4.551   2.906  14.768  0.2967 -0.5575 -0.2389
  406TMC3    C5 6062   4.663   2.828  14.794  0.6222  0.2195 -0.4271
  406TMC3    C6 6063   4.682   2.702  14.743  0.2756 -0.0967 -0.5641
  406TMC3     C 6064   4.334   2.912  14.690 -0.4362  0.6481  0.4928
  406TMC3     O 6065   4.327   3.031  14.704  0.0885 -0.1059 -0.3690
  406TMC3     H 6066   4.432   2.718  14.513  0.4691  0.4612  0.0240
  406TMC3    H1 6067   4.535   3.001  14.818 -0.4081 -1.4328  1.2006
  406TMC3    H2 6068   0.049   2.652  14.769  0.0292 -0.5344 -0.5356
  406TMC3    C7 6069   0.019   2.857  14.919 -0.1207 -0.5707 -0.0259
  406TMC3    C8 6070   4.596   2.521  14.602  0.4639 -0.4532 -1.4266
  406TMC3    O1 6071   0.032   2.977  14.955 -0.4702  0.3414 -0.3017
  406TMC3    O2 6072   4.525   2.488  14.511 -0.1368  0.0550 -0.6967
  407MPD2     C 6073   2.380   3.050   9.401 -0.9444  0.1630  0.0535
  407MPD2    C1 6074   2.504   3.000   9.450 -0.1065  0.2323  0.2438
  407MPD2    C2 6075   2.561   3.057   9.557 -0.5749 -0.1396  0.1751
  407MPD2    C3 6076   2.506   3.165   9.613  0.2769 -0.7395 -0.0501
  407MPD2    C4 6077   2.389   3.223   9.561 -0.0343 -0.0592 -1.4175
  407MPD2    C5 6078   2.332   3.166   9.452  0.3687 -0.3841 -0.8268
  407MPD2     H 6079   2.661   3.025   9.583 -0.7604 -1.1686 -0.3728
  407MPD2    H1 6080   2.348   3.317   9.596 -0.3698 -0.6463 -0.2329
  407MPD2    H2 6081   2.325   3.023   9.311  1.4119 -0.7243 -1.1182
  407MPD2    H3 6082   2.245   3.213   9.408  0.7232  0.4897 -0.5988
  407MPD2     N 6083   2.557   3.222   9.729  0.0311  0.0224 -0.3078
  407MPD2    H5 6084   2.517   3.312   9.751 -0.0679 -0.2654  0.6695
  407MPD2    N1 6085   2.570   2.890   9.382  0.3715  0.4757 -0.8653
  407MPD2    H7 6086   2.656   2.850   9.418 -0.8799 -0.9526  0.5776
  408TMC3    C1 6087   2.615   2.707   9.247  0.0403 -0.0767  0.7257
  408TMC3    C2 6088   2.748   2.718   9.257  0.3099 -0.2465  0.1447
  408TMC3    C3 6089   2.827   2.612   9.228 -0.5921 -0.3661  0.4695
  408TMC3    C4 6090   2.563   2.590   9.230 -1.1410 -0.2308 -0.1224
  408TMC3    C5 6091   2.640   2.476   9.202 -1.0553  0.4810 -0.6734
  408TMC3    C6 6092   2.774   2.487   9.207 -0.9689 -1.1898  0.4533
  408TMC3     C 6093   2.521   2.810   9.287  0.0024  0.3416 -0.3085
  408TMC3     O 6094   2.404   2.804   9.247  0.2412  0.1257  0.3982
  408TMC3     H 6095   2.786   2.819   9.251  1.1681 -0.6379 -0.9709
  408TMC3    H1 6096   2.456   2.584   9.246 -1.3269  2.9580 -0.1018
  408TMC3    H2 6097   2.841   2.404   9.188 -1.4083 -1.1264 -1.3538
  408TMC3    C7 6098   2.594   2.343   9.200  0.5827  1.0053  0.3048
  408TMC3    C8 6099   2.971   2.622   9.227 -0.1681 -0.8221  0.4298
  408TMC3    O1 6100   2.673   2.256   9.227 -0.3469 -0.5129  0.4404
  408TMC3    O2 6101   3.029   2.516   9.223  0.7000 -0.0643 -0.7921
  409MPD2     C 6102   1.956   4.710  17.469  0.2951  0.1085 -0.2559
  409MPD2    C1 6103   2.056   0.016  17.567 -0.2224 -0.0954 -0.2569
  409MPD2    C2 6104   2.164   0.082  17.518 -0.0454  0.1134  0.5214
  409MPD2    C3 6105   2.182   0.116  17.382  0.1668 -0.1268 -0.3405
  409MPD2    C4 6106   2.079   0.092  17.292  0.2583  0.4721  0.2547
  409MPD2    C5 6107   1.968   0.032  17.342  0.0327 -0.3150  0.2858
  409MPD2     H 6108   2.241   0.109  17.589  1.2244 -3.6859  0.6228
  409MPD2    H1 6109   2.084   0.137  17.193 -0.0379 -1.2551 -0.5640
  409MPD2    H2 6110   1.860   4.668  17.497 -0.6703  2.5482  0.0409
  409MPD2    H3 6111   1.883   0.018  17.276  0.8257 -1.6855 -0.4482
  409MPD2     N 6112   2.295   0.178  17.333 -0.1390  0.0311 -0.0281
  409MPD2    H5 6113   2.298   0.195  17.233  0.6652 -0.8235 -0.1511
  409MPD2    N1 6114   2.048   4.694   0.000  0.0929 -0.1139 -0.8401
  409MPD2    H7 6115   2.117   4.723   0.068 -0.6136 -1.1350  0.3259
  410TMC3    C1 6116   2.520   0.260  17.331 -0.7472 -0.5934  0.0163
  410TMC3    C2 6117   2.616   0.323  17.407  0.2646 -0.3782 -0.3637
  410TMC3    C3 6118   2.704   0.418  17.350 -0.4336  1.1324 -0.0699
  410TMC3    C4 6119   2.500   0.300  17.200 -0.8673  0.3211 -0.0866
  410TMC3    C5 6120   2.576   0.408  17.154  0.0442  0.2146  0.4086
  410TMC3    C6 6121   2.677   0.477  17.223  0.0284  0.1435  0.1104
  410TMC3     C 6122   2.410   0.203  17.407  0.4547 -0.0197 -0.1475
  410TMC3     O 6123   2.436   0.179  17.525  0.1104  0.4497  0.0266
  410TMC3     H 6124   2.626   0.282  17.507 -1.1503 -0.1532 -0.1289
  410TMC3    H1 6125   2.416   0.262  17.144  0.0517 -2.0943  0.1885
  410TMC3    H2 6126   2.746   0.543  17.171  1.6080 -2.4142 -1.0416
  410TMC3    C7 6127   2.549   0.449  17.008 -0.4151 -0.0429  1.1685
  410TMC3    C8 6128   2.828   0.443  17.412  0.0571 -0.1223  0.2902
  410TMC3    O1 6129   2.500   0.362  16.939  0.2465 -0.1108 -0.0726
  410TMC3    O2 6130   2.888   0.531  17.348  0.2751 -0.6794 -0.1649
  411MPD2     C 6131   2.125   0.909  14.811 -0.7126  0.0509  0.9748
  411MPD2    C1 6132   2.064   1.022  14.757  1.3017 -0.5087  0.2586
  411MPD2    C2 6133   1.946   1.011  14.680 -0.0243 -0.4105 -0.5869
  411MPD2    C3 6134   1.912   0.884  14.647 -0.0907  0.2352 -0.1840
  411MPD2    C4 6135   1.975   0.773  14.693  0.1552 -0.5851  0.1834
  411MPD2    C5 6136   2.080   0.780  14.776  0.6863 -0.3323  1.1438
  411MPD2     H 6137   1.884   1.092  14.641 -1.3705 -0.9945  0.3641
  411MPD2    H1 6138   1.950   0.668  14.682  1.7667 -0.8541 -0.8270
  411MPD2    H2 6139   2.200   0.919  14.889 -0.1715 -0.7491  0.5593
  411MPD2    H3 6140   2.145   0.698  14.806  0.9596 -0.2017  0.9018
  411MPD2     N 6141   1.799   0.855  14.562 -0.3433  0.2086  0.4059
  411MPD2    H5 6142   1.775   0.756  14.561 -2.3072  0.6792  3.3554
  411MPD2    N1 6143   2.111   1.149  14.795 -0.2365 -0.1510 -0.2210
  411MPD2    H7 6144   2.180   1.150  14.869  1.4239 -1.3338 -1.7709
  412TMC3    C1 6145   1.611   0.909  14.416 -0.4664  0.0261 -0.1194
  412TMC3    C2 6146   1.540   0.805  14.465  1.0139  0.5349 -0.8237
  412TMC3    C3 6147   1.414   0.779  14.424 -1.2619  0.1140 -0.1864
  412TMC3    C4 6148   1.556   0.981  14.319 -0.3392 -0.3844  0.5926
  412TMC3    C5 6149   1.434   0.955  14.271  0.4220 -0.4341  0.1077
  412TMC3    C6 6150   1.361   0.861  14.330  0.1886 -0.7044 -0.1816
  412TMC3     C 6151   1.739   0.951  14.483 -0.1933 -0.5794 -0.1791
  412TMC3     O 6152   1.783   1.056  14.436 -0.2151 -0.2282 -0.4106
  412TMC3     H 6153   1.573   0.742  14.547 -0.7095  0.6386 -0.0383
  412TMC3    H1 6154   1.617   1.046  14.258 -1.0008 -0.3473 -0.0194
  412TMC3    H2 6155   1.256   0.852  14.305  0.2562 -2.1301  0.0146
  412TMC3    C7 6156   1.396   0.973  14.132  0.1114  0.0233  0.7531
  412TMC3    C8 6157   1.402   0.646  14.369  0.2257  0.4585  0.0027
  412TMC3    O1 6158   1.453   1.073  14.082 -0.4460 -0.3103 -0.0462
  412TMC3    O2 6159   1.350   0.643  14.255  0.5743  0.4602  0.2252
  413MPD2     C 6160   3.674   3.600  15.807  0.3750  0.3147  0.7251
  413MPD2    C1 6161   3.637   3.562  15.681 -0.1665  0.0508 -0.1826
  413MPD2    C2 6162   3.733   3.522  15.591 -0.9972 -0.0770  0.2492
  413MPD2    C3 6163   3.867   3.521  15.629  0.0316 -0.9413 -1.1677
  413MPD2    C4 6164   3.905   3.555  15.756 -0.5790  0.1964 -0.4131
  413MPD2    C5 6165   3.807   3.596  15.845 -0.3011 -0.0552 -0.4652
  413MPD2     H 6166   3.713   3.497  15.488  0.7204 -0.3935 -0.0082
  413MPD2    H1 6167   4.009   3.567  15.783 -0.5003 -2.1972  0.3789
  413MPD2    H2 6168   3.600   3.627  15.882 -1.2796 -0.9554 -0.4481
  413MPD2    H3 6169   3.828   3.628  15.947 -1.9014 -0.1398 -0.1072
  413MPD2     N 6170   3.954   3.514  15.515 -0.7811 -0.1950  0.1248
  413MPD2    H5 6171   3.910   3.522  15.424 -0.6688  0.1408  0.1030
  413MPD2    N1 6172   3.496   3.562  15.650 -0.0210  0.1789 -0.7186
  413MPD2    H7 6173   3.429   3.600  15.716  0.7628  0.2973  0.0136
  414TMC3    C1 6174   4.166   3.502  15.400  0.2460 -0.6531 -0.4747
  414TMC3    C2 6175   4.124   3.397  15.324  0.1593  0.1009  0.3131
  414TMC3    C3 6176   4.209   3.353  15.229  0.7562 -0.1864 -0.3216
  414TMC3    C4 6177   4.296   3.536  15.413  0.3206 -0.5666  0.2024
  414TMC3    C5 6178   4.375   3.505  15.310 -0.1917 -0.5103 -0.1097
  414TMC3    C6 6179   4.328   3.413  15.219 -0.0219 -0.8119  0.2558
  414TMC3     C 6180   4.091   3.520  15.530  0.0788  0.6239 -0.5276
  414TMC3     O 6181   4.165   3.540  15.624  0.1195  0.1803 -0.6488
  414TMC3     H 6182   4.028   3.348  15.332  0.1799 -0.0826 -0.5989
  414TMC3    H1 6183   4.325   3.622  15.472  1.6590  0.2118 -1.5819
  414TMC3    H2 6184   4.386   3.376  15.134 -1.0956 -2.1142  0.0848
  414TMC3    C7 6185   4.510   3.563  15.305  0.5060  0.2511  0.0280
  414TMC3    C8 6186   4.180   3.227  15.158  0.4820 -0.0571  0.5011
  414TMC3    O1 6187   4.561   3.595  15.412  0.0446 -0.2895 -0.1490
  414TMC3    O2 6188   4.067   3.199  15.136  0.2086 -0.7292 -0.5865
  415TMC3    C1 6189   0.003   0.444  10.019  0.2190  0.4631 -0.0952
  415TMC3    C2 6190   0.111   0.415   9.936  0.0006  0.0780 -0.4645
  415TMC3    C3 6191   0.130   0.284   9.901  0.0435 -0.4985 -0.2636
  415TMC3    C4 6192   4.660   0.336  10.076 -0.1312  0.5054  0.6472
  415TMC3    C5 6193   4.681   0.207  10.041 -0.2792 -0.2336 -0.0466
  415TMC3    C6 6194   0.052   0.184   9.949 -0.4335 -0.2364 -0.0505
  415TMC3     C 6195   4.682   0.576  10.058  0.1466 -0.2220  0.2566
  415TMC3     O 6196   4.602   0.587  10.154  0.5247 -0.1070  0.3472
  415TMC3     H 6197   0.156   0.496   9.879  1.7215 -2.1462 -2.2741
  415TMC3    H1 6198   4.595   0.359  10.161 -0.9149  1.4920 -0.2164
  415TMC3    H2 6199   0.071   0.085   9.908 -0.3391  0.0302 -0.6564
  415TMC3    C7 6200   4.565   0.117  10.028  0.1933 -0.3530  0.0067
  415TMC3    C8 6201   0.231   0.244   9.807  0.4123 -0.2880 -0.3914
  415TMC3    O1 6202   4.572   0.038   9.937 -0.2667  0.2293  0.6173
  415TMC3    O2 6203   0.220   0.137   9.752 -0.3828 -0.0457  0.3454
  416MPD2     C 6204   1.544   0.350  12.020  0.3946 -0.0912  0.4885
  416MPD2    C1 6205   1.445   0.306  11.927 -0.6939  0.1929  0.1825
  416MPD2    C2 6206   1.460   0.187  11.857  0.6086  0.4346  0.3956
  416MPD2    C3 6207   1.569   0.101  11.900  0.0953 -0.1555  0.3555
  416MPD2    C4 6208   1.665   0.149  11.987 -0.1991 -0.1074 -0.2663
  416MPD2    C5 6209   1.660   0.281  12.030 -0.3579 -0.1160  0.0983
  416MPD2     H 6210   1.390   0.161  11.778 -0.6015 -1.9541  2.2408
  416MPD2    H1 6211   1.760   0.098  11.997  0.1863  0.7247  0.4153
  416MPD2    H2 6212   1.529   0.450  12.060 -3.2409 -0.2870 -0.4428
  416MPD2    H3 6213   1.727   0.318  12.107  1.4122  2.8089 -2.8483
  416MPD2     N 6214   1.559   4.692  11.870  0.3360  0.3208 -0.1324
  416MPD2    H5 6215   1.472   4.664  11.825 -1.0593  1.4266  1.8755
  416MPD2    N1 6216   1.334   0.401  11.906  0.7977 -0.0206  0.7623
  416MPD2    H7 6217   1.325   0.476  11.974 -2.4890  0.3502 -0.0590
  417TMC3    C1 6218   1.159   0.511  11.803  0.0846  0.1775  0.0757
  417TMC3    C2 6219   1.183   0.609  11.895 -0.0492 -0.1056  0.6610
  417TMC3    C3 6220   1.143   0.735  11.864  0.6498 -0.0445 -0.3037
  417TMC3    C4 6221   1.097   0.534  11.686  0.0110  0.0590  0.1873
  417TMC3    C5 6222   1.050   0.657  11.657  0.5592 -0.8383 -0.1842
  417TMC3    C6 6223   1.077   0.763  11.745  1.0824 -0.5781 -0.0353
  417TMC3     C 6224   1.245   0.395  11.803  0.2497 -0.4096 -0.2105
  417TMC3     O 6225   1.236   0.315  11.709 -0.5192 -0.2547 -0.8967
  417TMC3     H 6226   1.235   0.589  11.988  1.0391  0.6908  0.2281
  417TMC3    H1 6227   1.094   0.465  11.602  0.7140 -2.3458  2.1278
  417TMC3    H2 6228   1.042   0.861  11.713  2.9432 -0.7166 -2.4061
  417TMC3    C7 6229   1.010   0.689  11.518 -0.6361 -0.1567 -0.6227
  417TMC3    C8 6230   1.171   0.829  11.964  0.5013  0.5638  0.6134
  417TMC3    O1 6231   1.046   0.801  11.475  0.1535  0.1307 -0.4816
  417TMC3    O2 6232   1.078   0.887  12.022 -0.1360  0.4678 -0.1952
  418TMC3    C1 6233   4.659   2.175   0.079 -0.6003 -0.0396 -0.3437
  418TMC3    C2 6234   4.528   2.210   0.074 -0.4079  0.2587 -0.6117
  418TMC3    C3 6235   4.446   2.174   0.182  1.1080  0.1105  0.3979
  418TMC3    C4 6236   4.705   2.097   0.186 -0.0722 -0.3118  0.3572
  418TMC3    C5 6237   4.614   2.060   0.286  0.4682  0.1036 -1.0384
  418TMC3    C6 6238   4.486   2.095   0.290  0.5213 -0.0863 -0.5960
  418TMC3     C 6239   4.705   2.146  17.642  0.1683 -0.4320 -0.2236
  418TMC3     O 6240   4.632   2.199  17.560  0.4799 -0.3558  0.4003
  418TMC3     H 6241   4.475   2.261  17.695  0.2350  0.2319 -1.0635
  418TMC3    H1 6242   0.085   2.072   0.198  0.2871  0.7541 -0.6116
  418TMC3    H2 6243   4.420   2.065   0.370  1.3374 -0.9423 -0.2422
  418TMC3    C7 6244   4.658   1.954   0.377  0.1707 -0.0494  0.3544
  418TMC3    C8 6245   4.307   2.145   0.137  0.0806 -0.8872  0.4190
  418TMC3    O1 6246   4.580   1.861   0.394 -0.5045 -0.2549  0.0747
  418TMC3    O2 6247   4.273   2.199   0.034  0.8720  0.2237 -0.5754
  419MPD2     C 6248   3.087   4.690  12.602 -0.0907  0.0200  0.4325
  419MPD2    C1 6249   3.193   4.693  12.690 -0.9494 -0.0904 -0.7075
  419MPD2    C2 6250   3.167   0.006  12.820 -0.2506 -0.1597  0.0562
  419MPD2    C3 6251   3.035   0.032  12.867  0.5285  0.2814 -0.4137
  419MPD2    C4 6252   2.933   0.034  12.777 -0.1583 -0.1161  0.6753
  419MPD2    C5 6253   2.962   4.719  12.643 -0.1500 -0.4318 -1.0177
  419MPD2     H 6254   3.247   4.723  12.892  0.1049  0.9392 -0.2251
  419MPD2    H1 6255   2.827   0.049  12.792 -0.5575  0.1778 -2.4039
  419MPD2    H2 6256   3.099   4.657  12.499  0.6518 -0.9932  0.8418
  419MPD2    H3 6257   2.874   4.710  12.580 -0.2327  4.6579 -1.6028
  419MPD2     N 6258   3.017   0.071  12.996  0.3075 -0.1930 -0.0357
  419MPD2    H5 6259   3.097   0.081  13.058 -1.6764  2.4850  2.0857
  419MPD2    N1 6260   3.328   4.663  12.663  0.3315  0.2771 -0.1737
  419MPD2    H7 6261   3.388   4.649  12.744 -0.4907 -0.9796  0.2230
  420TMC3    C1 6262   2.906   0.131  13.188 -0.7846  0.3345  0.3643
  420TMC3    C2 6263   2.804   0.207  13.236  0.0805  0.0850 -0.0269
  420TMC3    C3 6264   2.803   0.234  13.368 -0.5546  0.2489 -0.1326
  420TMC3    C4 6265   3.005   0.099  13.269  0.1627 -0.1615  0.4792
  420TMC3    C5 6266   3.002   0.133  13.407 -0.0224  0.5440 -0.5217
  420TMC3    C6 6267   2.897   0.198  13.453  0.5335 -0.2410 -0.0030
  420TMC3     C 6268   2.894   0.102  13.049 -0.0140  0.1152 -0.5639
  420TMC3     O 6269   2.784   0.127  12.995 -0.0470 -0.3664  0.4172
  420TMC3     H 6270   2.724   0.246  13.173 -0.5238  0.0166  0.7097
  420TMC3    H1 6271   3.087   0.035  13.239 -0.5312 -1.3372  1.0870
  420TMC3    H2 6272   2.900   0.224  13.558 -0.5503  0.2538 -0.0952
  420TMC3    C7 6273   3.117   0.125  13.487  0.8860 -0.3096  0.1431
  420TMC3    C8 6274   2.724   0.348  13.412  0.1639 -0.6198  0.6107
  420TMC3    O1 6275   3.106   0.089  13.602  0.6366  0.0188 -0.1948
  420TMC3    O2 6276   2.681   0.330  13.528 -0.7311 -0.2584 -0.0687
  421TMC3    C1 6277   4.719   2.151  14.324  0.4622 -0.6197  0.2116
  421TMC3    C2 6278   0.047   2.232  14.424 -0.2783  0.1553 -0.4939
  421TMC3    C3 6279   0.179   2.215  14.455 -0.1408 -0.4737  0.3495
  421TMC3    C4 6280   0.077   2.067  14.252  0.0025  0.1242  0.3942
  421TMC3    C5 6281   0.205   2.056  14.283 -0.3382 -0.4069 -0.5882
  421TMC3    C6 6282   0.261   2.124  14.388 -0.3299 -0.4619  0.4180
  421TMC3     C 6283   4.607   2.206  14.242  0.3001  0.2731 -0.7726
  421TMC3     O 6284   4.585   2.324  14.244  0.0521  0.0031 -0.5527
  421TMC3     H 6285   4.708   2.310  14.464 -0.1419  0.0749 -0.1170
  421TMC3    H1 6286   0.046   2.023  14.158 -0.2947  2.3795 -0.5650
  421TMC3    H2 6287   0.361   2.114  14.427  0.0008 -2.3750 -0.8864
  421TMC3    C7 6288   0.274   1.925  14.279  0.0271 -0.3375 -0.0964
  421TMC3    C8 6289   0.236   2.253  14.582 -0.0233  0.0790  0.7400
  421TMC3    O1 6290   0.397   1.933  14.258 -0.3280  0.6700  0.1019
  421TMC3    O2 6291   0.280   2.168  14.661 -0.3204  0.1120 -0.0901
  422TMC3    C1 6292   2.561   2.922  12.906  0.3705  0.3473 -0.6525
  422TMC3    C2 6293   2.541   3.036  12.980 -0.3272  0.1218 -0.8999
  422TMC3    C3 6294   2.432   3.031  13.062  0.2187  0.6396  0.8812
  422TMC3    C4 6295   2.464   2.814  12.900  0.3920 -0.1796  0.0218
  422TMC3    C5 6296   2.346   2.839  12.964 -0.2273  0.2021 -0.0074
  422TMC3    C6 6297   2.338   2.931  13.060 -0.7245  1.0556 -0.2991
  422TMC3     C 6298   2.650   2.945  12.793  0.0365 -0.6074  0.4245
  422TMC3     O 6299   2.666   3.064  12.767 -0.0012 -0.0496  0.2457
  422TMC3     H 6300   2.605   3.123  12.971  0.0592 -0.1766 -1.0370
  422TMC3    H1 6301   2.485   2.728  12.837  1.2430  1.2673 -1.6927
  422TMC3    H2 6302   2.251   2.942  13.125 -2.3717 -0.5374 -2.2257
  422TMC3    C7 6303   2.249   2.726  12.970 -0.5671 -0.1400  0.9042
  422TMC3    C8 6304   2.429   3.131  13.173  0.1486 -0.0247  0.1392
  422TMC3    O1 6305   2.293   2.614  12.947  0.3916 -0.0716  0.7951
  422TMC3    O2 6306   2.475   3.243  13.153 -0.2604  0.0208 -0.4472
  423MPD2     C 6307   3.695   4.256   0.412 -0.1331 -1.4403 -0.3923
  423MPD2    C1 6308   3.750   4.162   0.490  0.0001 -0.5815 -0.1279
  423MPD2    C2 6309   3.845   4.072   0.435  1.4901  0.4938  0.2704
  423MPD2    C3 6310   3.895   4.086   0.308  0.1935 -0.1615  0.1199
  423MPD2    C4 6311   3.839   4.184   0.225  0.3473  0.5826  0.2524
  423MPD2    C5 6312   3.739   4.267   0.281  0.0468 -0.5864  0.1567
  423MPD2     H 6313   3.881   3.990   0.496 -2.9520  0.0291  2.2979
  423MPD2    H1 6314   3.886   4.194   0.128  0.0362  1.5763  0.2033
  423MPD2    H2 6315   3.619   4.327   0.442  0.5879 -0.4987 -0.7571
  423MPD2    H3 6316   3.711   4.359   0.231 -0.0771  0.2363  1.7291
  423MPD2     N 6317   3.997   4.011   0.250  0.3144 -0.0028  0.5479
  423MPD2    H5 6318   4.027   4.040   0.157 -2.4940  2.0901  0.3096
  423MPD2    N1 6319   3.719   4.154   0.630  0.4399 -0.4143  0.2225
  423MPD2    H7 6320   3.759   4.070   0.670  1.7477 -0.2265 -0.6865
  424TMC3    C1 6321   3.649   4.209   0.841  0.0214  0.1535 -0.1678
  424TMC3    C2 6322   3.751   4.139   0.901  0.5407 -0.0827 -1.2755
  424TMC3    C3 6323   3.728   4.113   1.034 -0.3018  0.3042 -0.9042
  424TMC3    C4 6324   3.538   4.250   0.906 -0.3283 -0.3261  0.1805
  424TMC3    C5 6325   3.524   4.222   1.038  0.8316 -0.9129 -0.5378
  424TMC3    C6 6326   3.619   4.159   1.106  0.3378 -0.4981 -0.0325
  424TMC3     C 6327   3.661   4.250   0.706 -0.4936  0.0499  0.0648
  424TMC3     O 6328   3.615   4.356   0.672 -0.7285 -0.7794 -0.8292
  424TMC3     H 6329   3.839   4.108   0.847  1.7089 -0.4259  0.8062
  424TMC3    H1 6330   3.452   4.290   0.853  0.0139  1.0059  0.6152
  424TMC3    H2 6331   3.623   4.145   1.214 -1.7578 -0.0884  0.0997
  424TMC3    C7 6332   3.401   4.244   1.099  0.5017 -0.3131 -0.5749
  424TMC3    C8 6333   3.842   4.040   1.097 -0.6774  0.3037 -0.7999
  424TMC3    O1 6334   3.326   4.331   1.056 -0.0911  0.4849  0.3504
  424TMC3    O2 6335   3.880   3.944   1.032  0.5018 -0.0469  0.0245
  425MPD2     C 6336   3.016   3.686   0.163  0.1895 -0.5294  0.3076
  425MPD2    C1 6337   2.938   3.590   0.098  0.1188 -0.1715  0.1943
  425MPD2    C2 6338   2.797   3.588   0.123 -0.1043 -0.4646  0.5404
  425MPD2    C3 6339   2.740   3.688   0.196  0.7257  0.3502 -0.5376
  425MPD2    C4 6340   2.814   3.794   0.241  0.6827 -0.5377 -0.0343
  425MPD2    C5 6341   2.953   3.794   0.224 -0.6925 -0.4581  0.2229
  425MPD2     H 6342   2.738   3.503   0.093 -1.7222  1.5376 -1.9317
  425MPD2    H1 6343   2.774   3.878   0.296  1.8291 -1.6237  2.4536
  425MPD2    H2 6344   3.123   3.677   0.155  0.1620  0.2696 -1.1316
  425MPD2    H3 6345   3.016   3.872   0.267 -1.7377  1.2345 -1.2988
  425MPD2     N 6346   2.600   3.671   0.226  0.1644  0.2790 -0.3974
  425MPD2    H5 6347   2.568   3.576   0.212  2.4770 -0.7762  1.4770
  425MPD2    N1 6348   2.982   3.478   0.030 -0.4369 -0.7003 -0.1421
  425MPD2    H7 6349   2.909   3.415  17.698  0.7852 -1.6714 -1.0538
  426TMC3    C1 6350   3.094   3.275   0.038  0.1437 -0.0478 -0.0778
  426TMC3    C2 6351   3.058   3.232  17.613 -0.1449 -0.2778 -0.1488
  426TMC3    C3 6352   2.989   3.116  17.606 -0.3079  0.5936  0.0470
  426TMC3    C4 6353   3.053   3.210   0.148 -0.2582  0.0202 -0.2234
  426TMC3    C5 6354   2.983   3.098   0.141  1.1326  0.1782 -0.1802
  426TMC3    C6 6355   2.941   3.050   0.022 -0.3769  0.1887 -0.2886
  426TMC3     C 6356   3.107   3.419   0.058 -0.0761 -0.5848 -0.2827
  426TMC3     O 6357   3.190   3.459   0.139 -0.4601  0.2257 -0.5147
  426TMC3     H 6358   3.086   3.298  17.532 -0.1619  1.3684  1.1920
  426TMC3    H1 6359   3.085   3.254   0.242 -1.8380  0.1134  0.2708
  426TMC3    H2 6360   2.886   2.959  17.698 -1.3862  0.9173 -0.7347
  426TMC3    C7 6361   2.939   3.038   0.264 -0.0307 -0.0077 -0.2852
  426TMC3    C8 6362   2.991   3.043  17.475 -0.0397  0.0232  0.3057
  426TMC3    O1 6363   2.858   2.946   0.250 -0.0502  0.1040  0.1610
  426TMC3    O2 6364   2.951   2.924  17.467  0.2549 -0.1062 -0.2742
  427MPD2     C 6365   1.173   0.861  15.012 -0.2069 -0.0116  0.8597
  427MPD2    C1 6366   1.161   0.767  15.114  0.7550 -0.4934  0.2273
  427MPD2    C2 6367   1.033   0.736  15.163 -0.5430  1.0100  0.3430
  427MPD2    C3 6368   0.916   0.798  15.109 -0.5755  0.0794 -0.1342
  427MPD2    C4 6369   0.934   0.877  14.996  0.0762 -0.0747  0.4425
  427MPD2    C5 6370   1.064   0.913  14.956 -0.0763 -0.0062  0.5604
  427MPD2     H 6371   1.022   0.669  15.247  0.7710  1.2411  0.7175
  427MPD2    H1 6372   0.848   0.920  14.946  1.0958  1.0570 -0.3334
  427MPD2    H2 6373   1.268   0.897  14.974 -0.0983  0.0599  1.1913
  427MPD2    H3 6374   1.077   0.981  14.873 -3.0657  1.2915  1.1381
  427MPD2     N 6375   0.781   0.782  15.156 -0.3782 -0.1475 -0.3556
  427MPD2    H5 6376   0.706   0.821  15.101 -0.7996 -2.1169 -1.1721
  427MPD2    N1 6377   1.266   0.692  15.166 -0.3517 -0.1917 -0.4026
  427MPD2    H7 6378   1.248   0.613  15.226  2.9342 -0.3869  0.3247
  428TMC3    C1 6379   1.488   0.637  15.209 -0.2453 -0.0855 -0.2203
  428TMC3    C2 6380   1.458   0.502  15.228 -0.2856 -0.3817 -0.3194
  428TMC3    C3 6381   1.553   0.422  15.281 -0.7474 -0.3317  0.1582
  428TMC3    C4 6382   1.606   0.695  15.253  0.4449 -0.7440  0.2224
  428TMC3    C5 6383   1.693   0.607  15.309  0.7785 -0.0427 -0.0988
  428TMC3    C6 6384   1.670   0.479  15.333 -0.3862 -0.3323  0.1587
  428TMC3     C 6385   1.397   0.724  15.147  0.1764 -0.3604 -0.0887
  428TMC3     O 6386   1.445   0.820  15.088  0.2169  0.1863  0.0261
  428TMC3     H 6387   1.378   0.454  15.171 -2.2386  0.9272  1.3265
  428TMC3    H1 6388   1.624   0.798  15.223 -0.1064 -0.4763  0.8153
  428TMC3    H2 6389   1.747   0.415  15.374 -1.4857 -2.3496 -0.8859
  428TMC3    C7 6390   1.827   0.653  15.355  0.2590  0.4156  0.7420
  428TMC3    C8 6391   1.544   0.278  15.273  0.8662  0.3887 -0.4525
  428TMC3    O1 6392   1.891   0.582  15.430  0.1339 -0.0447  0.0094
  428TMC3    O2 6393   1.641   0.220  15.316 -0.2091 -0.4583  0.2850
  429MPD2     C 6394   3.002   0.992   0.342 -1.0016 -0.6363 -0.0023
  429MPD2    C1 6395   2.963   0.908   0.241 -0.4465  0.0741  0.4689
  429MPD2    C2 6396   2.948   0.973   0.117 -0.4892  0.3175 -0.1902
  429MPD2    C3 6397   2.964   1.107   0.097  0.0829 -0.6215 -0.5847
  429MPD2    C4 6398   3.018   1.180   0.199  0.0156  0.3431 -0.2924
  429MPD2    C5 6399   3.040   1.120   0.315  0.8868 -0.2482 -0.4331
  429MPD2     H 6400   2.915   0.907   0.038  3.2609 -0.5136 -1.0536
  429MPD2    H1 6401   3.048   1.284   0.198  0.7041  0.1504  1.3701
  429MPD2    H2 6402   3.034   0.963   0.441  1.8825 -1.2405 -1.0975
  429MPD2    H3 6403   3.079   1.169   0.403  0.8882 -0.2964 -0.4070
  429MPD2     N 6404   2.912   1.160  17.677  0.8962 -0.0322 -0.0392
  429MPD2    H5 6405   2.872   1.098  17.608  2.9159 -0.3398 -0.9233
  429MPD2    N1 6406   2.948   0.769   0.244 -0.0185  0.7212  0.0320
  429MPD2    H7 6407   2.904   0.729   0.161  2.1825  1.3187 -1.4307
  430TMC3    C1 6408   2.905   1.307  17.493 -0.3762 -0.5284 -0.0915
  430TMC3    C2 6409   2.915   1.437  17.447 -0.7431 -0.1632  0.3673
  430TMC3    C3 6410   2.961   1.446  17.313 -0.2707  0.3080  0.4388
  430TMC3    C4 6411   2.949   1.198  17.423  0.5590  0.1949  0.3508
  430TMC3    C5 6412   3.002   1.216  17.298  0.2857 -0.0120 -0.1407
  430TMC3    C6 6413   3.009   1.342  17.239  0.3082 -0.6966 -0.1059
  430TMC3     C 6414   2.934   1.291  17.631 -0.4313 -0.2995  0.2963
  430TMC3     O 6415   2.982   1.385  17.695 -0.6398  0.5481  0.4913
  430TMC3     H 6416   2.876   1.522  17.501  1.7503  0.3320  1.4292
  430TMC3    H1 6417   2.944   1.095  17.456 -4.7779  0.2643 -0.2128
  430TMC3    H2 6418   3.051   1.341  17.140  1.2774 -3.9438  0.3386
  430TMC3    C7 6419   3.034   1.099  17.221 -0.4847 -0.0894  0.1220
  430TMC3    C8 6420   2.928   1.555  17.219  0.5728 -0.0128  0.3816
  430TMC3    O1 6421   3.070   1.003  17.289  0.3463  0.0110 -1.0798
  430TMC3    O2 6422   2.942   1.543  17.096  0.1804  0.3399  0.2915
  431MPD2     C 6423   3.819   0.232  13.214 -0.0992 -0.2577  0.3384
  431MPD2    C1 6424   3.864   0.285  13.094 -0.0592  0.0606 -0.1461
  431MPD2    C2 6425   3.840   0.220  12.976  0.9037  0.0544  0.1746
  431MPD2    C3 6426   3.779   0.096  12.975 -0.0865 -0.7859  0.1577
  431MPD2    C4 6427   3.733   0.043  13.088  0.7703 -0.2244  0.2181
  431MPD2    C5 6428   3.758   0.109  13.207  0.4631  0.0521 -0.7573
  431MPD2     H 6429   3.855   0.273  12.883 -1.2068  2.2828  1.1160
  431MPD2    H1 6430   3.681   4.673  13.095 -0.2131  0.3853  1.2045
  431MPD2    H2 6431   3.812   0.276  13.312  1.7024 -1.0350  0.8202
  431MPD2    H3 6432   3.720   0.075  13.303 -0.0877 -0.5111 -1.1716
  431MPD2     N 6433   3.752   0.020  12.853 -0.4458  0.3111 -0.1315
  431MPD2    H5 6434   3.696   4.663  12.876  0.6571 -0.5964 -0.6645
  431MPD2    N1 6435   3.910   0.412  13.078  0.0395  0.0985 -0.1260
  431MPD2    H7 6436   3.950   0.429  12.987 -0.1226 -0.7516 -0.3535
  432TMC3    C1 6437   3.732   4.695  12.627 -0.0937  0.8801 -0.0114
  432TMC3    C2 6438   3.800   4.649  12.519 -0.1992  0.4692 -0.5035
  432TMC3    C3 6439   3.725   4.604  12.415  0.0643 -0.3432 -0.0013
  432TMC3    C4 6440   3.595   4.693  12.636 -0.8791  0.0780 -0.1654
  432TMC3    C5 6441   3.524   4.650  12.529 -0.3398 -0.3166  0.2750
  432TMC3    C6 6442   3.587   4.597  12.419  0.0432 -0.6955 -1.0119
  432TMC3     C 6443   3.794   0.051  12.726 -0.6757  0.2410  0.1861
  432TMC3     O 6444   3.898   0.110  12.697 -0.1396 -0.2240  0.3679
  432TMC3     H 6445   3.908   4.645  12.519 -0.2496 -0.8883  0.2606
  432TMC3    H1 6446   3.550   0.025  12.717 -2.8864  1.3875 -2.1822
  432TMC3    H2 6447   3.524   4.550  12.344 -2.0878  1.0886 -0.3166
  432TMC3    C7 6448   3.380   4.655  12.533  0.4123  0.3590  0.4682
  432TMC3    C8 6449   3.781   4.603  12.286 -0.2602 -0.3178 -0.0398
  432TMC3    O1 6450   3.327   4.650  12.424  0.3098 -0.2403  0.0071
  432TMC3    O2 6451   3.704   4.559  12.206  0.0555  0.2861 -0.0077
  433MPD2     C 6452   2.487   3.975  11.017 -0.2986 -0.4551  0.0813
  433MPD2    C1 6453   2.419   3.872  11.089  0.0035 -0.0479  0.0581
  433MPD2    C2 6454   2.414   3.886  11.229 -0.4887  0.0918  0.0400
  433MPD2    C3 6455   2.502   3.971  11.296  0.6719 -0.3885  0.1812
  433MPD2    C4 6456   2.562   4.076  11.226 -0.3097 -0.4330  0.2407
  433MPD2    C5 6457   2.547   4.075  11.090  0.3551 -0.1468  0.4064
  433MPD2     H 6458   2.367   3.802  11.280 -1.8365 -0.2424 -1.7473
  433MPD2    H1 6459   2.631   4.150  11.266 -0.1177 -1.5010  1.9061
  433MPD2    H2 6460   2.499   3.979  10.909 -1.3078 -3.3399 -0.1587
  433MPD2    H3 6461   2.601   4.155  11.040  1.8570 -0.8212  0.9860
  433MPD2     N 6462   2.515   3.949  11.431 -0.5061  0.1120 -0.0258
  433MPD2    H5 6463   2.479   3.865  11.475  1.4018 -1.0953 -0.7547
  433MPD2    N1 6464   2.360   3.763  11.015  0.0044 -0.1790 -0.3806
  433MPD2    H7 6465   2.376   3.764  10.914  1.6081  0.9980 -0.1154
  434TMC3    C1 6466   2.265   3.553  10.966 -0.0563 -0.2973  0.1932
  434TMC3    C2 6467   2.275   3.431  11.027  0.8062  0.4254 -0.5449
  434TMC3    C3 6468   2.343   3.330  10.953 -0.6004 -0.5009  0.1252
  434TMC3    C4 6469   2.301   3.576  10.836 -0.8467 -0.2198 -0.6013
  434TMC3    C5 6470   2.347   3.471  10.763 -0.4914 -0.0171 -0.1001
  434TMC3    C6 6471   2.372   3.345  10.824 -0.2989  0.2104  0.4311
  434TMC3     C 6472   2.283   3.660  11.062  0.4136  0.2250 -0.2935
  434TMC3     O 6473   2.253   3.631  11.177 -0.1804 -0.0820  0.3361
  434TMC3     H 6474   2.248   3.413  11.130  0.5038 -3.0463 -1.2259
  434TMC3    H1 6475   2.285   3.670  10.785 -1.4599 -1.0752 -1.9785
  434TMC3    H2 6476   2.428   3.268  10.772 -1.1321  1.0653 -1.7590
  434TMC3    C7 6477   2.336   3.480  10.618  0.1765 -0.7224  0.1474
  434TMC3    C8 6478   2.436   3.253  11.036 -0.9442  0.1983  0.3754
  434TMC3    O1 6479   2.319   3.588  10.571  0.1368 -0.4093  0.4298
  434TMC3    O2 6480   2.464   3.315  11.137 -0.4163  0.5359  0.5146
  435MPD2     C 6481   0.282   4.325  15.690 -0.9214 -0.1812  0.1870
  435MPD2    C1 6482   0.195   4.339  15.794  0.1268 -0.1452  0.5674
  435MPD2    C2 6483   0.242   4.295  15.922 -0.2223 -0.2255 -0.8733
  435MPD2    C3 6484   0.368   4.236  15.941  0.6004  0.3170  0.1003
  435MPD2    C4 6485   0.448   4.229  15.832  0.1339 -0.8767  0.4682
  435MPD2    C5 6486   0.409   4.284  15.713 -0.5622 -0.0864  0.0461
  435MPD2     H 6487   0.184   4.302  16.013  0.2629  0.8203 -0.6451
  435MPD2    H1 6488   0.547   4.190  15.850  1.0849  0.7913 -1.2230
  435MPD2    H2 6489   0.253   4.369  15.595  0.3656 -0.4521 -0.3210
  435MPD2    H3 6490   0.484   4.292  15.635 -1.0673 -2.4353 -0.6842
  435MPD2     N 6491   0.401   4.184  16.072 -0.2582 -0.3938 -0.5632
  435MPD2    H5 6492   0.335   4.215  16.143  1.0077  1.5128 -0.2086
  435MPD2    N1 6493   0.064   4.392  15.776 -0.3716  0.2425  0.3880
  435MPD2    H7 6494   0.007   4.393  15.860 -0.8891 -0.4859  0.0514
  436TMC3    C1 6495   4.395   4.459  15.755 -0.2855  0.6973  0.3162
  436TMC3    C2 6496   4.525   4.418  15.743  0.2196 -0.2002  0.1131
  436TMC3    C3 6497   4.608   4.498  15.667 -0.7843 -0.0458  0.3383
  436TMC3    C4 6498   4.358   4.578  15.707  0.0354  0.1819 -0.1496
  436TMC3    C5 6499   4.447   4.662  15.640 -1.0105  0.5347 -0.0160
  436TMC3    C6 6500   4.576   4.627  15.627 -0.2948  0.7391  0.5050
  436TMC3     C 6501   4.304   4.374  15.824  0.1449  0.4037 -0.7973
  436TMC3     O 6502   4.331   4.256  15.828  1.0059  0.1648 -0.2256
  436TMC3     H 6503   4.553   4.317  15.769 -1.4558 -0.9410 -0.9264
  436TMC3    H1 6504   4.252   4.602  15.718  0.0213  0.2794 -0.5211
  436TMC3    H2 6505   4.652   4.684  15.575  2.0273 -0.9626  2.0065
  436TMC3    C7 6506   4.391   0.039  15.562 -0.0068  0.1714 -0.7703
  436TMC3    C8 6507   0.022   4.465  15.664  0.1710 -0.1085 -0.1090
  436TMC3    O1 6508   4.285   0.086  15.596 -0.4522 -0.0969 -0.1858
  436TMC3    O2 6509   0.081   4.509  15.566  0.3018  0.3468 -0.1755
  437TMC3    C1 6510   2.861   1.350  12.492  0.5109  0.8974  0.4726
  437TMC3    C2 6511   2.757   1.330  12.408 -0.0655  0.3050 -0.1399
  437TMC3    C3 6512   2.768   1.372  12.281 -0.1476 -0.6149 -0.9476
  437TMC3    C4 6513   2.979   1.402  12.450 -0.5515 -0.1822 -0.2371
  437TMC3    C5 6514   2.981   1.448  12.326  0.2988 -0.4634 -0.9043
  437TMC3    C6 6515   2.880   1.434  12.238 -0.5252 -0.0673  0.1576
  437TMC3     C 6516   2.862   1.269  12.613  0.4047 -0.7122 -0.6944
  437TMC3     O 6517   2.970   1.218  12.649  0.0662  0.0185  0.1440
  437TMC3     H 6518   2.669   1.272  12.433 -0.1355  0.4788  0.0085
  437TMC3    H1 6519   3.069   1.387  12.508  0.3593  2.8517 -0.8479
  437TMC3    H2 6520   2.894   1.467  12.135  1.6258  0.9015  0.7539
  437TMC3    C7 6521   3.100   1.507  12.264 -0.0692  0.2571 -0.6022
  437TMC3    C8 6522   2.669   1.317  12.188 -0.3663  0.2215 -0.0146
  437TMC3    O1 6523   3.094   1.535  12.146  0.0751 -0.3636 -0.5173
  437TMC3    O2 6524   2.557   1.312  12.230  0.1516  0.1394  0.0823
  438MPD2     C 6525   0.321   2.017  16.728  0.1069 -0.0497  0.0883
  438MPD2    C1 6526   0.443   1.957  16.770 -0.3252 -0.0503  0.1948
  438MPD2    C2 6527   0.436   1.861  16.869  0.4366  0.1472  0.2455
  438MPD2    C3 6528   0.309   1.817  16.923  0.0786  0.6525 -0.2515
  438MPD2    C4 6529   0.194   1.871  16.875  0.6011  0.0054  0.9031
  438MPD2    C5 6530   0.196   1.972  16.778  0.5083 -0.8936  0.1163
  438MPD2     H 6531   0.528   1.828  16.915  0.4761 -0.9200 -0.5870
  438MPD2    H1 6532   0.108   1.834  16.929  0.2432 -0.3676  0.0737
  438MPD2    H2 6533   0.325   2.091  16.649  1.0903 -0.4223 -0.2217
  438MPD2    H3 6534   0.107   2.010  16.731  0.7824  2.0283  1.9744
  438MPD2     N 6535   0.295   1.716  17.027  0.3926 -0.5562 -0.5041
  438MPD2    H5 6536   0.200   1.692  17.054  0.6574  0.7498  1.6396
  438MPD2    N1 6537   0.569   1.999  16.731  0.4457  0.1740 -0.3901
  438MPD2    H7 6538   0.648   1.975  16.791  0.5079 -0.4119 -0.7103
  439TMC3    C1 6539   0.749   2.099  16.613 -0.3130  0.2863  0.3894
  439TMC3    C2 6540   0.788   2.192  16.508  0.1051 -0.4440 -0.6697
  439TMC3    C3 6541   0.913   2.248  16.508  0.8219 -0.4553 -0.6179
  439TMC3    C4 6542   0.834   2.049  16.704 -0.6974 -0.0559  0.2704
  439TMC3    C5 6543   0.956   2.098  16.692  0.0174  0.1332 -1.4279
  439TMC3    C6 6544   1.001   2.196  16.606 -0.6362  1.0281 -0.3620
  439TMC3     C 6545   0.603   2.066  16.621  0.4083 -0.6114 -0.3144
  439TMC3     O 6546   0.536   2.100  16.523  0.1156  0.2956 -0.1340
  439TMC3     H 6547   0.715   2.241  16.447  0.6945 -2.1586 -2.7465
  439TMC3    H1 6548   0.810   1.971  16.775 -1.5387  1.4174  1.6018
  439TMC3    H2 6549   1.095   2.249  16.615 -0.5810  0.8431  0.1075
  439TMC3    C7 6550   1.050   2.019  16.768 -0.3817 -0.3470  0.2470
  439TMC3    C8 6551   0.987   2.218  16.387 -0.1256 -0.5504 -0.3907
  439TMC3    O1 6552   1.003   1.961  16.865 -0.3267  0.0704 -0.2267
  439TMC3    O2 6553   1.085   2.156  16.417  0.0415  0.6017  0.9425
  440MPD2     C 6554   3.403   3.112  15.399 -0.0392  0.2420 -0.6180
  440MPD2    C1 6555   3.511   3.049  15.447  0.9814 -0.2061 -0.3704
  440MPD2    C2 6556   3.560   2.942  15.377  0.5796  0.2067 -0.7272
  440MPD2    C3 6557   3.518   2.919  15.244  0.2730  0.0157  0.3573
  440MPD2    C4 6558   3.413   2.984  15.191  0.4856 -0.4195 -0.2962
  440MPD2    C5 6559   3.359   3.082  15.272  0.0614 -0.2114  0.4909
  440MPD2     H 6560   3.644   2.892  15.425 -0.5894 -1.8804 -0.8295
  440MPD2    H1 6561   3.381   2.961  15.090  2.1966 -1.2008 -0.6550
  440MPD2    H2 6562   3.355   3.198  15.445 -0.7513 -1.1869  1.3177
  440MPD2    H3 6563   3.268   3.132  15.239  0.4942 -1.1589 -2.1256
  440MPD2     N 6564   3.580   2.821  15.171  0.4828 -0.1239  0.5774
  440MPD2    H5 6565   3.561   2.829  15.072 -0.7134 -1.5824  0.6882
  440MPD2    N1 6566   3.558   3.067  15.586  0.1739 -0.0307  0.6606
  440MPD2    H7 6567   3.631   3.002  15.612  2.1853  0.3794 -3.9538
  441TMC3    C1 6568   3.697   2.616  15.127  0.7426 -0.6890 -0.0057
  441TMC3    C2 6569   3.819   2.643  15.067 -0.1510 -0.5731 -1.0346
  441TMC3    C3 6570   3.913   2.549  15.063  1.1108  0.0376 -0.3231
  441TMC3    C4 6571   3.676   2.494  15.181  0.0514  0.1891 -0.5031
  441TMC3    C5 6572   3.787   2.417  15.194  0.0257  0.3600  0.5028
  441TMC3    C6 6573   3.905   2.432  15.130  0.2368 -0.8243 -0.4766
  441TMC3     C 6574   3.648   2.717  15.222  0.1539 -1.2444  0.3112
  441TMC3     O 6575   3.648   2.678  15.338  0.1002 -0.2026  0.2989
  441TMC3     H 6576   3.827   2.738  15.017  4.4429 -1.0477 -1.2162
  441TMC3    H1 6577   3.584   2.479  15.237  0.6800 -2.8009 -0.2381
  441TMC3    H2 6578   3.999   2.386  15.156  0.3477  0.4897  1.4884
  441TMC3    C7 6579   3.788   2.333  15.312 -0.0965 -0.4902 -0.2284
  441TMC3    C8 6580   4.053   2.591  15.036  0.2205  0.7162 -0.2013
  441TMC3    O1 6581   3.725   2.376  15.410 -0.5310  0.3975  0.5226
  441TMC3    O2 6582   4.138   2.505  15.005 -0.5971 -0.2577 -0.4326
  442MPD2     C 6583   2.484   2.799  17.108 -0.0222 -0.0354  0.0408
  442MPD2    C1 6584   2.353   2.752  17.127 -0.5537  0.3550  0.2990
  442MPD2    C2 6585   2.306   2.653  17.048 -0.0166 -0.7304  0.2931
  442MPD2    C3 6586   2.385   2.602  16.950 -0.1433  0.0404  0.6741
  442MPD2    C4 6587   2.518   2.638  16.942  0.4933 -0.6229  0.0594
  442MPD2    C5 6588   2.563   2.736  17.016 -0.0938  0.4517  0.1028
  442MPD2     H 6589   2.207   2.610  17.057 -0.8890  0.9003 -1.4336
  442MPD2    H1 6590   2.583   2.584  16.874  0.4838  1.3867 -1.5306
  442MPD2    H2 6591   2.527   2.889  17.150  0.6566 -0.1123 -0.4948
  442MPD2    H3 6592   2.668   2.763  17.006  0.0192  0.4030  1.1355
  442MPD2     N 6593   2.340   2.501  16.854 -0.1869 -0.1637  0.7197
  442MPD2    H5 6594   2.413   2.455  16.800 -0.0594 -1.5777  2.0873
  442MPD2    N1 6595   2.261   2.821  17.208 -0.6799 -0.6778 -0.3988
  442MPD2    H7 6596   2.166   2.785  17.201 -0.6405 -0.7459 -0.5802
  443TMC3    C1 6597   2.145   2.986  17.326 -0.9811  0.5902 -0.5914
  443TMC3    C2 6598   2.133   3.118  17.335  0.1357  0.0236  0.2017
  443TMC3    C3 6599   2.013   3.165  17.376 -1.1796  0.0912  0.0783
  443TMC3    C4 6600   2.059   2.900  17.383 -0.1937 -0.8496  0.3727
  443TMC3    C5 6601   1.938   2.948  17.426  0.3560  0.6575 -0.4404
  443TMC3    C6 6602   1.912   3.081  17.417  0.8886 -0.1429 -0.7322
  443TMC3     C 6603   2.265   2.949  17.265  0.0362  0.2238  0.4504
  443TMC3     O 6604   2.365   3.025  17.284  0.0313  0.1159  0.0462
  443TMC3     H 6605   2.209   3.194  17.323 -1.3428  1.8079  2.2182
  443TMC3    H1 6606   2.080   2.796  17.403 -1.0589 -1.3018 -1.0423
  443TMC3    H2 6607   1.832   3.128  17.474 -0.2582  0.8777 -3.2019
  443TMC3    C7 6608   1.857   2.848  17.495 -0.1485 -0.4047  0.2966
  443TMC3    C8 6609   1.994   3.301  17.422  0.2576  0.1106  0.3839
  443TMC3    O1 6610   1.879   2.738  17.447  0.5093  0.3770 -0.2445
  443TMC3    O2 6611   1.997   3.314  17.544  0.6831 -0.5645 -0.2174
  444MPD2     C 6612   2.657   2.608  17.367 -0.1812 -0.1369  0.1771
  444MPD2    C1 6613   2.564   2.508  17.365 -0.4705 -0.0663  0.3652
  444MPD2    C2 6614   2.603   2.386  17.303  0.1615 -0.6949 -0.4862
  444MPD2    C3 6615   2.720   2.382  17.226  0.1744  0.1059  0.7681
  444MPD2    C4 6616   2.806   2.485  17.238  0.1411  0.7377  0.1725
  444MPD2    C5 6617   2.780   2.601  17.303 -0.1192  0.0996 -0.3416
  444MPD2     H 6618   2.538   2.301  17.318 -0.2795 -0.6330 -2.0594
  444MPD2    H1 6619   2.898   2.485  17.181 -0.0237  0.0242 -0.0927
  444MPD2    H2 6620   2.621   2.702  17.408 -3.7480 -1.2716 -0.3588
  444MPD2    H3 6621   2.853   2.680  17.288 -1.0531  1.2681  1.3245
  444MPD2     N 6622   2.748   2.259  17.163  0.0845 -0.2008  0.2715
  444MPD2    H5 6623   2.674   2.190  17.157 -0.8309  0.6707  1.6502
  444MPD2    N1 6624   2.436   2.512  17.428 -0.0812  0.5148  0.0265
  444MPD2    H7 6625   2.381   2.431  17.402  0.7808 -0.6201  1.7399
  445TMC3    C1 6626   2.865   2.094  17.037 -0.3784  0.0456  0.5587
  445TMC3    C2 6627   2.755   2.031  16.993 -0.2875 -0.1266  0.0806
  445TMC3    C3 6628   2.764   1.906  16.949  0.3923  0.1918  0.3619
  445TMC3    C4 6629   2.987   2.044  17.021  0.3541 -0.2230  0.2260
  445TMC3    C5 6630   2.994   1.912  16.987  0.7998 -0.4221 -0.3606
  445TMC3    C6 6631   2.884   1.842  16.953  0.4203 -0.7601 -0.6288
  445TMC3     C 6632   2.859   2.236  17.079  1.1075 -0.6411  0.4310
  445TMC3     O 6633   2.961   2.303  17.060  0.1535 -0.1250 -0.0216
  445TMC3     H 6634   2.664   2.085  17.017 -0.3492 -0.9203  1.6355
  445TMC3    H1 6635   3.077   2.093  17.056  0.2864  1.6198 -2.1368
  445TMC3    H2 6636   2.888   1.743  16.910  2.5148  0.2484 -2.7552
  445TMC3    C7 6637   3.123   1.867  16.936  0.8423 -0.1033  0.3344
  445TMC3    C8 6638   2.661   1.848  16.868 -0.5624  0.1308  0.8793
  445TMC3    O1 6639   3.202   1.957  16.909 -0.0085 -0.7506  1.3978
  445TMC3    O2 6640   2.686   1.753  16.794  0.6543  0.5787  0.1323
  446MPD2     C 6641   2.289   3.381  11.663  0.9636 -0.0814 -0.0619
  446MPD2    C1 6642   2.246   3.350  11.535 -0.2497  0.4147 -0.5966
  446MPD2    C2 6643   2.321   3.402  11.431  0.2230  0.1557 -0.1346
  446MPD2    C3 6644   2.432   3.481  11.444  0.4637  0.6834  0.4761
  446MPD2    C4 6645   2.464   3.512  11.572 -0.1823 -0.2866  0.2643
  446MPD2    C5 6646   2.398   3.459  11.677  0.5429 -0.5569 -0.0538
  446MPD2     H 6647   2.309   3.365  11.330  2.3676 -0.3166 -0.2321
  446MPD2    H1 6648   2.550   3.574  11.596 -0.7137  1.0578 -1.3290
  446MPD2    H2 6649   2.225   3.351  11.745  0.8903 -1.0949 -0.4867
  446MPD2    H3 6650   2.428   3.501  11.773 -1.7462 -0.9223  0.8411
  446MPD2     N 6651   2.501   3.535  11.334 -0.0506  0.0909  0.4455
  446MPD2    H5 6652   2.457   3.518  11.244  1.1818 -0.2649 -0.0822
  446MPD2    N1 6653   2.137   3.263  11.504  0.1658 -0.5214  0.9721
  446MPD2    H7 6654   2.102   3.248  11.410 -0.8282 -1.5199  1.5042
  447TMC3    C1 6655   2.681   3.626  11.210  0.5349 -0.3597 -0.1654
  447TMC3    C2 6656   2.621   3.595  11.093 -1.1063  0.7050 -0.2240
  447TMC3    C3 6657   2.684   3.641  10.976  0.3493  0.2944  0.2209
  447TMC3    C4 6658   2.791   3.711  11.214 -0.3485  0.1645 -0.0803
  447TMC3    C5 6659   2.848   3.754  11.096 -0.4214 -0.5613 -0.3592
  447TMC3    C6 6660   2.793   3.720  10.978  0.0512 -0.5509 -0.2063
  447TMC3     C 6661   2.628   3.584  11.334  0.0311  0.1387 -1.2311
  447TMC3     O 6662   2.711   3.583  11.424  0.2403  0.1887  0.0644
  447TMC3     H 6663   2.536   3.528  11.087  1.7681 -2.9828  0.0490
  447TMC3    H1 6664   2.838   3.723  11.312 -1.2197  0.2277  0.3311
  447TMC3    H2 6665   2.843   3.755  10.889 -2.6639 -0.8207 -1.8477
  447TMC3    C7 6666   2.995   3.732  11.075 -0.1768  0.4543 -0.0699
  447TMC3    C8 6667   2.677   3.568  10.846  0.0088  0.3962 -0.4083
  447TMC3    O1 6668   3.033   3.684  10.968 -0.2888  0.2695  0.3236
  447TMC3    O2 6669   2.669   3.644  10.751  0.8720  0.2073 -0.3465
  448TMC3    C1 6670   1.710   3.625  17.598  0.4389  0.1105 -0.4035
  448TMC3    C2 6671   1.696   3.572  17.473 -0.1807 -0.4557  0.3263
  448TMC3    C3 6672   1.645   3.444  17.461  0.3841 -0.0497  0.6113
  448TMC3    C4 6673   1.690   3.549   0.011  0.5504  0.9182 -0.1685
  448TMC3    C5 6674   1.648   3.418  17.693 -0.3347 -0.0426  0.2756
  448TMC3    C6 6675   1.617   3.370  17.570 -0.0329 -0.3964 -0.6559
  448TMC3     C 6676   1.773   3.758  17.612  0.2198  0.4732  0.2778
  448TMC3     O 6677   1.871   3.793  17.540  0.4998 -0.1452  0.0129
  448TMC3     H 6678   1.752   3.629  17.400 -1.1233 -1.1284 -0.9234
  448TMC3    H1 6679   1.701   3.586   0.112 -0.0911  0.7817 -0.0459
  448TMC3    H2 6680   1.579   3.268  17.566 -0.7407 -0.0638 -2.5288
  448TMC3    C7 6681   1.604   3.350   0.109 -0.2677 -0.3756  0.0587
  448TMC3    C8 6682   1.593   3.392  17.336 -0.4107  0.9489  0.5848
  448TMC3    O1 6683   1.667   3.366   0.211 -0.2660  0.6457  1.2605
  448TMC3    O2 6684   1.548   3.277  17.343 -0.2076  0.1482 -0.9672
  449MPD2     C 6685   2.416   2.075  14.179 -0.6640  0.9287  0.5147
  449MPD2    C1 6686   2.301   2.071  14.101  0.4253  0.0953 -0.5032
  449MPD2    C2 6687   2.204   1.982  14.138  0.1928  0.3883 -0.0418
  449MPD2    C3 6688   2.204   1.909  14.250 -0.7853 -0.2978 -0.0403
  449MPD2    C4 6689   2.313   1.917  14.333 -0.6687  0.1289  0.3016
  449MPD2    C5 6690   2.421   1.997  14.292 -0.2038 -0.0601  0.2322
  449MPD2     H 6691   2.115   1.981  14.075 -0.2247 -0.4347  0.5637
  449MPD2    H1 6692   2.312   1.850  14.419 -1.6968 -0.3524 -0.0873
  449MPD2    H2 6693   2.501   2.137  14.155 -0.9248  2.7208  4.2184
  449MPD2    H3 6694   2.509   1.999  14.355 -0.1440  0.1009  0.1440
  449MPD2     N 6695   2.091   1.829  14.273 -0.4519 -0.5591 -0.3258
  449MPD2    H5 6696   2.030   1.814  14.194 -0.0500 -0.3650 -0.6745
  449MPD2    N1 6697   2.285   2.141  13.980 -0.1319  0.0346  0.2178
  449MPD2    H7 6698   2.199   2.133  13.927  0.3583 -1.2365 -0.3831
  450TMC3    C1 6699   2.346   2.266  13.792 -0.4349  0.2746  0.6382
  450TMC3    C2 6700   2.433   2.218  13.700 -0.4124 -0.1213 -0.2631
  450TMC3    C3 6701   2.396   2.133  13.598  0.5462 -0.4652 -0.0858
  450TMC3    C4 6702   2.216   2.249  13.763  0.2579  0.3963  0.1341
  450TMC3    C5 6703   2.168   2.167  13.658 -0.1354  0.9275 -0.0619
  450TMC3    C6 6704   2.259   2.108  13.576 -0.1542 -0.7266  0.0626
  450TMC3     C 6705   2.378   2.224  13.922  0.3178 -0.3001 -0.9078
  450TMC3     O 6706   2.490   2.256  13.956 -0.1428 -0.0301 -0.0965
  450TMC3     H 6707   2.541   2.225  13.703 -0.4077 -0.5063  0.3330
  450TMC3    H1 6708   2.149   2.301  13.830  0.3557 -0.1802  0.6855
  450TMC3    H2 6709   2.218   2.040  13.502 -0.1938 -0.5845 -0.0472
  450TMC3    C7 6710   2.065   2.084  13.706 -0.2428 -0.5497  0.2639
  450TMC3    C8 6711   2.488   2.120  13.487  0.0126  0.1584 -0.0872
  450TMC3    O1 6712   2.059   2.080  13.827  0.7660  0.5050  0.2642
  450TMC3    O2 6713   2.559   2.217  13.469 -0.4397  0.2774  0.2242
  451MPD2     C 6714   2.715   0.795   1.418 -0.2975 -0.3038  0.0336
  451MPD2    C1 6715   2.843   0.823   1.458  0.1893 -0.1564  0.2463
  451MPD2    C2 6716   2.946   0.730   1.442  0.3145  0.3865 -0.1520
  451MPD2    C3 6717   2.913   0.609   1.389 -0.0511  0.1782  0.0101
  451MPD2    C4 6718   2.779   0.577   1.364  0.6243 -0.0161  0.0658
  451MPD2    C5 6719   2.680   0.672   1.374  0.2292  1.0054  0.2899
  451MPD2     H 6720   3.049   0.748   1.470  0.5055 -0.4576 -0.3135
  451MPD2    H1 6721   2.763   0.477   1.326  0.1405 -0.7009  2.1208
  451MPD2    H2 6722   2.634   0.865   1.433  0.3282  0.9425 -2.5064
  451MPD2    H3 6723   2.579   0.652   1.339  0.7451 -1.0580 -0.0098
  451MPD2     N 6724   2.999   0.500   1.388 -0.1192  0.1160  0.2697
  451MPD2    H5 6725   2.961   0.408   1.369 -0.6376  0.0856  1.4508
  451MPD2    N1 6726   2.859   0.962   1.499 -0.1239  0.5602  0.7132
  451MPD2    H7 6727   2.774   1.015   1.518 -0.2324  0.9960 -0.9567
  452TMC3    C1 6728   3.196   0.385   1.368  0.3769  0.3626  0.4058
  452TMC3    C2 6729   3.140   0.273   1.441  0.1648  0.2045  0.0180
  452TMC3    C3 6730   3.209   0.156   1.447 -0.7221  0.0694  0.6567
  452TMC3    C4 6731   3.323   0.373   1.325  0.1292  0.4088  0.4371
  452TMC3    C5 6732   3.388   0.253   1.333 -0.5871  0.1149  0.4473
  452TMC3    C6 6733   3.337   0.144   1.397 -0.3784  0.0811 -0.3306
  452TMC3     C 6734   3.137   0.513   1.382  0.3112  0.6620 -0.6170
  452TMC3     O 6735   3.212   0.609   1.378  0.4714 -0.2330 -0.3491
  452TMC3     H 6736   3.041   0.277   1.486 -0.2173  0.8139 -0.8654
  452TMC3    H1 6737   3.374   0.456   1.278 -0.0811 -0.3621 -1.1492
  452TMC3    H2 6738   3.380   0.044   1.403 -2.5972 -1.0010 -2.1526
  452TMC3    C7 6739   3.519   0.238   1.276  0.2806  0.6290  0.8465
  452TMC3    C8 6740   3.165   0.058   1.547 -0.5782  0.2593  0.0945
  452TMC3    O1 6741   3.558   0.335   1.210  0.2577  0.2243  0.6775
  452TMC3    O2 6742   3.082   0.102   1.625 -0.3493 -0.3942  0.1003
  453TMC3    C1 6743   4.662   2.479  12.053 -0.0475 -0.3882  0.5604
  453TMC3    C2 6744   4.538   2.484  12.121  1.0025  0.4538  0.4191
  453TMC3    C3 6745   4.424   2.471  12.046  0.1692 -0.1305 -0.5125
  453TMC3    C4 6746   4.664   2.464  11.915 -0.0449 -0.5569 -0.0703
  453TMC3    C5 6747   4.546   2.465  11.848  0.0406  0.4602  0.2372
  453TMC3    C6 6748   4.428   2.468  11.914  0.1382 -0.6042  0.2198
  453TMC3     C 6749   0.042   2.574  12.102 -0.7248 -0.3740 -0.4247
  453TMC3     O 6750   0.132   2.600  12.025 -0.8177  0.0846 -0.3043
  453TMC3     H 6751   4.540   2.492  12.229  2.1367  1.7906  0.3032
  453TMC3    H1 6752   0.030   2.458  11.856 -1.8449  0.0546 -2.8689
  453TMC3    H2 6753   4.339   2.465  11.853  0.0461  0.1522  0.3263
  453TMC3    C7 6754   4.544   2.436  11.706  0.0319 -0.0276 -0.0686
  453TMC3    C8 6755   4.313   2.401  12.102  0.5549  0.3997  0.1039
  453TMC3    O1 6756   4.444   2.390  11.656  0.7191 -0.5080  0.5871
  453TMC3    O2 6757   4.205   2.415  12.052 -0.3204  0.6427  0.1398
  454MPD2     C 6758   3.398   2.079  16.575  0.3896 -0.2400 -1.3765
  454MPD2    C1 6759   3.309   2.135  16.486 -0.2615 -0.0677  0.0936
  454MPD2    C2 6760   3.251   2.257  16.506 -0.1714  0.1323  1.0706
  454MPD2    C3 6761   3.281   2.324  16.624  0.6003 -0.2988  0.0590
  454MPD2    C4 6762   3.376   2.271  16.710 -0.6334  0.3883  0.0527
  454MPD2    C5 6763   3.438   2.156  16.680  0.2622  0.0248  0.0932
  454MPD2     H 6764   3.190   2.297  16.426  0.7251 -0.8797 -0.1108
  454MPD2    H1 6765   3.394   2.326  16.802  0.0720  2.3696 -1.2815
  454MPD2    H2 6766   3.426   1.975  16.583 -0.4060 -0.2008  1.8358
  454MPD2    H3 6767   3.513   2.114  16.747 -1.6975 -0.5510  1.9299
  454MPD2     N 6768   3.212   2.435  16.672  0.0512  0.4383 -0.1783
  454MPD2    H5 6769   3.215   2.430  16.773  1.4862 -0.9016 -0.2859
  454MPD2    N1 6770   3.250   2.058  16.379 -0.1712 -0.2908 -0.1195
  454MPD2    H7 6771   3.178   2.104  16.323  1.9142  1.5909 -1.2720
  455TMC3    C1 6772   3.025   2.586  16.675  0.1529 -0.2464  0.2292
  455TMC3    C2 6773   3.059   2.621  16.800  0.1590 -0.5004  0.3085
  455TMC3    C3 6774   2.969   2.617  16.896 -0.8865 -0.5724  0.1923
  455TMC3    C4 6775   2.901   2.532  16.653 -0.1284 -0.1801 -0.0531
  455TMC3    C5 6776   2.813   2.515  16.758  0.2099 -0.4715 -0.5575
  455TMC3    C6 6777   2.844   2.561  16.879  0.3278  0.9103  0.8481
  455TMC3     C 6778   3.124   2.511  16.601 -0.3145  0.6671  0.5353
  455TMC3     O 6779   3.114   2.509  16.480  0.1361 -0.2156 -0.4317
  455TMC3     H 6780   3.164   2.641  16.816  0.8971 -1.6218 -3.0323
  455TMC3    H1 6781   2.865   2.495  16.558 -0.0871  0.7342 -0.4206
  455TMC3    H2 6782   2.772   2.548  16.960 -1.4785  0.0492 -0.8887
  455TMC3    C7 6783   2.754   2.379  16.760  0.1031 -0.8027 -0.7884
  455TMC3    C8 6784   2.984   2.710  17.002  0.8365  0.9253 -0.6856
  455TMC3    O1 6785   2.635   2.366  16.745 -0.5861 -0.5208 -0.4571
  455TMC3    O2 6786   2.881   2.744  17.058  0.1668 -0.2013  0.2925
  456MPD2     C 6787   1.035   2.725  16.119  0.1088  0.2837 -0.6084
  456MPD2    C1 6788   1.139   2.644  16.168  1.3314 -0.4035  0.6450
  456MPD2    C2 6789   1.188   2.677  16.290  0.2528 -0.0271 -0.2146
  456MPD2    C3 6790   1.140   2.785  16.371 -0.3064 -0.1580  0.4760
  456MPD2    C4 6791   1.035   2.853  16.319 -0.0042 -0.7227  0.5137
  456MPD2    C5 6792   0.984   2.824  16.199  0.8476 -0.5639  0.9092
  456MPD2     H 6793   1.256   2.610  16.342 -1.6973 -1.9557 -0.1456
  456MPD2    H1 6794   0.973   2.927  16.368 -2.1322 -2.2506  0.1270
  456MPD2    H2 6795   0.983   2.699  16.026  1.3451  1.3297 -1.5864
  456MPD2    H3 6796   0.893   2.876  16.171  1.3414 -0.4166 -0.4553
  456MPD2     N 6797   1.184   2.799  16.502  0.2327 -0.2751 -0.2484
  456MPD2    H5 6798   1.246   2.731  16.546  0.3335  0.5356  0.8818
  456MPD2    N1 6799   1.187   2.538  16.097 -0.0681 -0.1616  0.2008
  456MPD2    H7 6800   1.139   2.533  16.007 -1.0350 -1.8742  0.8054
  457TMC3    C1 6801   1.196   2.891  16.722 -0.0702  0.5093 -0.6064
  457TMC3    C2 6802   1.271   2.989  16.778  0.1086 -0.3678  0.0156
  457TMC3    C3 6803   1.262   3.001  16.914  0.0469  0.5651 -0.2688
  457TMC3    C4 6804   1.137   2.790  16.796  0.4212 -0.0718  0.2105
  457TMC3    C5 6805   1.139   2.802  16.934 -0.3607  0.0627  0.1693
  457TMC3    C6 6806   1.191   2.914  16.990  0.5297  0.4317 -0.2893
  457TMC3     C 6807   1.153   2.914  16.579 -0.1182  0.3700 -0.0921
  457TMC3     O 6808   1.128   3.025  16.533  0.3553  0.0025  0.2759
  457TMC3     H 6809   1.319   3.060  16.712 -0.4611  0.0882  0.0908
  457TMC3    H1 6810   1.070   2.718  16.750 -0.5709 -0.5257  2.3637
  457TMC3    H2 6811   1.202   2.918  17.097  1.3000  0.4494 -0.3698
  457TMC3    C7 6812   1.058   2.722  17.022 -0.0673 -0.4384 -0.2109
  457TMC3    C8 6813   1.324   3.107  16.984 -1.3083 -0.2934 -0.2068
  457TMC3    O1 6814   1.061   2.744  17.142  0.2435  1.1098  0.5777
  457TMC3    O2 6815   1.334   3.101  17.107 -0.5870 -0.0078  0.0261
  458MPD2     C 6816   3.615   1.568  12.246  0.3264  0.0226 -0.1397
  458MPD2    C1 6817   3.583   1.514  12.366 -0.4783  0.5228 -0.1828
  458MPD2    C2 6818   3.447   1.506  12.405 -0.3532 -0.0416  0.2167
  458MPD2    C3 6819   3.342   1.541  12.316 -0.0659 -0.7741 -0.6600
  458MPD2    C4 6820   3.381   1.589  12.189  0.0913 -0.5162 -0.2499
  458MPD2    C5 6821   3.511   1.610  12.165 -0.4878 -0.2368  0.0432
  458MPD2     H 6822   3.419   1.466  12.502 -0.8613  0.4043  0.2511
  458MPD2    H1 6823   3.319   1.610  12.103  0.8858  1.3719 -0.3411
  458MPD2    H2 6824   3.715   1.599  12.217  0.0177  0.8253 -0.3468
  458MPD2    H3 6825   3.538   1.652  12.068  0.8533 -0.8380  0.1648
  458MPD2     N 6826   3.210   1.501  12.347 -0.2963  0.4106 -0.0085
  458MPD2    H5 6827   3.196   1.451  12.434 -1.2146  0.9854  0.1791
  458MPD2    N1 6828   3.688   1.472  12.450 -0.6748 -0.3068  0.2140
  458MPD2    H7 6829   3.781   1.509  12.431 -0.7201 -0.5579 -0.5218
  459TMC3    C1 6830   3.798   1.371  12.637  0.3089  0.8445  0.4942
  459TMC3    C2 6831   3.919   1.427  12.600  1.0494  0.2525 -0.4113
  459TMC3    C3 6832   4.018   1.435  12.696  0.0336 -0.0307  0.7013
  459TMC3    C4 6833   3.778   1.325  12.760 -0.4610  0.7210 -0.3872
  459TMC3    C5 6834   3.888   1.317  12.851  0.5599 -0.4963  0.1147
  459TMC3    C6 6835   4.010   1.363  12.813 -0.6590  0.2779 -0.5464
  459TMC3     C 6836   3.677   1.398  12.559 -0.1112  0.8688 -0.1921
  459TMC3     O 6837   3.571   1.354  12.606 -0.5239 -0.3881 -0.0867
  459TMC3     H 6838   3.941   1.458  12.499  2.3296 -0.5103 -0.3695
  459TMC3    H1 6839   3.679   1.298  12.796  0.3482 -2.4814 -0.6091
  459TMC3    H2 6840   4.084   1.366  12.892  0.4027 -0.2485 -1.5097
  459TMC3    C7 6841   3.858   1.290  12.990  0.0023  0.2073 -0.1656
  459TMC3    C8 6842   4.147   1.494  12.660  0.1254 -0.0965  0.6836
  459TMC3    O1 6843   3.778   1.204  13.017  0.0138 -0.0573  0.2098
  459TMC3    O2 6844   4.239   1.452  12.723 -0.5407 -0.3046 -0.1109
  460MPD2     C 6845   2.737   3.210  10.778  0.4435  0.4790  0.1007
  460MPD2    C1 6846   2.701   3.340  10.746  0.5404 -0.1621  0.3589
  460MPD2    C2 6847   2.695   3.381  10.613  0.3807  0.1460 -0.5035
  460MPD2    C3 6848   2.717   3.286  10.513 -0.2405  0.4973 -0.1446
  460MPD2    C4 6849   2.737   3.156  10.551 -0.0010 -0.2209 -1.2234
  460MPD2    C5 6850   2.758   3.120  10.680  0.1807  0.3797  0.4180
  460MPD2     H 6851   2.657   3.479  10.586 -0.3758  0.5062  1.8846
  460MPD2    H1 6852   2.753   3.076  10.479  1.7471 -0.3376 -0.7023
  460MPD2    H2 6853   2.776   3.179  10.875  2.2597  1.0416 -0.4389
  460MPD2    H3 6854   2.779   3.015  10.700  2.0997  1.1311  2.2780
  460MPD2     N 6855   2.718   3.331  10.381 -0.4839 -0.5938  0.2897
  460MPD2    H5 6856   2.695   3.429  10.373 -1.8157 -1.0693 -1.6853
  460MPD2    N1 6857   2.692   3.434  10.852 -0.5255  0.1752  0.2155
  460MPD2    H7 6858   2.721   3.395  10.941  0.6389  0.9103  0.1604
  461TMC3    C1 6859   2.740   3.304  10.146 -0.7593 -0.3413 -0.1545
  461TMC3    C2 6860   2.721   3.212  10.045 -0.0444 -0.2843  0.2306
  461TMC3    C3 6861   2.687   3.270   9.927 -0.3817  0.1332  0.6341
  461TMC3    C4 6862   2.736   3.440  10.135 -0.5839  0.0503 -0.1758
  461TMC3    C5 6863   2.688   3.491  10.019 -0.1155 -0.1906  0.0377
  461TMC3    C6 6864   2.675   3.406   9.905 -0.7405 -0.4127  0.3564
  461TMC3     C 6865   2.758   3.243  10.276  0.6015 -0.1786  0.4124
  461TMC3     O 6866   2.811   3.133  10.281 -0.4315 -0.3271  0.1754
  461TMC3     H 6867   2.725   3.104  10.054 -0.0038 -0.4052 -1.1579
  461TMC3    H1 6868   2.754   3.510  10.216 -2.7650  0.1098  0.2666
  461TMC3    H2 6869   2.650   3.448   9.808 -1.7309  0.4258  0.9709
  461TMC3    C7 6870   2.708   3.631   9.985 -0.5007 -0.1045  0.0655
  461TMC3    C8 6871   2.655   3.178   9.815 -0.3758  0.2869 -0.0978
  461TMC3    O1 6872   2.785   3.695  10.050 -0.4540 -0.2715  0.1437
  461TMC3    O2 6873   2.712   3.070   9.808 -0.9195 -0.2904  0.2824
  462TMC3    C1 6874   2.779   1.024   0.691  0.1158 -0.0214  0.3415
  462TMC3    C2 6875   2.914   1.011   0.701  0.1680  0.0805 -0.5914
  462TMC3    C3 6876   2.967   0.882   0.716  0.0570  0.5682  0.3486
  462TMC3    C4 6877   2.698   0.914   0.688  0.1442  0.3020  0.0570
  462TMC3    C5 6878   2.753   0.787   0.706  0.0592 -0.1712  0.5665
  462TMC3    C6 6879   2.891   0.773   0.707  0.8717  0.2584  0.2760
  462TMC3     C 6880   2.742   1.125   0.597  0.7313  0.4720  0.1816
  462TMC3     O 6881   2.638   1.106   0.531 -0.7798  0.1212 -0.0217
  462TMC3     H 6882   2.978   1.096   0.723 -1.5645  1.2678 -0.1262
  462TMC3    H1 6883   2.592   0.928   0.672  0.3292 -0.4222 -1.8094
  462TMC3    H2 6884   2.924   0.673   0.732  1.1346 -0.0256 -1.1791
  462TMC3    C7 6885   2.664   0.667   0.716  0.3771  0.5168  0.3110
  462TMC3    C8 6886   3.104   0.873   0.752  0.4645  0.4069 -0.3377
  462TMC3    O1 6887   2.702   0.558   0.673 -0.5364  0.3014  0.3011
  462TMC3    O2 6888   3.156   0.965   0.814  0.5567  0.1689  0.3157
  463MPD2     C 6889   4.097   3.141   1.615  0.0507 -0.3651 -0.4769
  463MPD2    C1 6890   3.990   3.228   1.613  0.8527  0.0207 -0.4682
  463MPD2    C2 6891   4.006   3.364   1.628 -1.0292 -0.5966 -0.4897
  463MPD2    C3 6892   4.132   3.422   1.664  0.2397 -0.2419  0.2784
  463MPD2    C4 6893   4.237   3.336   1.677  0.1007 -0.2089 -0.6389
  463MPD2    C5 6894   4.216   3.204   1.645  0.4528 -0.1464 -0.6483
  463MPD2     H 6895   3.918   3.428   1.630 -0.6170 -0.0016 -1.5113
  463MPD2    H1 6896   4.335   3.379   1.697  0.0403 -0.2185 -0.3341
  463MPD2    H2 6897   4.100   3.036   1.586 -0.3559 -0.1730 -1.2255
  463MPD2    H3 6898   4.299   3.133   1.649 -1.0344 -1.8614 -0.1495
  463MPD2     N 6899   4.145   3.563   1.686  1.0290 -0.0800  0.2197
  463MPD2    H5 6900   4.244   3.585   1.691  1.3772 -1.1785 -1.8804
  463MPD2    N1 6901   3.860   3.181   1.602  0.0259  0.0814 -0.4127
  463MPD2    H7 6902   3.794   3.255   1.581 -1.1279 -1.0979 -0.9544
  464TMC3    C1 6903   3.670   3.052   1.630  0.3477 -0.1821 -0.1086
  464TMC3    C2 6904   3.601   3.159   1.589 -0.3497  0.5135 -0.5520
  464TMC3    C3 6905   3.466   3.132   1.552 -0.1722  0.4993  0.3042
  464TMC3    C4 6906   3.614   2.925   1.639  0.2114  0.2402  1.0302
  464TMC3    C5 6907   3.478   2.913   1.616  0.0782  0.0541 -0.2571
  464TMC3    C6 6908   3.401   3.013   1.565  0.7066 -0.4554 -0.4262
  464TMC3     C 6909   3.812   3.054   1.628 -0.0789 -0.4819 -0.1450
  464TMC3     O 6910   3.879   2.962   1.676 -0.5096 -0.4819  0.0357
  464TMC3     H 6911   3.636   3.261   1.574  1.2766  0.0907  0.4116
  464TMC3    H1 6912   3.674   2.839   1.666  0.8719  0.2728 -0.3048
  464TMC3    H2 6913   3.307   2.999   1.514  2.1083 -0.9120 -2.8673
  464TMC3    C7 6914   3.423   2.778   1.606  0.4057 -0.2563  0.3336
  464TMC3    C8 6915   3.382   3.247   1.527  0.4416 -0.5172 -0.3201
  464TMC3    O1 6916   3.506   2.689   1.593  0.1529  0.3124 -0.4807
  464TMC3    O2 6917   3.422   3.325   1.441 -0.0562 -0.3174  0.1206
  465MPD2     C 6918   0.371   2.330  16.340 -0.0121  0.3753 -0.0587
  465MPD2    C1 6919   0.319   2.389  16.453 -0.2428 -0.4026 -0.2229
  465MPD2    C2 6920   0.180   2.405  16.468  0.0255 -0.9986  0.2185
  465MPD2    C3 6921   0.096   2.392  16.361 -0.4853 -0.1116  0.4096
  465MPD2    C4 6922   0.144   2.342  16.243  0.0122 -0.4830  0.1128
  465MPD2    C5 6923   0.286   2.308  16.238 -1.0625  0.6191  0.1905
  465MPD2     H 6924   0.141   2.421  16.567  1.0696 -0.2671  0.5113
  465MPD2    H1 6925   0.087   2.329  16.152 -2.2811 -1.3499  1.6566
  465MPD2    H2 6926   0.473   2.291  16.340 -0.1495  0.0145  1.2610
  465MPD2    H3 6927   0.322   2.264  16.146 -1.4966 -0.5253  0.5694
  465MPD2     N 6928   4.685   2.434  16.375  0.1788 -0.2159  0.3005
  465MPD2    H5 6929   4.656   2.459  16.469 -2.8819 -1.6601 -0.2657
  465MPD2    N1 6930   0.397   2.418  16.569 -0.7692  0.0701 -0.0959
  465MPD2    H7 6931   0.352   2.449  16.654 -1.1439 -0.7407 -0.0033
  466TMC3    C1 6932   4.356   2.594  16.515  0.0794 -0.3966  0.1112
  466TMC3    C2 6933   4.356   2.726  16.468  0.1875 -0.2541  0.0796
  466TMC3    C3 6934   4.426   2.761  16.356 -0.4640 -0.4857 -0.2297
  466TMC3    C4 6935   4.428   2.497  16.446  0.4304  0.4434 -0.2785
  466TMC3    C5 6936   4.490   2.536  16.325 -0.9672  0.4278  0.6600
  466TMC3    C6 6937   4.488   2.665  16.281  0.2220 -0.2729 -0.1804
  466TMC3     C 6938   4.278   2.559  16.641 -0.3928 -0.5542 -0.6570
  466TMC3     O 6939   4.321   2.461  16.701  0.2424  0.1720  0.6162
  466TMC3     H 6940   4.308   2.800  16.531 -1.7207 -1.1346 -0.3482
  466TMC3    H1 6941   4.420   2.395  16.479 -0.6748  0.2614 -1.0971
  466TMC3    H2 6942   4.570   2.691  16.216  2.0688  1.0399  2.6992
  466TMC3    C7 6943   4.595   2.459  16.274 -0.5416 -0.0506 -0.1595
  466TMC3    C8 6944   4.487   2.894  16.342  0.3663 -0.5951 -0.2781
  466TMC3    O1 6945   4.623   2.478  16.156 -0.0610  0.6195 -0.0763
  466TMC3    O2 6946   4.562   2.911  16.248 -0.1029  0.4968 -0.0720
  467TMC3    C1 6947   0.663   1.456  14.230  0.5262  0.0499  0.3725
  467TMC3    C2 6948   0.601   1.496  14.110 -0.3164 -0.0915 -0.3195
  467TMC3    C3 6949   0.512   1.418  14.039  0.0854  0.2505  0.1764
  467TMC3    C4 6950   0.614   1.342  14.287 -0.3347 -0.2188 -0.0747
  467TMC3    C5 6951   0.526   1.261  14.220  0.1178 -0.1895  0.0178
  467TMC3    C6 6952   0.472   1.300  14.100  0.3609  0.0569  0.1888
  467TMC3     C 6953   0.812   1.459  14.218 -0.1014  0.3834 -0.5486
  467TMC3     O 6954   0.872   1.350  14.216  0.0883 -0.0626  0.3032
  467TMC3     H 6955   0.655   1.576  14.061  2.1490 -0.1217  2.3049
  467TMC3    H1 6956   0.661   1.291  14.370  0.0818  0.3435  0.0371
  467TMC3    H2 6957   0.435   1.228  14.027  0.7658  0.0491 -0.0095
  467TMC3    C7 6958   0.516   1.127  14.248  0.1929  0.5906 -0.4019
  467TMC3    C8 6959   0.533   1.421  13.902 -0.3084  0.3256  0.0495
  467TMC3    O1 6960   0.607   1.074  14.311  0.1308  0.1558 -0.3186
  467TMC3    O2 6961   0.630   1.480  13.862  0.1323 -0.3373 -0.3372
  468MPD2     C 6962   4.198   3.722  11.111 -0.3838  0.4284  1.1756
  468MPD2    C1 6963   4.315   3.665  11.167 -0.2195  0.4797  0.1887
  468MPD2    C2 6964   4.351   3.536  11.131  0.1336  0.3966  0.2073
  468MPD2    C3 6965   4.269   3.464  11.052 -0.1524 -0.4823 -0.5044
  468MPD2    C4 6966   4.156   3.521  10.997 -0.2221 -0.3672  0.9096
  468MPD2    C5 6967   4.120   3.649  11.028 -0.6101 -0.0070  0.1339
  468MPD2     H 6968   4.444   3.507  11.180  1.0218  1.6933 -0.6978
  468MPD2    H1 6969   4.109   3.469  10.914 -0.1413 -0.0226  0.6484
  468MPD2    H2 6970   4.171   3.823  11.136  2.1042  1.9920 -2.3712
  468MPD2    H3 6971   4.032   3.689  10.979 -1.7120 -0.4964  1.7142
  468MPD2     N 6972   4.288   3.322  11.038  0.3065  0.2623 -0.5194
  468MPD2    H5 6973   4.209   3.275  10.994  0.0749  1.2882 -1.2308
  468MPD2    N1 6974   4.398   3.737  11.254 -0.3385  0.0022 -0.4355
  468MPD2    H7 6975   4.469   3.684  11.304  0.3092  1.6878  0.4175
  469TMC3    C1 6976   4.486   3.914  11.387 -0.2540  0.0640 -0.3196
  469TMC3    C2 6977   4.594   3.837  11.424  0.5817  0.3345  0.5899
  469TMC3    C3 6978   4.664   3.879  11.532  0.0009 -0.3981  0.4358
  469TMC3    C4 6979   4.438   4.024  11.455 -0.2259 -0.4396 -0.2470
  469TMC3    C5 6980   4.511   4.055  11.564  0.3119  0.7779  0.1596
  469TMC3    C6 6981   4.624   3.991  11.604 -0.3842  0.4071  0.0047
  469TMC3     C 6982   4.392   3.871  11.283  0.6327 -0.8151 -0.3874
  469TMC3     O 6983   4.322   3.958  11.238  0.3347  0.2097 -0.0622
  469TMC3     H 6984   4.632   3.769  11.349 -0.1307  0.5512  0.0321
  469TMC3    H1 6985   4.362   4.098  11.429 -0.6277 -0.9877 -0.6259
  469TMC3    H2 6986   4.651   3.996  11.709 -1.5498 -2.1693  0.4270
  469TMC3    C7 6987   4.450   4.159  11.646 -0.1843  0.7843  0.4035
  469TMC3    C8 6988   0.066   3.821  11.559 -0.5475 -0.4514  0.5535
  469TMC3    O1 6989   4.327   4.155  11.650  0.0896 -0.4484  0.2452
  469TMC3    O2 6990   0.100   3.721  11.499 -0.1356  0.0230 -0.0164
  470TMC3    C1 6991   2.059   0.218   1.069  0.3608 -0.0611  0.2145
  470TMC3    C2 6992   2.002   0.344   1.067 -0.3860 -0.4369 -0.5129
  470TMC3    C3 6993   2.075   0.451   1.125 -0.5083 -0.0042  0.3042
  470TMC3    C4 6994   2.182   0.189   1.104  0.6582 -0.8280 -0.7192
  470TMC3    C5 6995   2.246   0.298   1.164  0.4446 -0.5015  0.9062
  470TMC3    C6 6996   2.204   0.437   1.159 -0.0735 -0.4612  0.0791
  470TMC3     C 6997   1.974   0.110   1.022  0.2345 -0.6039  0.1413
  470TMC3     O 6998   1.855   0.133   0.997  0.1201  0.2896  0.0323
  470TMC3     H 6999   1.899   0.365   1.044 -0.8987 -0.7128  1.5390
  470TMC3    H1 7000   2.226   0.092   1.128  1.5195  0.8566  4.4587
  470TMC3    H2 7001   2.264   0.518   1.197 -1.2819 -0.5931  2.2596
  470TMC3    C7 7002   2.379   0.269   1.204  1.0874  0.2824 -0.1803
  470TMC3    C8 7003   2.016   0.579   1.133 -0.3087 -0.0737 -0.3567
  470TMC3    O1 7004   2.444   0.188   1.136 -0.0056 -0.4977  1.3131
  470TMC3    O2 7005   2.075   0.650   1.213 -0.0809  0.4482  0.2008
  471MPD2     C 7006   2.448   1.700  17.135 -0.0920 -0.2249 -0.1740
  471MPD2    C1 7007   2.533   1.606  17.075  0.1458  0.3469  0.1282
  471MPD2    C2 7008   2.666   1.596  17.108  0.2321  0.8159  0.4229
  471MPD2    C3 7009   2.713   1.658  17.220 -0.4098 -0.1126  0.4538
  471MPD2    C4 7010   2.631   1.749  17.275 -0.4933 -0.6563  0.0858
  471MPD2    C5 7011   2.504   1.779  17.236  0.3048 -0.2432 -0.2419
  471MPD2     H 7012   2.719   1.513  17.062 -0.9921  0.9703 -1.3019
  471MPD2    H1 7013   2.658   1.798  17.368 -3.3730 -0.2928  0.7462
  471MPD2    H2 7014   2.344   1.721  17.115  0.3428  3.8974  1.9698
  471MPD2    H3 7015   2.439   1.855  17.277  1.7395  1.2885 -0.7915
  471MPD2     N 7016   2.842   1.640  17.278  0.1816 -0.0410  0.9748
  471MPD2    H5 7017   2.868   1.673  17.371  0.6655  0.1575  0.7721
  471MPD2    N1 7018   2.491   1.527  16.964  0.1664  1.0545 -0.0170
  471MPD2    H7 7019   2.564   1.475  16.915  0.1985  0.5946  0.5184
  472TMC3    C1 7020   2.385   1.409  16.809  0.0144  0.5177  0.3808
  472TMC3    C2 7021   2.305   1.423  16.692  0.1230 -0.1998  0.6578
  472TMC3    C3 7022   2.324   1.327  16.601 -0.5267 -0.0754  0.2208
  472TMC3    C4 7023   2.469   1.307  16.847  0.0945  0.9650  0.0562
  472TMC3    C5 7024   2.471   1.206  16.753  0.0888 -0.4077 -0.8744
  472TMC3    C6 7025   2.406   1.215  16.632 -0.4359  0.5181  0.7357
  472TMC3     C 7026   2.363   1.506  16.909 -0.4577 -0.1320  0.0475
  472TMC3     O 7027   2.263   1.561  16.928 -0.2546 -0.1332 -0.3463
  472TMC3     H 7028   2.235   1.504  16.677  1.3575  0.4688 -1.5336
  472TMC3    H1 7029   2.492   1.284  16.950 -2.0912  2.3754  0.8746
  472TMC3    H2 7030   2.408   1.134  16.561 -0.9040  2.1728 -1.1854
  472TMC3    C7 7031   2.503   1.067  16.801 -0.4694  0.3590 -0.0708
  472TMC3    C8 7032   2.208   1.291  16.515  0.2074 -0.6156  0.1362
  472TMC3    O1 7033   2.529   1.062  16.920  0.7537  0.1539  0.6137
  472TMC3    O2 7034   2.205   1.336  16.400  0.5970 -0.1482  0.2046
  473MPD2     C 7035   2.443   3.086  14.243 -0.1325  0.0684 -0.0483
  473MPD2    C1 7036   2.347   3.177  14.225  0.0274 -0.0733  0.4436
  473MPD2    C2 7037   2.359   3.303  14.283 -0.6049  0.3853  0.5263
  473MPD2    C3 7038   2.460   3.320  14.379  0.0993 -0.1891  0.1404
  473MPD2    C4 7039   2.549   3.222  14.397 -0.4956 -0.1193 -0.0571
  473MPD2    C5 7040   2.548   3.107  14.328 -0.2724 -0.3424 -0.7975
  473MPD2     H 7041   2.284   3.376  14.256  0.9963  1.6362 -0.5937
  473MPD2    H1 7042   2.618   3.223  14.482  1.9958 -3.6469 -2.0386
  473MPD2    H2 7043   2.435   2.989  14.196  2.5180  0.0365 -0.4162
  473MPD2    H3 7044   2.627   3.034  14.340  0.2458  0.3726  0.1759
  473MPD2     N 7045   2.490   3.431  14.457 -0.3235  0.0876 -0.1837
  473MPD2    H5 7046   2.564   3.421  14.525  1.0783  1.1043 -1.5467
  473MPD2    N1 7047   2.231   3.161  14.141 -0.2771 -0.0914  0.6809
  473MPD2    H7 7048   2.166   3.239  14.134 -0.1502 -0.0426  0.0547
  474TMC3    C1 7049   2.465   3.663  14.513  0.4488  0.3609  0.1923
  474TMC3    C2 7050   2.380   3.769  14.523  0.1153  0.1935 -0.9822
  474TMC3    C3 7051   2.424   3.885  14.584 -0.2826  0.4466 -0.6725
  474TMC3    C4 7052   2.591   3.673  14.551  0.3686 -0.6911  0.2919
  474TMC3    C5 7053   2.634   3.784  14.614  0.3264 -0.0306 -0.1665
  474TMC3    C6 7054   2.544   3.885  14.647  0.1922  0.3771 -0.0011
  474TMC3     C 7055   2.413   3.547  14.443 -0.4253  0.4502 -0.0660
  474TMC3     O 7056   2.312   3.565  14.376 -0.8197  0.0660 -0.1220
  474TMC3     H 7057   2.281   3.756  14.481 -0.8788  0.3447  1.3066
  474TMC3    H1 7058   2.665   3.599  14.521 -0.1238 -0.9650 -0.2376
  474TMC3    H2 7059   2.573   3.979  14.692  0.2961  0.4922 -0.3098
  474TMC3    C7 7060   2.756   3.778  14.685 -0.3726  0.4513 -0.0910
  474TMC3    C8 7061   2.340   4.006  14.588  0.4813  0.2393  0.3180
  474TMC3    O1 7062   2.836   3.695  14.653 -0.0012  0.4501  0.0821
  474TMC3    O2 7063   2.402   4.112  14.598  0.2490 -0.5003 -0.2606
  475MPD2     C 7064   1.143   1.991  11.197 -0.4420 -0.1148  0.1471
  475MPD2    C1 7065   1.051   1.916  11.115 -1.3148 -0.0162  0.7693
  475MPD2    C2 7066   0.917   1.944  11.124  0.0772 -0.3653  0.5968
  475MPD2    C3 7067   0.866   2.043  11.209 -0.2349 -0.1430  0.2795
  475MPD2    C4 7068   0.952   2.104  11.294  0.6180  0.0689  0.2647
  475MPD2    C5 7069   1.092   2.077  11.288  0.3973 -0.3794  0.8411
  475MPD2     H 7070   0.845   1.897  11.058 -1.3124 -0.4552  2.1751
  475MPD2    H1 7071   0.930   2.181  11.367 -0.4022 -0.7942  0.8576
  475MPD2    H2 7072   1.249   1.965  11.190 -0.3249  0.6962 -1.1767
  475MPD2    H3 7073   1.161   2.113  11.364  2.0409 -1.1431 -0.2869
  475MPD2     N 7074   0.729   2.065  11.206  0.6874 -0.1802 -0.6012
  475MPD2    H5 7075   0.674   2.013  11.137  0.6542 -1.1306  0.1379
  475MPD2    N1 7076   1.110   1.837  11.015 -0.3350  0.0798  0.0663
  475MPD2    H7 7077   1.211   1.838  11.003 -0.1841  0.3322  1.4299
  476TMC3    C1 7078   1.128   1.684  10.837 -0.0751  0.4648  0.4638
  476TMC3    C2 7079   1.066   1.608  10.742 -0.1272  0.7449 -0.1299
  476TMC3    C3 7080   1.145   1.530  10.655 -0.0852  0.1167  0.8678
  476TMC3    C4 7081   1.255   1.658  10.874 -0.3558  0.6849  0.4849
  476TMC3    C5 7082   1.327   1.570  10.795  0.3765  0.6718  0.3406
  476TMC3    C6 7083   1.276   1.508  10.690  0.3474  0.2855  0.5800
  476TMC3     C 7084   1.043   1.753  10.926  0.4230  0.2402  0.3634
  476TMC3     O 7085   0.922   1.745  10.917 -0.6407  0.6350  0.0195
  476TMC3     H 7086   0.959   1.612  10.726  0.1572  0.4611 -2.1440
  476TMC3    H1 7087   1.301   1.692  10.966  2.7892  1.1433 -1.2902
  476TMC3    H2 7088   1.338   1.438  10.635  1.3281 -0.6827  2.9171
  476TMC3    C7 7089   1.478   1.581  10.783  0.3849  0.4418  0.3303
  476TMC3    C8 7090   1.076   1.432  10.579  0.8810 -0.1566  0.5917
  476TMC3    O1 7091   1.537   1.491  10.724  0.0142 -0.5246  0.1669
  476TMC3    O2 7092   0.957   1.410  10.607  0.1706 -0.4275 -0.3264
  477MPD2     C 7093   3.312   3.202  11.904 -0.0962 -0.7893  0.1006
  477MPD2    C1 7094   3.238   3.082  11.923 -0.1938 -0.7266  0.2190
  477MPD2    C2 7095   3.247   3.027  12.044  0.6322  0.0272 -0.2791
  477MPD2    C3 7096   3.288   3.097  12.156 -0.0424  0.3319  0.2917
  477MPD2    C4 7097   3.340   3.223  12.137 -0.6680  0.6342  0.1230
  477MPD2    C5 7098   3.374   3.261  12.010 -0.3331  0.1965  0.2568
  477MPD2     H 7099   3.198   2.931  12.055  0.7451  0.1948  1.7057
  477MPD2    H1 7100   3.379   3.293  12.210 -0.4373  0.6363 -0.0015
  477MPD2    H2 7101   3.308   3.259  11.812 -4.2043  1.5029  1.7109
  477MPD2    H3 7102   3.424   3.356  12.000 -0.0942 -0.0862 -1.3933
  477MPD2     N 7103   3.266   3.035  12.282  0.5848  0.4865  0.1884
  477MPD2    H5 7104   3.259   2.934  12.279 -0.5398  0.6511 -2.7775
  477MPD2    N1 7105   3.170   3.022  11.812  0.1092  0.1341  0.4180
  477MPD2    H7 7106   3.166   3.070  11.722 -1.3111 -0.2421  0.2712
  478TMC3    C1 7107   3.006   2.892  11.712 -0.2926  0.3282 -0.4027
  478TMC3    C2 7108   2.886   2.879  11.771  0.2638 -0.0135  0.0603
  478TMC3    C3 7109   2.772   2.933  11.716  0.3422 -0.4827  0.0237
  478TMC3    C4 7110   3.020   2.959  11.598  0.1220  0.2407  0.1591
  478TMC3    C5 7111   2.906   3.012  11.541  0.3590 -0.1466  0.1466
  478TMC3    C6 7112   2.787   3.002  11.600  0.2683  0.3915  0.5736
  478TMC3     C 7113   3.114   2.894  11.806  0.9242 -0.1104  0.0858
  478TMC3     O 7114   3.119   2.797  11.881  0.2343 -0.4070 -0.4872
  478TMC3     H 7115   2.879   2.840  11.872  0.6891  2.3429  1.0187
  478TMC3    H1 7116   3.116   2.963  11.550 -1.0703 -0.2158 -2.2539
  478TMC3    H2 7117   2.691   3.019  11.553 -0.5300  1.9509  2.7815
  478TMC3    C7 7118   2.911   2.984  11.399  0.7418 -0.0645 -0.0266
  478TMC3    C8 7119   2.694   3.001  11.816 -0.3415 -0.9333  0.0841
  478TMC3    O1 7120   2.999   2.900  11.364 -0.4442  0.1872 -0.1367
  478TMC3    O2 7121   2.637   2.928  11.897  0.5367  0.3123  0.1318
  479MPD2     C 7122   2.048   0.900  15.196  0.1539 -0.5130 -1.1634
  479MPD2    C1 7123   2.000   0.814  15.292 -0.0199 -0.1228  0.2647
  479MPD2    C2 7124   2.075   0.785  15.404  0.3563  1.2095  0.7304
  479MPD2    C3 7125   2.198   0.842  15.424  0.0158  0.0697  0.3885
  479MPD2    C4 7126   2.249   0.929  15.326  0.1177 -0.6987 -0.0013
  479MPD2    C5 7127   2.170   0.955  15.213 -0.0738  0.4577  0.3503
  479MPD2     H 7128   2.050   0.714  15.482  0.1714  1.5048  0.9412
  479MPD2    H1 7129   2.340   0.988  15.323 -0.0181 -0.5500 -1.3006
  479MPD2    H2 7130   1.989   0.925  15.109 -3.4444 -0.0752  1.4271
  479MPD2    H3 7131   2.194   1.029  15.137 -0.8739  0.5123  0.1481
  479MPD2     N 7132   2.252   0.820  15.554 -0.1371  0.1119 -0.4622
  479MPD2    H5 7133   2.197   0.761  15.615  1.8131 -1.0575  0.1654
  479MPD2    N1 7134   1.867   0.754  15.274  0.3862  0.7606  0.0795
  479MPD2    H7 7135   1.807   0.790  15.200  0.1100 -2.7521 -1.4249
  480TMC3    C1 7136   2.238   0.834  15.931 -0.4297  0.2653  0.4994
  480TMC3    C2 7137   2.143   0.938  15.928  0.2413 -0.1020  0.0617
  480TMC3    C3 7138   2.149   1.022  15.825 -0.7625 -0.0842 -0.4186
  480TMC3    C4 7139   2.328   0.816  15.830 -1.0557  0.0384 -1.1641
  480TMC3    C5 7140   2.337   0.911  15.738  0.0912  0.0531 -0.8608
  480TMC3    C6 7141   2.252   1.019  15.735 -0.4566 -0.1832 -0.2021
  480TMC3     C 7142   2.264   0.767  16.057  0.0418  0.6417 -0.1471
  480TMC3     O 7143   2.310   0.656  16.037 -0.2428  0.3984  0.3833
  480TMC3     H 7144   2.066   0.951  16.004  1.2389  0.3601  0.9927
  480TMC3    H1 7145   2.398   0.734  15.825 -2.0631 -0.8168 -1.2978
  480TMC3    H2 7146   2.251   1.088  15.651  0.4373 -0.2905 -0.2972
  480TMC3    C7 7147   2.368   0.869  15.606  0.3075 -0.4859  0.6467
  480TMC3    C8 7148   2.018   1.051  15.771  0.6042  0.5698 -0.6119
  480TMC3    O1 7149   2.455   0.925  15.544  0.4662 -0.2549  0.4627
  480TMC3    O2 7150   1.919   1.018  15.832 -0.4380  0.6500  0.0183
  481MPD2     C 7151   3.631   0.506  14.351  0.4358  0.2219 -0.1059
  481MPD2    C1 7152   3.544   0.402  14.353  0.2824 -0.6728  0.9355
  481MPD2    C2 7153   3.443   0.390  14.445 -0.0411 -0.5552 -0.4287
  481MPD2    C3 7154   3.425   0.495  14.535 -0.2352  0.5731  0.0406
  481MPD2    C4 7155   3.512   0.607  14.524 -0.3136  0.3377 -0.1437
  481MPD2    C5 7156   3.616   0.608  14.433 -0.5235  0.2594 -0.5775
  481MPD2     H 7157   3.387   0.297  14.447  0.9027 -1.1049  0.7341
  481MPD2    H1 7158   3.490   0.691  14.588 -1.1349 -0.5831  0.7695
  481MPD2    H2 7159   3.715   0.521  14.285 -0.2405  1.8879 -0.5984
  481MPD2    H3 7160   3.690   0.686  14.446 -0.3730 -0.4622  2.8406
  481MPD2     N 7161   3.341   0.495  14.646  0.3529  0.8120  0.4623
  481MPD2    H5 7162   3.360   0.570  14.711 -1.8393 -0.7284  2.8922
  481MPD2    N1 7163   3.568   0.299  14.253  0.0394 -0.1697  0.4399
  481MPD2    H7 7164   3.656   0.323  14.208 -0.3774  1.6864  0.6073
  482TMC3    C1 7165   3.565   0.090  14.135  0.5306  0.2563  0.4595
  482TMC3    C2 7166   3.600   4.686  14.161 -0.6350  0.8387 -0.1036
  482TMC3    C3 7167   3.676   4.623  14.073 -0.0878 -0.0191  0.0949
  482TMC3    C4 7168   3.608   0.150  14.019 -0.2373 -0.0231  0.1397
  482TMC3    C5 7169   3.691   0.085  13.936 -0.3595 -0.0314  0.0587
  482TMC3    C6 7170   3.735   4.683  13.969  0.4480  0.0088 -0.4978
  482TMC3     C 7171   3.506   0.173  14.241  0.4513 -0.3345 -0.3569
  482TMC3     O 7172   3.408   0.133  14.306 -0.2800  0.0985 -0.6017
  482TMC3     H 7173   3.553   4.632  14.243  1.6185  1.2730  1.4856
  482TMC3    H1 7174   3.569   0.249  13.999  0.1671  0.1485  0.1941
  482TMC3    H2 7175   3.808   4.636  13.904  2.9902 -0.2329  2.5263
  482TMC3    C7 7176   3.699   0.121  13.797 -0.3092 -0.8913  0.5838
  482TMC3    C8 7177   3.706   4.481  14.096  0.0602 -0.1611 -1.1509
  482TMC3    O1 7178   3.802   0.166  13.751 -0.2964  0.7401  0.4156
  482TMC3    O2 7179   3.630   4.420  14.166  0.5393 -0.1650  0.1214
  483TMC3    C1 7180   2.371   0.005   1.905  0.3454 -0.1278  0.0413
  483TMC3    C2 7181   2.422   0.022   1.779 -0.3856  0.2931 -0.1113
  483TMC3    C3 7182   2.545   4.711   1.748 -0.8236  0.0452  0.2300
  483TMC3    C4 7183   2.459   4.683   2.010 -0.0788 -0.6961 -0.3790
  483TMC3    C5 7184   2.588   4.650   1.969 -0.2265  0.9261 -0.2435
  483TMC3    C6 7185   2.633   4.663   1.841 -0.1753 -0.9233 -0.3543
  483TMC3     C 7186   2.236   4.713   1.926 -0.3179  0.2055  0.6138
  483TMC3     O 7187   2.198   4.676   2.037  0.0073  0.4505 -0.6315
  483TMC3     H 7188   2.365   0.087   1.713  2.2366  0.6275 -2.0322
  483TMC3    H1 7189   2.412   4.658   2.105  2.1033 -2.9089  0.1063
  483TMC3    H2 7190   2.727   4.618   1.814 -0.6881 -2.3942  0.3019
  483TMC3    C7 7191   2.663   4.557   2.046  0.3361 -0.0267  0.0185
  483TMC3    C8 7192   2.560   4.675   1.614 -0.0715 -0.1442  0.6985
  483TMC3    O1 7193   2.732   4.479   1.988 -0.1910  0.4719 -0.0846
  483TMC3    O2 7194   2.465   4.715   1.542  0.6177 -0.4249  0.2107
  484MPD2     C 7195   4.212   1.827  12.549 -0.2027 -0.8690 -0.4832
  484MPD2    C1 7196   4.244   1.699  12.573  0.1991  0.1313 -0.9199
  484MPD2    C2 7197   4.375   1.661  12.574  0.2557  0.0016 -0.5927
  484MPD2    C3 7198   4.483   1.749  12.575 -0.8892 -0.2679 -0.6254
  484MPD2    C4 7199   4.451   1.882  12.569  0.4150 -0.7266  0.0568
  484MPD2    C5 7200   4.318   1.921  12.554  0.8371 -0.4186 -0.1944
  484MPD2     H 7201   4.397   1.556  12.592 -0.2172  0.0157  0.0414
  484MPD2    H1 7202   4.530   1.957  12.575  0.1594 -0.4372 -0.1816
  484MPD2    H2 7203   4.108   1.856  12.537  0.7828  2.1519 -1.7742
  484MPD2    H3 7204   4.300   2.028  12.550  1.7288 -0.2783 -0.3294
  484MPD2     N 7205   4.620   1.712  12.579 -0.3057 -0.5943  0.5954
  484MPD2    H5 7206   4.687   1.784  12.604  1.5641 -2.1284  0.0767
  484MPD2    N1 7207   4.136   1.612  12.592  0.4365  0.4034  0.2145
  484MPD2    H7 7208   4.046   1.656  12.577  0.7838  0.8413 -0.5432
  485TMC3    C1 7209   0.062   1.548  12.623  0.7027  0.8826 -0.5024
  485TMC3    C2 7210   0.084   1.424  12.672  0.7432 -0.6373 -1.1686
  485TMC3    C3 7211   0.194   1.412  12.756 -0.0377  0.6773 -0.2041
  485TMC3    C4 7212   0.138   1.656  12.651  0.4473 -0.9043 -0.2095
  485TMC3    C5 7213   0.247   1.640  12.726 -0.1900  0.2140 -0.1768
  485TMC3    C6 7214   0.272   1.521  12.788 -0.0949 -0.3171  0.3009
  485TMC3     C 7215   4.660   1.582  12.560 -0.6359 -0.2748 -0.8184
  485TMC3     O 7216   4.593   1.483  12.537  0.2611 -0.2019 -0.0801
  485TMC3     H 7217   0.035   1.335  12.632 -0.6026 -0.3844 -0.1220
  485TMC3    H1 7218   0.135   1.737  12.580 -1.0378 -0.9824 -0.2234
  485TMC3    H2 7219   0.356   1.509  12.855  0.3434  1.4964  0.0747
  485TMC3    C7 7220   0.368   1.699  12.666 -0.5516  0.4271 -0.5055
  485TMC3    C8 7221   0.279   1.307  12.717  0.0509  0.2602  0.2941
  485TMC3    O1 7222   0.368   1.820  12.643 -0.2606  0.6042 -0.2974
  485TMC3    O2 7223   0.395   1.343  12.694  0.0274  0.4445  0.6181
  486MPD2     C 7224   1.439   0.650  12.977 -0.1201 -0.2734  0.2434
  486MPD2    C1 7225   1.547   0.679  12.902 -0.3680  0.2476  0.6648
  486MPD2    C2 7226   1.576   0.815  12.878 -0.0497 -0.4712  0.5040
  486MPD2    C3 7227   1.513   0.916  12.949  0.1791 -0.6185 -0.2532
  486MPD2    C4 7228   1.407   0.885  13.032  0.2385  0.4899  0.6579
  486MPD2    C5 7229   1.377   0.752  13.043 -0.2589 -0.2646  0.2804
  486MPD2     H 7230   1.658   0.845  12.814 -1.8732  0.0892 -1.5652
  486MPD2    H1 7231   1.351   0.959  13.088 -1.6667 -0.7793  0.4492
  486MPD2    H2 7232   1.410   0.549  13.003 -1.3581  0.2658  1.0182
  486MPD2    H3 7233   1.295   0.721  13.106  0.2071 -1.5943  0.2312
  486MPD2     N 7234   1.555   1.050  12.922 -0.2049 -0.3845 -0.2090
  486MPD2    H5 7235   1.630   1.067  12.855  0.1658 -0.3123  0.2263
  486MPD2    N1 7236   1.619   0.574  12.847  0.6081  0.2496 -0.3036
  486MPD2    H7 7237   1.582   0.482  12.866 -1.9123  1.5620  1.2132
  487TMC3    C1 7238   1.801   0.447  12.777  0.1982  0.6600  0.4963
  487TMC3    C2 7239   1.708   0.348  12.761  0.2256 -0.2072 -0.8530
  487TMC3    C3 7240   1.729   0.230  12.824  0.1874  1.0026  0.6377
  487TMC3    C4 7241   1.914   0.426  12.854  0.4426  0.5706  0.5495
  487TMC3    C5 7242   1.928   0.304  12.922 -0.1350  0.0481 -0.4894
  487TMC3    C6 7243   1.834   0.201  12.908  0.3808 -0.9884 -0.2163
  487TMC3     C 7244   1.743   0.581  12.790  0.0206  0.3764 -0.3684
  487TMC3     O 7245   1.823   0.679  12.784  0.0841  0.4214  0.7951
  487TMC3     H 7246   1.618   0.372  12.706 -0.5569  0.6226  0.8019
  487TMC3    H1 7247   1.966   0.517  12.882 -2.2384  2.5732 -0.8918
  487TMC3    H2 7248   1.829   0.121  12.981 -1.9143 -0.8727 -0.2708
  487TMC3    C7 7249   1.947   0.324  13.069  0.6369 -0.3701 -0.1315
  487TMC3    C8 7250   1.607   0.196  12.897 -0.1699  0.1429 -0.2940
  487TMC3    O1 7251   1.875   0.409  13.125 -0.2535  0.7334  0.8873
  487TMC3    O2 7252   1.533   0.288  12.931 -0.5303 -0.5140  0.2976
  488MPD2     C 7253   1.675   2.407  16.776 -0.2176  0.2757 -0.4650
  488MPD2    C1 7254   1.739   2.467  16.886  0.2754 -0.3421 -1.4062
  488MPD2    C2 7255   1.712   2.422  17.018  0.3477 -0.3759  0.3621
  488MPD2    C3 7256   1.621   2.318  17.039  0.1199 -0.9049 -0.0670
  488MPD2    C4 7257   1.566   2.258  16.928 -0.3441  0.1797 -0.5338
  488MPD2    C5 7258   1.600   2.299  16.804  0.8497  0.7222 -0.0518
  488MPD2     H 7259   1.746   2.480  17.103 -1.9100 -1.9016  2.2985
  488MPD2    H1 7260   1.501   2.171  16.939  0.2392 -0.1504  0.2881
  488MPD2    H2 7261   1.683   2.425  16.669  0.1311  1.2140 -0.2746
  488MPD2    H3 7262   1.544   2.259  16.720 -0.5988  2.8273 -0.0884
  488MPD2     N 7263   1.594   2.283  17.174 -0.4049 -0.3424 -0.0522
  488MPD2    H5 7264   1.661   2.301  17.247  2.1856  1.0581 -2.7709
  488MPD2    N1 7265   1.834   2.571  16.871  0.1551 -0.1972 -0.5138
  488MPD2    H7 7266   1.860   2.629  16.950 -0.1215 -0.8460  0.0475
  489TMC3    C1 7267   1.484   2.202  17.360  1.1327 -0.0393 -0.8102
  489TMC3    C2 7268   1.581   2.264  17.432  0.1357  0.0248  0.1343
  489TMC3    C3 7269   1.551   2.278  17.559  0.4249 -0.1711  0.1634
  489TMC3    C4 7270   1.368   2.146  17.412  0.6419 -0.0396  0.0704
  489TMC3    C5 7271   1.349   2.161  17.547  0.5514 -0.3534  0.7122
  489TMC3    C6 7272   1.442   2.227  17.622 -0.2093 -0.1823  0.4374
  489TMC3     C 7273   1.494   2.201  17.215 -0.0791 -0.1065  0.6274
  489TMC3     O 7274   1.407   2.146  17.153  0.5588 -0.4726 -0.4579
  489TMC3     H 7275   1.661   2.326  17.394 -0.1571  1.5964  2.0732
  489TMC3    H1 7276   1.305   2.085  17.349 -0.1181  0.4109  0.3935
  489TMC3    H2 7277   1.426   2.227   0.030  0.5174 -0.2513  0.5414
  489TMC3    C7 7278   1.252   2.086  17.619 -0.0464 -0.7561 -0.1604
  489TMC3    C8 7279   1.625   2.378  17.625  0.9254 -0.0467  0.2631
  489TMC3    O1 7280   1.285   2.035   0.026 -0.0129 -0.1677  0.4587
  489TMC3    O2 7281   1.735   2.404  17.581 -0.1091 -0.1618 -0.5538
  490MPD2     C 7282   2.548   2.051  17.523 -0.3069  0.0839  0.0047
  490MPD2    C1 7283   2.461   2.121  17.613  0.4408 -0.0376 -0.4153
  490MPD2    C2 7284   2.499   2.227  17.677  0.7284  0.1489  0.2999
  490MPD2    C3 7285   2.627   2.283  17.644 -0.4011  0.1067 -0.6887
  490MPD2    C4 7286   2.714   2.217  17.551  0.2271  0.4175  0.4199
  490MPD2    C5 7287   2.670   2.103  17.489  0.7759 -0.1343 -0.6837
  490MPD2     H 7288   2.435   2.283   0.045 -0.5215 -1.1385  0.2046
  490MPD2    H1 7289   2.807   2.258  17.514  0.8558 -1.2908  0.1294
  490MPD2    H2 7290   2.521   1.957  17.477  0.9661 -0.8611  1.2022
  490MPD2    H3 7291   2.742   2.061  17.419 -1.0493 -2.7061 -1.0165
  490MPD2     N 7292   2.684   2.394   0.006  0.0318 -0.2665 -0.0323
  490MPD2    H5 7293   2.772   2.436  17.675 -0.0166  0.0361  0.2468
  490MPD2    N1 7294   2.329   2.068  17.643  0.1619  0.4040  0.1055
  490MPD2    H7 7295   2.283   2.102   0.027  1.4019 -1.7875  1.6746
  491TMC3    C1 7296   2.159   1.918  17.644  0.0671  0.9314 -0.3349
  491TMC3    C2 7297   2.152   1.921   0.077  0.3990  0.6354 -0.5241
  491TMC3    C3 7298   2.054   1.841   0.134  0.5699  0.1775 -0.8657
  491TMC3    C4 7299   2.071   1.857  17.561 -1.1637 -0.4285  0.7307
  491TMC3    C5 7300   1.977   1.768  17.620 -0.0564  0.4532 -0.4798
  491TMC3    C6 7301   1.970   1.757   0.057  0.4602 -0.2868  0.1041
  491TMC3     C 7302   2.280   1.953  17.590  0.0911 -0.3846  0.3003
  491TMC3     O 7303   2.309   1.888  17.487 -0.3660 -0.6430 -0.1099
  491TMC3     H 7304   2.245   1.940   0.130  0.2160 -0.7690  0.2912
  491TMC3    H1 7305   2.076   1.877  17.455 -2.0903 -1.7235  0.4565
  491TMC3    H2 7306   1.895   1.703   0.113 -0.1817  0.0698 -0.3950
  491TMC3    C7 7307   1.877   1.717  17.530  0.2654  0.1107  0.0076
  491TMC3    C8 7308   2.028   1.854   0.279  0.6055  0.0389 -0.7010
  491TMC3    O1 7309   1.900   1.730  17.411  0.2410  0.4234  0.1534
  491TMC3    O2 7310   1.952   1.771   0.331  0.2821  0.2550  0.3289
  492MPD2     C 7311   2.981   1.713  11.844  0.1843  0.0142 -0.2540
  492MPD2    C1 7312   2.949   1.641  11.731  0.4185 -0.7131 -0.6633
  492MPD2    C2 7313   2.819   1.600  11.714  0.7382  0.1724 -0.0674
  492MPD2    C3 7314   2.727   1.622  11.822 -0.7627 -0.7248 -0.0629
  492MPD2    C4 7315   2.762   1.692  11.933  0.5034 -0.0141  0.6580
  492MPD2    C5 7316   2.889   1.739  11.940 -0.5088  0.1015  0.6075
  492MPD2     H 7317   2.789   1.543  11.627  2.2879 -2.0034  0.8094
  492MPD2    H1 7318   2.692   1.706  12.014  0.5283 -0.1305  0.6995
  492MPD2    H2 7319   3.082   1.747  11.859  0.3956 -0.3442 -0.8318
  492MPD2    H3 7320   2.912   1.793  12.032  1.7724 -1.6380  1.0441
  492MPD2     N 7321   2.597   1.567  11.829 -0.3389  0.1310 -0.7265
  492MPD2    H5 7322   2.540   1.597  11.908  0.5525  0.4297 -0.1861
  492MPD2    N1 7323   3.049   1.628  11.636 -0.8679  0.7753 -0.3580
  492MPD2    H7 7324   3.142   1.661  11.658 -0.5659 -0.8478  0.7866
  493TMC3    C1 7325   3.162   1.568  11.430  0.2375 -0.6426  0.0007
  493TMC3    C2 7326   3.228   1.689  11.421 -0.8117 -0.8129 -0.0734
  493TMC3    C3 7327   3.291   1.699  11.295  0.7190 -0.2421  0.0472
  493TMC3    C4 7328   3.173   1.466  11.339 -0.9868 -0.2015 -0.7384
  493TMC3    C5 7329   3.268   1.474  11.234  1.3767 -0.4428 -0.6125
  493TMC3    C6 7330   3.323   1.598  11.205 -0.3678  0.3728 -0.0099
  493TMC3     C 7331   3.036   1.577  11.511  0.8574  0.4527  0.3456
  493TMC3     O 7332   2.937   1.532  11.456  0.0216  0.3084  0.1743
  493TMC3     H 7333   3.194   1.771  11.483 -0.9106 -1.5977  0.9054
  493TMC3    H1 7334   3.113   1.377  11.354 -1.3655  0.3774  1.1658
  493TMC3    H2 7335   3.378   1.616  11.114 -1.7296  1.7158 -0.5775
  493TMC3    C7 7336   3.218   1.405  11.114  0.1942 -0.2968 -0.1068
  493TMC3    C8 7337   3.332   1.835  11.277  0.8645 -0.0900  0.2452
  493TMC3    O1 7338   3.198   1.463  11.005 -0.0854 -0.0448 -0.1428
  493TMC3    O2 7339   3.344   1.898  11.382 -0.0831  0.4951 -0.0031
  494TMC3    C1 7340   3.577   3.650   0.510  0.2808  0.1195  0.0209
  494TMC3    C2 7341   3.565   3.512   0.521  0.2585 -0.3099  0.1001
  494TMC3    C3 7342   3.638   3.433   0.433  0.3871  0.4529 -0.2810
  494TMC3    C4 7343   3.655   3.702   0.413  0.2982  0.7069 -0.3002
  494TMC3    C5 7344   3.741   3.622   0.343  0.0656 -0.2353  0.9583
  494TMC3    C6 7345   3.731   3.486   0.344  1.0918  0.0436  0.4398
  494TMC3     C 7346   3.498   3.726   0.607 -0.2799  0.0659  0.3230
  494TMC3     O 7347   3.466   3.661   0.709 -0.2315 -1.0778  0.3569
  494TMC3     H 7348   3.487   3.471   0.585 -0.6777  0.9929 -0.2032
  494TMC3    H1 7349   3.673   3.809   0.415 -0.8981  0.8856  1.0329
  494TMC3    H2 7350   3.810   3.424   0.304  0.1997  0.4151 -1.8623
  494TMC3    C7 7351   3.781   3.666   0.213 -0.0929  0.3963  0.1775
  494TMC3    C8 7352   3.648   3.291   0.449  0.8186 -0.3465  0.5590
  494TMC3    O1 7353   3.850   3.589   0.145 -0.6769 -0.1333 -0.0444
  494TMC3    O2 7354   3.654   3.260   0.569  0.0591 -0.0083  0.6232
  495TMC3    C1 7355   2.070   1.365  14.822  0.3269  0.7962 -0.4750
  495TMC3    C2 7356   1.963   1.442  14.785 -0.3813  0.2012  0.7207
  495TMC3    C3 7357   1.839   1.424  14.848 -0.3264 -0.0422 -0.0800
  495TMC3    C4 7358   2.068   1.322  14.952  0.6085 -0.2071  0.2006
  495TMC3    C5 7359   1.949   1.321  15.023  0.3399  0.7008 -0.1276
  495TMC3    C6 7360   1.831   1.364  14.971  0.4734 -0.0155  0.3836
  495TMC3     C 7361   2.092   1.260  14.727  0.5870 -0.4209  0.0897
  495TMC3     O 7362   2.049   1.268  14.612 -0.6589  0.0076 -0.5763
  495TMC3     H 7363   1.970   1.490  14.688 -0.9694  0.6253  0.8913
  495TMC3    H1 7364   2.164   1.287  14.988  0.8382  0.2799  0.0589
  495TMC3    H2 7365   1.734   1.345  15.016  0.1880  1.8388  0.5868
  495TMC3    C7 7366   1.967   1.294  15.163 -0.0384  0.8024 -0.6623
  495TMC3    C8 7367   1.723   1.420  14.761  0.0269  0.6284 -0.1698
  495TMC3    O1 7368   2.079   1.300  15.211  0.1569  0.1612  0.1041
  495TMC3    O2 7369   1.607   1.432  14.801 -0.7488 -0.5688 -0.1128
  496MPD2     C 7370   3.938   0.945  15.549 -0.4124  0.4916 -0.3495
  496MPD2    C1 7371   3.970   0.851  15.635  0.4785 -0.5583 -0.7239
  496MPD2    C2 7372   3.899   0.845  15.757 -0.0121  0.9640  0.0293
  496MPD2    C3 7373   3.785   0.926  15.783  0.0103  0.2247  0.6122
  496MPD2    C4 7374   3.750   1.014  15.688 -0.1946 -0.2084  0.8434
  496MPD2    C5 7375   3.819   1.012  15.569 -1.0511 -0.4874 -0.2644
  496MPD2     H 7376   3.927   0.779  15.838  0.1681  2.5914  1.2858
  496MPD2    H1 7377   3.677   1.093  15.702 -1.0712 -0.9034  0.1471
  496MPD2    H2 7378   3.999   0.959  15.461 -0.6795 -0.5685 -0.7074
  496MPD2    H3 7379   3.806   1.084  15.488 -0.8635 -0.5192 -0.3216
  496MPD2     N 7380   3.706   0.922  15.899 -0.4388 -0.1615  0.9288
  496MPD2    H5 7381   3.616   0.967  15.896  0.0120  0.8414  2.3450
  496MPD2    N1 7382   4.077   0.760  15.608  0.3981 -0.3430 -0.3973
  496MPD2    H7 7383   4.125   0.780  15.521 -0.9670  1.8320 -0.6637
  497TMC3    C1 7384   3.645   0.871  16.120 -0.1329  0.2852 -0.1846
  497TMC3    C2 7385   3.517   0.875  16.081  0.5705 -0.2854  0.0682
  497TMC3    C3 7386   3.422   0.881  16.186 -0.0152 -0.3869 -0.1097
  497TMC3    C4 7387   3.688   0.880  16.248  0.4306  0.7026  0.2322
  497TMC3    C5 7388   3.592   0.907  16.347  1.2802 -0.2878  0.3808
  497TMC3    C6 7389   3.461   0.906  16.323 -0.3973 -0.1620 -0.5069
  497TMC3     C 7390   3.742   0.856  16.019 -1.0838 -0.2037  0.3278
  497TMC3     O 7391   3.853   0.826  16.055 -0.1533 -0.8236  0.1688
  497TMC3     H 7392   3.494   0.840  15.981 -1.1781  0.7042  0.1212
  497TMC3    H1 7393   3.776   0.834  16.289  0.8480 -1.4181 -3.0532
  497TMC3    H2 7394   3.391   0.921  16.405 -0.2230  0.4340 -0.4682
  497TMC3    C7 7395   3.634   0.877  16.479  1.0609  0.3196 -0.6428
  497TMC3    C8 7396   3.286   0.850  16.173  1.0475 -0.0096 -0.4933
  497TMC3    O1 7397   3.551   0.817  16.544  0.1615 -0.7877  0.4893
  497TMC3    O2 7398   3.212   0.837  16.269  0.2799 -0.1214 -0.1705
  498MPD2     C 7399   0.686   0.344   9.578 -0.0723  0.1731 -0.0305
  498MPD2    C1 7400   0.675   0.427   9.694  0.2323 -0.1581  0.1459
  498MPD2    C2 7401   0.557   0.419   9.769  0.3437  0.1153  0.2140
  498MPD2    C3 7402   0.457   0.327   9.747  0.6768 -0.2782  0.3965
  498MPD2    C4 7403   0.466   0.259   9.631  0.0373 -0.0218  0.4283
  498MPD2    C5 7404   0.572   0.269   9.547 -0.5076 -0.1358  0.1301
  498MPD2     H 7405   0.532   0.496   9.841  2.7993  1.0395  0.0874
  498MPD2    H1 7406   0.400   0.177   9.603  0.7176  0.0126 -1.2957
  498MPD2    H2 7407   0.775   0.340   9.517  0.4052  0.7695  0.6285
  498MPD2    H3 7408   0.585   0.202   9.462  2.0543  1.9506 -1.1197
  498MPD2     N 7409   0.340   0.325   9.823 -0.1144  0.4312 -0.2764
  498MPD2    H5 7410   0.347   0.389   9.901  0.8646 -0.2511  0.2029
  498MPD2    N1 7411   0.772   0.517   9.734 -0.1609  0.2988 -0.0120
  498MPD2    H7 7412   0.743   0.570   9.815  1.0609  0.4056  0.3565
  499TMC3    C1 7413   0.967   0.633   9.752 -0.8309  0.5976  0.5771
  499TMC3    C2 7414   1.104   0.630   9.734  0.1315 -0.0654  0.7389
  499TMC3    C3 7415   1.175   0.737   9.782 -0.1022 -0.3306 -0.1472
  499TMC3    C4 7416   0.904   0.739   9.814  0.6898  0.7072  0.1944
  499TMC3    C5 7417   0.983   0.836   9.864 -0.1449 -0.3167  0.2944
  499TMC3    C6 7418   1.116   0.835   9.848 -0.5275  0.0207  0.1330
  499TMC3     C 7419   0.901   0.525   9.690 -0.1962 -0.6368  0.4782
  499TMC3     O 7420   0.956   0.461   9.604 -0.1232 -0.3612  0.8692
  499TMC3     H 7421   1.146   0.543   9.686  0.6999 -0.5867  2.1664
  499TMC3    H1 7422   0.797   0.755   9.822  0.3420 -0.4810 -2.0057
  499TMC3    H2 7423   1.182   0.908   9.893 -1.0579  0.0359  0.8736
  499TMC3    C7 7424   0.930   0.947   9.943 -0.1272 -0.3624  0.2446
  499TMC3    C8 7425   1.319   0.731   9.775 -0.1793 -0.2475  0.5430
  499TMC3    O1 7426   0.993   1.055   9.931 -0.0285 -0.0552 -0.2284
  499TMC3    O2 7427   1.375   0.624   9.768  0.4534 -0.3098  0.8075
  500MPD2     C 7428   2.223   2.365   9.922 -0.2372  0.2160  0.1969
  500MPD2    C1 7429   2.175   2.469  10.003  0.2410  0.0091 -0.3055
  500MPD2    C2 7430   2.040   2.507  10.010  0.1515  0.1383  0.3010
  500MPD2    C3 7431   1.952   2.445   9.916  0.2097  0.4157  0.0318
  500MPD2    C4 7432   1.999   2.349   9.834  0.2469 -0.3814  0.2838
  500MPD2    C5 7433   2.125   2.305   9.839  0.5978 -0.8574 -0.0905
  500MPD2     H 7434   2.014   2.595  10.067  1.2144 -0.7292  2.1334
  500MPD2    H1 7435   1.933   2.304   9.761 -0.6466  1.4521 -0.0384
  500MPD2    H2 7436   2.325   2.332   9.910 -0.4506  0.6117 -2.7523
  500MPD2    H3 7437   2.157   2.232   9.765 -1.0445 -0.7801 -0.8619
  500MPD2     N 7438   1.810   2.470   9.908 -0.7956  0.4336 -0.2347
  500MPD2    H5 7439   1.750   2.415   9.848  1.0911 -1.3803 -0.4965
  500MPD2    N1 7440   2.264   2.550  10.081 -0.2116  1.0521 -0.2198
  500MPD2    H7 7441   2.231   2.641  10.114 -4.8795  0.5577 -3.4946
  501TMC3    C1 7442   2.482   2.629  10.136 -0.0571 -0.5791  0.9670
  501TMC3    C2 7443   2.447   2.750  10.083  0.1481 -0.0832 -0.5260
  501TMC3    C3 7444   2.522   2.861  10.117 -0.0498 -0.1442 -0.1592
  501TMC3    C4 7445   2.598   2.613  10.212 -0.3344  0.5086  0.0378
  501TMC3    C5 7446   2.676   2.728  10.232  0.2871  0.1263  1.0604
  501TMC3    C6 7447   2.636   2.851  10.188 -0.3070  0.3152  0.5759
  501TMC3     C 7448   2.403   2.512  10.097 -0.2122 -0.3454 -0.3034
  501TMC3     O 7449   2.459   2.409  10.099  0.3341  0.1512  0.3425
  501TMC3     H 7450   2.369   2.764  10.009  0.7125  1.5107 -0.7973
  501TMC3    H1 7451   2.632   2.514  10.243  3.3346  1.7586 -0.0200
  501TMC3    H2 7452   2.686   2.945  10.203  1.4317 -0.3629 -0.9449
  501TMC3    C7 7453   2.787   2.710  10.319 -0.0113 -0.2432 -0.4479
  501TMC3    C8 7454   2.461   2.992  10.091 -0.3249  0.6242  0.2435
  501TMC3    O1 7455   2.785   2.603  10.378  0.5664 -0.1386  0.4642
  501TMC3    O2 7456   2.416   3.008   9.977  0.1154  0.3236  0.1971
  502TMC3    C1 7457   1.348   1.388  15.127  0.2364  0.4014  1.1027
  502TMC3    C2 7458   1.349   1.501  15.057  0.2468  0.4643  0.7355
  502TMC3    C3 7459   1.248   1.592  15.075  0.4501  0.0382  0.5602
  502TMC3    C4 7460   1.243   1.354  15.200  0.2340  0.4545  0.1379
  502TMC3    C5 7461   1.139   1.444  15.220  0.0569  0.8309  0.2491
  502TMC3    C6 7462   1.145   1.563  15.162 -0.5699 -0.0737  0.7460
  502TMC3     C 7463   1.472   1.375  15.204 -0.7684  0.5862  0.6470
  502TMC3     O 7464   1.565   1.434  15.150 -0.6705 -0.3232 -0.0606
  502TMC3     H 7465   1.431   1.516  14.989 -0.9659  2.1050 -0.3511
  502TMC3    H1 7466   1.232   1.258  15.248 -2.4828 -0.0802 -1.5004
  502TMC3    H2 7467   1.081   1.646  15.193 -0.8239 -0.2366  0.6590
  502TMC3    C7 7468   1.054   1.425  15.339 -0.1002  0.3685 -0.5159
  502TMC3    C8 7469   1.309   1.721  15.084  0.4637  0.3820 -0.9520
  502TMC3    O1 7470   1.098   1.373  15.440  0.1890 -0.2631  0.1526
  502TMC3    O2 7471   1.240   1.821  15.064  0.3293 -0.5430  0.3074
  503MPD2     C 7472   3.507   2.710  17.006 -0.3385  0.2221 -0.0737
  503MPD2    C1 7473   3.546   2.705  17.140 -0.0125 -0.4779  0.1580
  503MPD2    C2 7474   3.604   2.592  17.187 -0.9524  0.1985  0.8809
  503MPD2    C3 7475   3.640   2.485  17.104  0.3096 -0.4517  0.0111
  503MPD2    C4 7476   3.605   2.489  16.972  0.0294  0.3760  0.3542
  503MPD2    C5 7477   3.541   2.605  16.925  0.1526  0.3834  0.1697
  503MPD2     H 7478   3.634   2.594  17.291  0.0799 -0.1420  0.5833
  503MPD2    H1 7479   3.631   2.424  16.890  0.2898 -0.4183  1.0682
  503MPD2    H2 7480   3.453   2.795  16.964  0.6770  0.5998 -0.6109
  503MPD2    H3 7481   3.507   2.599  16.822  0.1651  3.6360 -0.0226
  503MPD2     N 7482   3.715   2.371  17.155  0.6601  1.4774  0.5448
  503MPD2    H5 7483   3.758   2.375  17.247  0.5940 -0.6968  0.6779
  503MPD2    N1 7484   3.528   2.815  17.230  0.4397  0.3834 -0.5352
  503MPD2    H7 7485   3.560   2.799  17.325 -1.7452 -0.9673 -0.0205
  504TMC3    C1 7486   3.849   2.181  17.152 -0.3155  0.1039 -0.4503
  504TMC3    C2 7487   3.806   2.130  17.275  1.0428  0.1481  0.6175
  504TMC3    C3 7488   3.833   1.995  17.301 -0.4314  0.9059  0.3937
  504TMC3    C4 7489   3.923   2.106  17.064 -0.0156 -0.0813  0.3562
  504TMC3    C5 7490   3.959   1.973  17.098  0.3176  1.3692  0.6654
  504TMC3    C6 7491   3.899   1.919  17.212  0.7116 -0.1154  0.0633
  504TMC3     C 7492   3.760   2.266  17.077  0.0631  0.7582  0.2409
  504TMC3     O 7493   3.746   2.247  16.958  0.4828 -0.2833 -0.0108
  504TMC3     H 7494   3.733   2.182  17.336  0.3041 -0.3790  0.1947
  504TMC3    H1 7495   3.957   2.150  16.971 -2.3993 -1.0315 -0.9679
  504TMC3    H2 7496   3.929   1.819  17.243 -1.0363 -0.3809  0.9272
  504TMC3    C7 7497   4.076   1.917  17.026  0.3994  0.5427 -0.3089
  504TMC3    C8 7498   3.776   1.935  17.415 -0.3132 -0.0143  0.7634
  504TMC3    O1 7499   4.134   1.994  16.947  0.4538  0.1506  0.0027
  504TMC3    O2 7500   3.776   2.003  17.517 -0.3384  0.0834  0.4411
  505MPD2     C 7501   3.665   0.667  10.101  0.4372  0.1504 -0.4603
  505MPD2    C1 7502   3.717   0.682  10.228 -0.5138 -0.3030  0.4997
  505MPD2    C2 7503   3.791   0.800  10.252 -0.9468 -0.2161  0.3788
  505MPD2    C3 7504   3.820   0.891  10.145 -0.8578 -0.1017 -0.3026
  505MPD2    C4 7505   3.766   0.875  10.019 -0.6525  0.0634  0.1665
  505MPD2    C5 7506   3.690   0.762   9.999  0.6164  0.5567 -0.0747
  505MPD2     H 7507   3.826   0.829  10.350 -1.0411  2.5241 -0.3989
  505MPD2    H1 7508   3.778   0.956   9.947  0.9850  0.2730  0.6806
  505MPD2    H2 7509   3.603   0.583  10.076 -1.1791  1.3199 -0.3519
  505MPD2    H3 7510   3.632   0.751   9.908  0.7129  2.0484 -0.3141
  505MPD2     N 7511   3.896   1.004  10.184 -0.1761 -0.4105  0.3350
  505MPD2    H5 7512   3.920   1.013  10.282 -1.2213  0.8666  0.4606
  505MPD2    N1 7513   3.694   0.582  10.322  0.5743 -0.2307  0.4241
  505MPD2    H7 7514   3.632   0.507  10.295  1.0135 -0.8117  1.0201
  506TMC3    C1 7515   3.740   0.449  10.519 -0.1758 -0.3475 -0.6797
  506TMC3    C2 7516   3.779   0.348  10.438  0.3934  0.6001 -0.1116
  506TMC3    C3 7517   3.884   0.271  10.470  0.1533 -0.0772 -0.0555
  506TMC3    C4 7518   3.806   0.458  10.636  0.1687 -0.1530  0.4172
  506TMC3    C5 7519   3.916   0.380  10.662  0.0054 -0.2595 -0.4130
  506TMC3    C6 7520   3.964   0.283  10.578 -0.2087  0.2543 -0.3337
  506TMC3     C 7521   3.752   0.580  10.450  0.6676 -0.2229  0.1602
  506TMC3     O 7522   3.825   0.662  10.509 -0.0839  0.0663 -0.4051
  506TMC3     H 7523   3.723   0.334  10.347 -1.7992 -0.2900  1.3580
  506TMC3    H1 7524   3.785   0.540  10.703 -0.4690 -0.0760  0.1307
  506TMC3    H2 7525   4.061   0.235  10.587 -1.1192 -1.3043  1.3172
  506TMC3    C7 7526   4.020   0.451  10.731  0.2957  0.2526  0.2304
  506TMC3    C8 7527   3.923   0.180  10.366 -0.4978  0.6448 -0.2924
  506TMC3    O1 7528   4.107   0.387  10.789  0.0600  0.3654  0.0368
  506TMC3    O2 7529   3.840   0.131  10.292  0.6622  0.1621 -0.1701
  507TMC3    C1 7530   4.595   2.134  15.415 -0.1291 -0.0079  0.4310
  507TMC3    C2 7531   4.588   2.039  15.313  0.0802 -0.2709 -0.0832
  507TMC3    C3 7532   4.695   2.010  15.233  0.0572 -0.1919 -0.3962
  507TMC3    C4 7533   4.710   2.210  15.439  0.4073 -0.2891  1.1301
  507TMC3    C5 7534   0.088   2.196  15.350 -0.5554 -0.6622 -0.1114
  507TMC3    C6 7535   0.082   2.092  15.256 -0.1368 -0.2323  0.1678
  507TMC3     C 7536   4.469   2.193  15.439 -0.3529  0.1103  0.7433
  507TMC3     O 7537   4.373   2.120  15.420  0.0815  0.1970 -0.0602
  507TMC3     H 7538   4.497   1.988  15.284 -0.3866  0.7668 -0.4526
  507TMC3    H1 7539   4.713   2.282  15.520 -2.5786  0.8933  0.2099
  507TMC3    H2 7540   0.171   2.065  15.200  0.2542 -0.9544  1.1446
  507TMC3    C7 7541   0.109   2.319  15.278 -0.2330 -0.4443 -0.4841
  507TMC3    C8 7542   4.662   1.987  15.090  0.1984 -0.3447  0.2336
  507TMC3    O1 7543   0.123   2.298  15.158 -0.3961  0.2899 -0.3929
  507TMC3    O2 7544   4.575   1.904  15.076 -0.7922  0.8636 -0.2652
  508MPD2     C 7545   1.296   4.149  16.367  0.2793  0.0264 -0.1979
  508MPD2    C1 7546   1.278   4.268  16.421 -0.3955 -0.2172 -0.4564
  508MPD2    C2 7547   1.212   4.366  16.348 -0.1543  0.7035  0.4817
  508MPD2    C3 7548   1.191   4.348  16.211  0.3256  0.5842  0.4145
  508MPD2    C4 7549   1.209   4.221  16.154 -0.6172 -0.0130 -0.5969
  508MPD2    C5 7550   1.259   4.123  16.240 -0.9614  0.3937  0.0601
  508MPD2     H 7551   1.190   4.463  16.389 -0.3493  0.7024  0.3806
  508MPD2    H1 7552   1.183   4.191  16.053 -1.6851 -0.2266 -0.2616
  508MPD2    H2 7553   1.354   4.077  16.424 -2.6312 -1.5053  0.8433
  508MPD2    H3 7554   1.287   4.028  16.197  0.0125  0.2907  0.9257
  508MPD2     N 7555   1.142   4.454  16.135 -0.2122  0.3625  0.2727
  508MPD2    H5 7556   1.110   4.540  16.179  0.7577  2.4443 -3.0392
  508MPD2    N1 7557   1.317   4.281  16.555  0.4963 -0.0797  0.0119
  508MPD2    H7 7558   1.345   4.197  16.603  0.4872  0.7342  1.4338
  509TMC3    C1 7559   0.977   0.057  15.946  0.0527  0.4042 -0.1456
  509TMC3    C2 7560   1.053   0.105  15.836 -0.2928  0.2290  0.6761
  509TMC3    C3 7561   1.156   0.035  15.779  0.7197 -0.0461  0.4656
  509TMC3    C4 7562   1.007   4.663  16.002  0.5307  0.5832  0.0256
  509TMC3    C5 7563   1.105   4.589  15.940 -0.5036  0.6105 -0.1695
  509TMC3    C6 7564   1.175   4.631  15.832 -0.3126  0.5237  0.0556
  509TMC3     C 7565   0.850   0.124  15.975 -1.0443 -0.4816  0.4875
  509TMC3     O 7566   0.799   0.093  16.083 -0.0802  0.0433  0.4684
  509TMC3     H 7567   1.041   0.208  15.804 -0.0646  0.2087  0.5230
  509TMC3    H1 7568   0.948   4.622  16.083  0.4636  0.7302  0.0498
  509TMC3    H2 7569   1.252   4.574  15.781 -0.1062  0.6733  0.2028
  509TMC3    C7 7570   1.138   4.457  15.995 -0.2696  0.4773  0.0660
  509TMC3    C8 7571   1.280   0.099  15.726  0.0372  0.0949  0.3254
  509TMC3    O1 7572   1.210   4.393  15.919  0.2778 -0.4464 -0.8879
  509TMC3    O2 7573   1.378   0.028  15.727 -0.3833  0.3708  0.2612
  510MPD2     C 7574   3.569   1.361  15.483  1.1439  0.1385  0.3840
  510MPD2    C1 7575   3.537   1.239  15.434 -0.2899 -0.1890  0.4924
  510MPD2    C2 7576   3.619   1.184  15.342  0.0974  0.1637  0.4313
  510MPD2    C3 7577   3.730   1.254  15.294 -0.3981  1.0818  0.1679
  510MPD2    C4 7578   3.757   1.371  15.344  0.8152  0.4744  1.5887
  510MPD2    C5 7579   3.687   1.427  15.445  0.0852 -0.0028 -0.1915
  510MPD2     H 7580   3.608   1.081  15.312  1.8008  0.5924 -1.6285
  510MPD2    H1 7581   3.852   1.421  15.325 -0.2883  2.1244  0.4600
  510MPD2    H2 7582   3.523   1.395  15.576 -0.3567  0.2751 -0.4009
  510MPD2    H3 7583   3.724   1.513  15.499 -2.1059  0.4947  0.5231
  510MPD2     N 7584   3.815   1.187  15.200 -0.6305  0.4696  0.3114
  510MPD2    H5 7585   3.781   1.095  15.175  0.5873  0.0734  0.0942
  510MPD2    N1 7586   3.429   1.162  15.478 -0.0553 -0.3645 -0.7916
  510MPD2    H7 7587   3.416   1.066  15.447 -0.7428 -0.6137  0.2826
  511TMC3    C1 7588   3.230   1.111  15.580  0.2065 -0.0654 -0.0373
  511TMC3    C2 7589   3.131   1.160  15.665 -0.5837  0.3961  0.1322
  511TMC3    C3 7590   3.003   1.122  15.633 -0.2910 -0.0501  0.2002
  511TMC3    C4 7591   3.198   1.041  15.465  0.5654 -0.2684 -0.2356
  511TMC3    C5 7592   3.069   1.011  15.436 -0.1013  0.1023  0.0948
  511TMC3    C6 7593   2.966   1.059  15.520  0.1728 -0.2781 -0.6062
  511TMC3     C 7594   3.343   1.192  15.580 -0.0738 -0.4378  0.4342
  511TMC3     O 7595   3.340   1.288  15.658  0.2992  0.5556  0.6186
  511TMC3     H 7596   3.157   1.203  15.761 -0.5143  1.8872 -0.5452
  511TMC3    H1 7597   3.269   0.997  15.396  1.6985  0.8226  0.2421
  511TMC3    H2 7598   2.865   1.022  15.505 -0.7041  1.2184  1.5316
  511TMC3    C7 7599   3.041   0.967  15.300  0.3631  0.1949 -0.2258
  511TMC3    C8 7600   2.901   1.179  15.708 -0.8113 -0.0372 -0.3483
  511TMC3    O1 7601   3.130   0.978  15.219  0.1957 -0.4135 -0.3151
  511TMC3    O2 7602   2.923   1.290  15.746 -0.5541  0.1321 -0.1327
  512TMC3    C1 7603   2.425   0.253  13.311 -0.4131 -0.0732 -0.3047
  512TMC3    C2 7604   2.380   0.301  13.427 -0.3054 -0.4269 -0.0563
  512TMC3    C3 7605   2.331   0.200  13.509  0.5358 -0.5611  0.4603
  512TMC3    C4 7606   2.448   0.121  13.288 -0.5990  0.1711  0.6906
  512TMC3    C5 7607   2.396   0.029  13.370 -0.5905 -0.1646 -0.3922
  512TMC3    C6 7608   2.338   0.069  13.482 -0.1008  0.0810  0.0586
  512TMC3     C 7609   2.412   0.336  13.193 -0.2808  0.0847  0.4055
  512TMC3     O 7610   2.491   0.309  13.104  0.0558 -0.2970  0.7138
  512TMC3     H 7611   2.366   0.407  13.445 -0.5645 -0.5536  0.4608
  512TMC3    H1 7612   2.500   0.096  13.197 -1.6972  0.7977 -0.1016
  512TMC3    H2 7613   2.316   0.005  13.566  0.8012  0.8409  0.8625
  512TMC3    C7 7614   2.377   4.621  13.312  0.0954 -0.2046  1.5004
  512TMC3    C8 7615   2.296   0.234  13.650  0.2874 -0.3207 -0.2091
  512TMC3    O1 7616   2.348   4.617  13.194  0.8227 -0.2047 -0.0697
  512TMC3    O2 7617   2.239   0.152  13.721 -0.1572 -0.0406  0.1312
  513MPD2     C 7618   4.346   0.713  13.678 -0.3394  0.0454  0.3571
  513MPD2    C1 7619   4.454   0.709  13.590  0.9678  0.0299  0.1423
  513MPD2    C2 7620   4.560   0.788  13.609 -0.5505 -0.1148  0.1302
  513MPD2    C3 7621   4.573   0.854  13.722  0.0302  1.0247 -1.2475
  513MPD2    C4 7622   4.465   0.866  13.812  0.1126 -0.1939 -0.0859
  513MPD2    C5 7623   4.350   0.790  13.794  0.6863  0.5157  0.2881
  513MPD2     H 7624   4.649   0.773  13.549 -1.8350  1.4788 -2.1705
  513MPD2    H1 7625   4.464   0.927  13.901 -1.8594  0.9109 -0.8622
  513MPD2    H2 7626   4.259   0.650  13.664  0.7767 -1.0112 -1.7849
  513MPD2    H3 7627   4.264   0.796  13.859  0.3082  2.6374 -0.3946
  513MPD2     N 7628   4.699   0.913  13.752 -0.1975 -0.3641  0.4054
  513MPD2    H5 7629   0.044   0.902  13.678 -0.8567  0.1385 -0.2786
  513MPD2    N1 7630   4.461   0.625  13.473 -0.1509  0.2101 -0.6324
  513MPD2    H7 7631   4.546   0.633  13.419  2.2694 -0.7297  3.0687
  514TMC3    C1 7632   4.427   0.470  13.300 -0.6238  0.3216 -0.1138
  514TMC3    C2 7633   4.361   0.496  13.184 -0.6430  0.0958  0.2519
  514TMC3    C3 7634   4.442   0.507  13.072 -0.0406  0.1178 -0.6026
  514TMC3    C4 7635   4.561   0.461  13.303  0.3563  0.3398  0.0488
  514TMC3    C5 7636   4.640   0.477  13.193  1.0785  0.0048  0.4235
  514TMC3    C6 7637   4.582   0.512  13.075 -0.2234  0.6817  0.0476
  514TMC3     C 7638   4.368   0.537  13.419 -0.1247  0.6301  0.4419
  514TMC3     O 7639   4.250   0.533  13.422 -0.1362  0.2891  0.2843
  514TMC3     H 7640   4.253   0.495  13.186 -0.6401  1.3747  1.1436
  514TMC3    H1 7641   4.613   0.423  13.390  2.3037  0.1617 -1.1929
  514TMC3    H2 7642   4.645   0.543  12.993 -0.0216  1.0415  0.3359
  514TMC3    C7 7643   0.002   0.577  13.235 -0.4904  0.4944  0.5157
  514TMC3    C8 7644   4.371   0.571  12.968 -0.0897  0.1776  0.1969
  514TMC3    O1 7645   4.685   0.652  13.327 -0.1251  0.0371  0.1265
  514TMC3    O2 7646   4.272   0.635  12.997 -0.0422 -0.3672  0.4321
  515MPD2     C 7647   2.447   2.620  14.822 -0.3088  0.1377 -0.3663
  515MPD2    C1 7648   2.441   2.483  14.853  0.4323 -0.1354  0.2234
  515MPD2    C2 7649   2.473   2.441  14.983  0.1668  0.0870 -1.1218
  515MPD2    C3 7650   2.513   2.531  15.081  1.1404 -0.0539  0.9941
  515MPD2    C4 7651   2.514   2.663  15.046 -0.6987  0.8412 -0.5440
  515MPD2    C5 7652   2.481   2.710  14.922  0.0747  0.6369 -0.7971
  515MPD2     H 7653   2.452   2.342  15.019 -0.5476  0.4393 -0.5781
  515MPD2    H1 7654   2.549   2.734  15.120 -0.0170 -2.2808  2.1069
  515MPD2    H2 7655   2.435   2.655  14.720  0.3513 -1.9773 -1.1794
  515MPD2    H3 7656   2.500   2.814  14.901 -2.6824  0.7819 -2.5532
  515MPD2     N 7657   2.558   2.493  15.214 -0.0741  0.1050  0.2898
  515MPD2    H5 7658   2.577   2.565  15.283  0.5952 -0.3579  0.5840
  515MPD2    N1 7659   2.404   2.380  14.758 -0.3921  1.5025  0.0357
  515MPD2    H7 7660   2.377   2.297  14.810  1.2121  0.8610 -0.1824
  516TMC3    C1 7661   2.343   2.267  14.567 -0.0919  0.4427  0.7248
  516TMC3    C2 7662   2.245   2.276  14.471  1.2186  0.1421 -0.0072
  516TMC3    C3 7663   2.154   2.178  14.461  0.3937 -0.2467  0.1772
  516TMC3    C4 7664   2.346   2.157  14.651 -0.6617  0.2045 -0.0555
  516TMC3    C5 7665   2.241   2.070  14.651 -0.5497 -0.1859  0.5608
  516TMC3    C6 7666   2.136   2.086  14.560 -0.0762  0.2200 -0.5585
  516TMC3     C 7667   2.387   2.397  14.624 -0.7746 -0.2156 -0.4141
  516TMC3     O 7668   2.392   2.498  14.557 -0.1162 -0.1438  0.4285
  516TMC3     H 7669   2.238   2.364  14.408  0.7062  1.4579  1.8844
  516TMC3    H1 7670   2.417   2.140  14.731 -2.7848 -2.7950  1.1923
  516TMC3    H2 7671   2.052   2.018  14.554 -1.4199  1.9785 -1.4887
  516TMC3    C7 7672   2.226   1.980  14.763 -0.4499 -0.4381  0.7667
  516TMC3    C8 7673   2.042   2.198  14.370 -0.3077 -0.0990 -0.2302
  516TMC3    O1 7674   2.321   1.970  14.839  0.0438 -0.5026  0.0460
  516TMC3    O2 7675   1.936   2.144  14.396 -0.2156  0.7555  0.0776
  517MPD2     C 7676   1.920   4.074   0.458  0.1556 -0.1900 -0.1972
  517MPD2    C1 7677   2.059   4.065   0.485 -0.8753 -0.2730  0.0749
  517MPD2    C2 7678   2.134   4.178   0.524  0.2508  0.2092 -0.4907
  517MPD2    C3 7679   2.069   4.298   0.549 -0.0943  0.0678  0.1022
  517MPD2    C4 7680   1.937   4.309   0.524  0.7690  0.0094  0.9341
  517MPD2    C5 7681   1.868   4.203   0.469 -0.1679 -0.7345  0.0871
  517MPD2     H 7682   2.238   4.156   0.545  0.0591 -1.0275 -0.8315
  517MPD2    H1 7683   1.886   4.404   0.532  1.4944  0.4569  0.2541
  517MPD2    H2 7684   1.859   3.988   0.433  2.0472 -2.3407  2.4148
  517MPD2    H3 7685   1.763   4.217   0.445  0.2059 -0.2370 -1.2447
  517MPD2     N 7686   2.140   4.408   0.606  0.1505 -0.6904  0.3462
  517MPD2    H5 7687   2.081   4.488   0.629 -0.5082 -1.3453  0.9596
  517MPD2    N1 7688   2.129   3.949   0.486  0.3721 -0.0394  0.5633
  517MPD2    H7 7689   2.227   3.958   0.509 -0.1011  2.5571  1.5779
  518TMC3    C1 7690   2.189   3.728   0.429  0.3081 -0.2258 -0.0956
  518TMC3    C2 7691   2.151   3.597   0.398 -0.2224 -0.0430  0.0863
  518TMC3    C3 7692   2.237   3.524   0.310  0.2376  0.1043 -0.3062
  518TMC3    C4 7693   2.303   3.783   0.387 -0.1906 -0.3475 -0.5524
  518TMC3    C5 7694   2.385   3.708   0.313 -0.3805 -0.8999  0.2368
  518TMC3    C6 7695   2.357   3.576   0.268  0.1134  0.3141 -0.0620
  518TMC3     C 7696   2.078   3.822   0.452  0.3289 -0.2348 -0.0162
  518TMC3     O 7697   1.962   3.795   0.414 -0.4517 -0.1483  0.3113
  518TMC3     H 7698   2.061   3.558   0.445 -0.0980  0.2872  0.6017
  518TMC3    H1 7699   2.326   3.888   0.385  1.1897 -0.5785  2.0103
  518TMC3    H2 7700   2.426   3.511   0.216  1.3379  0.6462  1.1272
  518TMC3    C7 7701   2.521   3.762   0.288  0.6240  0.0701  0.2030
  518TMC3    C8 7702   2.199   3.388   0.262  0.0853  1.0706 -0.9086
  518TMC3    O1 7703   2.558   3.877   0.319 -0.4571  0.1831 -0.7862
  518TMC3    O2 7704   2.268   3.342   0.174  0.4620  0.3277  0.8910
  519MPD2     C 7705   3.444   2.243  14.368  0.1666 -0.7697 -0.2438
  519MPD2    C1 7706   3.353   2.167  14.296 -0.7261 -0.0073 -0.0711
  519MPD2    C2 7707   3.344   2.030  14.314  0.7417  0.2374  0.2475
  519MPD2    C3 7708   3.445   1.967  14.391  0.0466 -1.6358  0.2136
  519MPD2    C4 7709   3.541   2.041  14.455 -0.1110 -0.0017  0.7976
  519MPD2    C5 7710   3.536   2.175  14.451  0.1036 -0.2052  0.1399
  519MPD2     H 7711   3.282   1.964  14.255 -1.5275  1.8732  0.7922
  519MPD2    H1 7712   3.624   1.991  14.503  1.2551  0.2608 -1.3121
  519MPD2    H2 7713   3.442   2.350  14.351 -4.0478 -0.8186 -0.0171
  519MPD2    H3 7714   3.612   2.240  14.492  1.1480 -0.9417 -0.6550
  519MPD2     N 7715   3.465   1.826  14.394  0.1506 -0.2000  0.0942
  519MPD2    H5 7716   3.550   1.791  14.439 -0.4499  0.0157  1.4166
  519MPD2    N1 7717   3.273   2.230  14.195 -0.0555 -0.1629  1.0361
  519MPD2    H7 7718   3.286   2.330  14.187  0.5246 -0.2425  0.9729
  520TMC3    C1 7719   3.476   1.624  14.271 -0.4272 -0.3891  0.0142
  520TMC3    C2 7720   3.426   1.543  14.168 -0.7166  0.7435 -0.4059
  520TMC3    C3 7721   3.506   1.436  14.127  0.6454  0.6222 -0.3098
  520TMC3    C4 7722   3.602   1.602  14.328 -0.6386 -0.4746  0.3063
  520TMC3    C5 7723   3.676   1.503  14.269 -0.2182 -0.1058 -0.5822
  520TMC3    C6 7724   3.628   1.408  14.182 -0.5573 -0.2086  0.2203
  520TMC3     C 7725   3.397   1.743  14.308 -0.3055  0.0175  0.2013
  520TMC3     O 7726   3.292   1.756  14.249  0.3835  0.7501 -0.2516
  520TMC3     H 7727   3.319   1.544  14.152 -0.7975 -0.0871  0.1130
  520TMC3    H1 7728   3.643   1.657  14.412  1.6589 -0.3502 -0.8716
  520TMC3    H2 7729   3.687   1.320  14.155  2.0782  1.3311  0.9638
  520TMC3    C7 7730   3.822   1.503  14.302 -0.0745 -0.1158  0.3128
  520TMC3    C8 7731   3.467   1.372  14.007 -0.0877  0.5544 -0.0171
  520TMC3    O1 7732   3.896   1.403  14.299  0.0110  0.1326  0.7065
  520TMC3    O2 7733   3.499   1.251  14.001 -0.0673 -0.5931  0.1890
  521MPD2     C 7734   0.191   4.689   0.191 -0.4363 -0.0081 -0.0513
  521MPD2    C1 7735   0.152   4.602   0.089  0.3542 -0.1766  0.2272
  521MPD2    C2 7736   0.229   4.489   0.062  0.7296 -0.1266 -0.0679
  521MPD2    C3 7737   0.358   4.484   0.117  0.3688  0.5400 -0.4727
  521MPD2    C4 7738   0.399   4.571   0.213  0.5043  0.0771  0.1505
  521MPD2    C5 7739   0.316   4.671   0.246  0.0964  0.4541 -0.4136
  521MPD2     H 7740   0.196   4.404   0.004  0.2280  1.8252 -2.6464
  521MPD2    H1 7741   0.495   4.576   0.263  0.1435 -1.4533  0.9863
  521MPD2    H2 7742   0.130   0.048   0.223 -0.9442 -0.9525  1.4552
  521MPD2    H3 7743   0.348   0.020   0.319 -1.3195  2.0014 -1.3492
  521MPD2     N 7744   0.444   4.379   0.068 -0.2277  0.6325  0.4707
  521MPD2    H5 7745   0.406   4.323  17.691  0.7274  0.7517 -0.0905
  521MPD2    N1 7746   0.025   4.621   0.032  0.4305  0.4820  0.1891
  521MPD2    H7 7747   4.678   4.686   0.064 -0.3956 -1.3237  2.0468
  522TMC3    C1 7748   0.627   4.286  17.662 -0.2558  0.4077 -0.0932
  522TMC3    C2 7749   0.740   4.202  17.682  0.0166  0.5787  1.0322
  522TMC3    C3 7750   0.793   4.142  17.573  0.1292  0.1593 -0.2524
  522TMC3    C4 7751   0.582   4.318  17.533  0.0398 -0.7115 -0.3969
  522TMC3    C5 7752   0.637   4.250  17.427  0.6698  0.6952  0.2032
  522TMC3    C6 7753   0.742   4.162  17.445  0.0783 -0.5556  0.4735
  522TMC3     C 7754   0.582   4.362   0.076 -0.1303  0.7977 -0.0095
  522TMC3     O 7755   0.670   4.408   0.152 -1.1341 -0.6476 -0.1774
  522TMC3     H 7756   0.774   4.189   0.085  2.8362 -0.0225  0.0158
  522TMC3    H1 7757   0.518   4.404  17.520  1.6780  0.6502  0.5299
  522TMC3    H2 7758   0.770   4.093  17.366 -0.0626 -0.8953  0.7206
  522TMC3    C7 7759   0.638   4.309  17.296 -0.5801 -0.6339 -0.7169
  522TMC3    C8 7760   0.932   4.103  17.587  0.3616 -0.0099 -0.8638
  522TMC3    O1 7761   0.738   4.273  17.232  0.3237 -0.2253  0.2212
  522TMC3    O2 7762   0.964   4.046  17.691  0.0805 -0.0945 -0.0889
  523MPD2     C 7763   2.478   3.803   9.762 -0.6441 -0.1337  0.2770
  523MPD2    C1 7764   2.589   3.794   9.839  0.1223 -0.6488 -0.4518
  523MPD2    C2 7765   2.673   3.900   9.855 -0.0552  0.7802 -0.3804
  523MPD2    C3 7766   2.637   4.022   9.808 -0.2464  0.9306 -0.3046
  523MPD2    C4 7767   2.515   4.038   9.742  0.2906  0.1039 -0.2214
  523MPD2    C5 7768   2.443   3.927   9.714  0.0692  0.1202  0.0045
  523MPD2     H 7769   2.759   3.884   9.920 -1.7758 -2.8958  0.9331
  523MPD2    H1 7770   2.484   4.128   9.690 -0.4360  0.5812  1.0260
  523MPD2    H2 7771   2.402   3.727   9.750 -2.0865  1.6510 -1.8216
  523MPD2    H3 7772   2.354   3.946   9.655  0.0444 -0.1701 -0.0484
  523MPD2     N 7773   2.704   4.138   9.848  0.0508 -0.1936 -0.0132
  523MPD2    H5 7774   2.659   4.229   9.854 -0.9414 -0.8196  2.2223
  523MPD2    N1 7775   2.611   3.672   9.902 -0.0608 -0.8601 -0.1174
  523MPD2    H7 7776   2.544   3.603   9.869 -3.2523  0.4125  3.7100
  524TMC3    C1 7777   2.877   4.257   9.957  0.0233  0.6794  0.3825
  524TMC3    C2 7778   3.002   4.309   9.962  0.2856  0.5399  0.0308
  524TMC3    C3 7779   3.040   4.387  10.067 -0.0939  0.3377  0.5731
  524TMC3    C4 7780   2.772   4.308  10.034 -0.7150 -0.0282  0.1382
  524TMC3    C5 7781   2.814   4.411  10.120 -0.1627  0.3635 -0.2673
  524TMC3    C6 7782   2.942   4.449  10.148  0.1950  0.5520  0.3409
  524TMC3     C 7783   2.842   4.148   9.869 -0.1998 -0.1932  0.1118
  524TMC3     O 7784   2.930   4.090   9.809  0.1105 -0.3768 -0.8552
  524TMC3     H 7785   3.085   4.259   9.913 -0.8593 -0.6960 -0.6271
  524TMC3    H1 7786   2.667   4.280  10.028 -1.1186  1.8612 -1.6235
  524TMC3    H2 7787   2.960   4.511  10.236 -3.0840  0.0214  1.3742
  524TMC3    C7 7788   2.708   4.443  10.213 -0.0821 -0.0013 -0.4951
  524TMC3    C8 7789   3.172   4.401  10.118  0.9657  0.1779  0.0396
  524TMC3    O1 7790   2.604   4.381  10.223  0.6099  0.3742  0.5070
  524TMC3    O2 7791   3.253   4.395  10.026  0.0894  0.2133  0.0345
  525MPD2     C 7792   0.051   1.659  14.845  0.2158  0.4234  0.0208
  525MPD2    C1 7793   0.175   1.612  14.876  0.1191 -1.1558  0.2943
  525MPD2    C2 7794   0.282   1.688  14.832 -0.6709 -0.1557  0.0647
  525MPD2    C3 7795   0.259   1.815  14.774 -0.4220 -0.2331  0.2920
  525MPD2    C4 7796   0.132   1.848  14.731 -0.0530  0.2421  0.9590
  525MPD2    C5 7797   0.033   1.772  14.771 -0.3266  0.1492  0.0892
  525MPD2     H 7798   0.376   1.664  14.881 -0.8675  2.8582  1.8922
  525MPD2    H1 7799   0.115   1.930  14.662 -0.0384 -0.6917 -0.1314
  525MPD2    H2 7800   4.691   1.596  14.871 -0.1007  1.4640  1.5397
  525MPD2    H3 7801   4.658   1.807  14.745 -1.0325 -1.2301  0.8710
  525MPD2     N 7802   0.357   1.908  14.743  0.7102  0.0018  0.1077
  525MPD2    H5 7803   0.322   1.999  14.716 -4.0370 -1.7706  0.3519
  525MPD2    N1 7804   0.200   1.509  14.967  0.1605 -0.3170  0.2116
  525MPD2    H7 7805   0.295   1.476  14.978  1.2453  3.1367  1.1104
  526TMC3    C1 7806   0.166   1.371  15.164  0.0042 -0.5501 -0.3725
  526TMC3    C2 7807   0.125   1.394  15.289 -0.1419 -0.7621 -0.7177
  526TMC3    C3 7808   0.180   1.317  15.392 -0.2288 -0.2687 -0.2121
  526TMC3    C4 7809   0.272   1.290  15.138  0.0539  0.0160  1.0835
  526TMC3    C5 7810   0.336   1.223  15.243  0.0258 -0.8392  0.0635
  526TMC3    C6 7811   0.288   1.226  15.373  0.2591  0.3478  0.4744
  526TMC3     C 7812   0.108   1.456  15.056  0.2614 -0.7262 -0.8454
  526TMC3     O 7813   4.714   1.490  15.072 -0.1717 -0.3197 -0.8542
  526TMC3     H 7814   0.057   1.477  15.298  0.3562 -0.3196 -1.0194
  526TMC3    H1 7815   0.298   1.277  15.033  1.2045 -0.5668  1.4474
  526TMC3    H2 7816   0.339   1.169  15.450  2.6101  1.1051 -0.5035
  526TMC3    C7 7817   0.478   1.171  15.231  0.5345  0.3272 -0.4017
  526TMC3    C8 7818   0.182   1.377  15.533  0.0879 -0.6239  0.3019
  526TMC3    O1 7819   0.526   1.110  15.328  0.4005 -0.1979 -0.4624
  526TMC3    O2 7820   0.291   1.369  15.589  0.3038  0.1241 -0.1463
  527MPD2     C 7821   3.098   4.120   1.483 -0.7755 -0.2264 -0.1089
  527MPD2    C1 7822   3.192   4.017   1.468 -1.0145 -0.0850 -0.2337
  527MPD2    C2 7823   3.286   4.031   1.371  0.0926  0.7720  0.9105
  527MPD2    C3 7824   3.289   4.144   1.299 -0.6729 -0.0544 -0.2405
  527MPD2    C4 7825   3.188   4.236   1.308 -0.1517  0.5502 -0.0630
  527MPD2    C5 7826   3.098   4.228   1.405 -0.2562  0.6660  1.2409
  527MPD2     H 7827   3.367   3.960   1.361 -0.0612  0.8845 -1.1340
  527MPD2    H1 7828   3.213   4.339   1.284  0.4196  0.6531  0.9594
  527MPD2    H2 7829   3.016   4.115   1.554  0.1307 -2.0528  0.8289
  527MPD2    H3 7830   3.042   4.317   1.430 -0.3946  0.3858  1.9265
  527MPD2     N 7831   3.395   4.154   1.202  0.2695  0.6821  0.7424
  527MPD2    H5 7832   3.454   4.071   1.205 -0.9152 -0.1673  0.2391
  527MPD2    N1 7833   3.191   3.900   1.558 -0.6136 -0.7012  0.2489
  527MPD2    H7 7834   3.261   3.830   1.539  0.3878  0.0289  1.2722
  528TMC3    C1 7835   3.134   3.760   1.742  0.9144  0.0431  0.2318
  528TMC3    C2 7836   3.044   3.737   1.835  0.3123  0.1768  0.1698
  528TMC3    C3 7837   3.070   3.633   1.924 -0.4049  0.5167  0.0884
  528TMC3    C4 7838   3.258   3.712   1.750  1.0355 -0.2578 -0.1650
  528TMC3    C5 7839   3.283   3.628   1.847 -0.1620  0.6945  0.4510
  528TMC3    C6 7840   3.188   3.577   1.926  0.3416 -0.0710 -0.5164
  528TMC3     C 7841   3.107   3.885   1.661  0.5810 -0.0676 -0.0232
  528TMC3     O 7842   3.021   3.949   1.713  0.0195  0.4362  0.2801
  528TMC3     H 7843   2.943   3.777   1.837 -0.2362 -1.2015 -0.6534
  528TMC3    H1 7844   3.338   3.758   1.694  1.6883 -1.6123 -0.3439
  528TMC3    H2 7845   3.215   3.527   2.018 -2.0180 -1.7816 -0.7701
  528TMC3    C7 7846   3.424   3.580   1.854 -0.2901 -0.3166  0.6606
  528TMC3    C8 7847   3.018   3.653   2.059 -0.3049 -0.8561  0.2309
  528TMC3    O1 7848   3.522   3.645   1.828  0.1735 -0.3015 -0.1629
  528TMC3    O2 7849   3.004   3.554   2.126  0.8202  0.3397  0.1599
  529MPD2     C 7850   0.197   2.397   0.362 -0.4012 -0.0748  0.2979
  529MPD2    C1 7851   0.307   2.419   0.447  0.4937 -0.2162  0.6146
  529MPD2    C2 7852   0.416   2.477   0.388  0.6045  0.3296 -0.5760
  529MPD2    C3 7853   0.416   2.524   0.258  0.9363  0.0076 -0.3018
  529MPD2    C4 7854   0.311   2.496   0.173  0.0468  0.5091 -0.0973
  529MPD2    C5 7855   0.200   2.425   0.223 -0.4232  0.0550  0.1954
  529MPD2     H 7856   0.510   2.484   0.440 -0.1186 -1.0225  0.9059
  529MPD2    H1 7857   0.299   2.538   0.074 -1.1833 -1.2077 -0.6765
  529MPD2    H2 7858   0.104   2.357   0.399  0.4843 -2.1687  0.2254
  529MPD2    H3 7859   0.119   2.413   0.152 -0.8381 -1.0900  0.8665
  529MPD2     N 7860   0.517   2.604   0.206 -0.0072 -0.0265 -0.0930
  529MPD2    H5 7861   0.507   2.636   0.110  2.5241  0.7292 -0.0970
  529MPD2    N1 7862   0.315   2.387   0.584  0.0025  0.4581 -0.0411
  529MPD2    H7 7863   0.394   2.427   0.633 -0.0833  0.4040  0.1386
  530TMC3    C1 7864   0.270   2.320   0.790 -0.7708  0.6664  0.1019
  530TMC3    C2 7865   0.324   2.433   0.847 -0.1392 -0.5030  0.5109
  530TMC3    C3 7866   0.387   2.424   0.969 -0.3645  0.0899  0.0153
  530TMC3    C4 7867   0.273   2.199   0.846 -0.7187  0.0152 -0.0717
  530TMC3    C5 7868   0.333   2.191   0.968 -1.0297  0.2856  0.0705
  530TMC3    C6 7869   0.389   2.300   1.031  0.5705  0.0100  0.0521
  530TMC3     C 7870   0.225   2.320   0.656 -0.0199  0.0417  0.2854
  530TMC3     O 7871   0.129   2.251   0.623  0.1160 -0.1048  0.1674
  530TMC3     H 7872   0.313   2.531   0.803  0.4835 -0.7477 -0.1838
  530TMC3    H1 7873   0.231   2.111   0.799 -0.0657 -0.6446  0.6006
  530TMC3    H2 7874   0.419   2.280   1.134  1.5452  0.3313 -0.1714
  530TMC3    C7 7875   0.315   2.059   1.028 -0.2034 -0.2523 -0.0767
  530TMC3    C8 7876   0.442   2.543   1.032 -0.2735  0.0281  0.1337
  530TMC3    O1 7877   0.240   1.982   0.977  0.0257  0.0491  0.3242
  530TMC3    O2 7878   0.380   2.642   1.009 -0.2465 -0.2542  0.7347
  531MPD2     C 7879   0.477   0.734  13.304  0.3514 -0.1252  0.1480
  531MPD2    C1 7880   0.365   0.770  13.366 -0.1526 -0.3295  0.7169
  531MPD2    C2 7881   0.244   0.715  13.324 -0.5705 -0.5007 -0.0763
  531MPD2    C3 7882   0.244   0.628  13.217 -0.3001 -0.1923 -0.4526
  531MPD2    C4 7883   0.361   0.600  13.147  0.2726 -0.2138 -0.3676
  531MPD2    C5 7884   0.480   0.647  13.195  0.4675 -0.0634  1.5977
  531MPD2     H 7885   0.154   0.725  13.384 -0.7653  1.6341 -0.7408
  531MPD2    H1 7886   0.371   0.537  13.060 -0.6591  0.8575 -1.2622
  531MPD2    H2 7887   0.571   0.780  13.333  0.7193 -0.4745 -0.4744
  531MPD2    H3 7888   0.577   0.623  13.154 -1.6893 -3.1267 -1.6934
  531MPD2     N 7889   0.126   0.561  13.169  0.4201  0.4748 -0.0431
  531MPD2    H5 7890   0.140   0.489  13.099  2.2701  0.8421 -0.0540
  531MPD2    N1 7891   0.383   0.836  13.490  0.5229  0.0222 -0.2669
  531MPD2    H7 7892   0.475   0.863  13.524  0.5385  2.9052 -2.5851
  532TMC3    C1 7893   0.320   0.939  13.694 -0.0336 -0.1490 -0.0136
  532TMC3    C2 7894   0.203   0.992  13.747  0.3638  0.0122  0.0706
  532TMC3    C3 7895   0.159   0.965  13.870 -0.2380  0.4916  0.4924
  532TMC3    C4 7896   0.380   0.845  13.772 -0.2233  0.0687 -0.6554
  532TMC3    C5 7897   0.327   0.805  13.892  0.7915 -0.4542  0.1159
  532TMC3    C6 7898   0.216   0.864  13.943  0.2164 -0.2850 -0.4073
  532TMC3     C 7899   0.277   0.886  13.565 -0.2756 -0.6396  0.2583
  532TMC3     O 7900   0.160   0.909  13.531  0.2668 -0.5260  0.1878
  532TMC3     H 7901   0.157   1.070  13.688  0.0131  0.7736  1.3496
  532TMC3    H1 7902   0.480   0.818  13.739  0.0196  0.5197 -0.2974
  532TMC3    H2 7903   0.171   0.818  14.030  2.7445  0.1544  1.1134
  532TMC3    C7 7904   0.374   0.675  13.944 -0.1115 -0.3539  0.3324
  532TMC3    C8 7905   0.012   0.964  13.868  0.2858 -0.1018 -0.3573
  532TMC3    O1 7906   0.322   0.636  14.048 -0.2290  0.2376  0.1698
  532TMC3    O2 7907   4.675   0.970  13.973  0.2551  0.6443  0.3269
  533TMC3    C1 7908   0.555   2.036  14.786 -0.3892 -0.0822 -0.1027
  533TMC3    C2 7909   0.691   2.046  14.782  0.1935 -0.0956  0.1659
  533TMC3    C3 7910   0.759   2.106  14.881  0.7202  0.2997  0.3386
  533TMC3    C4 7911   0.490   2.116  14.876  0.3288 -0.1832  0.5308
  533TMC3    C5 7912   0.561   2.192  14.967 -0.3151 -0.4038  0.0162
  533TMC3    C6 7913   0.696   2.189  14.973 -0.3095  0.1203  0.7369
  533TMC3     C 7914   0.495   1.906  14.774 -0.1600  0.4221 -0.7726
  533TMC3     O 7915   0.569   1.812  14.813 -0.4147  0.0352  0.1993
  533TMC3     H 7916   0.745   1.980  14.715 -1.9978 -0.9158 -0.7758
  533TMC3    H1 7917   0.383   2.103  14.887  0.1736  0.7515  0.1290
  533TMC3    H2 7918   0.756   2.240  15.048  1.3581 -1.0158  0.1970
  533TMC3    C7 7919   0.495   2.206  15.095 -0.2826 -0.3573  0.1346
  533TMC3    C8 7920   0.898   2.142  14.863  0.5118 -0.0014 -0.9788
  533TMC3    O1 7921   0.420   2.110  15.127  0.2172 -0.1899  0.4287
  533TMC3    O2 7922   0.963   2.146  14.969 -0.1664 -0.3416  0.4066
  534MPD2     C 7923   3.252   2.549   1.509 -0.0899  0.2154  0.6970
  534MPD2    C1 7924   3.200   2.661   1.574  0.0439  0.0062 -0.6362
  534MPD2    C2 7925   3.062   2.664   1.594 -0.0215 -0.2861  0.2344
  534MPD2    C3 7926   2.979   2.563   1.550 -0.2704 -0.7069 -0.7351
  534MPD2    C4 7927   3.037   2.453   1.490  0.8686 -0.9620 -0.5877
  534MPD2    C5 7928   3.169   2.445   1.477 -0.3195 -0.0879  0.2634
  534MPD2     H 7929   3.024   2.750   1.649  1.1462 -0.2317  0.9436
  534MPD2    H1 7930   2.970   2.373   1.459  1.2613 -0.8866 -1.6073
  534MPD2    H2 7931   3.357   2.538   1.488 -0.4347  1.6926 -1.7236
  534MPD2    H3 7932   3.211   2.356   1.430 -1.9031  0.1881 -1.6952
  534MPD2     N 7933   2.839   2.564   1.570  0.3518  0.4550  0.0606
  534MPD2    H5 7934   2.792   2.486   1.526 -0.2839  0.8658  0.0055
  534MPD2    N1 7935   3.286   2.771   1.600  0.0703  0.2496 -0.4639
  534MPD2    H7 7936   3.232   2.853   1.624 -0.5326  0.0931 -1.2912
  535TMC3    C1 7937   2.647   2.694   1.573  0.0856  0.7738  0.2773
  535TMC3    C2 7938   2.562   2.769   1.651 -0.1996 -0.7534  0.4223
  535TMC3    C3 7939   2.473   2.840   1.576 -0.4652  0.2961  0.0354
  535TMC3    C4 7940   2.659   2.698   1.435 -0.1729  0.1944  0.6482
  535TMC3    C5 7941   2.583   2.788   1.367 -0.4734 -0.0053 -0.2703
  535TMC3    C6 7942   2.492   2.857   1.441  0.6062 -0.2071 -0.1163
  535TMC3     C 7943   2.765   2.651   1.644  0.0720 -0.2104 -0.7048
  535TMC3     O 7944   2.799   2.723   1.736 -0.2665  0.4010 -0.4455
  535TMC3     H 7945   2.564   2.777   1.759 -1.4721 -1.0602  0.4671
  535TMC3    H1 7946   2.723   2.629   1.381 -0.6235  2.6517 -2.9878
  535TMC3    H2 7947   2.427   2.922   1.383  0.5685 -1.6395 -1.6471
  535TMC3    C7 7948   2.652   2.868   1.265  0.2595  0.2648 -0.0283
  535TMC3    C8 7949   2.347   2.875   1.618  0.3447  0.3758 -0.7766
  535TMC3    O1 7950   2.707   2.801   1.180 -0.3649 -0.2453  0.1196
  535TMC3    O2 7951   2.256   2.859   1.537  0.4470  0.0936  0.4802
  536MPD2     C 7952   1.919   1.510  16.522  0.6607 -0.0728  0.3522
  536MPD2    C1 7953   1.799   1.453  16.554  0.5078  0.2018  0.0585
  536MPD2    C2 7954   1.695   1.465  16.467  0.2893 -0.6428 -0.6746
  536MPD2    C3 7955   1.706   1.545  16.352  0.7174  0.2466 -0.1214
  536MPD2    C4 7956   1.822   1.603  16.323 -0.5850 -0.1812  0.4918
  536MPD2    C5 7957   1.930   1.587  16.409  0.5924  0.8411  0.6947
  536MPD2     H 7958   1.606   1.408  16.491 -0.2234 -0.3615 -1.8863
  536MPD2    H1 7959   1.822   1.675  16.243 -0.0069 -0.3447  0.3506
  536MPD2    H2 7960   2.008   1.508  16.583 -0.5244 -0.7249  2.0479
  536MPD2    H3 7961   2.022   1.638  16.384  0.4759  1.6698  1.9686
  536MPD2     N 7962   1.601   1.567  16.262  0.5602 -0.5443  0.5855
  536MPD2    H5 7963   1.619   1.606  16.170 -0.2315  2.0878  1.5430
  536MPD2    N1 7964   1.794   1.370  16.664  0.6351  0.2893 -0.1311
  536MPD2    H7 7965   1.876   1.382  16.723  2.3158 -3.4352 -1.7303
  537TMC3    C1 7966   1.720   1.203  16.822 -0.5915  0.2907  0.1505
  537TMC3    C2 7967   1.731   1.287  16.933  0.2776  0.0737 -0.5813
  537TMC3    C3 7968   1.708   1.238  17.058  0.3377  0.0436  0.0392
  537TMC3    C4 7969   1.670   1.075  16.840  0.1222 -0.3095 -0.4114
  537TMC3    C5 7970   1.652   1.026  16.962 -0.2376  0.3789 -0.3943
  537TMC3    C6 7971   1.664   1.109  17.074  0.4087 -0.3009 -0.1399
  537TMC3     C 7972   1.705   1.264  16.685 -0.0516  0.4901  0.2297
  537TMC3     O 7973   1.643   1.198  16.604 -0.1654  0.2601  0.1020
  537TMC3     H 7974   1.757   1.391  16.920  0.7596 -0.1604 -1.5018
  537TMC3    H1 7975   1.655   1.015  16.751  0.0339  0.3316 -0.8288
  537TMC3    H2 7976   1.630   1.077  17.171  0.7162  0.0180  0.0734
  537TMC3    C7 7977   1.615   0.885  16.976 -0.0120 -0.1570 -0.3840
  537TMC3    C8 7978   1.728   1.320  17.175 -0.1612 -0.2576  0.4443
  537TMC3    O1 7979   1.574   0.826  16.874  0.0344  0.1638 -0.1778
  537TMC3    O2 7980   1.810   1.412  17.171 -0.1615  0.3308  0.5771
  538TMC3    C1 7981   3.193   4.053  11.078  0.1565  0.3160  0.0002
  538TMC3    C2 7982   3.217   3.969  10.974 -1.0165  0.0382  0.4954
  538TMC3    C3 7983   3.120   3.965  10.881 -0.0347  0.0330  0.4022
  538TMC3    C4 7984   3.096   4.153  11.071  0.7372 -0.3390 -0.6015
  538TMC3    C5 7985   3.008   4.153  10.967  0.0746  0.6664  1.1272
  538TMC3    C6 7986   3.027   4.063  10.867  0.3034  0.0469  0.2059
  538TMC3     C 7987   3.288   4.068  11.192 -0.5387  0.5233  0.4207
  538TMC3     O 7988   3.241   4.102  11.298 -0.1160 -0.4552 -0.2305
  538TMC3     H 7989   3.285   3.884  10.984 -0.2450  0.1556 -3.6121
  538TMC3    H1 7990   3.074   4.219  11.155 -2.6290  0.8274 -2.4304
  538TMC3    H2 7991   2.961   4.068  10.781  3.1231  3.7050 -1.7315
  538TMC3    C7 7992   2.913   4.257  10.941 -0.4501 -1.0256  0.5400
  538TMC3    C8 7993   3.135   3.887  10.761 -0.1734 -0.2020 -0.6056
  538TMC3    O1 7994   2.804   4.235  10.894  0.1227 -0.0827  0.1351
  538TMC3    O2 7995   3.035   3.873  10.703  0.0718 -0.4788 -0.8092
  539MPD2     C 7996   2.653   3.204  12.034  0.5362  1.2401  0.4062
  539MPD2    C1 7997   2.677   3.230  11.900 -0.1146  0.8211 -0.1177
  539MPD2    C2 7998   2.687   3.358  11.864  0.3110  0.0642  0.6911
  539MPD2    C3 7999   2.665   3.456  11.955  0.7956  0.8860  0.3386
  539MPD2    C4 8000   2.645   3.430  12.090 -0.5287  0.9759  0.0576
  539MPD2    C5 8001   2.637   3.301  12.129  0.1744 -0.1572 -0.7250
  539MPD2     H 8002   2.700   3.377  11.758  1.1872 -0.9762  0.6034
  539MPD2    H1 8003   2.636   3.513  12.159 -2.4567  0.8508 -0.0347
  539MPD2    H2 8004   2.643   3.100  12.065 -0.9953  2.1642  3.0509
  539MPD2    H3 8005   2.625   3.271  12.233 -1.9752  0.8934 -0.6785
  539MPD2     N 8006   2.660   3.596  11.924  0.1291 -0.3275  0.4229
  539MPD2    H5 8007   2.624   3.656  11.997 -2.4498 -1.2658 -0.0687
  539MPD2    N1 8008   2.712   3.132  11.803  0.0610  0.2083 -1.2474
  539MPD2    H7 8009   2.767   3.165  11.725  0.8428 -0.1187 -0.8370
  540TMC3    C1 8010   2.670   3.782  11.794 -0.9145 -0.3273  0.7280
  540TMC3    C2 8011   2.635   3.834  11.668  0.6329 -0.0071  0.1514
  540TMC3    C3 8012   2.619   3.974  11.654  0.6270 -0.1116  0.1715
  540TMC3    C4 8013   2.683   3.862  11.900 -0.1259  0.4107 -0.1363
  540TMC3    C5 8014   2.665   4.001  11.883 -1.1041 -0.6610  0.1661
  540TMC3    C6 8015   2.629   4.056  11.767  0.2060  0.5906 -0.1204
  540TMC3     C 8016   2.704   3.648  11.808 -0.5396  0.3391 -0.3897
  540TMC3     O 8017   2.763   3.598  11.714 -0.1610  0.1640 -0.0965
  540TMC3     H 8018   2.641   3.764  11.585 -0.7839 -1.4154  1.2619
  540TMC3    H1 8019   2.711   3.821  11.996  1.1020 -0.8285 -1.0193
  540TMC3    H2 8020   2.621   4.163  11.751 -2.8591  0.4812  0.8112
  540TMC3    C7 8021   2.645   4.066  12.008  0.2726  0.7729 -0.7600
  540TMC3    C8 8022   2.591   4.025  11.519 -0.2587 -0.3283  0.1964
  540TMC3    O1 8023   2.592   4.005  12.095  0.3773  0.3739  1.1387
  540TMC3    O2 8024   2.637   4.136  11.509  0.3023  0.1041 -0.4926
  541MPD2     C 8025   0.819   0.872  13.352  0.1006 -0.7658  0.0079
  541MPD2    C1 8026   0.902   0.787  13.282 -0.4764 -0.6246  0.4044
  541MPD2    C2 8027   0.975   0.833  13.175  0.1817  0.3109 -0.0266
  541MPD2    C3 8028   0.958   0.963  13.134 -0.1942  0.1308 -0.0206
  541MPD2    C4 8029   0.877   1.044  13.198 -0.7042 -0.4237 -0.7861
  541MPD2    C5 8030   0.803   1.003  13.303 -0.5429  0.2751  0.2076
  541MPD2     H 8031   1.048   0.772  13.123  1.1187 -1.5828  3.5006
  541MPD2    H1 8032   0.854   1.142  13.159  0.0440 -0.2246 -0.7287
  541MPD2    H2 8033   0.746   0.837  13.424  0.3420  0.0098  0.6324
  541MPD2    H3 8034   0.740   1.071  13.359 -0.9222 -1.3593  1.7689
  541MPD2     N 8035   1.030   1.018  13.024  0.2996 -0.7495 -0.2763
  541MPD2    H5 8036   1.019   1.118  13.010  0.7726 -0.8523 -1.4107
  541MPD2    N1 8037   0.921   0.656  13.337 -0.9270  0.3790 -0.2707
  541MPD2    H7 8038   0.864   0.632  13.418 -1.3196  0.3348 -0.5546
  542TMC3    C1 8039   1.168   1.045  12.842  1.1091  0.0629  0.1310
  542TMC3    C2 8040   1.180   1.003  12.718  0.6457 -0.2101 -0.1491
  542TMC3    C3 8041   1.208   1.093  12.626  0.2520  0.5478  0.0431
  542TMC3    C4 8042   1.176   1.173  12.874 -0.8489  0.6479 -0.1670
  542TMC3    C5 8043   1.203   1.260  12.771  0.2983 -0.2353 -0.3534
  542TMC3    C6 8044   1.230   1.226  12.642  0.5236  0.5780 -0.0266
  542TMC3     C 8045   1.109   0.950  12.938  0.4454  0.4535 -0.3560
  542TMC3     O 8046   1.102   0.837  12.903  0.4271  0.4279 -0.3220
  542TMC3     H 8047   1.174   0.896  12.703 -0.1867 -0.2130  0.2131
  542TMC3    H1 8048   1.156   1.217  12.971  0.0517 -0.6754  0.6134
  542TMC3    H2 8049   1.226   1.291  12.555 -3.3340 -0.0443 -0.3407
  542TMC3    C7 8050   1.230   1.396  12.812  0.2169 -0.1398  1.0710
  542TMC3    C8 8051   1.230   1.041  12.493 -1.1709 -0.1937  0.3568
  542TMC3    O1 8052   1.258   1.410  12.931  0.0420 -0.2103  0.0470
  542TMC3    O2 8053   1.168   0.935  12.465  0.2078 -0.2095  0.1636
  543TMC3    C1 8054   0.361   1.538  17.178 -0.2178  0.5802  0.2915
  543TMC3    C2 8055   0.432   1.427  17.188  0.6092 -0.3174 -0.1694
  543TMC3    C3 8056   0.398   1.333  17.277 -0.0522 -0.5496 -0.9482
  543TMC3    C4 8057   0.258   1.569  17.254 -0.1179 -0.0642  0.4937
  543TMC3    C5 8058   0.236   1.476  17.359 -0.1690 -0.1417 -0.2269
  543TMC3    C6 8059   0.306   1.356  17.374 -0.0924 -0.1220 -0.3329
  543TMC3     C 8060   0.402   1.637  17.072 -0.1830 -0.0810  0.7906
  543TMC3     O 8061   0.522   1.644  17.053  0.1647 -0.1123 -0.0012
  543TMC3     H 8062   0.516   1.417  17.120 -0.6335 -0.4561 -1.6924
  543TMC3    H1 8063   0.213   1.667  17.257 -0.8665 -0.3879 -0.4657
  543TMC3    H2 8064   0.300   1.286  17.457 -0.0290 -0.7905 -0.8850
  543TMC3    C7 8065   0.151   1.509  17.472  0.1107 -0.1020 -0.4067
  543TMC3    C8 8066   0.500   1.238  17.310 -0.0521 -0.2451 -0.4050
  543TMC3    O1 8067   0.144   1.431  17.567  0.8166  0.2226 -0.0174
  543TMC3    O2 8068   0.611   1.258  17.263 -0.0228  0.2422 -0.0730
  544MPD2     C 8069   0.645   0.777  17.513  0.6972 -0.7792  1.2897
  544MPD2    C1 8070   0.722   0.864  17.439 -0.3512  1.1086  0.5770
  544MPD2    C2 8071   0.663   0.987  17.392 -0.2500 -0.7391 -0.1667
  544MPD2    C3 8072   0.523   1.015  17.414  0.2207 -0.6418 -0.0302
  544MPD2    C4 8073   0.449   0.914  17.467 -0.6122 -0.1276  0.5254
  544MPD2    C5 8074   0.512   0.801  17.514  0.9402  0.4337  0.2964
  544MPD2     H 8075   0.727   1.061  17.346  0.1903 -0.7380  0.4384
  544MPD2    H1 8076   0.342   0.923  17.475 -0.5682  0.6538  0.2742
  544MPD2    H2 8077   0.691   0.689  17.555  0.0263 -2.7036 -1.9923
  544MPD2    H3 8078   0.453   0.727  17.566  0.9544  0.2691  0.0800
  544MPD2     N 8079   0.451   1.131  17.381  0.1397 -0.4119 -0.5740
  544MPD2    H5 8080   0.353   1.123  17.406  0.4795  0.2997  0.9560
  544MPD2    N1 8081   0.854   0.825  17.414  0.2281  0.4911  0.6515
  544MPD2    H7 8082   0.886   0.739  17.457  3.0819  1.2022 -0.0645
  545TMC3    C1 8083   1.071   0.816  17.306 -0.0805 -0.0119  0.2602
  545TMC3    C2 8084   1.129   0.888  17.203 -0.9233  0.5622  0.3509
  545TMC3    C3 8085   1.261   0.922  17.222  0.8940 -0.0408 -0.2293
  545TMC3    C4 8086   1.139   0.774  17.416 -0.1890 -0.1747 -0.1974
  545TMC3    C5 8087   1.274   0.793  17.421 -0.2739  0.1380 -0.2102
  545TMC3    C6 8088   1.327   0.878  17.328  0.2977  0.5336 -0.2587
  545TMC3     C 8089   0.940   0.886  17.326 -0.2440  0.1552  0.3502
  545TMC3     O 8090   0.926   0.990  17.259 -0.4997 -0.0112 -0.0514
  545TMC3     H 8091   1.072   0.928  17.120 -1.1041 -0.4337 -0.0089
  545TMC3    H1 8092   1.086   0.745  17.507  0.1778 -1.3679 -0.3574
  545TMC3    H2 8093   1.432   0.895  17.349  0.4994 -1.1267  0.0122
  545TMC3    C7 8094   1.347   0.790  17.546 -0.4813  0.1027  0.2199
  545TMC3    C8 8095   1.311   1.053  17.172 -0.7222 -0.4506  1.0356
  545TMC3    O1 8096   1.418   0.887  17.577  0.4858  0.2621 -0.5354
  545TMC3    O2 8097   1.400   1.121  17.227 -0.3042  0.0696  0.1234
  546MPD2     C 8098   1.679   2.037   0.197 -0.4778  0.1276  0.4281
  546MPD2    C1 8099   1.712   2.026   0.061 -0.1917 -0.0142 -0.2847
  546MPD2    C2 8100   1.819   2.101   0.004  0.1077 -0.6758  0.1361
  546MPD2    C3 8101   1.882   2.194   0.088  0.6179  0.0798 -0.3545
  546MPD2    C4 8102   1.838   2.208   0.226  0.3249 -0.0525 -0.7690
  546MPD2    C5 8103   1.740   2.127   0.280  0.2529 -0.2687  0.5006
  546MPD2     H 8104   1.850   2.102  17.600  2.0725 -0.1550  0.7262
  546MPD2    H1 8105   1.894   2.269   0.296 -1.2315  0.8467 -0.3163
  546MPD2    H2 8106   1.604   1.971   0.239 -1.2087  0.0017 -1.0908
  546MPD2    H3 8107   1.714   2.128   0.385  1.5779 -0.0423  0.8257
  546MPD2     N 8108   1.982   2.284   0.038 -0.2920 -1.2126  0.1654
  546MPD2    H5 8109   2.017   2.345   0.111 -1.7336 -0.1637 -0.0244
  546MPD2    N1 8110   1.632   1.940  17.678  0.1759  0.0093  0.2331
  546MPD2    H7 8111   1.569   1.881   0.032 -1.0137 -0.3329 -1.5610
  547TMC3    C1 8112   1.522   1.852  17.491 -0.2826  0.0352  0.1501
  547TMC3    C2 8113   1.505   1.849  17.355  0.3128  0.1642 -0.4208
  547TMC3    C3 8114   1.391   1.792  17.308 -0.2753 -0.1853  0.4734
  547TMC3    C4 8115   1.422   1.803  17.575  0.5739 -0.5995 -0.3655
  547TMC3    C5 8116   1.313   1.741  17.521  0.0196  0.7316  0.3409
  547TMC3    C6 8117   1.296   1.735  17.388 -0.6456  0.7348  0.3468
  547TMC3     C 8118   1.624   1.935  17.540  0.5147 -0.1632  0.1155
  547TMC3     O 8119   1.706   1.984  17.463  0.1350 -0.0458 -0.5900
  547TMC3     H 8120   1.587   1.886  17.295  0.0949  1.0020 -0.2169
  547TMC3    H1 8121   1.436   1.785  17.681 -0.5565  0.2574 -0.0649
  547TMC3    H2 8122   1.204   1.692  17.348  0.0819  0.2243 -0.7782
  547TMC3    C7 8123   1.234   1.655  17.607  0.0844  0.0953  0.3768
  547TMC3    C8 8124   1.332   1.836  17.182  0.2334 -0.5520  0.1589
  547TMC3    O1 8125   1.225   1.692   0.026 -0.3071  0.1923  1.3766
  547TMC3    O2 8126   1.216   1.821  17.158 -0.4861 -0.5931  0.1017
  548MPD2     C 8127   2.001   2.654  12.580 -0.3189  0.0463  0.2732
  548MPD2    C1 8128   1.973   2.531  12.631  0.2789 -0.2081  0.0959
  548MPD2    C2 8129   2.039   2.422  12.588  0.2687 -0.2699 -0.8217
  548MPD2    C3 8130   2.128   2.430  12.483 -0.1327  0.2412 -0.1698
  548MPD2    C4 8131   2.145   2.555  12.421  0.4154 -0.1403  0.3155
  548MPD2    C5 8132   2.085   2.664  12.478  0.3273  0.1850 -0.0062
  548MPD2     H 8133   2.030   2.329  12.643 -1.0689  0.7276  0.6560
  548MPD2    H1 8134   2.200   2.580  12.332  1.8277 -0.4679  1.1050
  548MPD2    H2 8135   1.954   2.744  12.616  0.1734  1.1899 -1.9453
  548MPD2    H3 8136   2.098   2.759  12.427  0.8029  0.5793  0.8575
  548MPD2     N 8137   2.191   2.316  12.438 -0.0613 -0.2921  0.0590
  548MPD2    H5 8138   2.169   2.234  12.494  1.4274 -1.6829 -1.3848
  548MPD2    N1 8139   1.872   2.530  12.732 -0.6081 -0.0859 -0.0219
  548MPD2    H7 8140   1.834   2.614  12.772 -1.5779  0.1126 -1.3631
  549TMC3    C1 8141   1.703   2.457  12.869  0.2056  1.3259  0.3199
  549TMC3    C2 8142   1.626   2.565  12.836  0.7099  0.3518  0.2505
  549TMC3    C3 8143   1.499   2.564  12.893 -0.6163  0.0163  0.6086
  549TMC3    C4 8144   1.669   2.368  12.965 -0.2901  0.3565  0.4972
  549TMC3    C5 8145   1.536   2.378  13.014  0.7403  0.2321 -0.4691
  549TMC3    C6 8146   1.447   2.481  12.986  0.0762 -0.7687 -0.5809
  549TMC3     C 8147   1.812   2.414  12.783 -0.4651  0.3223  0.3339
  549TMC3     O 8148   1.827   2.301  12.740 -0.1169  0.1610 -0.6179
  549TMC3     H 8149   1.631   2.610  12.738 -1.5859 -1.8574 -0.8943
  549TMC3    H1 8150   1.738   2.292  12.998 -0.7856 -0.2991  0.0366
  549TMC3    H2 8151   1.345   2.490  13.023 -0.6980 -1.3292 -2.5968
  549TMC3    C7 8152   1.480   2.272  13.102 -0.3787  0.2571  0.2815
  549TMC3    C8 8153   1.400   2.625  12.817 -0.2277  0.4236  0.5378
  549TMC3    O1 8154   1.398   2.298  13.194  0.4013 -0.6235 -0.6026
  549TMC3    O2 8155   1.299   2.566  12.791  0.1687  0.1134  0.3870
  550TMC3    C1 8156   0.704   0.212  12.627 -0.6676  0.2090  0.2358
  550TMC3    C2 8157   0.665   0.295  12.733  0.6725  0.0882  0.1849
  550TMC3    C3 8158   0.643   0.426  12.700  0.3156 -0.3357  0.7983
  550TMC3    C4 8159   0.708   0.250  12.493 -0.8202 -0.4670 -0.2309
  550TMC3    C5 8160   0.675   0.376  12.464 -0.1285  0.1080  0.0313
  550TMC3    C6 8161   0.651   0.464  12.566  0.2632 -0.3248 -0.8183
  550TMC3     C 8162   0.769   0.083  12.670  0.4225 -0.2329  0.4060
  550TMC3     O 8163   0.728   0.022  12.767 -0.0198  0.4581 -0.4626
  550TMC3     H 8164   0.643   0.250  12.829 -1.6294 -0.1960 -0.4737
  550TMC3    H1 8165   0.718   0.171  12.420 -0.8542  1.1983 -2.0720
  550TMC3    H2 8166   0.600   0.558  12.552  0.0263 -0.3874 -0.3699
  550TMC3    C7 8167   0.593   0.401  12.351  0.3420 -0.7340 -0.0446
  550TMC3    C8 8168   0.571   0.507  12.790 -0.0744 -0.2418 -0.0040
  550TMC3    O1 8169   0.507   0.489  12.360  0.0647 -0.0014 -0.9226
  550TMC3    O2 8170   0.459   0.467  12.814  0.8412 -0.2198  0.4596
  551TMC3    C1 8171   2.766   2.968  13.390 -0.0312  0.1827  0.0314
  551TMC3    C2 8172   2.890   2.975  13.328  0.3145 -0.1039 -0.5217
  551TMC3    C3 8173   2.983   3.063  13.375 -0.4095  0.2640  0.3167
  551TMC3    C4 8174   2.739   3.052  13.494 -0.5214 -0.1933  0.4267
  551TMC3    C5 8175   2.828   3.151  13.529  0.3996 -0.2268 -0.4033
  551TMC3    C6 8176   2.952   3.162  13.464  0.3555 -0.0297 -0.2443
  551TMC3     C 8177   2.679   2.853  13.359 -0.6521 -0.1006 -0.1573
  551TMC3     O 8178   2.698   2.789  13.254  0.1905 -0.3204 -0.1167
  551TMC3     H 8179   2.913   2.903  13.251  1.8101  1.0789 -1.1769
  551TMC3    H1 8180   2.645   3.064  13.546 -0.6622 -0.7984  0.3055
  551TMC3    H2 8181   3.034   3.209  13.518 -0.1058  1.1167 -0.5229
  551TMC3    C7 8182   2.823   3.188  13.666  0.6766  0.2585 -0.2050
  551TMC3    C8 8183   3.113   3.047  13.308 -0.3664  0.2029 -0.0413
  551TMC3    O1 8184   2.796   3.098  13.741 -0.3020 -0.1077  0.2803
  551TMC3    O2 8185   3.166   2.933  13.308  0.0155 -0.0814  0.2964
  552MPD2     C 8186   4.492   0.557  14.071  0.1262  0.1897  0.3180
  552MPD2    C1 8187   4.524   0.426  14.079 -0.0183 -0.4160  0.0702
  552MPD2    C2 8188   4.649   0.379  14.115  0.2443  0.3584 -0.4351
  552MPD2    C3 8189   0.021   0.478  14.138 -0.7191 -0.2870 -0.5566
  552MPD2    C4 8190   4.720   0.614  14.120 -0.1043 -0.2588  0.1005
  552MPD2    C5 8191   4.587   0.650  14.104 -0.1972  0.0710  0.0528
  552MPD2     H 8192   4.678   0.275  14.114  1.0201  0.5654  0.3141
  552MPD2    H1 8193   0.069   0.687  14.150  1.4778 -0.7207 -2.6847
  552MPD2    H2 8194   4.391   0.589  14.051 -0.3730 -1.0576  0.9041
  552MPD2    H3 8195   4.544   0.750  14.097 -1.9611 -0.5269  2.6754
  552MPD2     N 8196   0.155   0.453  14.177  0.9055 -1.1578  0.5864
  552MPD2    H5 8197   0.223   0.529  14.173 -1.0436  0.6555  2.2275
  552MPD2    N1 8198   4.432   0.316  14.049 -0.4215  0.3240  0.1934
  552MPD2    H7 8199   4.472   0.223  14.060 -0.8714  0.0967 -0.0863
  553TMC3    C1 8200   4.287   0.226  13.901  0.9674 -0.7669 -0.0397
  553TMC3    C2 8201   4.346   0.262  13.785 -0.6822 -0.4287  0.0825
  553TMC3    C3 8202   4.429   0.170  13.728  0.4483 -0.3406 -0.1665
  553TMC3    C4 8203   4.308   0.103  13.958 -0.6151 -0.0658 -0.8948
  553TMC3    C5 8204   4.386   0.013  13.896 -0.8140 -0.0995  0.6000
  553TMC3    C6 8205   4.439   0.044  13.775  0.7721  0.1875 -0.6229
  553TMC3     C 8206   4.303   0.327  14.001 -0.9209 -0.3350 -0.9130
  553TMC3     O 8207   4.242   0.427  13.966  0.1332  0.0451  0.2574
  553TMC3     H 8208   4.321   0.361  13.750  1.7558 -0.3132 -1.2862
  553TMC3    H1 8209   4.271   0.074  14.056 -0.3210 -0.4239 -0.8865
  553TMC3    H2 8210   4.495   4.693  13.722  1.4120  0.0228  0.2905
  553TMC3    C7 8211   4.397   4.607  13.953  0.2260  0.2504 -0.5034
  553TMC3    C8 8212   4.543   0.217  13.646  0.2524 -0.4036 -0.4120
  553TMC3    O1 8213   4.310   4.568  14.029 -0.1769  0.4164  0.0999
  553TMC3    O2 8214   4.592   0.130  13.566 -0.4956  0.5456  0.1840
  554TMC3    C1 8215   1.729   3.820  12.198  0.4995 -0.3039  0.2303
  554TMC3    C2 8216   1.614   3.785  12.130 -0.8997 -0.0257  0.6154
  554TMC3    C3 8217   1.614   3.794  11.997  0.2284  0.2753  0.0417
  554TMC3    C4 8218   1.840   3.872  12.128 -0.5846 -0.3093  0.2116
  554TMC3    C5 8219   1.835   3.861  11.987 -0.2235 -0.2869 -0.4346
  554TMC3    C6 8220   1.726   3.818  11.920  0.1401  1.4683 -0.3844
  554TMC3     C 8221   1.736   3.781  12.343  0.6179  0.0630  0.2317
  554TMC3     O 8222   1.632   3.738  12.389  0.0519  0.1948 -0.3666
  554TMC3     H 8223   1.520   3.784  12.184 -1.1789 -1.4635  0.1087
  554TMC3    H1 8224   1.934   3.899  12.175 -0.5440  0.0418 -0.0742
  554TMC3    H2 8225   1.724   3.821  11.812  2.2074  0.6602 -0.4413
  554TMC3    C7 8226   1.929   3.926  11.907 -0.5776 -0.4049  0.3121
  554TMC3    C8 8227   1.490   3.759  11.929 -0.3531 -0.4114 -0.1016
  554TMC3    O1 8228   1.909   3.946  11.790  0.0744  0.0798 -0.0057
  554TMC3    O2 8229   1.382   3.788  11.975 -0.0623  0.2317 -0.0257
  555TMC3    C1 8230   1.187   3.676  15.095  1.1044 -0.1943  0.3281
  555TMC3    C2 8231   1.189   3.754  15.206 -0.4859  0.3513 -0.3753
  555TMC3    C3 8232   1.224   3.699  15.326 -0.6590 -0.2661 -0.0859
  555TMC3    C4 8233   1.218   3.536  15.102 -0.1334  0.8137  0.1177
  555TMC3    C5 8234   1.245   3.487  15.224  0.6302 -0.4877 -0.1242
  555TMC3    C6 8235   1.246   3.563  15.341  0.9041 -0.1755 -0.6494
  555TMC3     C 8236   1.185   3.731  14.962  0.1032  0.0298  0.0874
  555TMC3     O 8237   1.236   3.663  14.872 -0.1522 -0.3571 -0.2227
  555TMC3     H 8238   1.188   3.862  15.194  0.3140  0.3994 -0.0153
  555TMC3    H1 8239   1.223   3.479  15.010 -1.7745 -1.0323  1.1779
  555TMC3    H2 8240   1.278   3.524  15.437  1.3417 -1.6333 -1.3847
  555TMC3    C7 8241   1.249   3.339  15.233 -0.0306  0.0215  0.2360
  555TMC3    C8 8242   1.229   3.785  15.443 -0.3849 -0.4598 -0.0690
  555TMC3    O1 8243   1.199   3.281  15.139  0.0254  0.5326 -0.2258
  555TMC3    O2 8244   1.157   3.883  15.435  0.5649 -0.6464 -0.0844
  556MPD2     C 8245   3.941   4.639  10.735 -1.0340 -0.5433  0.6806
  556MPD2    C1 8246   3.829   4.568  10.752  0.5816 -0.2487  0.5725
  556MPD2    C2 8247   3.781   4.497  10.640 -0.7747 -0.1109  0.8944
  556MPD2    C3 8248   3.858   4.476  10.531  0.1765  0.0017 -0.0024
  556MPD2    C4 8249   3.966   4.560  10.509  0.0162  0.0497  0.2399
  556MPD2    C5 8250   4.000   4.640  10.611 -0.0945 -0.0185 -0.9263
  556MPD2     H 8251   3.686   4.444  10.646  0.8490 -2.8955  2.0062
  556MPD2    H1 8252   4.029   4.549  10.422 -2.6884  0.3534 -1.7880
  556MPD2    H2 8253   3.988   4.702  10.809  1.8647  1.0876 -2.5383
  556MPD2    H3 8254   4.087   4.703  10.596  0.6930 -0.9053 -0.1891
  556MPD2     N 8255   3.829   4.361  10.457 -0.1389 -0.0482  1.0333
  556MPD2    H5 8256   3.750   4.306  10.489  0.1761 -0.1531  1.6369
  556MPD2    N1 8257   3.761   4.574  10.877  0.4584  0.5192  0.0465
  556MPD2    H7 8258   3.814   4.621  10.950 -1.0169 -2.4290  3.0084
  557TMC3    C1 8259   3.842   4.205  10.283  0.0460  0.0608  0.0682
  557TMC3    C2 8260   3.771   4.210  10.164  0.1672  0.5846  0.6217
  557TMC3    C3 8261   3.730   4.089  10.108  0.8449  0.4228  0.6397
  557TMC3    C4 8262   3.822   4.105  10.375 -0.1917 -0.9698 -0.5796
  557TMC3    C5 8263   3.758   3.991  10.327 -0.7330  0.1601 -0.1551
  557TMC3    C6 8264   3.730   3.980  10.196 -0.4277 -0.6017  0.7404
  557TMC3     C 8265   3.886   4.333  10.334 -0.2200  0.3315  0.1749
  557TMC3     O 8266   3.940   4.409  10.260  0.4426  0.3276  0.5615
  557TMC3     H 8267   3.775   4.296  10.098  3.4428 -0.6203 -0.7729
  557TMC3    H1 8268   3.850   4.118  10.479 -1.0975  0.9676 -0.5739
  557TMC3    H2 8269   3.680   3.890  10.160 -0.2301 -0.3856 -0.0883
  557TMC3    C7 8270   3.700   3.905  10.429  0.1614  0.3133  0.1511
  557TMC3    C8 8271   3.611   4.095  10.021 -0.1812  0.9006  0.2606
  557TMC3    O1 8272   3.696   3.956  10.536  0.7772 -0.2952  0.3387
  557TMC3    O2 8273   3.565   4.208  10.009 -0.0662  0.0740 -0.1314
  558TMC3    C1 8274   1.609   2.557   9.975 -0.5506 -0.1869 -0.4758
  558TMC3    C2 8275   1.549   2.591  10.092 -0.7182 -0.5186  0.0823
  558TMC3    C3 8276   1.426   2.555  10.117 -0.2082 -0.1959  0.0027
  558TMC3    C4 8277   1.546   2.466   9.890  0.3995  1.0499  0.3770
  558TMC3    C5 8278   1.420   2.425   9.920 -0.4641 -0.9782  0.2956
  558TMC3    C6 8279   1.358   2.471  10.031  0.0389  0.4398 -0.2558
  558TMC3     C 8280   1.752   2.563   9.988 -0.2267  0.0360 -0.1495
  558TMC3     O 8281   1.791   2.621  10.086  0.5379  0.2447 -0.5539
  558TMC3     H 8282   1.590   2.673  10.148 -2.4792  1.9429 -2.2500
  558TMC3    H1 8283   1.601   2.437   9.801 -1.8506 -1.9111 -0.0551
  558TMC3    H2 8284   1.252   2.453  10.048  0.7890 -0.6687  3.2536
  558TMC3    C7 8285   1.355   2.333   9.837 -1.2588 -1.1271 -0.1856
  558TMC3    C8 8286   1.371   2.600  10.243  0.2815  0.5894  0.3191
  558TMC3    O1 8287   1.388   2.334   9.719 -0.0815  0.0304 -0.5214
  558TMC3    O2 8288   1.253   2.626  10.250  0.2651  0.1041  0.7604
  559MPD2     C 8289   1.292   3.038  10.968  0.4425  0.7629 -0.4061
  559MPD2    C1 8290   1.259   3.010  11.098  1.0801  0.0334  0.4947
  559MPD2    C2 8291   1.362   3.002  11.193 -0.1395  0.3669  0.1442
  559MPD2    C3 8292   1.491   3.020  11.164  0.0310  0.1481  1.0590
  559MPD2    C4 8293   1.527   3.036  11.030 -0.0970  0.5717  0.1598
  559MPD2    C5 8294   1.424   3.049  10.933  0.0776 -0.1829  0.1522
  559MPD2     H 8295   1.332   2.980  11.295  1.1213 -2.3631 -0.0743
  559MPD2    H1 8296   1.631   3.039  10.999  0.1164 -0.5988  0.7469
  559MPD2    H2 8297   1.212   3.049  10.896  0.9611  0.5820 -1.0038
  559MPD2    H3 8298   1.450   3.073  10.831 -1.5522  1.6567  0.1814
  559MPD2     N 8299   1.590   3.025  11.267 -1.1304  0.0874  0.2617
  559MPD2    H5 8300   1.567   2.978  11.355  0.0149 -1.0677 -0.0564
  559MPD2    N1 8301   1.116   2.987  11.120  0.0895 -0.1714  0.1955
  559MPD2    H7 8302   1.056   2.974  11.039  1.2879  1.5634 -0.9800
  560TMC3    C1 8303   1.808   3.038  11.372 -0.8078 -0.2418  1.0097
  560TMC3    C2 8304   1.788   2.914  11.427  0.7656  0.2646 -0.1201
  560TMC3    C3 8305   1.866   2.880  11.535  0.0177  0.5830  0.4007
  560TMC3    C4 8306   1.893   3.128  11.423  0.1678  0.3566  0.1996
  560TMC3    C5 8307   1.969   3.098  11.531  0.1238 -0.5081  0.6703
  560TMC3    C6 8308   1.952   2.971  11.594  0.1004 -0.2216  0.2567
  560TMC3     C 8309   1.715   3.083  11.265  0.1204 -0.6052  0.0163
  560TMC3     O 8310   1.750   3.174  11.194 -0.0617  0.4040 -0.1030
  560TMC3     H 8311   1.714   2.848  11.383 -0.1520  1.1375  0.1165
  560TMC3    H1 8312   1.891   3.224  11.372  0.7603 -0.1718 -0.8295
  560TMC3    H2 8313   2.020   2.944  11.674  0.4377 -0.0832  0.0172
  560TMC3    C7 8314   2.069   3.186  11.597  0.4721 -0.6657  0.3530
  560TMC3    C8 8315   1.894   2.740  11.554  0.1657  0.3876 -0.6727
  560TMC3    O1 8316   2.096   3.171  11.715  0.6381 -0.0094  0.1131
  560TMC3    O2 8317   1.818   2.665  11.498 -0.2037  0.1382 -0.4951
  561TMC3    C1 8318   3.984   2.325  11.819 -0.4139  0.5227 -0.2296
  561TMC3    C2 8319   3.929   2.291  11.937  0.3096  0.0341  0.1047
  561TMC3    C3 8320   3.817   2.361  11.982 -0.1536  0.0246  0.2619
  561TMC3    C4 8321   3.949   2.428  11.746 -0.7411 -0.9543  0.1882
  561TMC3    C5 8322   3.829   2.493  11.785  0.5907 -0.6267  0.1407
  561TMC3    C6 8323   3.765   2.463  11.906 -0.3239 -0.5137 -0.0268
  561TMC3     C 8324   4.076   2.223  11.757  0.4988 -0.1551  0.3666
  561TMC3     O 8325   4.053   2.196  11.641 -0.4723 -0.3370  0.1738
  561TMC3     H 8326   3.965   2.206  11.994 -0.3836 -1.0349 -1.0704
  561TMC3    H1 8327   3.995   2.435  11.648  0.6948  1.3273  1.0175
  561TMC3    H2 8328   3.670   2.509  11.928  0.6406  1.9102 -0.9917
  561TMC3    C7 8329   3.792   2.619  11.719  0.3078 -1.0820 -0.2951
  561TMC3    C8 8330   3.776   2.331  12.119  0.2724 -0.6428 -0.5774
  561TMC3    O1 8331   3.687   2.666  11.759 -0.2928  0.7988  0.4560
  561TMC3    O2 8332   3.826   2.227  12.169 -0.1597  0.6155 -0.0345
  562TMC3    C1 8333   0.961   3.872  16.160 -0.0167 -0.7096 -0.2129
  562TMC3    C2 8334   0.912   3.980  16.099 -0.2679  0.8730 -0.5198
  562TMC3    C3 8335   0.896   3.983  15.966  0.4433 -0.1058 -1.0488
  562TMC3    C4 8336   0.993   3.756  16.089 -0.3588 -0.2476  0.5803
  562TMC3    C5 8337   0.974   3.762  15.957 -0.7138  0.3951  0.2552
  562TMC3    C6 8338   0.931   3.877  15.894 -0.2967 -0.7122  0.2862
  562TMC3     C 8339   0.994   3.887  16.298  0.1171 -0.2573 -1.2768
  562TMC3     O 8340   0.927   3.967  16.363  0.2617  0.4043  0.3165
  562TMC3     H 8341   0.907   4.074  16.151 -1.2913 -0.0617  1.0694
  562TMC3    H1 8342   1.029   3.672  16.147  0.5137 -0.7596 -0.7143
  562TMC3    H2 8343   0.949   3.886  15.787 -1.0384 -2.2132  0.0353
  562TMC3    C7 8344   1.007   3.651  15.870 -0.0540 -0.4491 -0.3717
  562TMC3    C8 8345   0.890   4.117  15.905  0.1702  0.5511 -0.2327
  562TMC3    O1 8346   0.984   3.668  15.748  0.1611  0.2443  0.0221
  562TMC3    O2 8347   0.921   4.214  15.975 -0.5327 -0.0894 -0.1711
  563MPD2     C 8348   3.464   0.479  15.902 -0.4806  0.4897 -0.2036
  563MPD2    C1 8349   3.425   0.439  16.027 -0.2861 -0.0909  0.2438
  563MPD2    C2 8350   3.517   0.441  16.128 -0.1748  0.4062 -0.5682
  563MPD2    C3 8351   3.649   0.469  16.108 -0.1718 -0.2638  0.0548
  563MPD2    C4 8352   3.689   0.512  15.981  0.0873 -0.5148 -0.5853
  563MPD2    C5 8353   3.591   0.518  15.885 -0.7812 -0.5302 -0.3358
  563MPD2     H 8354   3.483   0.426  16.230 -0.9913 -0.8200 -1.0159
  563MPD2    H1 8355   3.782   0.562  15.956  0.6558 -1.4121 -0.2881
  563MPD2    H2 8356   3.401   0.476  15.814  1.7931  1.4884 -1.8939
  563MPD2    H3 8357   3.610   0.562  15.788  0.0639 -0.2934 -0.0626
  563MPD2     N 8358   3.724   0.476  16.223  0.6429 -0.5671 -0.5552
  563MPD2    H5 8359   3.662   0.460  16.303 -0.8628  0.8219 -1.4590
  563MPD2    N1 8360   3.288   0.430  16.052  0.2954  0.1922 -0.2278
  563MPD2    H7 8361   3.267   0.428  16.151 -0.1882  0.0701 -0.3329
  564TMC3    C1 8362   3.059   0.448  16.038 -0.7574  0.3002  0.6190
  564TMC3    C2 8363   2.983   0.337  16.033 -0.1752 -0.4752 -0.2954
  564TMC3    C3 8364   2.933   0.284  16.147 -0.2487 -0.8158  0.2191
  564TMC3    C4 8365   3.089   0.505  16.162  0.4914 -0.3027 -0.3320
  564TMC3    C5 8366   3.040   0.453  16.272 -0.1581  0.1938 -0.9665
  564TMC3    C6 8367   2.954   0.345  16.270  0.2498  0.0941  0.4159
  564TMC3     C 8368   3.182   0.420  15.963  0.4540 -0.2362  0.3993
  564TMC3     O 8369   3.179   0.405  15.841 -0.1828 -0.2733  0.6562
  564TMC3     H 8370   2.937   0.301  15.942 -2.0509 -0.6410  0.7266
  564TMC3    H1 8371   3.149   0.596  16.164 -1.9883  1.2665  1.5214
  564TMC3    H2 8372   2.903   0.309  16.358 -0.8849 -0.6031 -0.5274
  564TMC3    C7 8373   3.141   0.439  16.371 -0.2543  0.0070 -0.6352
  564TMC3    C8 8374   2.851   0.164  16.150 -0.3843 -0.3645  1.1423
  564TMC3    O1 8375   3.254   0.479  16.337  0.2415  0.1814  0.2478
  564TMC3    O2 8376   2.807   0.137  16.263 -0.0667  0.5043  0.0628
  565TMC3    C1 8377   3.912   1.691   9.939  0.2480 -0.2336  0.2115
  565TMC3    C2 8378   3.868   1.626  10.051 -0.4000  0.1425 -0.1917
  565TMC3    C3 8379   3.822   1.501  10.030 -0.1402 -0.3108  0.4604
  565TMC3    C4 8380   3.924   1.630   9.816  0.0934 -0.1134  0.4631
  565TMC3    C5 8381   3.872   1.499   9.807 -0.4381  0.4254  0.4775
  565TMC3    C6 8382   3.813   1.442   9.909  0.0684  0.6221  0.2518
  565TMC3     C 8383   3.998   1.807   9.965  0.3006  1.0927  0.1192
  565TMC3     O 8384   4.037   1.863   9.860 -0.6277 -0.3309  0.1157
  565TMC3     H 8385   3.857   1.664  10.152 -0.3059  0.2397 -0.2182
  565TMC3    H1 8386   3.972   1.688   9.738  1.5652  0.4630  1.7815
  565TMC3    H2 8387   3.804   1.334   9.913 -2.2458  0.8276  0.1599
  565TMC3    C7 8388   3.866   1.449   9.677 -0.1949 -0.4633  0.4150
  565TMC3    C8 8389   3.790   1.429  10.160  0.6601  0.2387  0.2352
  565TMC3    O1 8390   3.952   1.495   9.605  0.0733  0.7579  0.2964
  565TMC3    O2 8391   3.839   1.470  10.265  0.8787 -0.3764  0.1207
  566MPD2     C 8392   0.158   3.351  14.713 -0.3787 -0.6100  0.5013
  566MPD2    C1 8393   0.166   3.423  14.592  0.0635 -0.2168 -0.4671
  566MPD2    C2 8394   0.099   3.366  14.478  0.6884  0.0048  0.4207
  566MPD2    C3 8395   0.027   3.248  14.488  0.2543  0.8052  0.4607
  566MPD2    C4 8396   0.021   3.182  14.609  0.0693 -0.1491  0.4068
  566MPD2    C5 8397   0.084   3.235  14.715  0.6391  0.2325  0.2305
  566MPD2     H 8398   0.120   3.420  14.387  0.8101  0.9993  1.0389
  566MPD2    H1 8399   4.674   3.100  14.620 -0.1039 -0.3978 -2.6648
  566MPD2    H2 8400   0.204   3.380  14.806 -1.4807  1.4968  0.4024
  566MPD2    H3 8401   0.065   3.174  14.803 -0.7591  2.2573  1.3340
  566MPD2     N 8402   4.684   3.199  14.374  0.1247  0.8545  0.6249
  566MPD2    H5 8403   4.679   3.269  14.300  2.3232  0.6559  0.2790
  566MPD2    N1 8404   0.251   3.537  14.592  0.8092 -0.0918  0.3153
  566MPD2    H7 8405   0.310   3.529  14.674  1.8849 -2.4264 -0.6552
  567TMC3    C1 8406   0.362   3.722  14.495 -0.1198  0.2108  0.3116
  567TMC3    C2 8407   0.383   3.777  14.376 -0.8691 -0.5593  0.7810
  567TMC3    C3 8408   0.509   3.798  14.324 -1.2285  0.0047 -0.4330
  567TMC3    C4 8409   0.467   3.677  14.567  0.1527  0.0496 -0.3561
  567TMC3    C5 8410   0.596   3.691  14.516  0.3700 -1.3355  1.0816
  567TMC3    C6 8411   0.617   3.750  14.393 -0.5031 -0.1760 -0.3507
  567TMC3     C 8412   0.252   3.633  14.490  0.3853 -0.5299 -0.1400
  567TMC3     O 8413   0.179   3.636  14.389  0.2820 -0.0506 -0.4955
  567TMC3     H 8414   0.297   3.819  14.326  0.8601 -0.5053 -2.1461
  567TMC3    H1 8415   0.456   3.623  14.660 -2.9619 -0.3885 -0.9693
  567TMC3    H2 8416   0.721   3.764  14.364 -0.5942 -1.9774 -1.5310
  567TMC3    C7 8417   0.712   3.637  14.587 -0.3368  0.8839 -0.0383
  567TMC3    C8 8418   0.508   3.833  14.183 -0.2587  0.1074  0.0719
  567TMC3    O1 8419   0.806   3.597  14.522  0.2306 -0.2396 -0.1213
  567TMC3    O2 8420   0.403   3.849  14.123 -0.2262 -0.6296  0.5213
  568MPD2     C 8421   2.434   3.633  16.895  0.0182 -0.4691 -0.1473
  568MPD2    C1 8422   2.504   3.738  16.956  0.5954  0.3871  0.3404
  568MPD2    C2 8423   2.524   3.852  16.880  0.2596  0.1027 -0.0500
  568MPD2    C3 8424   2.470   3.873  16.757 -0.6646  0.1642 -0.0886
  568MPD2    C4 8425   2.404   3.768  16.704  0.0308  0.5615 -0.0158
  568MPD2    C5 8426   2.386   3.651  16.769 -0.4565  0.1043  0.5070
  568MPD2     H 8427   2.573   3.934  16.932  0.6999 -1.1450  1.4850
  568MPD2    H1 8428   2.376   3.765  16.599 -1.5406 -0.7217  0.4566
  568MPD2    H2 8429   2.421   3.534  16.936  0.1950  0.2527  1.6714
  568MPD2    H3 8430   2.349   3.562  16.718  0.9317 -0.6737  0.8613
  568MPD2     N 8431   2.482   4.000  16.694 -0.0543 -0.2096 -0.0583
  568MPD2    H5 8432   2.544   4.065  16.742 -0.1459 -0.4058  0.3327
  568MPD2    N1 8433   2.564   3.705  17.078  0.1749 -0.0810  0.2585
  568MPD2    H7 8434   2.546   3.611  17.112 -0.3593  0.0712  0.4011
  569TMC3    C1 8435   2.435   4.186  16.549  0.3105 -0.1194  0.8921
  569TMC3    C2 8436   2.480   4.261  16.654 -0.1165 -0.0247 -0.4859
  569TMC3    C3 8437   2.493   4.399  16.627  0.7322  0.0894 -0.3635
  569TMC3    C4 8438   2.410   4.231  16.425 -0.2568  0.6683 -0.2008
  569TMC3    C5 8439   2.437   4.360  16.400 -0.3378 -0.2553 -0.0521
  569TMC3    C6 8440   2.491   4.444  16.499 -0.5766 -0.5109 -0.8279
  569TMC3     C 8441   2.425   4.044  16.574 -0.5443  0.3846  0.8195
  569TMC3     O 8442   2.358   3.971  16.506 -0.6639  0.2649 -0.3398
  569TMC3     H 8443   2.484   4.228  16.757  0.3435 -2.3901 -1.2639
  569TMC3    H1 8444   2.387   4.168  16.340  1.2814  0.6738 -0.6287
  569TMC3    H2 8445   2.507   4.547  16.468  1.7547 -0.3340  0.9208
  569TMC3    C7 8446   2.463   4.384  16.263 -0.1418 -0.2064 -0.0674
  569TMC3    C8 8447   2.513   4.494  16.736 -0.5021 -0.2283 -0.0088
  569TMC3    O1 8448   2.375   4.344  16.184  0.7158 -0.0411  0.2280
  569TMC3    O2 8449   2.534   4.612  16.709 -0.2639 -0.3853 -0.4054
  570TMC3    C1 8450   1.945   2.745  16.746 -1.1528  0.1417 -0.0257
  570TMC3    C2 8451   2.009   2.772  16.628  0.2531 -0.4718  0.1224
  570TMC3    C3 8452   2.081   2.886  16.617  0.3059 -0.0916  0.6725
  570TMC3    C4 8453   1.939   2.837  16.847 -0.3704 -0.6381 -0.1390
  570TMC3    C5 8454   2.006   2.954  16.829  0.0262 -0.0783 -0.2983
  570TMC3    C6 8455   2.065   2.986  16.711 -0.0472 -0.4423  0.2940
  570TMC3     C 8456   1.874   2.625  16.751 -0.6267  0.7404  0.5103
  570TMC3     O 8457   1.851   2.584  16.637  0.2862  0.1285 -0.0471
  570TMC3     H 8458   2.022   2.692  16.555 -2.5832  1.9030 -2.9933
  570TMC3    H1 8459   1.887   2.816  16.940 -2.9143  0.2974 -1.3335
  570TMC3    H2 8460   2.134   3.069  16.707  0.5549 -0.8606  2.2927
  570TMC3    C7 8461   1.999   3.045  16.939 -0.1859  0.3443 -0.2085
  570TMC3    C8 8462   2.180   2.908  16.519 -0.0954 -0.3227 -0.0933
  570TMC3    O1 8463   1.966   3.004  17.049 -0.1633  0.6051  0.6248
  570TMC3    O2 8464   2.212   3.024  16.504  0.4020 -0.5871  0.3677
  571MPD2     C 8465   0.014   3.524   0.151 -0.1136  0.0415  0.4981
  571MPD2    C1 8466   0.075   3.618   0.077 -0.0046 -0.4791 -0.4364
  571MPD2    C2 8467   0.080   3.748   0.116 -0.1358 -0.5917  0.2499
  571MPD2    C3 8468   0.019   3.781   0.234 -0.0607  0.4274  0.0302
  571MPD2    C4 8469   4.674   3.689   0.312  0.1615 -0.7776 -0.3335
  571MPD2    C5 8470   4.681   3.563   0.268  0.5435  0.4538 -0.4445
  571MPD2     H 8471   0.112   3.831   0.054 -0.7520  0.6554  1.5984
  571MPD2    H1 8472   4.628   3.720   0.405  1.8507 -0.3953  0.3762
  571MPD2    H2 8473   0.013   3.419   0.122 -0.0297  0.4506 -0.9708
  571MPD2    H3 8474   4.628   3.487   0.324  0.3231  1.5280  0.8204
  571MPD2     N 8475   0.009   3.913   0.280  0.3509 -0.4944 -0.0959
  571MPD2    H5 8476   4.667   3.934   0.354 -0.0965  1.3305 -1.0127
  571MPD2    N1 8477   0.129   3.575  17.650  0.0956  0.3340 -0.0823
  571MPD2    H7 8478   0.117   3.479  17.618 -1.9172  0.3222  0.7193
  572TMC3    C1 8479   0.088   4.147   0.302  0.5363  0.0302  0.3228
  572TMC3    C2 8480   0.201   4.215   0.334 -0.2689  0.1918 -0.5499
  572TMC3    C3 8481   0.192   4.330   0.403  0.5827  0.5386 -0.6810
  572TMC3    C4 8482   4.687   4.205   0.299  0.2690  0.4241 -0.6303
  572TMC3    C5 8483   4.686   4.340   0.339  0.6716 -0.3134  0.5897
  572TMC3    C6 8484   0.074   4.398   0.401 -1.0691  1.0838  0.5056
  572TMC3     C 8485   0.108   4.014   0.254  0.4309 -0.2227 -0.0225
  572TMC3     O 8486   0.217   3.991   0.210  0.3143  0.3382 -0.2578
  572TMC3     H 8487   0.289   4.157   0.361  0.7004  0.5305 -2.9695
  572TMC3    H1 8488   4.604   4.151   0.254  1.0031 -1.4182  0.1911
  572TMC3    H2 8489   0.057   4.493   0.451 -1.2779  0.8708  0.8370
  572TMC3    C7 8490   4.571   4.426   0.318  0.4415  0.6505 -0.0118
  572TMC3    C8 8491   0.301   4.364   0.495  0.1179 -0.0866 -0.2129
  572TMC3    O1 8492   4.583   4.544   0.342 -0.5760  0.5909  0.3253
  572TMC3    O2 8493   0.415   4.330   0.465 -0.3440 -0.3705  0.8916
  573MPD2     C 8494   1.153   4.705   1.334 -0.3533 -0.2250  0.0407
  573MPD2    C1 8495   1.171   0.116   1.299  0.4027 -0.2043 -0.3410
  573MPD2    C2 8496   1.189   0.148   1.166  0.4084  0.1448 -0.1933
  573MPD2    C3 8497   1.182   0.045   1.077  0.3982 -0.6471 -0.2291
  573MPD2    C4 8498   1.157   4.633   1.119 -0.4553  0.2876  0.0835
  573MPD2    C5 8499   1.141   4.604   1.249  0.3463  0.0256 -0.3691
  573MPD2     H 8500   1.204   0.248   1.128 -1.5610  0.1161 -1.0704
  573MPD2    H1 8501   1.147   4.549   1.051 -1.2236  2.0101 -1.9116
  573MPD2    H2 8502   1.169   4.688   1.440 -1.4762  1.1319  0.4402
  573MPD2    H3 8503   1.137   4.500   1.280  3.2591  0.5094  1.6413
  573MPD2     N 8504   1.188   0.063   0.933 -0.3182  0.3107 -0.1360
  573MPD2    H5 8505   1.185   4.702   0.878 -1.5265 -0.3945  1.0249
  573MPD2    N1 8506   1.195   0.209   1.402  0.2285 -0.0096 -0.2589
  573MPD2    H7 8507   1.198   0.181   1.499 -1.8507  1.8635  0.3326
  574TMC3    C1 8508   1.190   0.172   0.729  0.5241  0.6836 -0.3341
  574TMC3    C2 8509   1.233   0.283   0.666 -0.1286  0.1817  0.3164
  574TMC3    C3 8510   1.245   0.285   0.528 -0.7927  0.4453 -0.7166
  574TMC3    C4 8511   1.164   0.051   0.660 -0.4434  0.7706  0.0201
  574TMC3    C5 8512   1.177   0.063   0.523  0.2502  0.3152  0.1127
  574TMC3    C6 8513   1.206   0.178   0.453 -0.2140  0.3376  0.2471
  574TMC3     C 8514   1.186   0.184   0.871 -0.4847 -0.4780 -0.3810
  574TMC3     O 8515   1.175   0.294   0.916 -0.0800  0.0292  0.2706
  574TMC3     H 8516   1.279   0.360   0.726  1.0456  0.4101 -0.8733
  574TMC3    H1 8517   1.136   4.681   0.706  1.4979  0.0686 -0.2286
  574TMC3    H2 8518   1.220   0.181   0.346 -2.1927 -0.6254 -0.0218
  574TMC3    C7 8519   1.136   4.668   0.452 -0.1300  0.4223 -0.8741
  574TMC3    C8 8520   1.305   0.401   0.465 -0.6127 -0.1269 -0.0037
  574TMC3    O1 8521   1.047   4.606   0.504  0.1526  0.1846 -0.0289
  574TMC3    O2 8522   1.368   0.466   0.547 -0.3728  0.5907  0.8578
  575TMC3    C1 8523   3.845   1.199  11.015  0.2678 -0.6678  0.2400
  575TMC3    C2 8524   3.855   1.067  11.041 -0.3286 -0.4021  0.2996
  575TMC3    C3 8525   3.850   0.971  10.941  0.1167  0.1920  0.2776
  575TMC3    C4 8526   3.828   1.244  10.888 -0.0057  0.0048 -0.5409
  575TMC3    C5 8527   3.811   1.148  10.790 -0.0961  0.1162 -0.2031
  575TMC3    C6 8528   3.829   1.014  10.811  0.1399 -0.2452 -0.4776
  575TMC3     C 8529   3.829   1.293  11.130  0.0261 -0.8461  0.1511
  575TMC3     O 8530   3.843   1.238  11.238 -0.6285  0.8321 -0.2954
  575TMC3     H 8531   3.870   1.033  11.143  0.9775  2.5242  1.0854
  575TMC3    H1 8532   3.832   1.348  10.857  3.0542  0.1522  0.3733
  575TMC3    H2 8533   3.823   0.938  10.734 -0.8914  1.0117 -1.6426
  575TMC3    C7 8534   3.787   1.194  10.651 -0.3306  0.6848 -0.3241
  575TMC3    C8 8535   3.848   0.830  10.981 -0.5498 -0.8775  0.2843
  575TMC3    O1 8536   3.843   1.294  10.614 -0.1841 -0.2211  0.0944
  575TMC3    O2 8537   3.759   0.759  10.940 -0.5585 -0.2953  0.3558
  576MPD2     C 8538   2.886   3.126  13.020  0.7262  0.0764  0.1143
  576MPD2    C1 8539   2.974   3.184  12.940  0.4497 -0.2262 -0.4820
  576MPD2    C2 8540   2.995   3.326  12.949  0.2508  0.0601  0.2610
  576MPD2    C3 8541   2.937   3.399  13.053  0.2277 -0.5606 -0.7314
  576MPD2    C4 8542   2.844   3.334  13.134 -0.4429 -0.3274 -0.9715
  576MPD2    C5 8543   2.809   3.199  13.108 -0.4336 -0.2759 -0.3308
  576MPD2     H 8544   3.073   3.369  12.887 -1.7955  0.1557 -2.2670
  576MPD2    H1 8545   2.785   3.392  13.205 -0.3276 -0.6445 -0.6138
  576MPD2    H2 8546   2.868   3.019  13.020 -2.2879  0.5818 -0.4034
  576MPD2    H3 8547   2.732   3.157  13.172 -0.3417  1.2763  0.7766
  576MPD2     N 8548   2.956   3.541  13.050 -0.0617  0.1425 -0.4698
  576MPD2    H5 8549   3.037   3.581  13.004  0.0910 -1.9737 -2.0065
  576MPD2    N1 8550   3.059   3.115  12.852  0.4758 -0.0740 -0.5261
  576MPD2    H7 8551   3.128   3.166  12.799  0.9111 -1.5000 -1.3443
  577TMC3    C1 8552   3.137   2.947  12.709 -0.2019 -0.3690  0.0347
  577TMC3    C2 8553   3.194   2.825  12.709  0.3598  0.2943 -0.7109
  577TMC3    C3 8554   3.275   2.795  12.607  0.7249  0.5807  0.2306
  577TMC3    C4 8555   3.160   3.041  12.611 -0.3180  0.2460 -0.1537
  577TMC3    C5 8556   3.245   3.008  12.512 -0.1279  0.4890 -0.5274
  577TMC3    C6 8557   3.302   2.878  12.506 -0.2217  0.0487 -0.5364
  577TMC3     C 8558   3.053   2.986  12.825  0.0857 -0.2934  0.3963
  577TMC3     O 8559   3.011   2.896  12.895 -0.0211  0.0906 -0.0709
  577TMC3     H 8560   3.168   2.751  12.784  0.5871 -1.3823 -2.2597
  577TMC3    H1 8561   3.101   3.132  12.609 -0.4216  0.2125  1.6703
  577TMC3    H2 8562   3.386   2.871  12.439 -0.3692 -0.3380 -0.6770
  577TMC3    C7 8563   3.244   3.104  12.400  0.1519 -0.2004  0.3719
  577TMC3    C8 8564   3.330   2.663  12.607 -0.0557 -0.7712  0.7325
  577TMC3    O1 8565   3.238   3.226  12.425  0.0418  0.1321 -0.3280
  577TMC3    O2 8566   3.314   2.601  12.713 -0.2389  0.1355 -0.4683
  578MPD2     C 8567   1.372   3.865   1.290  0.5017 -0.1714  0.5089
  578MPD2    C1 8568   1.504   3.843   1.306 -0.9366 -0.0149  0.6828
  578MPD2    C2 8569   1.544   3.724   1.357  0.7748 -0.6377 -0.1273
  578MPD2    C3 8570   1.454   3.622   1.371 -0.7132  0.2724 -0.4456
  578MPD2    C4 8571   1.323   3.642   1.341  0.4621  0.1007 -0.4656
  578MPD2    C5 8572   1.282   3.763   1.291 -0.3292 -0.4852 -0.5920
  578MPD2     H 8573   1.646   3.709   1.393  1.4719  1.7792 -1.0963
  578MPD2    H1 8574   1.245   3.569   1.359 -0.5562  1.3779  0.3511
  578MPD2    H2 8575   1.339   3.965   1.262  1.5034 -0.2276 -0.8797
  578MPD2    H3 8576   1.175   3.777   1.282 -0.2388  0.2872 -0.4353
  578MPD2     N 8577   1.507   3.505   1.416  0.2562 -0.4167  0.2952
  578MPD2    H5 8578   1.604   3.503   1.445  0.7705 -0.1973 -1.3827
  578MPD2    N1 8579   1.597   3.950   1.321  0.4706  0.3341 -0.2379
  578MPD2    H7 8580   1.563   4.046   1.324  0.2488  0.2394  0.4133
  579TMC3    C1 8581   1.520   3.276   1.478 -0.4690  0.1790  0.1328
  579TMC3    C2 8582   1.599   3.284   1.588 -0.3750  0.3143 -0.3044
  579TMC3    C3 8583   1.656   3.167   1.639 -0.3998 -0.6235  0.4729
  579TMC3    C4 8584   1.479   3.153   1.434  1.3921  0.5493  0.4438
  579TMC3    C5 8585   1.535   3.043   1.489  0.0862  0.1249 -0.4023
  579TMC3    C6 8586   1.628   3.041   1.594 -0.3672  0.0403  1.1894
  579TMC3     C 8587   1.440   3.389   1.444 -0.0718 -0.1103  0.7511
  579TMC3     O 8588   1.329   3.356   1.412 -0.3229  0.0195 -0.3825
  579TMC3     H 8589   1.611   3.385   1.626  0.2927 -0.3033  1.1188
  579TMC3    H1 8590   1.412   3.142   1.350 -1.1253  1.9823  2.2277
  579TMC3    H2 8591   1.661   2.946   1.635  2.3511  0.5658  0.1994
  579TMC3    C7 8592   1.487   2.909   1.436  0.6983  0.4446 -0.2503
  579TMC3    C8 8593   1.767   3.182   1.734 -0.2059 -0.1968  0.6806
  579TMC3    O1 8594   1.543   2.812   1.482  0.3142  0.3220 -0.2555
  579TMC3    O2 8595   1.765   3.290   1.791  0.4530  0.3949  0.2900
  580TMC3    C1 8596   1.218   2.203  12.190  0.5178  0.0061  0.4015
  580TMC3    C2 8597   1.315   2.300  12.189  0.4472  0.1738 -0.6382
  580TMC3    C3 8598   1.392   2.321  12.301  0.8137 -0.5684 -0.7984
  580TMC3    C4 8599   1.198   2.117  12.301 -0.3944  0.3782  0.2210
  580TMC3    C5 8600   1.287   2.131  12.404 -0.3263 -0.9506 -0.0247
  580TMC3    C6 8601   1.379   2.236  12.410 -0.3103  0.6360 -0.4362
  580TMC3     C 8602   1.133   2.180  12.069  0.2562  0.2718 -0.4533
  580TMC3     O 8603   1.050   2.090  12.089 -0.0996  0.8324  0.3007
  580TMC3     H 8604   1.321   2.368  12.105 -0.4947 -1.8847 -2.3787
  580TMC3    H1 8605   1.109   2.057  12.312 -0.0101 -0.2357 -0.0071
  580TMC3    H2 8606   1.448   2.228  12.493  0.1281  2.5818 -0.5930
  580TMC3    C7 8607   1.323   2.001  12.464 -0.3586 -0.4926  1.3083
  580TMC3    C8 8608   1.514   2.398  12.292 -0.6570 -0.9782 -0.2308
  580TMC3    O1 8609   1.412   1.995  12.549 -0.1763 -0.5936  0.3047
  580TMC3    O2 8610   1.550   2.453  12.395 -0.1479 -0.5560  0.0747
  581MPD2     C 8611   3.352   1.635  14.843  1.0595  0.2983 -0.3425
  581MPD2    C1 8612   3.356   1.770  14.855  0.4776  0.4188  0.0621
  581MPD2    C2 8613   3.285   1.849  14.773  0.7372 -0.3503  0.5239
  581MPD2    C3 8614   3.206   1.795  14.667 -0.6352  0.1707 -0.0939
  581MPD2    C4 8615   3.198   1.661  14.659  0.1687 -0.0904  0.1123
  581MPD2    C5 8616   3.275   1.586  14.742 -0.1341 -0.3627 -0.3887
  581MPD2     H 8617   3.298   1.955  14.789 -1.1657 -0.2269  1.3014
  581MPD2    H1 8618   3.138   1.609  14.586  1.6147  2.9787 -3.2163
  581MPD2    H2 8619   3.401   1.555  14.896 -0.6320  0.2227  1.1324
  581MPD2    H3 8620   3.276   1.480  14.722 -4.5938 -0.7650  1.4644
  581MPD2     N 8621   3.144   1.880  14.570  0.1271  0.5195  0.3045
  581MPD2    H5 8622   3.098   1.839  14.489 -0.7581 -2.7849  2.5080
  581MPD2    N1 8623   3.434   1.831  14.954  0.0881 -0.0526  0.3944
  581MPD2    H7 8624   3.426   1.931  14.962  0.5156  0.2283 -2.7041
  582TMC3    C1 8625   3.554   1.847  15.155  0.1385 -0.3576  0.0799
  582TMC3    C2 8626   3.644   1.799  15.244 -0.1780 -0.3695 -0.2916
  582TMC3    C3 8627   3.674   1.870  15.359 -0.2537  0.6539 -0.2540
  582TMC3    C4 8628   3.484   1.957  15.185 -0.1858  0.3742 -0.1819
  582TMC3    C5 8629   3.529   2.038  15.286  0.0656 -0.1587 -0.5294
  582TMC3    C6 8630   3.624   1.996  15.383  0.0062  0.3481 -0.4448
  582TMC3     C 8631   3.509   1.759  15.053 -0.1661  0.0552  0.3344
  582TMC3     O 8632   3.564   1.651  15.044  0.6371  0.0113  0.2368
  582TMC3     H 8633   3.694   1.704  15.226  0.1742  0.1175 -1.9199
  582TMC3    H1 8634   3.400   1.991  15.126  0.2534  2.5188  0.4357
  582TMC3    H2 8635   3.666   2.050  15.467  2.3853 -1.3461 -0.5296
  582TMC3    C7 8636   3.456   2.157  15.313 -0.5594  0.0167  0.6302
  582TMC3    C8 8637   3.769   1.809  15.451 -0.1983  0.5337  0.2004
  582TMC3    O1 8638   3.442   2.186  15.429 -0.7430  0.6490 -0.2947
  582TMC3    O2 8639   3.845   1.733  15.393  0.2179 -0.6621  0.5068
  583MPD2     C 8640   4.118   3.092  16.647  0.1633 -0.1080  0.2477
  583MPD2    C1 8641   4.126   3.220  16.594 -0.5803 -0.5814  0.3811
  583MPD2    C2 8642   4.109   3.327  16.678  0.1912  0.1208  0.7011
  583MPD2    C3 8643   4.090   3.310  16.811  0.1917 -0.1351  0.0883
  583MPD2    C4 8644   4.091   3.177  16.863 -0.1514  0.0379 -0.0285
  583MPD2    C5 8645   4.103   3.071  16.778  0.1944 -0.7950  0.2996
  583MPD2     H 8646   4.112   3.426  16.634 -1.3058  0.7696  2.0324
  583MPD2    H1 8647   4.071   3.161  16.968  1.4707  0.6906  0.3805
  583MPD2    H2 8648   4.138   3.000  16.593 -3.5856 -1.2292  0.7814
  583MPD2    H3 8649   4.104   2.974  16.826  1.5613 -0.8832  0.0876
  583MPD2     N 8650   4.081   3.435  16.891 -0.0715 -0.4363  0.2045
  583MPD2    H5 8651   4.078   3.517  16.831 -0.3132 -1.8893 -1.8020
  583MPD2    N1 8652   4.163   3.249  16.465 -0.2341 -0.4044 -0.3313
  583MPD2    H7 8653   4.188   3.345  16.441  0.3105 -0.9556 -2.0244
  584TMC3    C1 8654   4.050   3.574  17.083  0.3317 -0.7511 -0.7388
  584TMC3    C2 8655   4.090   3.681  17.011 -0.4604  0.2841  0.0678
  584TMC3    C3 8656   4.100   3.797  17.080  0.2789  0.2892  0.7725
  584TMC3    C4 8657   3.999   3.575  17.210  0.6690 -0.5633 -0.3389
  584TMC3    C5 8658   3.996   3.700  17.266 -0.0320 -0.7878 -0.2575
  584TMC3    C6 8659   4.047   3.812  17.208  0.4670  0.3868  0.5308
  584TMC3     C 8660   4.065   3.441  17.023  0.9495  0.4863  0.6341
  584TMC3     O 8661   4.075   3.348  17.104  0.5360 -0.1682  0.2496
  584TMC3     H 8662   4.130   3.675  16.911  1.7515  0.3678  0.9490
  584TMC3    H1 8663   3.951   3.487  17.251 -0.3791 -0.8249 -2.1509
  584TMC3    H2 8664   4.052   3.909  17.256 -2.2207  0.8460 -0.1098
  584TMC3    C7 8665   3.931   3.707  17.390  0.1277  0.1691 -0.0245
  584TMC3    C8 8666   4.134   3.916  17.000  0.0995 -0.3216 -0.8762
  584TMC3    O1 8667   3.948   3.615  17.469  0.2750 -0.2168 -0.0972
  584TMC3    O2 8668   4.140   3.907  16.878 -0.0053  0.4039 -0.1773
  585MPD2     C 8669   2.988   2.664   0.890  0.1694  0.6611 -0.2960
  585MPD2    C1 8670   3.070   2.714   0.792  0.8923 -0.1505  0.1995
  585MPD2    C2 8671   3.036   2.704   0.658  0.3933 -0.2516 -0.0271
  585MPD2    C3 8672   2.916   2.636   0.625  0.0539 -0.9019 -0.8479
  585MPD2    C4 8673   2.843   2.574   0.724 -0.4926 -0.0854 -0.0978
  585MPD2    C5 8674   2.876   2.592   0.851  1.0791 -0.1439  0.0453
  585MPD2     H 8675   3.084   2.757   0.577  1.8048  0.5629  1.3281
  585MPD2    H1 8676   2.754   2.515   0.707 -3.6337  4.4301  0.6875
  585MPD2    H2 8677   3.011   2.664   0.996  0.1677  0.8764 -0.2962
  585MPD2    H3 8678   2.816   2.548   0.931  0.0397  1.5437  0.1799
  585MPD2     N 8679   2.871   2.628   0.493  0.2462  0.2947  0.5696
  585MPD2    H5 8680   2.774   2.609   0.471  1.3621 -1.7379 -2.6295
  585MPD2    N1 8681   3.175   2.803   0.832  0.1451  0.3698 -0.0028
  585MPD2    H7 8682   3.187   2.821   0.931  0.4129  2.4203 -0.4208
  586TMC3    C1 8683   2.872   2.650   0.257 -0.3917 -1.5997 -0.5197
  586TMC3    C2 8684   2.942   2.685   0.142 -1.2841  0.3017 -0.4631
  586TMC3    C3 8685   2.879   2.678   0.020 -0.9279  0.5112  0.2288
  586TMC3    C4 8686   2.745   2.606   0.253  0.1090  0.8017  0.4900
  586TMC3    C5 8687   2.691   2.586   0.126  0.4481 -0.3993 -0.2136
  586TMC3    C6 8688   2.753   2.629   0.012  0.3794 -0.1422 -0.7995
  586TMC3     C 8689   2.949   2.645   0.379  0.2896 -0.6888 -0.8306
  586TMC3     O 8690   3.067   2.668   0.368 -0.9545  0.5572 -0.2725
  586TMC3     H 8691   3.049   2.701   0.141 -0.7887 -3.0990 -1.1084
  586TMC3    H1 8692   2.692   2.560   0.336 -0.0458  1.5956  0.8323
  586TMC3    H2 8693   2.710   2.620  17.613 -0.4514  1.4101 -0.5810
  586TMC3    C7 8694   2.624   2.464   0.110  0.1280 -0.2470  1.1751
  586TMC3    C8 8695   2.957   2.601  17.626  0.2597  0.4462  0.2658
  586TMC3    O1 8696   2.526   2.435   0.180  0.4027 -0.0678  0.4985
  586TMC3    O2 8697   2.981   2.485  17.662 -0.3539 -0.4265  0.0496
  587TMC3    C1 8698   0.792   0.985  16.517  0.0093  0.3124 -0.6115
  587TMC3    C2 8699   0.779   1.122  16.511  0.0261 -0.5208 -0.2276
  587TMC3    C3 8700   0.869   1.186  16.424 -0.2738 -0.3237 -0.0293
  587TMC3    C4 8701   0.878   0.918  16.440 -0.2417  0.6385 -0.4566
  587TMC3    C5 8702   0.965   0.979  16.357  0.2063 -0.1336 -0.6939
  587TMC3    C6 8703   0.967   1.116  16.354 -0.0638  0.3073 -0.2911
  587TMC3     C 8704   0.719   0.910  16.622 -0.7731 -0.3549 -0.2116
  587TMC3     O 8705   0.783   0.811  16.654  0.4487  0.0528  0.1455
  587TMC3     H 8706   0.715   1.174  16.582  1.7658  1.5872 -0.2058
  587TMC3    H1 8707   0.881   0.810  16.445  0.2903  0.6834  0.3037
  587TMC3    H2 8708   1.028   1.164  16.279 -1.0408  2.9276  0.6234
  587TMC3    C7 8709   1.048   0.892  16.285 -0.0195 -0.5392  0.1073
  587TMC3    C8 8710   0.845   1.321  16.390 -0.2032 -0.2679  0.3452
  587TMC3    O1 8711   0.989   0.793  16.240  0.3590 -0.3049 -0.1777
  587TMC3    O2 8712   0.942   1.370  16.333 -0.8928  0.2383 -0.1962
  588TMC3    C1 8713   3.070   2.845   9.601 -0.4034 -0.2244  1.0172
  588TMC3    C2 8714   3.056   2.706   9.610  0.1504 -0.7602  0.0043
  588TMC3    C3 8715   3.153   2.628   9.662  0.1940  0.2006 -0.6900
  588TMC3    C4 8716   3.187   2.905   9.636  0.2534  0.5893 -0.1640
  588TMC3    C5 8717   3.288   2.820   9.678 -0.1077 -0.1215 -0.0794
  588TMC3    C6 8718   3.271   2.687   9.698 -0.2258 -0.3963 -0.2620
  588TMC3     C 8719   2.959   2.941   9.562  0.1570  0.3219  0.2787
  588TMC3     O 8720   2.904   2.931   9.455  0.4020  0.1858 -0.3806
  588TMC3     H 8721   2.953   2.674   9.597  0.8625 -3.8597  2.0393
  588TMC3    H1 8722   3.214   3.003   9.598 -0.7878  0.6483 -0.7551
  588TMC3    H2 8723   3.354   2.626   9.732  0.4221  0.6532  0.0611
  588TMC3    C7 8724   3.409   2.881   9.717 -0.2167  0.1064  0.5561
  588TMC3    C8 8725   3.108   2.499   9.713 -0.1358  1.0812 -0.0234
  588TMC3    O1 8726   3.518   2.835   9.697  0.0264 -0.3638  0.2570
  588TMC3    O2 8727   3.007   2.446   9.661 -0.4093 -0.0227  0.0572
  589TMC3    C1 8728   1.735   1.399   1.438 -0.5257 -0.1495 -0.0480
  589TMC3    C2 8729   1.836   1.436   1.523 -0.0373  0.2664  0.3336
  589TMC3    C3 8730   1.943   1.345   1.548 -0.1287  0.0704  0.7994
  589TMC3    C4 8731   1.760   1.282   1.368  0.0226  0.0858 -0.1980
  589TMC3    C5 8732   1.867   1.200   1.395  0.0930 -0.4207  0.5072
  589TMC3    C6 8733   1.960   1.225   1.488 -0.2508  0.0618 -0.1117
  589TMC3     C 8734   1.631   1.492   1.392  0.6193 -0.6463 -0.3825
  589TMC3     O 8735   1.582   1.450   1.291 -0.1573  0.0832  0.4785
  589TMC3     H 8736   1.838   1.537   1.564 -1.6091 -0.4600  2.2298
  589TMC3    H1 8737   1.704   1.251   1.281 -0.4148  2.5132 -0.7784
  589TMC3    H2 8738   2.041   1.158   1.516 -0.5431 -1.4576 -2.8892
  589TMC3    C7 8739   1.884   1.080   1.306  0.1602  0.4322  0.3634
  589TMC3    C8 8740   2.026   1.378   1.657 -0.5998  0.1847 -0.6402
  589TMC3    O1 8741   1.982   1.010   1.321 -0.2844 -0.2588  0.1398
  589TMC3    O2 8742   1.994   1.468   1.735  0.3992  0.3523 -0.1774
  590MPD2     C 8743   1.947   4.469  17.158  1.0901 -0.4509  0.1104
  590MPD2    C1 8744   1.878   4.507  17.042 -0.1724  0.2161 -0.2204
  590MPD2    C2 8745   1.945   4.595  16.954  0.1014 -0.1337 -0.3564
  590MPD2    C3 8746   2.078   4.625  16.971  0.2696 -0.3848  0.0861
  590MPD2    C4 8747   2.147   4.577  17.073  0.2030 -0.5037  0.2658
  590MPD2    C5 8748   2.073   4.511  17.169  0.2169  0.2787  0.6867
  590MPD2     H 8749   1.901   4.627  16.860 -1.9799  0.5673  0.8476
  590MPD2    H1 8750   2.246   4.608  17.103  2.8067 -5.2463 -3.2040
  590MPD2    H2 8751   1.903   4.407  17.236  0.1230  0.6143  0.4093
  590MPD2    H3 8752   2.127   4.480  17.258  0.7441  0.0421  0.2805
  590MPD2     N 8753   2.138   4.708  16.876  0.2906  0.8385 -0.3249
  590MPD2    H5 8754   2.092   4.716  16.786 -3.3844  3.2464  1.7426
  590MPD2    N1 8755   1.754   4.456  17.018  0.1119 -0.5797 -0.3372
  590MPD2    H7 8756   1.724   4.377  17.074  2.1282 -1.9225 -1.1548
  591TMC3    C1 8757   2.284   0.118  16.768  0.1561  0.1283  0.0495
  591TMC3    C2 8758   2.271   0.039  16.654 -0.7231  0.6248  0.0058
  591TMC3    C3 8759   2.238   0.098  16.536 -0.4436 -0.5023  0.0594
  591TMC3    C4 8760   2.265   0.250  16.760  0.4960 -0.4281  0.1459
  591TMC3    C5 8761   2.231   0.304  16.639 -0.3524  0.3682  0.2850
  591TMC3    C6 8762   2.226   0.229  16.518  0.1158  0.1260 -0.0400
  591TMC3     C 8763   2.246   0.063  16.895 -0.8597 -0.7531 -0.2629
  591TMC3     O 8764   2.298   0.100  17.000 -0.2263  1.1975 -0.0075
  591TMC3     H 8765   2.291   4.657  16.645  0.2605  0.9100 -1.0622
  591TMC3    H1 8766   2.246   0.306  16.851 -1.8589  1.7698 -1.6900
  591TMC3    H2 8767   2.167   0.269  16.437 -1.3335  0.3351  1.1267
  591TMC3    C7 8768   2.223   0.448  16.627  0.1629  0.2278  0.6590
  591TMC3    C8 8769   2.242   0.012  16.411  0.5275  0.1915  0.2602
  591TMC3    O1 8770   2.195   0.506  16.731 -0.5795 -0.4123 -0.3591
  591TMC3    O2 8771   2.231   4.614  16.425  0.7498 -0.2404  0.5448
  592MPD2     C 8772   2.336   1.605  11.408  0.5703  0.2291 -0.3534
  592MPD2    C1 8773   2.322   1.672  11.529 -0.4153 -0.3374 -0.8209
  592MPD2    C2 8774   2.209   1.651  11.613  0.2620  0.0693 -0.1748
  592MPD2    C3 8775   2.120   1.548  11.581 -0.7883  0.0088  0.1650
  592MPD2    C4 8776   2.137   1.481  11.459  0.3927 -0.9810 -0.2602
  592MPD2    C5 8777   2.242   1.510  11.377  0.3858  0.7997 -0.1280
  592MPD2     H 8778   2.201   1.700  11.709 -0.3726  1.6851 -1.0477
  592MPD2    H1 8779   2.079   1.394  11.431 -2.1873 -0.2635  2.8480
  592MPD2    H2 8780   2.432   1.596  11.359  1.0210  1.0939  0.3764
  592MPD2    H3 8781   2.259   1.448  11.290 -2.3038 -0.2692  0.0862
  592MPD2     N 8782   2.021   1.500  11.669  0.2162 -0.4484  0.1716
  592MPD2    H5 8783   2.031   1.538  11.763 -2.0744 -2.3236  1.1751
  592MPD2    N1 8784   2.426   1.769  11.555  0.0998 -0.1835  0.1070
  592MPD2    H7 8785   2.499   1.769  11.484 -1.4764 -0.2401 -1.5168
  593TMC3    C1 8786   2.562   1.918  11.686  0.2765  0.0316 -0.4004
  593TMC3    C2 8787   2.599   1.969  11.806  0.1979 -0.1989  0.1184
  593TMC3    C3 8788   2.714   2.039  11.824 -0.2162  0.0712 -0.2164
  593TMC3    C4 8789   2.655   1.910  11.584  0.3636  0.6195  0.9166
  593TMC3    C5 8790   2.774   1.971  11.614  0.2071 -0.4028 -0.1728
  593TMC3    C6 8791   2.812   2.033  11.731 -0.2015  0.7317 -0.5571
  593TMC3     C 8792   2.437   1.841  11.671 -0.1496 -0.2493  0.1992
  593TMC3     O 8793   2.381   1.823  11.779  0.1373  0.3180  0.0668
  593TMC3     H 8794   2.515   1.979  11.874  1.3119  1.9432  1.1561
  593TMC3    H1 8795   2.639   1.877  11.482  2.2267  1.8850  0.2139
  593TMC3    H2 8796   2.909   2.077  11.747  0.7610 -1.4126 -0.4452
  593TMC3    C7 8797   2.874   1.980  11.508  0.7734  0.0804  0.2567
  593TMC3    C8 8798   2.725   2.100  11.951  0.7196  0.1293  0.3932
  593TMC3    O1 8799   2.968   2.058  11.524 -0.0087 -0.3504  0.7084
  593TMC3    O2 8800   2.618   2.141  11.995 -0.4754  0.0155 -0.1081
  594MPD2     C 8801   0.813   0.629  14.037 -0.8338  0.2409  1.0157
  594MPD2    C1 8802   0.762   0.635  14.160 -0.7877  0.0471 -0.5421
  594MPD2    C2 8803   0.799   0.735  14.245 -0.2962 -0.0107 -0.0621
  594MPD2    C3 8804   0.899   0.825  14.204  0.5517 -0.1697 -0.1300
  594MPD2    C4 8805   0.972   0.805  14.089 -0.0094  0.1971 -0.5881
  594MPD2    C5 8806   0.914   0.716  14.002  0.0893  0.3126 -0.3883
  594MPD2     H 8807   0.752   0.759  14.339  0.6577 -1.0271  0.6685
  594MPD2    H1 8808   1.051   0.870  14.053 -0.8663  2.3233  1.3594
  594MPD2    H2 8809   0.790   0.547  13.969  1.5117  0.0700  0.3998
  594MPD2    H3 8810   0.961   0.710  13.904  0.5832  2.6412 -0.2974
  594MPD2     N 8811   0.923   0.936  14.291 -0.5527 -0.1833 -0.3012
  594MPD2    H5 8812   0.869   0.956  14.375 -1.2179 -0.6437 -0.6226
  594MPD2    N1 8813   0.669   0.542  14.187  0.8032 -0.1750  0.0316
  594MPD2    H7 8814   0.617   0.507  14.108  1.3017  1.5266 -1.0348
  595TMC3    C1 8815   1.116   1.336  14.449  0.3761  0.8180  0.2415
  595TMC3    C2 8816   1.108   1.240  14.349 -0.5580  0.5804  0.1799
  595TMC3    C3 8817   1.007   1.148  14.365 -0.5481  0.0130 -0.4536
  595TMC3    C4 8818   1.032   1.335  14.559  1.3908  0.3738  0.6000
  595TMC3    C5 8819   0.932   1.239  14.560  0.0989 -0.3999 -0.0279
  595TMC3    C6 8820   0.913   1.143  14.468 -0.2881 -0.3021 -0.4766
  595TMC3     C 8821   1.245   1.391  14.487  0.2460  0.1226  0.2145
  595TMC3     O 8822   1.259   1.405  14.607 -0.0618  0.0685  0.0444
  595TMC3     H 8823   1.176   1.243  14.265  0.0714 -2.1059  0.5934
  595TMC3    H1 8824   1.045   1.402  14.643 -1.8974 -2.1978  3.1402
  595TMC3    H2 8825   0.828   1.077  14.479 -0.5598  0.0888 -0.2551
  595TMC3    C7 8826   0.843   1.237  14.672  0.2615  0.1553 -0.3656
  595TMC3    C8 8827   1.016   1.039  14.271 -0.1454  0.8921 -0.3908
  595TMC3    O1 8828   0.727   1.194  14.653 -0.3977 -0.0580 -0.2989
  595TMC3    O2 8829   1.106   1.046  14.192  0.3206  0.3638 -0.3785
  596MPD2     C 8830   0.250   3.245  16.685 -0.3293  0.3344 -0.5319
  596MPD2    C1 8831   0.286   3.372  16.657 -0.2148  0.1553 -0.7056
  596MPD2    C2 8832   0.324   3.408  16.526 -0.0747  0.6303 -0.5602
  596MPD2    C3 8833   0.316   3.318  16.425  0.0610 -0.5468 -0.4985
  596MPD2    C4 8834   0.277   3.186  16.459 -0.2685  0.2085  0.6784
  596MPD2    C5 8835   0.256   3.151  16.587 -0.2943 -0.1388  0.8013
  596MPD2     H 8836   0.363   3.509  16.522  2.1639 -0.2342 -0.4863
  596MPD2    H1 8837   0.273   3.112  16.380 -2.8232  0.1276  0.8881
  596MPD2    H2 8838   0.218   3.215  16.785  2.8570  0.3763  0.5061
  596MPD2    H3 8839   0.223   3.050  16.609 -0.7746 -0.3310 -0.7790
  596MPD2     N 8840   0.328   3.348  16.287  0.4428 -0.8075 -0.1044
  596MPD2    H5 8841   0.300   3.279  16.219 -0.2755 -1.6131  1.0084
  596MPD2    N1 8842   0.265   3.472  16.757 -0.3186 -0.4976 -0.2059
  596MPD2    H7 8843   0.273   3.569  16.726  2.0859  0.3528  3.0053
  597TMC3    C1 8844   0.224   3.599  16.949 -0.3923  0.3667  0.1111
  597TMC3    C2 8845   0.279   3.703  16.876  0.7251 -0.1847 -0.1515
  597TMC3    C3 8846   0.242   3.829  16.910 -0.0292  0.2302  0.2133
  597TMC3    C4 8847   0.156   3.616  17.060 -0.3865 -0.7476  0.3341
  597TMC3    C5 8848   0.138   3.746  17.105  0.1189  0.1693 -0.1999
  597TMC3    C6 8849   0.174   3.852  17.027 -0.4551 -0.0377 -0.2135
  597TMC3     C 8850   0.231   3.467  16.890 -0.1580  0.1370  0.5110
  597TMC3     O 8851   0.177   3.385  16.963 -0.4521 -0.1308  0.0983
  597TMC3     H 8852   0.322   3.700  16.777  0.1993 -0.4269 -0.3718
  597TMC3    H1 8853   0.110   3.537  17.119 -1.1825 -0.1989  0.4569
  597TMC3    H2 8854   0.132   3.947  17.059  0.8821  0.2194  0.7348
  597TMC3    C7 8855   0.095   3.767  17.238  0.1893 -0.5820  0.5674
  597TMC3    C8 8856   0.265   3.938  16.812  0.2198 -0.2170  0.8986
  597TMC3    O1 8857   0.055   3.668  17.295 -0.3886  0.0079 -0.3848
  597TMC3    O2 8858   0.307   3.905  16.699 -0.6662  0.9138  0.0473
  598TMC3    C1 8859   2.498   0.179  15.277 -0.4124 -0.4299  0.2156
  598TMC3    C2 8860   2.388   0.126  15.206 -0.3279  0.4411 -0.8392
  598TMC3    C3 8861   2.361   0.180  15.081  0.7155  0.0922  0.1963
  598TMC3    C4 8862   2.588   0.270  15.223 -0.1299  0.4087  0.1189
  598TMC3    C5 8863   2.546   0.321  15.104  0.0360  0.1608  0.3744
  598TMC3    C6 8864   2.434   0.281  15.030 -0.0943  0.1055  0.0666
  598TMC3     C 8865   2.548   0.094  15.380  0.3166  0.3971 -0.4000
  598TMC3     O 8866   2.478   0.025  15.452 -0.1119 -0.3978  0.6183
  598TMC3     H 8867   2.321   0.066  15.267 -1.2031  2.2323 -0.0492
  598TMC3    H1 8868   2.659   0.319  15.288 -0.7330 -0.5900  1.5392
  598TMC3    H2 8869   2.402   0.318  14.933 -1.5472 -1.3244  0.0098
  598TMC3    C7 8870   2.622   0.432  15.043 -0.2124  0.5155 -0.2184
  598TMC3    C8 8871   2.244   0.147  15.005  0.1061 -0.1010 -0.0883
  598TMC3    O1 8872   2.609   0.451  14.926  0.4437 -0.3100 -0.5071
  598TMC3    O2 8873   2.182   0.242  14.959 -0.2196  0.1224  0.8737
  599MPD2     C 8874   2.857   2.423  16.251  0.3260 -0.1919 -0.4347
  599MPD2    C1 8875   2.817   2.288  16.265  0.2022  0.3345  0.1647
  599MPD2    C2 8876   2.693   2.256  16.325 -0.1416  0.1000 -0.2248
  599MPD2    C3 8877   2.629   2.361  16.386 -0.0752 -1.4150  0.2391
  599MPD2    C4 8878   2.673   2.495  16.380 -0.0848  0.3966  0.5887
  599MPD2    C5 8879   2.781   2.527  16.304  0.8786 -0.4242 -0.6445
  599MPD2     H 8880   2.650   2.157  16.329 -1.9907  0.8830 -0.4085
  599MPD2    H1 8881   2.614   2.575  16.424 -0.6826  0.0596  0.4058
  599MPD2    H2 8882   2.947   2.450  16.197  1.2944 -1.3671  0.6090
  599MPD2    H3 8883   2.813   2.629  16.288  2.7086 -0.9921 -0.6214
  599MPD2     N 8884   2.503   2.342  16.452 -0.7913 -0.2156 -0.5138
  599MPD2    H5 8885   2.463   2.415  16.510 -1.0937  0.4606 -1.5694
  599MPD2    N1 8886   2.901   2.187  16.206 -0.6745  0.0684 -0.7857
  599MPD2    H7 8887   2.988   2.224  16.170  0.6319  0.5115  2.8707
  600TMC3    C1 8888   2.328   2.231  16.548 -0.6007  0.3313 -0.3483
  600TMC3    C2 8889   2.209   2.176  16.509  0.2857 -0.0228 -0.1516
  600TMC3    C3 8890   2.102   2.204  16.585 -0.2250 -0.1449  0.0313
  600TMC3    C4 8891   2.339   2.320  16.650  0.1328 -0.7674  0.0264
  600TMC3    C5 8892   2.222   2.353  16.722 -0.0476  0.6404 -0.7386
  600TMC3    C6 8893   2.098   2.291  16.694 -0.2901 -0.0305  0.4201
  600TMC3     C 8894   2.425   2.222  16.448  0.4810 -0.3072  0.4993
  600TMC3     O 8895   2.435   2.123  16.377  0.1350 -0.0993  0.2580
  600TMC3     H 8896   2.200   2.117  16.418  2.0364 -0.1013 -0.2731
  600TMC3    H1 8897   2.430   2.374  16.673 -0.7703  1.2778 -1.2448
  600TMC3    H2 8898   2.009   2.319  16.750 -0.1959 -1.4120  1.2576
  600TMC3    C7 8899   2.214   2.446  16.829 -0.3565  0.6231 -0.1862
  600TMC3    C8 8900   1.986   2.122  16.566  0.1410  0.2363  0.1594
  600TMC3    O1 8901   2.107   2.472  16.889  0.2483  0.2024  0.2657
  600TMC3    O2 8902   1.925   2.080  16.665  0.3786  0.6008  0.0282
  601MPD2     C 8903   4.104   4.537   0.154 -0.3953  0.5912  0.0186
  601MPD2    C1 8904   4.190   4.607   0.227  0.0277 -0.2869  0.6044
  601MPD2    C2 8905   4.306   4.554   0.258 -0.0322  0.1313  0.4444
  601MPD2    C3 8906   4.348   4.428   0.213 -0.4317  0.2677  0.2131
  601MPD2    C4 8907   4.259   4.361   0.139 -0.0834  0.2114 -0.5337
  601MPD2    C5 8908   4.136   4.410   0.109 -0.2585  0.8505 -0.2212
  601MPD2     H 8909   4.364   4.615   0.326  1.6121 -2.9153  1.7747
  601MPD2    H1 8910   4.289   4.260   0.111  1.9935  0.2067  1.7518
  601MPD2    H2 8911   4.005   4.574   0.128 -0.1223  1.6868  0.5765
  601MPD2    H3 8912   4.065   4.347   0.056 -0.0531  0.8217 -0.4628
  601MPD2     N 8913   4.472   4.361   0.245 -0.2651 -0.0813  0.3600
  601MPD2    H5 8914   4.484   4.268   0.207  0.1881 -1.0350  2.8392
  601MPD2    N1 8915   4.164   0.021   0.267  0.8157  0.2969  0.5889
  601MPD2    H7 8916   4.233   0.061   0.330  0.3477  0.3719  1.0489
  602TMC3    C1 8917   4.086   0.241   0.229  0.0176 -0.3811  0.5028
  602TMC3    C2 8918   3.976   0.330   0.216  0.5857  0.3793 -0.2665
  602TMC3    C3 8919   4.006   0.458   0.194  0.9666 -0.4009 -0.1306
  602TMC3    C4 8920   4.212   0.285   0.225 -0.1962 -0.9261  0.6985
  602TMC3    C5 8921   4.238   0.419   0.214  0.2177 -1.0206  0.8598
  602TMC3    C6 8922   4.135   0.511   0.192  0.4140 -0.2695  0.0978
  602TMC3     C 8923   4.065   0.099   0.209  0.1701  0.1661  0.2058
  602TMC3     O 8924   3.962   0.070   0.148  0.5285  0.2178 -0.2142
  602TMC3     H 8925   3.874   0.294   0.211  0.1608  1.4191  0.8040
  602TMC3    H1 8926   4.296   0.217   0.234  1.0273  0.5668  0.6007
  602TMC3    H2 8927   4.142   0.619   0.200 -0.1688  0.0250 -3.3362
  602TMC3    C7 8928   4.373   0.452   0.169 -0.4044  0.0394 -0.0847
  602TMC3    C8 8929   3.900   0.550   0.150 -0.3094 -0.5110  0.8542
  602TMC3    O1 8930   4.469   0.376   0.177  0.0383  0.4167  0.4385
  602TMC3    O2 8931   3.789   0.535   0.203 -0.2282  0.0348 -0.4720
  603TMC3    C1 8932   3.583   0.438  11.178  0.5656 -0.2130  0.0280
  603TMC3    C2 8933   3.585   0.386  11.299 -0.1389  0.2384  0.0640
  603TMC3    C3 8934   3.565   0.470  11.402 -0.6808  0.5622 -0.2247
  603TMC3    C4 8935   3.578   0.569  11.149  0.1365  0.7386 -0.1270
  603TMC3    C5 8936   3.550   0.645  11.258 -0.1197 -0.2308  0.0067
  603TMC3    C6 8937   3.554   0.610  11.385 -0.5369 -0.4140 -0.4415
  603TMC3     C 8938   3.584   0.333  11.075 -0.2396  0.5397  0.4608
  603TMC3     O 8939   3.635   0.225  11.093 -0.0675 -0.6007 -0.0152
  603TMC3     H 8940   3.578   0.278  11.310  0.8333  0.4260  2.4290
  603TMC3    H1 8941   3.570   0.598  11.045  1.9105  3.3891  0.4724
  603TMC3    H2 8942   3.510   0.677  11.458 -0.2375  1.6689 -2.2048
  603TMC3    C7 8943   3.562   0.786  11.233 -0.6572  0.6593 -0.5798
  603TMC3    C8 8944   3.513   0.408  11.520  0.0282 -0.5719 -0.3592
  603TMC3    O1 8945   3.574   0.849  11.329  0.5254 -0.1901 -0.1558
  603TMC3    O2 8946   3.433   0.315  11.500 -0.2499  0.1669  0.1772
  604MPD2     C 8947   3.986   4.298  16.208  0.3002 -0.2833 -0.7988
  604MPD2    C1 8948   3.998   4.433  16.192 -0.5405 -0.3335 -1.1260
  604MPD2    C2 8949   4.087   4.479  16.096 -0.1353 -0.5735  0.0528
  604MPD2    C3 8950   4.141   4.396  16.004  0.1387  0.3212  0.5058
  604MPD2    C4 8951   4.108   4.264  16.014 -0.1271 -1.0906 -0.1317
  604MPD2    C5 8952   4.032   4.215  16.119 -0.5127 -0.0060 -0.2649
  604MPD2     H 8953   4.110   4.584  16.085  0.2111 -0.7722 -1.0663
  604MPD2    H1 8954   4.144   4.196  15.937 -0.3945 -0.2201 -1.0234
  604MPD2    H2 8955   3.923   4.260  16.288 -2.9351  2.0730 -2.1894
  604MPD2    H3 8956   4.014   4.109  16.133  1.3998 -0.2587  0.2470
  604MPD2     N 8957   4.228   4.450  15.907  0.3861 -0.1406 -0.2892
  604MPD2    H5 8958   4.247   4.549  15.915  1.0277 -0.2736 -0.1369
  604MPD2    N1 8959   3.934   4.518  16.288 -0.1652 -0.1945  0.5773
  604MPD2    H7 8960   3.887   4.471  16.365 -1.0721 -0.6920 -0.2745
  605TMC3    C1 8961   3.877   4.714  16.404  0.0263  0.2046  0.0585
  605TMC3    C2 8962   3.922   4.659  16.522  0.4398 -0.0151 -0.4383
  605TMC3    C3 8963   3.882   4.722  16.638 -0.3339 -0.0895  0.2377
  605TMC3    C4 8964   3.775   0.072  16.403 -0.1682 -0.5530  0.3354
  605TMC3    C5 8965   3.714   0.107  16.521  0.1033 -0.1462  0.8436
  605TMC3    C6 8966   3.772   0.080  16.644 -0.1139  0.5696 -0.2507
  605TMC3     C 8967   3.918   4.653  16.284 -0.7457 -0.1709 -0.6158
  605TMC3     O 8968   3.918   0.002  16.186 -0.5531  0.0238  0.2323
  605TMC3     H 8969   4.005   4.590  16.508 -0.5538 -0.9947 -1.4360
  605TMC3    H1 8970   3.739   0.115  16.311  0.4524 -0.4674  0.1331
  605TMC3    H2 8971   3.742   0.116  16.741  1.9282  2.1610 -0.2021
  605TMC3    C7 8972   3.583   0.172  16.511 -0.3179 -0.0587 -0.3216
  605TMC3    C8 8973   3.981   0.018  16.732 -0.6653  0.0408 -0.5084
  605TMC3    O1 8974   3.572   0.239  16.410  0.0812 -0.1251  0.6208
  605TMC3    O2 8975   4.095   4.723  16.692 -0.3992  0.4409 -0.4164
  606TMC3    C1 8976   0.473   2.941  16.739  1.0052 -0.1641  0.4811
  606TMC3    C2 8977   0.490   3.000  16.859 -0.3359 -0.3038 -0.3026
  606TMC3    C3 8978   0.425   2.947  16.968 -0.1506  0.4300  0.1296
  606TMC3    C4 8979   0.390   2.828  16.722 -0.5576 -0.0967 -0.4108
  606TMC3    C5 8980   0.328   2.778  16.830  0.7449  1.0490  0.2126
  606TMC3    C6 8981   0.346   2.841  16.952  0.0195 -0.4384 -0.2832
  606TMC3     C 8982   0.548   2.992  16.626  0.3517 -0.1482  1.0025
  606TMC3     O 8983   0.616   3.093  16.648  0.2174 -0.0263  0.2023
  606TMC3     H 8984   0.569   3.073  16.877 -1.3730  1.2499 -2.0005
  606TMC3    H1 8985   0.371   2.781  16.626  2.0565  1.4636 -1.6809
  606TMC3    H2 8986   0.304   2.802  17.043  0.1033  1.6480  0.6526
  606TMC3    C7 8987   0.240   2.665  16.817 -0.7220  0.0196 -0.5164
  606TMC3    C8 8988   0.473   2.969  17.108  0.2251 -0.3269  0.0995
  606TMC3    O1 8989   0.245   2.601  16.714 -0.0956  0.5011 -0.2088
  606TMC3    O2 8990   0.444   2.887  17.197  0.4760  0.0099 -0.6219
  607MPD2     C 8991   1.960   1.000  11.635 -0.4115 -0.4048  0.4005
  607MPD2    C1 8992   2.077   0.964  11.708 -0.0365  0.0757  0.0423
  607MPD2    C2 8993   2.069   0.853  11.791 -0.2954  0.6558 -0.8059
  607MPD2    C3 8994   1.953   0.777  11.800  0.3745 -0.6139  0.0353
  607MPD2    C4 8995   1.846   0.805  11.714  0.1320 -0.1447 -0.2221
  607MPD2    C5 8996   1.852   0.912  11.632  0.2727  0.2194 -0.2320
  607MPD2     H 8997   2.157   0.813  11.841  0.1483 -0.2094 -2.2787
  607MPD2    H1 8998   1.753   0.750  11.707  0.2180 -0.5033  1.6434
  607MPD2    H2 8999   1.959   1.080  11.562 -0.0700 -1.5541 -0.8648
  607MPD2    H3 9000   1.779   0.935  11.555 -0.2058 -1.6868 -0.3529
  607MPD2     N 9001   1.944   0.669  11.892 -0.4595  0.5706 -0.1108
  607MPD2    H5 9002   2.030   0.657  11.944 -0.5942  1.6294  0.3573
  607MPD2    N1 9003   2.189   1.046  11.727  0.7806  0.4501 -0.1533
  607MPD2    H7 9004   2.257   1.028  11.801 -1.4265 -1.0291  1.4996
  608TMC3    C1 9005   2.257   1.265  11.741  0.3977 -0.0102 -0.2924
  608TMC3    C2 9006   2.225   1.266  11.871 -0.0790 -0.2771  0.2252
  608TMC3    C3 9007   2.301   1.344  11.958  0.3635 -0.0416 -0.0533
  608TMC3    C4 9008   2.354   1.350  11.689 -0.0010 -0.0648 -0.5157
  608TMC3    C5 9009   2.425   1.422  11.783 -0.0324 -0.3126 -0.4524
  608TMC3    C6 9010   2.410   1.415  11.918 -0.2920  0.1775 -0.0327
  608TMC3     C 9011   2.206   1.159  11.655  0.2876 -0.4992  0.5114
  608TMC3     O 9012   2.183   1.184  11.537  0.0008  0.0561 -0.0373
  608TMC3     H 9013   2.140   1.206  11.903 -0.4126  0.7135  1.2141
  608TMC3    H1 9014   2.371   1.360  11.582  2.3804 -1.1683 -0.2389
  608TMC3    H2 9015   2.479   1.454  11.991 -0.3815 -0.8508  0.6110
  608TMC3    C7 9016   2.545   1.489  11.737  0.8280 -0.5218  0.3571
  608TMC3    C8 9017   2.269   1.330  12.099  0.1485  0.1311 -0.4113
  608TMC3    O1 9018   2.592   1.448  11.629  0.3197  0.3669 -0.1435
  608TMC3    O2 9019   2.265   1.431  12.173  0.2911  0.1953 -0.0351
  609TMC3    C1 9020   1.410   4.688   9.870  0.8529  0.3112 -0.1367
  609TMC3    C2 9021   1.530   0.025   9.845 -0.4768 -0.6189  0.2604
  609TMC3    C3 9022   1.642   4.678   9.859 -0.7911 -0.3221 -0.2613
  609TMC3    C4 9023   1.407   4.558   9.915 -0.2495  0.3552 -0.1161
  609TMC3    C5 9024   1.522   4.490   9.933  0.4305  0.3102 -0.3208
  609TMC3    C6 9025   1.642   4.551   9.897  0.4775  0.4338  0.1396
  609TMC3     C 9026   1.286   0.035   9.870  0.3312  0.5979 -0.1393
  609TMC3     O 9027   1.184   4.693   9.852  0.0017 -0.6659 -0.2350
  609TMC3     H 9028   1.534   0.132   9.825 -1.9569 -0.5984  0.0800
  609TMC3    H1 9029   1.315   4.509   9.942 -0.4449  0.2278 -1.0116
  609TMC3    H2 9030   1.733   4.495   9.919  1.3692  2.1714  0.8584
  609TMC3    C7 9031   1.510   4.349   9.959 -0.1186  0.0892 -0.3237
  609TMC3    C8 9032   1.774   0.011   9.823 -0.1403  0.5541  0.1564
  609TMC3    O1 9033   1.601   4.305  10.028 -0.3971  0.7696 -0.4989
  609TMC3    O2 9034   1.769   0.127   9.781 -0.2430  0.4180  0.1313
  610TMC3    C1 9035   2.316   0.983  12.780  0.5816 -0.2153 -0.4763
  610TMC3    C2 9036   2.374   0.999  12.659  0.5546 -0.1685 -0.6805
  610TMC3    C3 9037   2.504   0.955  12.645  0.3981  0.2626  0.5116
  610TMC3    C4 9038   2.381   0.919  12.882 -0.4496 -0.2408 -0.0821
  610TMC3    C5 9039   2.509   0.875  12.863  0.2936  0.7948  0.1600
  610TMC3    C6 9040   2.571   0.900  12.744 -0.4329 -0.0238 -0.2034
  610TMC3     C 9041   2.232   1.095  12.810 -0.0621 -0.0977 -0.7833
  610TMC3     O 9042   2.256   1.200  12.747 -0.2057 -0.0654  0.1309
  610TMC3     H 9043   2.320   1.046  12.577  1.2352 -0.2962 -1.2019
  610TMC3    H1 9044   2.332   0.904  12.978  1.3319 -0.3852  0.8083
  610TMC3    H2 9045   2.663   0.847  12.722 -0.3415  0.5133 -1.1234
  610TMC3    C7 9046   2.569   0.798  12.971  0.4797  0.9223 -1.5248
  610TMC3    C8 9047   2.558   0.969  12.514  0.9211  0.5997  0.6987
  610TMC3    O1 9048   2.671   0.735  12.939  0.5828 -0.0578  0.0102
  610TMC3    O2 9049   2.483   0.994  12.421 -0.5042  0.2017  0.2491
  611MPD2     C 9050   2.470   1.140  10.351 -0.2702  0.1323 -0.4446
  611MPD2    C1 9051   2.530   1.033  10.414 -0.6715 -0.9596  0.1115
  611MPD2    C2 9052   2.668   1.022  10.411 -0.3644 -0.0582 -0.2412
  611MPD2    C3 9053   2.744   1.113  10.349 -0.2509 -0.0637 -0.2949
  611MPD2    C4 9054   2.680   1.211  10.278 -0.6501 -0.1125  0.6928
  611MPD2    C5 9055   2.548   1.233  10.283  0.2806 -0.6234 -0.3560
  611MPD2     H 9056   2.718   0.944  10.466 -4.9162 -2.3725  0.6108
  611MPD2    H1 9057   2.740   1.288  10.232 -2.2947  0.2861 -0.7889
  611MPD2    H2 9058   2.364   1.162  10.354 -0.1901  0.4815 -0.1966
  611MPD2    H3 9059   2.504   1.326  10.250  0.4345 -0.4385 -0.0425
  611MPD2     N 9060   2.886   1.103  10.342  0.6517 -0.1570 -0.2304
  611MPD2    H5 9061   2.927   1.171  10.278 -1.4011  0.4524 -0.8918
  611MPD2    N1 9062   2.438   0.952  10.483 -0.2188 -0.3456  0.2485
  611MPD2    H7 9063   2.342   0.982  10.483  0.0976  0.6587 -0.0264
  612TMC3    C1 9064   3.104   1.063  10.412 -0.3783  0.1896 -0.4468
  612TMC3    C2 9065   3.179   1.071  10.522  0.0328 -0.0901 -0.1196
  612TMC3    C3 9066   3.274   1.166  10.541  1.4305 -0.1096  0.2191
  612TMC3    C4 9067   3.130   1.147  10.307  0.2944  0.0574 -1.0738
  612TMC3    C5 9068   3.236   1.233  10.324  0.5607 -0.6754  0.3547
  612TMC3    C6 9069   3.299   1.259  10.448  0.7364 -0.7356 -0.6100
  612TMC3     C 9070   2.964   1.029  10.431  0.8757 -1.3324 -0.0848
  612TMC3     O 9071   2.935   0.959  10.530 -0.2127 -0.2715 -0.1880
  612TMC3     H 9072   3.152   1.013  10.610 -0.3361  2.2040  1.2739
  612TMC3    H1 9073   3.069   1.155  10.217 -1.2346 -0.4149 -0.0862
  612TMC3    H2 9074   3.392   1.312  10.464 -0.0837  0.6054 -0.3391
  612TMC3    C7 9075   3.264   1.314  10.211 -0.0512  0.5469 -0.3834
  612TMC3    C8 9076   3.342   1.186  10.662  0.2782 -0.2678 -0.4925
  612TMC3    O1 9077   3.210   1.298  10.101 -0.2569  0.8614  0.9378
  612TMC3    O2 9078   3.369   1.301  10.693  0.2269  0.1960  0.3620
  613MPD2     C 9079   1.742   3.353  16.735  0.3546 -0.3162  0.1360
  613MPD2    C1 9080   1.685   3.390  16.615 -0.2646 -0.6765  0.0658
  613MPD2    C2 9081   1.606   3.298  16.539 -0.1035 -0.5503  0.5979
  613MPD2    C3 9082   1.588   3.173  16.595 -0.1590 -0.0364  0.6162
  613MPD2    C4 9083   1.644   3.134  16.714  1.0364 -0.3878  0.4918
  613MPD2    C5 9084   1.722   3.226  16.778 -0.1666  0.1452 -0.1660
  613MPD2     H 9085   1.591   3.313  16.433  0.3569 -0.1737  0.5833
  613MPD2    H1 9086   1.624   3.040  16.765 -0.2116 -0.5433 -0.2969
  613MPD2    H2 9087   1.800   3.417  16.801  1.6379 -1.9994  0.6309
  613MPD2    H3 9088   1.771   3.200  16.871  2.1352  2.6091 -0.6825
  613MPD2     N 9089   1.522   3.077  16.520  0.0757 -0.0777  0.4557
  613MPD2    H5 9090   1.546   2.983  16.551 -0.5084 -0.6502 -0.8230
  613MPD2    N1 9091   1.724   3.510  16.558 -0.5137  0.5408 -0.5996
  613MPD2    H7 9092   1.801   3.568  16.590  1.1665 -1.6392 -0.6562
  614TMC3    C1 9093   1.739   3.666  16.383 -0.3817 -0.3333  1.4462
  614TMC3    C2 9094   1.838   3.596  16.326  0.0744 -0.5533 -0.5363
  614TMC3    C3 9095   1.847   3.599  16.189  0.1251 -0.5037 -0.0093
  614TMC3    C4 9096   1.656   3.744  16.309 -0.2689 -0.6515 -0.0144
  614TMC3    C5 9097   1.666   3.743  16.174  0.1161  0.6468  0.1483
  614TMC3    C6 9098   1.764   3.670  16.111 -0.2306  0.0816  0.2598
  614TMC3     C 9099   1.650   3.578  16.465 -0.1882 -0.7072 -0.3510
  614TMC3     O 9100   1.536   3.560  16.424 -0.4656 -0.4187 -0.4577
  614TMC3     H 9101   1.902   3.527  16.378  0.7299  0.3136 -0.1882
  614TMC3    H1 9102   1.576   3.796  16.361 -0.0136  0.3033 -0.5854
  614TMC3    H2 9103   1.771   3.666  16.003 -1.5769 -2.4782  0.2450
  614TMC3    C7 9104   1.566   3.818  16.106  0.3960  0.1469  0.6024
  614TMC3    C8 9105   1.861   3.459  16.148 -0.1454  0.3119 -0.4216
  614TMC3    O1 9106   1.536   3.918  16.162 -1.2557 -0.6012  0.5375
  614TMC3    O2 9107   1.856   3.369  16.229  0.5315 -0.0707  0.1876
  615MPD2     C 9108   0.896   4.396  16.523 -0.6179  0.6798  0.3900
  615MPD2    C1 9109   0.814   4.503  16.539  0.3924  0.0952  0.3182
  615MPD2    C2 9110   0.733   4.540  16.440  0.7374 -0.8482  0.4320
  615MPD2    C3 9111   0.732   4.465  16.323  0.3074  0.1487  0.3556
  615MPD2    C4 9112   0.822   4.367  16.294 -0.0426  0.1361  0.0886
  615MPD2    C5 9113   0.902   4.327  16.403 -0.4211 -0.3563 -0.0626
  615MPD2     H 9114   0.678   4.633  16.444 -1.5726 -2.1795 -1.0856
  615MPD2    H1 9115   0.838   4.325  16.196  1.1633 -1.5222  0.9855
  615MPD2    H2 9116   0.972   4.371  16.597 -1.4962  0.7555  1.3122
  615MPD2    H3 9117   0.973   4.250  16.376  0.0255  0.1512 -0.3331
  615MPD2     N 9118   0.646   4.499  16.219  0.4009 -0.0801 -0.7693
  615MPD2    H5 9119   0.661   4.463  16.126 -2.1077 -2.0593 -0.4092
  615MPD2    N1 9120   0.826   4.583  16.649  0.5121  0.2955 -0.3954
  615MPD2    H7 9121   0.778   4.672  16.641 -2.7510 -1.3902  0.6219
  616TMC3    C1 9122   0.883   4.658  16.858 -0.5402  0.4970 -0.4523
  616TMC3    C2 9123   0.887   0.067  16.814  0.0778  0.8782 -0.9397
  616TMC3    C3 9124   0.846   0.160  16.906 -0.6265 -0.0731 -0.6886
  616TMC3    C4 9125   0.849   4.627  16.991  0.3533  0.4719 -0.4028
  616TMC3    C5 9126   0.785   4.722  17.063 -0.2217  0.4136  0.3915
  616TMC3    C6 9127   0.784   0.131  17.029  0.4719 -0.0924  0.1599
  616TMC3     C 9128   0.890   4.548  16.764  0.1691 -0.2754 -0.6977
  616TMC3     O 9129   0.900   4.435  16.807  0.3436  0.3741  0.2437
  616TMC3     H 9130   0.911   0.106  16.715  1.6475  0.1561 -0.8432
  616TMC3    H1 9131   0.840   4.525  17.029  4.1355 -0.3092 -1.5893
  616TMC3    H2 9132   0.755   0.218  17.087  0.5009 -0.2505  0.4148
  616TMC3    C7 9133   0.753   4.699  17.207  0.3447  0.9374 -0.5101
  616TMC3    C8 9134   0.853   0.293  16.861  0.0541 -0.2570  0.3771
  616TMC3    O1 9135   0.703   0.075  17.256 -0.4022  0.4128  0.0663
  616TMC3    O2 9136   0.747   0.353  16.845  0.0975  0.0895 -0.0135
  617MPD2     C 9137   3.656   3.086  13.742 -0.4929  0.1034  1.1288
  617MPD2    C1 9138   3.570   3.023  13.824  0.0732 -0.2060 -0.1718
  617MPD2    C2 9139   3.461   2.958  13.765 -0.1685  0.3725 -0.7564
  617MPD2    C3 9140   3.425   2.970  13.634 -0.7547  0.1717  0.3888
  617MPD2    C4 9141   3.512   3.044  13.558  0.4417 -0.0454 -0.6471
  617MPD2    C5 9142   3.630   3.105  13.610  0.3426 -0.6653  0.0477
  617MPD2     H 9143   3.390   2.910  13.831 -1.3130 -0.7342 -2.8032
  617MPD2    H1 9144   3.509   3.043  13.450  0.9483  0.9026 -0.6690
  617MPD2    H2 9145   3.747   3.121  13.791 -0.6067 -1.7867  2.6638
  617MPD2    H3 9146   3.689   3.161  13.539 -1.6857  0.0939 -1.0206
  617MPD2     N 9147   3.308   2.914  13.572 -0.1540  0.0529  0.2991
  617MPD2    H5 9148   3.306   2.911  13.470 -2.4367  0.9655  0.3250
  617MPD2    N1 9149   3.609   3.012  13.957  0.2974  0.2377  0.2334
  617MPD2    H7 9150   3.698   3.056  13.975 -0.3514  1.6112  0.0710
  618TMC3    C1 9151   3.606   2.922  14.179  0.1045 -1.1124 -0.0962
  618TMC3    C2 9152   3.629   2.801  14.230  0.0576 -0.8498 -1.3409
  618TMC3    C3 9153   3.720   2.807  14.329  0.6257 -0.1044  0.0455
  618TMC3    C4 9154   3.646   3.042  14.230  0.3221 -0.3499 -0.1112
  618TMC3    C5 9155   3.741   3.041  14.333  0.1543  0.2071 -0.1870
  618TMC3    C6 9156   3.792   2.921  14.371 -0.3171 -0.7988 -0.2404
  618TMC3     C 9157   3.543   2.929  14.049 -0.5604 -0.6521 -0.5928
  618TMC3     O 9158   3.457   2.844  14.034  0.0135 -0.3490  0.4592
  618TMC3     H 9159   3.610   2.708  14.178 -1.6728 -1.7897  1.0108
  618TMC3    H1 9160   3.600   3.131  14.191 -0.8447 -0.5058  0.9270
  618TMC3    H2 9161   3.855   2.915  14.459  1.5853 -1.5974 -1.6580
  618TMC3    C7 9162   3.791   3.164  14.398  0.0065 -0.0444 -0.2292
  618TMC3    C8 9163   3.788   2.685  14.348 -0.0592  0.0216 -1.0530
  618TMC3    O1 9164   3.701   3.244  14.406  0.3468  0.0181 -0.3830
  618TMC3    O2 9165   3.722   2.589  14.389  0.3189  0.0175 -0.5914
  619MPD2     C 9166   0.499   4.363  13.644  0.3439  0.3817  0.1418
  619MPD2    C1 9167   0.400   4.421  13.561 -0.6609 -0.1243 -0.3624
  619MPD2    C2 9168   0.274   4.362  13.568 -0.3500  0.0558  0.2159
  619MPD2    C3 9169   0.243   4.247  13.638  0.9821 -0.6277  0.5701
  619MPD2    C4 9170   0.343   4.198  13.716  0.1411 -0.0518  0.0270
  619MPD2    C5 9171   0.470   4.255  13.718  0.4420  0.2593 -0.2607
  619MPD2     H 9172   0.204   4.409  13.500 -0.2867 -0.5906 -0.2984
  619MPD2    H1 9173   0.332   4.112  13.780  1.2999  0.2754  0.6707
  619MPD2    H2 9174   0.597   4.405  13.664  0.8517 -1.2008  0.9310
  619MPD2    H3 9175   0.546   4.204  13.777 -1.4259 -2.1554  0.0549
  619MPD2     N 9176   0.117   4.195  13.652  0.1868  0.2644 -0.0905
  619MPD2    H5 9177   0.098   4.134  13.731 -0.5584 -1.6328 -1.7274
  619MPD2    N1 9178   0.418   4.537  13.477  0.2921  0.2362 -0.2689
  619MPD2    H7 9179   0.352   4.548  13.401 -0.5311 -0.8792  0.2773
  620TMC3    C1 9180   0.530   0.003  13.391  0.7886 -0.0987  0.1810
  620TMC3    C2 9181   0.404   0.041  13.351  0.7147  0.1093 -0.2317
  620TMC3    C3 9182   0.387   0.170  13.321  0.0747  0.5562 -0.4934
  620TMC3    C4 9183   0.634   0.088  13.405  0.6293 -0.1412 -0.1197
  620TMC3    C5 9184   0.621   0.217  13.372 -0.3542  0.3194 -0.0707
  620TMC3    C6 9185   0.500   0.254  13.311  0.2469  0.2067 -0.3798
  620TMC3     C 9186   0.528   4.618  13.486 -0.9228  0.5652  0.0725
  620TMC3     O 9187   0.625   4.601  13.557 -0.2634  0.0600  0.1821
  620TMC3     H 9188   0.313   4.709  13.373  1.0518  0.1748  1.3576
  620TMC3    H1 9189   0.718   0.052  13.462  0.3916 -0.2281  0.1763
  620TMC3    H2 9190   0.485   0.358  13.284 -0.7493  0.1139 -0.1637
  620TMC3    C7 9191   0.651   0.305  13.487 -0.4016  0.3048  0.8847
  620TMC3    C8 9192   0.264   0.226  13.368 -0.5296 -0.4775  0.0689
  620TMC3    O1 9193   0.652   0.425  13.465 -0.0632 -0.2132  0.2657
  620TMC3    O2 9194   0.163   0.155  13.367  0.1158 -0.3655  0.3435
  621MPD2     C 9195   0.436   3.993  10.420  0.1495  0.2716 -0.3993
  621MPD2    C1 9196   0.521   3.965  10.525 -0.5529 -0.3207 -0.1979
  621MPD2    C2 9197   0.656   3.968  10.503 -0.2788 -0.0617  0.1276
  621MPD2    C3 9198   0.710   4.007  10.383 -0.1655  0.1357  0.1443
  621MPD2    C4 9199   0.620   4.034  10.283  0.5868  0.5064  0.3827
  621MPD2    C5 9200   0.484   4.028  10.302  0.5653  0.2162  0.2054
  621MPD2     H 9201   0.724   3.948  10.585 -0.2583 -0.4806  0.0056
  621MPD2    H1 9202   0.662   4.061  10.187 -1.0694 -0.7675 -0.6980
  621MPD2    H2 9203   0.328   3.980  10.417  0.3226 -0.9364 -1.5505
  621MPD2    H3 9204   0.414   4.036  10.220  2.2210 -3.5292 -1.5781
  621MPD2     N 9205   0.848   4.023  10.370  1.0581  0.5726  0.0356
  621MPD2    H5 9206   0.902   4.030  10.455 -2.7313  2.4499  2.2730
  621MPD2    N1 9207   0.480   3.943  10.658 -0.3477 -0.3571  0.2184
  621MPD2    H7 9208   0.551   3.936  10.730  1.0095  3.0427 -0.8027
  622TMC3    C1 9209   0.347   3.880  10.836 -0.3258 -0.3924  0.5957
  622TMC3    C2 9210   0.227   3.901  10.903  0.4010  0.2690  0.1980
  622TMC3    C3 9211   0.174   3.802  10.990  1.0699 -0.2860 -0.2913
  622TMC3    C4 9212   0.412   3.764  10.862  0.4981  0.1324 -0.8020
  622TMC3    C5 9213   0.368   3.680  10.954 -0.6233 -0.4072 -0.1694
  622TMC3    C6 9214   0.249   3.686  11.014 -0.1424 -0.0572  1.2314
  622TMC3     C 9215   0.353   3.921  10.696 -0.5661 -0.3071  0.0628
  622TMC3     O 9216   0.252   3.947  10.639  0.2688  0.0414  0.8757
  622TMC3     H 9217   0.169   3.991  10.885 -0.8954 -0.4808  0.6037
  622TMC3    H1 9218   0.483   3.734  10.786 -0.2165  1.5359 -2.0235
  622TMC3    H2 9219   0.212   3.607  11.079  2.2855 -0.4478  2.1435
  622TMC3    C7 9220   0.428   3.549  10.969  0.6075  0.3773 -0.2769
  622TMC3    C8 9221   0.032   3.785  10.993  0.5884  0.2715  0.2091
  622TMC3    O1 9222   0.402   3.487  11.073 -0.0152 -0.0536 -0.9511
  622TMC3    O2 9223   4.722   3.670  11.016  0.1068 -0.1850  0.1509
  623MPD2     C 9224   4.548   0.652  16.452 -0.6248 -0.1371  0.1363
  623MPD2    C1 9225   4.455   0.580  16.519  0.3312 -1.2281  0.0809
  623MPD2    C2 9226   4.496   0.523  16.641 -0.1101  1.0590 -0.1598
  623MPD2    C3 9227   4.625   0.516  16.684  0.1677 -0.0364 -0.0141
  623MPD2    C4 9228   4.716   0.587  16.610  0.2123 -0.1814  0.3361
  623MPD2    C5 9229   4.677   0.647  16.493  0.2126 -0.3679 -0.0879
  623MPD2     H 9230   4.425   0.471  16.705  1.2162 -0.0216  0.4355
  623MPD2    H1 9231   0.095   0.599  16.640  0.2623  1.0833 -0.3693
  623MPD2    H2 9232   4.515   0.694  16.358 -0.4426  2.4749  1.2356
  623MPD2    H3 9233   0.032   0.678  16.426 -0.7945 -0.3837 -1.2809
  623MPD2     N 9234   4.645   0.444  16.805  0.2516 -0.5048 -0.2321
  623MPD2    H5 9235   4.560   0.415  16.852  0.4128 -1.6501 -0.6422
  623MPD2    N1 9236   4.322   0.567  16.471  0.0335 -0.1696 -0.3602
  623MPD2    H7 9237   4.286   0.633  16.402  0.9040 -0.3822 -1.0264
  624TMC3    C1 9238   0.094   0.125  17.081 -0.0060  0.2840 -0.3184
  624TMC3    C2 9239   4.689   0.100  17.131  0.1926 -0.8633  0.4272
  624TMC3    C3 9240   4.590   0.182  17.086 -0.1999 -0.1755 -0.0907
  624TMC3    C4 9241   0.119   0.236  17.003  0.0580  0.2908  0.4647
  624TMC3    C5 9242   0.014   0.307  16.969  0.3105 -0.2338 -0.0468
  624TMC3    C6 9243   4.610   0.287  17.004 -0.2222  0.2134 -0.3514
  624TMC3     C 9244   0.185   0.016  17.103  0.7519 -0.5944 -0.0435
  624TMC3     O 9245   0.159   4.688  17.209 -0.2878 -0.7094  0.0921
  624TMC3     H 9246   4.659   0.012  17.186 -0.1566 -1.3807 -0.5978
  624TMC3    H1 9247   0.218   0.261  16.967  1.0097 -2.6602  1.0079
  624TMC3    H2 9248   4.527   0.357  16.997  0.3738  1.1134  1.3983
  624TMC3    C7 9249   0.038   0.403  16.863  0.2469  0.4667 -0.1604
  624TMC3    C8 9250   4.456   0.163  17.148  0.2196  0.3204  0.5285
  624TMC3    O1 9251   0.148   0.419  16.814 -0.6203 -0.0798  0.2826
  624TMC3    O2 9252   4.446   0.124  17.259  0.1821 -0.5522 -0.0424
  625MPD2     C 9253   4.113   1.190   0.543  0.5889 -0.3245  0.0556
  625MPD2    C1 9254   4.176   1.312   0.525  0.0647 -0.6313  0.4173
  625MPD2    C2 9255   4.310   1.322   0.510 -0.0919  0.3150 -0.6444
  625MPD2    C3 9256   4.391   1.203   0.519  0.7751 -0.5720 -0.4235
  625MPD2    C4 9257   4.332   1.085   0.544  0.2058  0.7055  0.2350
  625MPD2    C5 9258   4.192   1.080   0.557  0.3663 -0.2025  0.3478
  625MPD2     H 9259   4.364   1.415   0.496 -0.5107  0.9508  2.0211
  625MPD2    H1 9260   4.382   0.989   0.552 -1.0252  0.0475  0.0537
  625MPD2    H2 9261   4.006   1.188   0.559  0.6607 -2.5489  0.2454
  625MPD2    H3 9262   4.150   0.980   0.565 -0.8736  0.5145  2.8433
  625MPD2     N 9263   4.533   1.215   0.498 -0.1093  0.1470  0.4224
  625MPD2    H5 9264   4.573   1.308   0.488 -0.0308  0.1197  0.4779
  625MPD2    N1 9265   4.094   1.425   0.511 -0.3876  0.0718 -0.3167
  625MPD2    H7 9266   4.138   1.516   0.504  1.7982 -0.9884 -0.3758
  626TMC3    C1 9267   3.915   1.570   0.483  0.4548  0.0015  0.8047
  626TMC3    C2 9268   3.851   1.584   0.374  0.1760  0.2771 -0.3926
  626TMC3    C3 9269   3.804   1.710   0.352 -0.1045  0.6932  0.0129
  626TMC3    C4 9270   3.951   1.664   0.576 -0.0256  0.0708 -0.6204
  626TMC3    C5 9271   3.910   1.791   0.554  0.3721 -0.1273 -0.2254
  626TMC3    C6 9272   3.830   1.811   0.443  0.2479  0.2382 -1.0221
  626TMC3     C 9273   3.960   1.434   0.499 -0.4183 -0.3716 -0.4084
  626TMC3     O 9274   3.888   1.349   0.449  0.3732  0.3434 -0.3012
  626TMC3     H 9275   3.841   1.508   0.298 -1.7884  0.2918 -0.1575
  626TMC3    H1 9276   4.011   1.646   0.664  0.0043  0.5808 -0.5335
  626TMC3    H2 9277   3.805   1.910   0.407 -2.3492  0.7648  2.2310
  626TMC3    C7 9278   3.930   1.884   0.659 -0.0803 -0.2990  1.0540
  626TMC3    C8 9279   3.749   1.742   0.218  0.4944  0.3312  0.1507
  626TMC3    O1 9280   4.020   1.855   0.741  0.8266 -0.0971 -0.0026
  626TMC3    O2 9281   3.754   1.866   0.193  0.1213  0.4596 -0.2784
  627MPD2     C 9282   2.693   1.724  14.090 -0.0660  0.5433 -0.0368
  627MPD2    C1 9283   2.706   1.733  14.224 -0.5939  0.2532  0.1510
  627MPD2    C2 9284   2.670   1.632  14.309  0.6342 -0.3095  0.0905
  627MPD2    C3 9285   2.615   1.520  14.252  0.4736 -0.0304  0.7051
  627MPD2    C4 9286   2.599   1.517  14.110 -0.2021 -0.2555  0.0540
  627MPD2    C5 9287   2.632   1.623  14.032  0.7144 -0.0107  0.1359
  627MPD2     H 9288   2.681   1.644  14.416  1.8054  1.1530 -0.1968
  627MPD2    H1 9289   2.569   1.425  14.062  1.9197 -0.2925 -1.1829
  627MPD2    H2 9290   2.731   1.801  14.023 -1.7675 -0.6068 -2.3426
  627MPD2    H3 9291   2.639   1.617  13.924 -0.5895 -1.4843  0.1416
  627MPD2     N 9292   2.572   1.413  14.336  0.2547  0.6229  0.2510
  627MPD2    H5 9293   2.574   1.424  14.437 -0.0552  0.8117  0.2384
  627MPD2    N1 9294   2.755   1.848  14.293 -0.3863 -0.2101 -0.0888
  627MPD2    H7 9295   2.772   1.836  14.392  0.4490 -0.9640 -0.3188
  628TMC3    C1 9296   2.866   2.045  14.326 -0.2121  0.1589 -0.1523
  628TMC3    C2 9297   2.963   1.983  14.403  0.2640  0.1704 -0.6176
  628TMC3    C3 9298   3.042   2.061  14.483 -0.2132  1.0577  0.1270
  628TMC3    C4 9299   2.860   2.186  14.313 -0.2801 -0.2695  0.0166
  628TMC3    C5 9300   2.946   2.258  14.394 -0.5760  0.2107 -0.0018
  628TMC3    C6 9301   3.034   2.193  14.485 -0.3158 -0.4053 -0.0114
  628TMC3     C 9302   2.798   1.966  14.231 -0.0367  0.9032  0.5981
  628TMC3     O 9303   2.779   2.006  14.117  0.1891 -0.1044 -0.0340
  628TMC3     H 9304   2.965   1.875  14.405 -1.2909  0.1708  0.8842
  628TMC3    H1 9305   2.778   2.227  14.255 -0.3496 -0.5265 -0.0683
  628TMC3    H2 9306   3.124   2.248  14.511 -1.6669  2.3283 -1.0710
  628TMC3    C7 9307   2.989   2.389  14.350 -0.5819 -0.9386 -0.0212
  628TMC3    C8 9308   3.126   2.013  14.588 -0.7405 -0.0986 -0.1006
  628TMC3    O1 9309   3.110   2.399  14.368  0.4917 -0.4253  0.7926
  628TMC3    O2 9310   3.165   2.089  14.675  0.0197  0.5363 -0.6045
  629MPD2     C 9311   1.158   0.620  16.603  0.2727 -0.5068  1.1108
  629MPD2    C1 9312   1.244   0.525  16.659 -0.2681  0.2147  0.2719
  629MPD2    C2 9313   1.180   0.435  16.743  0.3599  1.0496  0.1228
  629MPD2    C3 9314   1.043   0.421  16.750  0.1006 -0.2570 -0.1415
  629MPD2    C4 9315   0.965   0.511  16.678 -0.4101  0.4520  0.0870
  629MPD2    C5 9316   1.023   0.605  16.601  0.2685  0.0993  0.2383
  629MPD2     H 9317   1.234   0.361  16.802  1.4936  1.0655 -0.9000
  629MPD2    H1 9318   0.857   0.508  16.683 -0.4934 -0.5895 -2.2503
  629MPD2    H2 9319   1.193   0.706  16.546 -0.8684 -0.7950 -0.0238
  629MPD2    H3 9320   0.962   0.661  16.531 -0.5450 -1.3065 -0.1814
  629MPD2     N 9321   0.984   0.323  16.835  0.1943 -0.1240  0.1685
  629MPD2    H5 9322   1.050   0.268  16.890 -0.1021 -0.5045  0.1451
  629MPD2    N1 9323   1.383   0.531  16.638 -0.2360 -0.4994 -0.5632
  629MPD2    H7 9324   1.417   0.608  16.581  0.5226 -0.5487 -0.1742
  630TMC3    C1 9325   1.613   0.482  16.701  0.1427 -0.1484 -0.5316
  630TMC3    C2 9326   1.659   0.611  16.661 -0.0687 -0.0220  0.2760
  630TMC3    C3 9327   1.795   0.641  16.679  0.2077 -0.2401  0.1545
  630TMC3    C4 9328   1.706   0.386  16.752  0.3025 -0.3326  0.5718
  630TMC3    C5 9329   1.827   0.433  16.782  0.4449  0.3193 -0.1228
  630TMC3    C6 9330   1.881   0.558  16.747  0.1333  0.5124 -0.8147
  630TMC3     C 9331   1.473   0.455  16.709 -0.0232 -0.2837  0.9734
  630TMC3     O 9332   1.443   0.365  16.785  0.0816 -0.1253  0.3987
  630TMC3     H 9333   1.585   0.682  16.626 -0.0444  0.1147  0.5048
  630TMC3    H1 9334   1.666   0.292  16.787 -0.2573  0.0095  0.8583
  630TMC3    H2 9335   1.977   0.599  16.778 -1.2262  1.7698  1.6605
  630TMC3    C7 9336   1.879   0.385  16.914  0.4319  0.2821 -0.3998
  630TMC3    C8 9337   1.849   0.771  16.666  0.1271 -0.4834 -0.0866
  630TMC3    O1 9338   1.824   0.294  16.970 -0.1650  0.2389  0.6742
  630TMC3    O2 9339   1.938   0.806  16.749  0.3215  0.2118  0.6229
  631MPD2     C 9340   4.369   0.095  15.961  0.1083 -0.6738  0.8052
  631MPD2    C1 9341   4.462   0.171  15.879 -0.5618  0.2586  0.8416
  631MPD2    C2 9342   4.590   0.129  15.873  0.6683 -0.1832  0.1077
  631MPD2    C3 9343   4.629   0.013  15.943  1.0864  0.3834  1.1405
  631MPD2    C4 9344   4.534   4.666  16.012 -0.1073  0.1953 -0.6544
  631MPD2    C5 9345   4.412   4.710  16.027  0.6641 -0.4728  0.1976
  631MPD2     H 9346   4.670   0.177  15.819 -0.5378  2.1628  0.4170
  631MPD2    H1 9347   4.564   4.573  16.060 -0.3661  0.7184  0.5168
  631MPD2    H2 9348   4.267   0.127  15.981 -0.5716 -0.3397 -3.1127
  631MPD2    H3 9349   4.347   4.659  16.098 -0.3275 -1.7177 -1.6209
  631MPD2     N 9350   0.039   4.702  15.946  0.4016  0.0082  0.3714
  631MPD2    H5 9351   0.099   0.045  15.900 -1.2681  0.6694 -0.8137
  631MPD2    N1 9352   4.414   0.287  15.814  0.7246  0.1592  0.6785
  631MPD2    H7 9353   4.313   0.300  15.815  0.6726  0.2260 -3.5449
  632TMC3    C1 9354   4.427   0.467  15.669  0.0914 -0.1142  0.3051
  632TMC3    C2 9355   4.303   0.507  15.704  0.5091  0.1393 -0.0177
  632TMC3    C3 9356   4.244   0.603  15.624  0.4174 -0.1846 -0.0036
  632TMC3    C4 9357   4.490   0.520  15.560  0.1011  0.5789  0.0475
  632TMC3    C5 9358   4.433   0.623  15.493  0.3307  0.5899  0.5397
  632TMC3    C6 9359   4.305   0.658  15.517 -0.2724  0.2633  1.1305
  632TMC3     C 9360   4.500   0.364  15.736 -0.7574 -0.7685  0.2440
  632TMC3     O 9361   4.617   0.349  15.706  0.3114  0.0801 -0.5759
  632TMC3     H 9362   4.252   0.460  15.788 -2.4165  1.7308 -0.9198
  632TMC3    H1 9363   4.581   0.469  15.529 -0.1793  0.5252 -0.6731
  632TMC3    H2 9364   4.273   0.740  15.454 -1.4601 -1.4096 -0.4318
  632TMC3    C7 9365   4.499   0.687  15.374 -0.2793 -0.0579  0.3976
  632TMC3    C8 9366   4.125   0.656  15.685 -0.1330 -0.4330  0.4282
  632TMC3    O1 9367   4.432   0.752  15.288 -0.1738 -0.0295 -0.2465
  632TMC3    O2 9368   4.082   0.617  15.793 -0.5279  0.2110  0.0830
  633MPD2     C 9369   4.552   3.128  17.583  0.4416 -0.1352  1.2412
  633MPD2    C1 9370   4.508   3.097  17.458  0.2427 -0.3830 -0.4693
  633MPD2    C2 9371   4.441   2.977  17.439 -0.3385 -0.2340 -0.0634
  633MPD2    C3 9372   4.439   2.885  17.538 -0.2383 -0.5016 -0.7533
  633MPD2    C4 9373   4.487   2.915  17.659  0.0336  0.5627  0.1729
  633MPD2    C5 9374   4.543   3.036  17.684  0.0741 -0.0492  0.6187
  633MPD2     H 9375   4.408   2.951  17.339 -0.8692 -1.0265  0.3119
  633MPD2    H1 9376   4.481   2.841   0.039 -0.0287  0.4348  0.0500
  633MPD2    H2 9377   4.611   3.213  17.618 -0.5783  1.3030 -0.5579
  633MPD2    H3 9378   4.590   3.056   0.080 -0.1395 -0.4834  0.8194
  633MPD2     N 9379   4.387   2.749  17.519 -0.4493 -0.0470  0.3790
  633MPD2    H5 9380   4.399   2.679  17.593 -0.2760 -0.1912  0.2161
  633MPD2    N1 9381   4.505   3.186  17.351  0.2458 -0.0938  0.0906
  633MPD2    H7 9382   4.464   3.162  17.261  2.6357 -1.1180 -0.7209
  634TMC3    C1 9383   4.556   3.360  17.216 -0.1420 -0.1042 -0.3396
  634TMC3    C2 9384   4.533   3.269  17.115  0.1363  0.2323 -0.0679
  634TMC3    C3 9385   4.467   3.324  17.006 -0.5227 -0.4759 -0.0890
  634TMC3    C4 9386   4.528   3.495  17.206  0.3946 -0.1455  0.8941
  634TMC3    C5 9387   4.472   3.545  17.098  0.0669  0.1337 -0.7628
  634TMC3    C6 9388   4.450   3.460  16.986 -0.4121 -0.6052  0.3733
  634TMC3     C 9389   4.570   3.310  17.351 -0.1403 -0.1899 -0.0223
  634TMC3     O 9390   4.614   3.381  17.442  0.0695 -0.2816  0.8884
  634TMC3     H 9391   4.569   3.167  17.111  1.1670  0.6064 -0.4936
  634TMC3    H1 9392   4.530   3.557  17.294  1.7651 -1.1379  1.5663
  634TMC3    H2 9393   4.418   3.497  16.889  0.2082 -2.4431 -0.5372
  634TMC3    C7 9394   4.458   3.684  17.068 -0.0407 -0.4856 -1.1786
  634TMC3    C8 9395   4.486   3.253  16.883 -0.1343  0.5575 -0.8598
  634TMC3    O1 9396   4.438   3.719  16.956 -0.3973 -0.9383  0.5150
  634TMC3    O2 9397   4.447   3.136  16.893 -0.4630  0.1605  0.1173
  635TMC3    C1 9398   0.277   3.556  17.466  0.3571 -0.2323 -0.0550
  635TMC3    C2 9399   0.372   3.606  17.387  0.1671  0.1123 -0.1721
  635TMC3    C3 9400   0.415   3.533  17.277 -0.2266  0.3620  0.1729
  635TMC3    C4 9401   0.228   3.428  17.452 -0.8913  0.1052 -0.0328
  635TMC3    C5 9402   0.269   3.360  17.343  0.0648 -0.2271 -0.3477
  635TMC3    C6 9403   0.358   3.407  17.251  0.0871 -0.0113 -0.5082
  635TMC3     C 9404   0.222   3.640  17.578  0.6469  0.3798 -0.6770
  635TMC3     O 9405   0.284   3.747  17.602 -0.2464  0.1465  1.3238
  635TMC3     H 9406   0.397   3.712  17.392 -1.1991  0.2810  2.6194
  635TMC3    H1 9407   0.156   3.386  17.521  0.6090 -0.8152  0.9875
  635TMC3    H2 9408   0.381   3.362  17.155  0.7993  1.3952 -1.0061
  635TMC3    C7 9409   0.219   3.227  17.336  0.0521 -0.3955 -0.6364
  635TMC3    C8 9410   0.492   3.607  17.175  0.6641  0.3082 -0.4937
  635TMC3    O1 9411   0.187   3.173  17.442 -0.1524 -0.2798  0.4316
  635TMC3    O2 9412   0.542   3.536  17.090  0.1179 -0.8824 -0.2618
  636MPD2     C 9413   1.070   3.390  15.744 -0.7581  0.0990  0.6878
  636MPD2    C1 9414   1.093   3.421  15.876  0.9914 -0.3765 -0.2044
  636MPD2    C2 9415   1.139   3.318  15.959 -0.5654 -0.4875  0.3642
  636MPD2    C3 9416   1.180   3.196  15.913 -0.0080 -0.1270  0.1145
  636MPD2    C4 9417   1.166   3.171  15.781  0.2293  0.2041  0.6170
  636MPD2    C5 9418   1.098   3.259  15.700  0.0204  0.3192 -0.9005
  636MPD2     H 9419   1.147   3.336  16.066 -2.5815 -3.0873  0.9436
  636MPD2    H1 9420   1.184   3.072  15.740  1.7201  0.4460  0.6725
  636MPD2    H2 9421   1.037   3.458  15.667  1.7386  0.3160 -0.2007
  636MPD2    H3 9422   1.086   3.226  15.597  0.5120  0.7413 -1.0970
  636MPD2     N 9423   1.229   3.111  16.009 -0.4995 -0.1487  0.9260
  636MPD2    H5 9424   1.217   3.140  16.105 -0.5127  2.7348  0.0512
  636MPD2    N1 9425   1.066   3.547  15.933  0.0814 -0.1841 -0.1312
  636MPD2    H7 9426   1.094   3.563  16.029  2.2828 -1.1135 -0.6178
  637TMC3    C1 9427   1.350   2.935  16.103  0.1271 -0.7514 -0.6331
  637TMC3    C2 9428   1.332   2.985  16.227 -0.2450  0.0434 -0.1656
  637TMC3    C3 9429   1.428   2.973  16.328  0.1084 -0.6780  0.1940
  637TMC3    C4 9430   1.471   2.884  16.065  0.8636  0.1355 -0.1439
  637TMC3    C5 9431   1.573   2.883  16.159 -0.0014 -0.2312 -0.0859
  637TMC3    C6 9432   1.548   2.916  16.290 -0.0022  0.7049 -0.2489
  637TMC3     C 9433   1.277   2.984  15.991 -0.0946 -0.1331  0.0345
  637TMC3     O 9434   1.263   2.900  15.905 -0.0149  0.7177 -0.3307
  637TMC3     H 9435   1.233   3.021  16.254 -0.0040 -0.5228  1.4860
  637TMC3    H1 9436   1.486   2.853  15.962 -1.4364  0.6369 -0.6181
  637TMC3    H2 9437   1.629   2.901  16.360  0.3010  1.4674 -0.4377
  637TMC3    C7 9438   1.699   2.951  16.115 -0.1532 -0.9189 -0.4856
  637TMC3    C8 9439   1.448   3.090  16.401  0.0448 -0.8025 -0.9348
  637TMC3    O1 9440   1.764   3.003  16.206  0.0957 -0.1149  0.0504
  637TMC3    O2 9441   1.407   3.193  16.349  0.6188  0.1762  0.2676
  638MPD2     C 9442   0.466   2.465  15.351 -0.3253 -0.4734  0.1813
  638MPD2    C1 9443   0.481   2.341  15.301  0.5110  1.1764  0.3389
  638MPD2    C2 9444   0.457   2.238  15.382  0.7821  0.4310 -0.2315
  638MPD2    C3 9445   0.388   2.255  15.502 -0.0992  0.6559  0.1439
  638MPD2    C4 9446   0.368   2.376  15.555 -0.1785  0.0333 -0.5062
  638MPD2    C5 9447   0.414   2.482  15.478 -0.3242  0.2815  0.2511
  638MPD2     H 9448   0.470   2.137  15.346 -0.9696 -0.0857  0.5776
  638MPD2    H1 9449   0.348   2.382  15.661  0.7458  0.2413 -0.3431
  638MPD2    H2 9450   0.500   2.545  15.286 -2.8303 -0.2700 -0.8743
  638MPD2    H3 9451   0.409   2.577  15.530 -1.3042  0.6151 -0.4654
  638MPD2     N 9452   0.350   2.137  15.569 -0.1249 -0.3204  0.1733
  638MPD2    H5 9453   0.387   2.050  15.533  0.5062  0.2021 -0.4332
  638MPD2    N1 9454   0.526   2.322  15.169 -0.1347  0.3577  0.4218
  638MPD2    H7 9455   0.575   2.397  15.123 -2.1526  1.3713 -0.0984
  639TMC3    C1 9456   0.225   1.988  15.680 -0.1995 -0.7343 -0.1875
  639TMC3    C2 9457   0.114   1.944  15.603 -0.4739  0.4975 -0.0523
  639TMC3    C3 9458   0.121   1.819  15.547 -0.4922 -0.3123 -0.6025
  639TMC3    C4 9459   0.346   1.920  15.675 -0.5441  0.2629  0.8454
  639TMC3    C5 9460   0.355   1.811  15.595 -0.1429  0.1867 -0.5809
  639TMC3    C6 9461   0.248   1.757  15.534  0.0441 -0.1124  0.9340
  639TMC3     C 9462   0.257   2.125  15.662  0.3628 -0.0933 -0.5213
  639TMC3     O 9463   0.175   2.209  15.699 -0.4163  0.4767  0.4436
  639TMC3     H 9464   0.025   2.004  15.621  0.9426  2.6144 -0.1601
  639TMC3    H1 9465   0.438   1.961  15.715  0.6832 -0.2729 -1.4031
  639TMC3    H2 9466   0.263   1.655  15.498 -2.8556  0.1994 -1.1080
  639TMC3    C7 9467   0.456   1.716  15.623 -0.1030 -0.0721 -0.0991
  639TMC3    C8 9468   0.029   1.780  15.446  0.4040 -1.1301 -0.2689
  639TMC3    O1 9469   0.473   1.692  15.738 -0.3282  0.2962 -0.7674
  639TMC3    O2 9470   0.089   1.729  15.354 -0.4705  0.6412  0.6141
  640MPD2     C 9471   1.684   0.070  10.176 -0.6318  0.3778 -0.8854
  640MPD2    C1 9472   1.800   0.148  10.169 -0.3317  0.0200  0.1643
  640MPD2    C2 9473   1.783   0.284  10.153 -0.1450  0.3353 -0.4404
  640MPD2    C3 9474   1.655   0.344  10.164 -0.1560  0.1219  0.6437
  640MPD2    C4 9475   1.543   0.265  10.182  0.0908 -0.1620  0.1785
  640MPD2    C5 9476   1.561   0.130  10.178 -0.1030 -0.4864 -0.3247
  640MPD2     H 9477   1.871   0.347  10.144  1.7348 -2.2074  0.2328
  640MPD2    H1 9478   1.442   0.302  10.195  0.0856 -0.3774  0.7403
  640MPD2    H2 9479   1.687   4.687  10.189 -0.6598  0.7064  1.7418
  640MPD2    H3 9480   1.478   0.063  10.196 -1.6527  1.2117 -1.1666
  640MPD2     N 9481   1.635   0.485  10.148 -0.5623 -0.6535 -0.5350
  640MPD2    H5 9482   1.547   0.530  10.170  0.2365  0.5968  0.0878
  640MPD2    N1 9483   1.919   0.078  10.150 -0.3101  0.3059  0.1897
  640MPD2    H7 9484   1.896   4.705  10.136  0.4141 -0.0471  1.4127
  641TMC3    C1 9485   2.161   0.046  10.143 -0.2716  0.0964 -0.6968
  641TMC3    C2 9486   2.152   4.641  10.193 -0.1747 -0.2175 -0.3702
  641TMC3    C3 9487   2.252   4.551  10.177  0.0106  0.0034 -0.5402
  641TMC3    C4 9488   2.272   0.091  10.086  0.9442  0.0675  0.3426
  641TMC3    C5 9489   2.373   4.718  10.059  0.3179 -0.4043 -0.0997
  641TMC3    C6 9490   2.368   4.587  10.115  0.1460 -0.2639  0.5425
  641TMC3     C 9491   2.047   0.137  10.158 -0.1974  0.5948 -0.2755
  641TMC3     O 9492   2.067   0.257  10.149 -0.0291  0.5423 -1.1514
  641TMC3     H 9493   2.062   4.602  10.240 -0.0841  0.2141  0.1581
  641TMC3    H1 9494   2.267   0.192  10.048  1.1383  0.4254  1.2908
  641TMC3    H2 9495   2.452   4.519  10.110 -0.5343 -1.0944  0.4431
  641TMC3    C7 9496   2.490   0.033   9.982  0.1641 -0.6496 -0.8549
  641TMC3    C8 9497   2.208   4.415  10.161 -0.5016  0.2291 -0.8230
  641TMC3    O1 9498   2.518   0.153   9.978 -0.1749 -0.1691 -0.2182
  641TMC3    O2 9499   2.091   4.389  10.141 -0.1680 -0.3709 -0.2824
  642TMC3    C1 9500   2.350   2.172  12.351  0.1906  0.2562  0.2889
  642TMC3    C2 9501   2.487   2.161  12.343 -0.2737  0.2046  0.0281
  642TMC3    C3 9502   2.547   2.038  12.346 -0.1241  0.7443  0.4167
  642TMC3    C4 9503   2.270   2.056  12.353 -0.2144 -0.2704 -0.3299
  642TMC3    C5 9504   2.340   1.936  12.349  0.0388  0.0331  0.3574
  642TMC3    C6 9505   2.475   1.921  12.351 -0.7035  0.0027 -0.5909
  642TMC3     C 9506   2.301   2.307  12.355 -0.4874  0.4622  0.5726
  642TMC3     O 9507   2.356   2.393  12.285  0.0792  0.3961  0.2104
  642TMC3     H 9508   2.546   2.251  12.353 -0.5666  0.4692 -0.6933
  642TMC3    H1 9509   2.163   2.067  12.347  0.0760  1.0896 -3.2154
  642TMC3    H2 9510   2.524   1.824  12.348  1.9959  1.3110  0.5512
  642TMC3    C7 9511   2.262   1.823  12.318 -0.3059  0.3866  0.2251
  642TMC3    C8 9512   2.675   2.038  12.416  0.3693 -0.1678  0.8576
  642TMC3    O1 9513   2.320   1.725  12.273  0.6649 -0.1703 -0.0718
  642TMC3    O2 9514   2.755   1.951  12.398  0.0419  0.4604  0.0301
  643TMC3    C1 9515   0.850   1.530   0.649 -0.0111  0.0167 -0.5441
  643TMC3    C2 9516   0.719   1.536   0.616 -0.3502 -0.2679  0.5282
  643TMC3    C3 9517   0.668   1.470   0.512 -0.5726  0.4132 -0.3078
  643TMC3    C4 9518   0.938   1.479   0.551 -0.0142 -0.3131  0.2236
  643TMC3    C5 9519   0.886   1.421   0.442 -0.3768 -0.7744 -0.4286
  643TMC3    C6 9520   0.752   1.408   0.418 -0.0296  0.0000  0.1964
  643TMC3     C 9521   0.901   1.626   0.741 -0.2035 -0.0140 -0.0893
  643TMC3     O 9522   0.816   1.693   0.800  0.2316  0.2297 -0.0272
  643TMC3     H 9523   0.642   1.574   0.682 -1.0235  0.2773 -0.5683
  643TMC3    H1 9524   1.045   1.495   0.559 -0.0927 -0.7773  2.2247
  643TMC3    H2 9525   0.720   1.371   0.321 -0.2635  2.4158 -0.6562
  643TMC3    C7 9526   0.963   1.443   0.323  0.4770 -0.1198  0.7949
  643TMC3    C8 9527   0.546   1.525   0.451  0.5379  0.2489 -0.2691
  643TMC3    O1 9528   1.030   1.545   0.318 -0.1635  0.2397  0.2377
  643TMC3    O2 9529   0.469   1.447   0.401 -0.1074  0.2887 -0.0796
  644MPD2     C 9530   2.001   0.842  10.323  0.5655 -0.0187  0.5491
  644MPD2    C1 9531   2.105   0.885  10.244  0.1321  0.3448 -0.2642
  644MPD2    C2 9532   2.108   1.022  10.209  0.0072  0.5321  0.5448
  644MPD2    C3 9533   2.001   1.101  10.240 -0.1922 -0.1389  0.5234
  644MPD2    C4 9534   1.898   1.058  10.318 -0.3450 -0.0476 -0.0484
  644MPD2    C5 9535   1.899   0.928  10.346 -0.7445 -0.0044 -0.5469
  644MPD2     H 9536   2.186   1.065  10.147 -1.5676  0.3395 -1.5411
  644MPD2    H1 9537   1.804   1.105  10.345 -1.3519 -0.8528 -2.1515
  644MPD2    H2 9538   1.987   0.741  10.360  0.5248 -0.9739 -2.1022
  644MPD2    H3 9539   1.812   0.889  10.398 -0.9030 -0.7743 -1.3890
  644MPD2     N 9540   1.995   1.231  10.192  0.2845  0.1231 -0.4387
  644MPD2    H5 9541   2.057   1.254  10.114  1.2744  0.0277  0.3266
  644MPD2    N1 9542   2.207   0.790  10.221 -0.0047 -0.0959 -0.3280
  644MPD2    H7 9543   2.196   0.695  10.256 -0.2326  0.5283  1.3274
  645TMC3    C1 9544   1.932   1.451  10.180  0.4427  0.8165  0.4549
  645TMC3    C2 9545   1.972   1.452  10.049  0.8445 -0.0239  0.6221
  645TMC3    C3 9546   1.983   1.580   9.992  1.0774 -0.7923 -0.1497
  645TMC3    C4 9547   1.897   1.563  10.256 -0.7381 -0.4391  0.5188
  645TMC3    C5 9548   1.925   1.689  10.197 -0.7789 -0.1615  0.2106
  645TMC3    C6 9549   1.966   1.699  10.062  0.7617  0.7864  0.3062
  645TMC3     C 9550   1.926   1.327  10.248  0.3827  0.3036  0.4210
  645TMC3     O 9551   1.879   1.329  10.358  0.5133  1.0157  0.4302
  645TMC3     H 9552   1.977   1.360   9.992  2.5076  0.0225  0.6980
  645TMC3    H1 9553   1.884   1.564  10.363 -1.0594  2.7171  0.4541
  645TMC3    H2 9554   1.960   1.796  10.013 -0.9688  0.3225 -0.3917
  645TMC3    C7 9555   1.855   1.798  10.258 -0.2010  0.4130 -0.5835
  645TMC3    C8 9556   1.969   1.576   9.854  0.0164 -0.2950  0.1212
  645TMC3    O1 9557   1.882   1.913  10.229  0.4602  0.7974  0.4573
  645TMC3    O2 9558   1.918   1.478   9.805 -0.2825  0.2897 -0.2427
  646MPD2     C 9559   0.296   0.876  14.848 -0.3175 -0.0735  1.0636
  646MPD2    C1 9560   0.244   0.911  14.976  0.1169 -0.3802  0.5047
  646MPD2    C2 9561   0.146   1.009  14.991  0.1417 -0.2920 -0.4423
  646MPD2    C3 9562   0.081   1.058  14.877 -0.0499 -0.7599  0.1292
  646MPD2    C4 9563   0.115   1.008  14.757  0.4341  0.7953 -0.7087
  646MPD2    C5 9564   0.214   0.915  14.746 -0.5007  0.5172  0.3189
  646MPD2     H 9565   0.114   1.041  15.089 -0.7948  1.4636 -1.3136
  646MPD2    H1 9566   0.065   1.040  14.666  1.1361  1.0836 -0.9953
  646MPD2    H2 9567   0.379   0.810  14.826 -0.5865  0.1124 -0.4945
  646MPD2    H3 9568   0.257   0.888  14.650  0.7869  0.7028  0.8449
  646MPD2     N 9569   4.709   1.164  14.888 -0.2050  0.5284 -0.4446
  646MPD2    H5 9570   4.677   1.185  14.982 -3.7535 -0.9073 -1.3181
  646MPD2    N1 9571   0.321   0.863  15.081  0.2681  0.4596 -0.1553
  646MPD2    H7 9572   0.397   0.803  15.051 -1.0581 -1.1270 -0.3877
  647TMC3    C1 9573   0.399   0.813  15.298  0.2075  1.0451  0.1037
  647TMC3    C2 9574   0.362   0.744  15.412  0.2611 -0.6520 -0.1774
  647TMC3    C3 9575   0.447   0.640  15.455 -0.1334 -0.2568 -0.0720
  647TMC3    C4 9576   0.517   0.788  15.236  0.2966 -0.4021 -0.0606
  647TMC3    C5 9577   0.607   0.696  15.296 -1.0295  0.3512 -0.0930
  647TMC3    C6 9578   0.573   0.623  15.404 -0.3660 -0.0581 -0.2443
  647TMC3     C 9579   0.296   0.879  15.215 -0.2169  0.4467  0.3198
  647TMC3     O 9580   0.193   0.918  15.267  0.3159 -0.1046  0.6473
  647TMC3     H 9581   0.261   0.751  15.450 -0.1202  1.4621 -1.6140
  647TMC3    H1 9582   0.553   0.851  15.155  0.8558  2.2913  2.2736
  647TMC3    H2 9583   0.644   0.560  15.456  0.1402 -0.1488 -1.0456
  647TMC3    C7 9584   0.750   0.712  15.273 -0.2323 -0.7564 -0.5526
  647TMC3    C8 9585   0.430   0.600  15.593  0.2367 -0.0299 -0.0318
  647TMC3    O1 9586   0.825   0.635  15.338  0.1212 -0.1363 -0.1264
  647TMC3    O2 9587   0.331   0.640  15.654 -0.5190 -0.0908 -0.1839
  648TMC3    C1 9588   0.392   3.467  16.085  0.7602 -0.5260 -0.0958
  648TMC3    C2 9589   0.380   3.353  16.009  0.1211 -0.5750  0.7505
  648TMC3    C3 9590   0.327   3.366  15.882  0.0235 -0.2830  0.3873
  648TMC3    C4 9591   0.340   3.583  16.041  0.2715 -0.0258  0.3847
  648TMC3    C5 9592   0.276   3.586  15.919  0.5165 -0.5486  0.1858
  648TMC3    C6 9593   0.264   3.481  15.832 -0.1300  0.5780  0.5180
  648TMC3     C 9594   0.395   3.459  16.232 -1.1952  0.4683 -1.0084
  648TMC3     O 9595   0.428   3.555  16.298  0.4312  0.5820  0.1420
  648TMC3     H 9596   0.421   3.258  16.043  0.6614 -0.3395  0.7485
  648TMC3    H1 9597   0.338   3.673  16.102 -0.1955 -1.6489  2.7261
  648TMC3    H2 9598   0.235   3.510  15.731  2.5388 -0.7296 -0.6409
  648TMC3    C7 9599   0.200   3.705  15.879 -0.0450  0.7135 -0.6498
  648TMC3    C8 9600   0.356   3.254  15.793 -0.2607  0.5405 -0.4983
  648TMC3    O1 9601   0.176   3.721  15.763  0.1921  0.1986 -0.2558
  648TMC3    O2 9602   0.436   3.166  15.830 -0.0486  0.0205 -0.9256
  649TMC3    C1 9603   3.802   4.302  13.129  0.4187  0.7900  0.4667
  649TMC3    C2 9604   3.926   4.354  13.163 -0.1017 -0.8245 -0.8561
  649TMC3    C3 9605   3.977   4.326  13.285 -0.1868 -0.4726 -0.2135
  649TMC3    C4 9606   3.732   4.223  13.213  0.2883 -0.0781  0.1515
  649TMC3    C5 9607   3.790   4.198  13.339  0.5139  0.0149  0.2922
  649TMC3    C6 9608   3.910   4.257  13.377 -0.5928  0.3600  0.5265
  649TMC3     C 9609   3.735   4.335  13.002  0.1780 -0.2957 -0.1522
  649TMC3     O 9610   3.637   4.411  13.019 -0.0868 -0.3415  0.1122
  649TMC3     H 9611   3.974   4.413  13.086 -0.8429  0.8298 -0.0470
  649TMC3    H1 9612   3.631   4.193  13.186  1.2877 -2.7810 -0.6083
  649TMC3    H2 9613   3.956   4.243  13.474  1.1863  2.5506 -0.0141
  649TMC3    C7 9614   3.737   4.103  13.432  0.0783 -0.5427  0.1065
  649TMC3    C8 9615   4.124   4.318  13.295 -0.5392 -0.3866 -0.9756
  649TMC3    O1 9616   3.783   4.098  13.547  0.6330 -0.4599 -0.0132
  649TMC3    O2 9617   4.174   4.234  13.365 -0.4052  0.0019 -0.9967
  650TMC3    C1 9618   1.555   1.277  12.916 -0.5357 -0.2539  0.7791
  650TMC3    C2 9619   1.560   1.395  12.982 -0.0564 -0.4582 -0.6084
  650TMC3    C3 9620   1.612   1.502  12.902  0.0277  0.2440  0.0379
  650TMC3    C4 9621   1.576   1.264  12.782 -0.5120 -0.3770  0.0219
  650TMC3    C5 9622   1.614   1.374  12.712 -1.2399 -0.2329 -0.2997
  650TMC3    C6 9623   1.648   1.493  12.770  0.4922 -0.4730 -0.2667
  650TMC3     C 9624   1.512   1.156  12.984 -0.2600 -0.7919 -0.2603
  650TMC3     O 9625   1.444   1.167  13.085  0.2997  0.0143 -0.1311
  650TMC3     H 9626   1.523   1.394  13.084  0.4296  0.7854 -0.4216
  650TMC3    H1 9627   1.544   1.174  12.731  0.2195 -0.9757  0.6160
  650TMC3    H2 9628   1.686   1.580  12.717 -0.4928 -0.7939 -1.4903
  650TMC3    C7 9629   1.545   1.390  12.589  0.5519 -1.2984  0.4330
  650TMC3    C8 9630   1.589   1.642  12.942  0.3241 -0.1779 -0.6844
  650TMC3    O1 9631   1.507   1.283  12.537 -0.3573  0.3977 -0.1088
  650TMC3    O2 9632   1.592   1.718  12.848 -0.7600  0.4045 -0.4400
  651MPD2     C 9633   0.148   2.690  11.057  0.2660  0.1447 -0.1425
  651MPD2    C1 9634   0.136   2.826  11.092  0.4288  0.0486  0.0142
  651MPD2    C2 9635   0.252   2.902  11.105 -0.8782 -0.4856  0.5328
  651MPD2    C3 9636   0.384   2.846  11.086  0.3991  0.6175  0.7618
  651MPD2    C4 9637   0.384   2.715  11.065  0.4452  0.3386 -1.0195
  651MPD2    C5 9638   0.272   2.640  11.036 -0.6882 -0.4005 -0.1683
  651MPD2     H 9639   0.247   3.000  11.149 -2.2990 -0.6724  0.8035
  651MPD2    H1 9640   0.479   2.665  11.046  0.5738 -0.0813  0.7426
  651MPD2    H2 9641   0.067   2.622  11.036  0.4868  0.5097 -2.1475
  651MPD2    H3 9642   0.286   2.537  11.008 -3.5680 -1.0112  0.6355
  651MPD2     N 9643   0.492   2.927  11.106 -0.3601  0.4366  0.5146
  651MPD2    H5 9644   0.467   3.023  11.127 -3.1599 -0.4109  1.0710
  651MPD2    N1 9645   0.014   2.887  11.119 -0.1598  0.4030  0.0885
  651MPD2    H7 9646   0.015   2.986  11.140 -1.1031  0.6693 -1.1189
  652TMC3    C1 9647   0.930   3.025  11.230  0.0522  0.3244 -0.6040
  652TMC3    C2 9648   0.844   2.936  11.168 -0.4813 -0.6065 -0.1981
  652TMC3    C3 9649   0.711   2.970  11.191  0.1797 -0.4734  0.4178
  652TMC3    C4 9650   0.893   3.132  11.309 -0.3342  0.0740 -0.4155
  652TMC3    C5 9651   0.760   3.152  11.332  0.0866  0.4733 -0.0161
  652TMC3    C6 9652   0.667   3.075  11.275 -0.1623 -0.0323 -0.5796
  652TMC3     C 9653   1.061   2.988  11.244  0.1012  0.0948  0.2059
  652TMC3     O 9654   1.117   3.001  11.350  0.3300 -0.3758 -0.1487
  652TMC3     H 9655   0.875   2.844  11.121  2.3620  1.1039 -1.6371
  652TMC3    H1 9656   0.970   3.207  11.322  0.7957 -0.9372 -1.2826
  652TMC3    H2 9657   0.562   3.095  11.287  0.4199  2.5939  0.0690
  652TMC3    C7 9658   0.719   3.286  11.349 -0.0175 -0.0337  0.7308
  652TMC3    C8 9659   0.617   2.878  11.132 -0.1311 -0.4086 -0.4126
  652TMC3    O1 9660   0.611   3.296  11.402  0.5466 -0.0843  0.0949
  652TMC3    O2 9661   0.663   2.764  11.116 -0.0456  0.4476 -0.8483
  653MPD2     C 9662   4.215   3.215   0.112  0.1517  0.0227  0.2258
  653MPD2    C1 9663   4.135   3.327   0.088 -0.4934 -0.1169  0.7098
  653MPD2    C2 9664   4.016   3.302   0.018 -0.0776 -0.1164  0.6018
  653MPD2    C3 9665   3.972   3.175  17.676  0.5135 -0.0111  0.2389
  653MPD2    C4 9666   4.061   3.069  17.689  0.1450  0.3069 -0.0909
  653MPD2    C5 9667   4.179   3.092   0.056  0.6636  0.9130 -0.2163
  653MPD2     H 9668   3.954   3.388  17.696 -3.1343 -1.8697  2.4872
  653MPD2    H1 9669   4.048   2.968  17.653 -0.3506  0.2028  0.3872
  653MPD2    H2 9670   4.316   3.231   0.149 -0.3936  0.6779  1.4456
  653MPD2    H3 9671   4.242   3.004   0.057  0.4377  0.7554  0.1650
  653MPD2     N 9672   3.844   3.162  17.612 -0.5735  0.0156  0.3494
  653MPD2    H5 9673   3.790   3.248  17.609  0.5368  0.7774  2.1369
  653MPD2    N1 9674   4.168   3.461   0.120  0.1510 -0.4023  0.3594
  653MPD2    H7 9675   4.107   3.538   0.096  0.5632  0.1878  1.2109
  654TMC3    C1 9676   3.669   3.087  17.475  0.7701 -0.0968  0.1226
  654TMC3    C2 9677   3.597   3.206  17.491  0.2909  0.0399  0.6483
  654TMC3    C3 9678   3.499   3.241  17.402 -0.4669 -0.4121 -0.2780
  654TMC3    C4 9679   3.630   3.009  17.379 -0.2667 -0.4204 -0.2355
  654TMC3    C5 9680   3.522   3.037  17.298  0.7288  0.2791  0.3596
  654TMC3    C6 9681   3.451   3.155  17.312 -0.5529  0.0632  0.6607
  654TMC3     C 9682   3.787   3.050  17.559 -0.0189 -0.2903 -0.7391
  654TMC3     O 9683   3.828   2.935  17.547  0.3513 -0.2416  0.2157
  654TMC3     H 9684   3.604   3.256  17.587  0.0992 -1.6637  1.5580
  654TMC3    H1 9685   3.695   2.924  17.363 -0.4540 -0.8290  1.1618
  654TMC3    H2 9686   3.366   3.167  17.246  0.1835  0.7684 -0.1545
  654TMC3    C7 9687   3.482   2.936  17.201  0.6544 -0.3707  0.5655
  654TMC3    C8 9688   3.405   3.348  17.427  0.7271  0.2618 -0.2261
  654TMC3    O1 9689   3.425   2.976  17.099 -0.4664  0.5473  0.7030
  654TMC3    O2 9690   3.304   3.347  17.359 -0.7784 -0.4224 -0.4118
  655MPD2     C 9691   0.768   3.511  16.230  0.8643  0.9307  0.2005
  655MPD2    C1 9692   0.706   3.616  16.164 -0.4539 -0.0479 -0.6445
  655MPD2    C2 9693   0.701   3.609  16.028 -0.1738 -0.0893 -0.2553
  655MPD2    C3 9694   0.737   3.504  15.956 -0.5105  0.0496 -0.4018
  655MPD2    C4 9695   0.785   3.387  16.014 -0.7509 -0.2009 -0.2904
  655MPD2    C5 9696   0.801   3.403  16.150  0.0718 -0.2224 -0.0678
  655MPD2     H 9697   0.663   3.702  15.988 -0.0745 -0.3182 -0.8738
  655MPD2    H1 9698   0.797   3.296  15.956  0.8281  0.5230 -1.1083
  655MPD2    H2 9699   0.799   3.522  16.333  0.8175  3.2451 -0.0193
  655MPD2    H3 9700   0.845   3.321  16.205 -2.3419 -1.5643 -0.1376
  655MPD2     N 9701   0.723   3.491  15.819  0.0527  0.0189  0.1700
  655MPD2    H5 9702   0.732   3.395  15.786  0.3141  0.4557 -1.0264
  655MPD2    N1 9703   0.665   3.739  16.231 -0.3588  0.0190  0.3161
  655MPD2    H7 9704   0.634   3.813  16.168 -1.7607  1.0466  2.1991
  656TMC3    C1 9705   0.583   3.879  16.393 -0.1587  0.4582  0.7148
  656TMC3    C2 9706   0.459   3.847  16.446  0.1613 -0.4126  0.1822
  656TMC3    C3 9707   0.354   3.910  16.384 -0.0334 -0.4015  0.3863
  656TMC3    C4 9708   0.608   3.985  16.301  0.1085 -0.7519 -0.1134
  656TMC3    C5 9709   0.496   4.041  16.234 -0.4652 -0.1267 -0.4891
  656TMC3    C6 9710   0.371   3.997  16.279  0.1240  0.5099  0.0152
  656TMC3     C 9711   0.660   3.761  16.365 -0.3911  0.1602  0.6416
  656TMC3     O 9712   0.695   3.689  16.464 -0.3203 -0.1455  0.1249
  656TMC3     H 9713   0.445   3.766  16.517  1.2116 -1.1161 -0.4192
  656TMC3    H1 9714   0.705   4.000  16.255  0.6304  0.5031  1.3652
  656TMC3    H2 9715   0.281   4.037  16.234  1.2157  2.2089 -0.6557
  656TMC3    C7 9716   0.504   4.099  16.102  0.2098 -0.5770  0.0033
  656TMC3    C8 9717   0.248   3.814  16.369 -0.1770 -0.4003 -0.3460
  656TMC3    O1 9718   0.586   4.059  16.019  0.1531  0.1832 -0.0108
  656TMC3    O2 9719   0.217   3.790  16.255 -0.1337 -0.5355  0.2133
  657TMC3    C1 9720   3.590   3.184  15.780  0.0835  0.4617  0.1090
  657TMC3    C2 9721   3.698   3.103  15.809 -0.5342  0.1388  0.5506
  657TMC3    C3 9722   3.763   3.133  15.924  0.0774  0.8122 -0.1681
  657TMC3    C4 9723   3.554   3.282  15.874 -0.7786 -0.5586  0.0356
  657TMC3    C5 9724   3.633   3.315  15.975  0.3054  0.2673  0.2408
  657TMC3    C6 9725   3.732   3.231  16.006 -0.2787 -0.1091 -0.5630
  657TMC3     C 9726   3.504   3.158  15.676 -0.6850 -0.0550 -0.1693
  657TMC3     O 9727   3.398   3.222  15.670 -0.2969  0.3289 -0.2447
  657TMC3     H 9728   3.733   3.029  15.738 -1.7084  1.4620 -1.3880
  657TMC3    H1 9729   3.462   3.339  15.868  1.8274  3.7119  1.2353
  657TMC3    H2 9730   3.782   3.250  16.100 -1.5903  3.2810 -0.5477
  657TMC3    C7 9731   3.595   3.429  16.067 -0.5275  0.0269  0.1634
  657TMC3    C8 9732   3.889   3.061  15.967 -0.4152  0.6995 -0.7035
  657TMC3    O1 9733   3.476   3.443  16.080  0.3662 -0.0047 -0.2236
  657TMC3    O2 9734   3.943   3.104  16.067 -0.9049 -0.2828  0.3780
  658MPD2     C 9735   0.887   3.448  15.012  0.2906 -0.5729  0.8428
  658MPD2    C1 9736   0.781   3.534  15.040 -0.3793  0.0075  1.1517
  658MPD2    C2 9737   0.732   3.609  14.938  0.2086 -0.1753 -0.5903
  658MPD2    C3 9738   0.768   3.574  14.810 -0.1428 -0.5400  0.0984
  658MPD2    C4 9739   0.875   3.491  14.784 -0.1864  0.2942 -0.2755
  658MPD2    C5 9740   0.932   3.430  14.887 -0.5994  0.1931  0.4593
  658MPD2     H 9741   0.644   3.671  14.954  0.2425  0.0128 -1.1350
  658MPD2    H1 9742   0.923   3.466  14.690 -1.4992  0.0893 -0.8810
  658MPD2    H2 9743   0.929   3.385  15.090  0.8055 -1.9027 -0.5196
  658MPD2    H3 9744   1.009   3.358  14.863  3.2233  3.3209  3.3624
  658MPD2     N 9745   0.692   3.632  14.717  0.1916 -0.1407  0.5911
  658MPD2    H5 9746   0.617   3.689  14.756 -0.6022 -0.1914 -0.8321
  658MPD2    N1 9747   0.739   3.572  15.174 -0.4383 -0.4264 -0.3693
  658MPD2    H7 9748   0.664   3.640  15.176 -0.1816 -0.0451 -3.3783
  659TMC3    C1 9749   0.681   3.514  15.393  0.6242 -0.3204 -0.3882
  659TMC3    C2 9750   0.724   3.523  15.529  0.0236 -0.0693  0.3573
  659TMC3    C3 9751   0.616   3.544  15.610 -0.8458  0.3342  0.6789
  659TMC3    C4 9752   0.552   3.522  15.350 -0.0944 -0.7990  0.2802
  659TMC3    C5 9753   0.458   3.557  15.438  0.3013  0.0930  0.0945
  659TMC3    C6 9754   0.485   3.567  15.571 -0.2841  0.2292 -0.4508
  659TMC3     C 9755   0.781   3.506  15.286  0.1250 -0.9158  0.5225
  659TMC3     O 9756   0.885   3.441  15.308 -0.1200  0.3668 -0.6827
  659TMC3     H 9757   0.830   3.523  15.553 -0.2102  1.5259  1.3673
  659TMC3    H1 9758   0.524   3.505  15.247  2.7210  3.4457 -1.1608
  659TMC3    H2 9759   0.414   3.604  15.644 -0.0006 -2.3940  1.1718
  659TMC3    C7 9760   0.325   3.593  15.390 -0.5010 -0.0895 -0.3872
  659TMC3    C8 9761   0.649   3.585  15.745  0.0499  0.6021  0.0813
  659TMC3    O1 9762   0.232   3.613  15.464 -0.1205 -0.1104 -0.4095
  659TMC3    O2 9763   0.576   3.674  15.787 -0.1582 -0.0549 -0.2374
  660MPD2     C 9764   3.618   1.635  12.805 -0.0473  0.2752  0.3005
  660MPD2    C1 9765   3.501   1.676  12.734 -0.4099 -0.0595  0.3575
  660MPD2    C2 9766   3.376   1.616  12.760 -0.1578  0.2831  0.1935
  660MPD2    C3 9767   3.364   1.535  12.864 -0.2496  0.3523  0.1994
  660MPD2    C4 9768   3.472   1.520  12.952 -0.4583  0.0251  0.1363
  660MPD2    C5 9769   3.594   1.563  12.918  0.3517 -0.3525  0.2275
  660MPD2     H 9770   3.288   1.644  12.702 -0.6159  1.4456  1.4311
  660MPD2    H1 9771   3.472   1.464  13.045 -1.2077  0.1652  0.2188
  660MPD2    H2 9772   3.720   1.649  12.771  0.2944 -0.5349  1.0115
  660MPD2    H3 9773   3.678   1.531  12.978  0.6602 -2.1864 -1.1862
  660MPD2     N 9774   3.232   1.483  12.902 -0.1460 -0.2555 -0.0975
  660MPD2    H5 9775   3.221   1.447  12.996 -3.8655 -2.2166 -1.2639
  660MPD2    N1 9776   3.526   1.765  12.624  0.1485  0.2151 -0.0010
  660MPD2    H7 9777   3.616   1.810  12.614 -0.1561  0.8114 -0.0616
  661TMC3    C1 9778   3.472   1.909  12.440 -0.2121 -0.4277 -0.0718
  661TMC3    C2 9779   3.593   1.882  12.374  0.0934 -0.4367  1.0217
  661TMC3    C3 9780   3.626   1.954  12.266  0.1919  0.6103  0.1133
  661TMC3    C4 9781   3.383   2.000  12.390  0.2214  0.5929 -0.2358
  661TMC3    C5 9782   3.419   2.066  12.278  0.0284 -1.1798  0.5052
  661TMC3    C6 9783   3.540   2.048  12.220 -0.6593  0.1099 -0.8663
  661TMC3     C 9784   3.430   1.814  12.541  0.0993  0.1524 -0.5441
  661TMC3     O 9785   3.312   1.781  12.530  0.1332 -0.7297  0.3867
  661TMC3     H 9786   3.664   1.802  12.391  0.6923 -0.1949 -0.3080
  661TMC3    H1 9787   3.293   2.017  12.447  0.0517 -2.5473  0.4012
  661TMC3    H2 9788   3.574   2.106  12.135 -0.5544 -0.7062 -1.3818
  661TMC3    C7 9789   3.325   2.158  12.215  0.6536  0.4114  0.4013
  661TMC3    C8 9790   3.738   1.900  12.180  0.1310  0.0374  0.1623
  661TMC3    O1 9791   3.342   2.188  12.098  0.1909  0.0043  0.0801
  661TMC3    O2 9792   3.806   1.814  12.231  0.1955 -0.8311 -0.1087
  662MPD2     C 9793   3.272   2.502  17.238 -0.9156 -0.8361 -0.2656
  662MPD2    C1 9794   3.196   2.418  17.318 -0.5450 -0.0097 -0.0337
  662MPD2    C2 9795   3.109   2.466  17.411  0.1733 -0.2602 -0.4391
  662MPD2    C3 9796   3.098   2.604  17.428  0.4431  0.6501  0.6885
  662MPD2    C4 9797   3.168   2.691  17.343 -0.8493 -0.6733 -0.2196
  662MPD2    C5 9798   3.240   2.637  17.242 -0.3261  0.5311  0.6355
  662MPD2     H 9799   3.059   2.390  17.469  0.5642  1.5574  2.3156
  662MPD2    H1 9800   3.150   2.796  17.361  0.5835 -0.4695  0.0137
  662MPD2    H2 9801   3.342   2.467  17.163  0.0820  1.3499 -0.3541
  662MPD2    H3 9802   3.288   2.705  17.173 -0.6135  1.5165  1.4150
  662MPD2     N 9803   3.020   2.666  17.525 -0.2370 -0.5450  0.3236
  662MPD2    H5 9804   3.020   2.767  17.513 -2.3199 -0.3848  1.7772
  662MPD2    N1 9805   3.226   2.277  17.327  0.5580  0.8713 -0.0523
  662MPD2    H7 9806   3.173   2.225  17.397 -0.2999  0.3499 -1.0806
  663TMC3    C1 9807   3.353   2.091  17.339  0.2542  1.2705 -0.5314
  663TMC3    C2 9808   3.343   2.102  17.476 -0.5415  0.2704 -0.6894
  663TMC3    C3 9809   3.319   1.998  17.558 -0.4817 -1.2877 -0.4692
  663TMC3    C4 9810   3.340   1.974  17.279 -0.1057 -0.3224 -0.4508
  663TMC3    C5 9811   3.308   1.866  17.367 -0.0904  0.1576  0.1204
  663TMC3    C6 9812   3.302   1.871  17.498 -0.0784 -0.5712  0.0449
  663TMC3     C 9813   3.321   2.213  17.260 -0.3562 -0.7260 -0.3979
  663TMC3     O 9814   3.347   2.215  17.136 -0.5728  0.3642  0.3656
  663TMC3     H 9815   3.383   2.195  17.514  1.6665 -0.7530 -0.5502
  663TMC3    H1 9816   3.348   1.971  17.171  0.5470 -1.1548 -0.3765
  663TMC3    H2 9817   3.244   1.799  17.555 -0.9261 -0.9655 -1.2934
  663TMC3    C7 9818   3.308   1.739  17.295  0.0518 -0.6205  0.0053
  663TMC3    C8 9819   3.198   2.034  17.630  0.5015 -0.5601 -0.2047
  663TMC3    O1 9820   3.360   1.748  17.180  0.0121  0.0573  0.1612
  663TMC3    O2 9821   3.137   2.124  17.571  0.5463 -0.0860 -0.5702
  664MPD2     C 9822   1.557   4.711   0.308  0.8198  0.0184  0.3485
  664MPD2    C1 9823   1.567   0.126   0.325 -0.2152 -0.1523  0.3372
  664MPD2    C2 9824   1.553   0.189   0.442  0.6650  0.4042 -0.5038
  664MPD2    C3 9825   1.538   0.112   0.555 -0.5763  0.2955  0.0934
  664MPD2    C4 9826   1.523   4.699   0.543 -0.4130 -0.0099 -0.8838
  664MPD2    C5 9827   1.536   4.638   0.420  0.5002  0.0872  0.2087
  664MPD2     H 9828   1.550   0.296   0.458 -0.0125  0.2685  0.2777
  664MPD2    H1 9829   1.503   4.630   0.624 -0.6796 -1.5417 -2.2847
  664MPD2    H2 9830   1.558   4.658   0.214 -0.9835  0.6070 -0.0024
  664MPD2    H3 9831   1.533   4.530   0.421 -0.6885  0.1116 -1.0853
  664MPD2     N 9832   1.543   0.179   0.686 -0.5810 -0.2803  0.8566
  664MPD2    H5 9833   1.557   0.279   0.687 -1.0922 -0.2161  1.4019
  664MPD2    N1 9834   1.585   0.210   0.212 -0.0907 -0.3421  0.9923
  664MPD2    H7 9835   1.615   0.302   0.243  1.7215 -0.6754  0.1902
  665TMC3    C1 9836   1.528   0.203   0.922  0.4665 -0.6561 -0.3658
  665TMC3    C2 9837   1.536   0.142   1.046  0.1568  1.0200 -0.9775
  665TMC3    C3 9838   1.533   0.219   1.159 -0.6524  0.5115  0.2129
  665TMC3    C4 9839   1.510   0.335   0.900  0.2883 -0.2535 -1.3589
  665TMC3    C5 9840   1.497   0.403   1.018 -0.9524  0.6840 -1.0809
  665TMC3    C6 9841   1.499   0.348   1.144  0.4436  0.5920  1.0167
  665TMC3     C 9842   1.525   0.114   0.805  0.0217  0.4116 -0.9622
  665TMC3     O 9843   1.501   4.721   0.824 -0.1762  0.1944 -0.8285
  665TMC3     H 9844   1.557   0.036   1.059  0.3449  1.2918  0.9842
  665TMC3    H1 9845   1.479   0.375   0.805 -2.3178 -0.6497 -0.6727
  665TMC3    H2 9846   1.485   0.401   1.237 -0.9244  1.3844  0.3492
  665TMC3    C7 9847   1.477   0.547   1.007  0.0907 -0.3935 -0.6448
  665TMC3    C8 9848   1.557   0.169   1.292 -0.1159 -1.0917 -0.3417
  665TMC3    O1 9849   1.459   0.588   0.892 -0.3956 -0.2890  0.0118
  665TMC3    O2 9850   1.596   0.255   1.368 -0.3143 -0.0210  0.2623
  666TMC3    C1 9851   1.054   4.080  10.270 -0.5714  0.2481 -0.2666
  666TMC3    C2 9852   1.124   4.014  10.364  0.9219  0.0275 -0.1289
  666TMC3    C3 9853   1.245   4.060  10.395 -0.1264 -0.1120  0.0784
  666TMC3    C4 9854   1.111   4.169  10.190 -0.0248  0.4905  0.1202
  666TMC3    C5 9855   1.234   4.224  10.226  0.7498 -0.3757 -0.1023
  666TMC3    C6 9856   1.301   4.162  10.325 -0.1322  0.3366 -0.0629
  666TMC3     C 9857   0.915   4.039  10.253  0.2096  0.1677  0.1605
  666TMC3     O 9858   0.875   4.036  10.137 -0.1511  0.5616  0.1727
  666TMC3     H 9859   1.080   3.936  10.425 -0.3555  0.0362 -1.0380
  666TMC3    H1 9860   1.047   4.215  10.115  0.9612  1.5899 -0.0416
  666TMC3    H2 9861   1.396   4.193  10.366  0.6930 -1.2624 -0.7492
  666TMC3    C7 9862   1.250   4.368  10.214  0.4889 -0.2084  0.6117
  666TMC3    C8 9863   1.300   4.010  10.518  0.7141  0.7903 -0.5753
  666TMC3    O1 9864   1.166   4.422  10.146 -0.5997  0.0914 -0.0092
  666TMC3    O2 9865   1.226   4.011  10.612  0.2931  0.0085 -0.1817
  667MPD2     C 9866   1.551   0.539  14.906 -0.0403  0.0595  0.0093
  667MPD2    C1 9867   1.599   0.411  14.935  0.6316 -0.6191  0.4089
  667MPD2    C2 9868   1.526   0.302  14.885  0.0062 -0.6019  0.3936
  667MPD2    C3 9869   1.411   0.315  14.819 -0.2953  0.4078 -0.5424
  667MPD2    C4 9870   1.374   0.445  14.784  0.2631 -0.2954 -0.5795
  667MPD2    C5 9871   1.440   0.556  14.828  0.5829  0.1718  0.2724
  667MPD2     H 9872   1.562   0.203  14.911  1.8100 -0.7994 -2.8887
  667MPD2    H1 9873   1.287   0.461  14.722  1.1978 -0.1638 -1.8511
  667MPD2    H2 9874   1.608   0.627  14.933  0.3211  0.3479 -1.7243
  667MPD2    H3 9875   1.411   0.656  14.797 -0.0772  0.4478  1.7725
  667MPD2     N 9876   1.356   0.194  14.762 -0.0151 -0.5068  0.7859
  667MPD2    H5 9877   1.375   0.104  14.805 -1.8760 -0.3249  1.9538
  667MPD2    N1 9878   1.718   0.376  15.002 -0.8289 -0.1086  0.4811
  667MPD2    H7 9879   1.729   0.279  15.029  1.7070 -0.6735 -2.6169
  668TMC3    C1 9880   1.933   0.414  15.106 -0.2506  0.0659  0.4773
  668TMC3    C2 9881   2.039   0.491  15.109  0.5985 -0.0403 -0.1809
  668TMC3    C3 9882   2.146   0.454  15.186  1.0315 -0.9170  0.1960
  668TMC3    C4 9883   1.922   0.307  15.203 -0.5351 -0.4304  0.3481
  668TMC3    C5 9884   2.021   0.286  15.293 -0.1646  0.0450  0.1786
  668TMC3    C6 9885   2.138   0.354  15.276  0.4874  0.6626 -0.1726
  668TMC3     C 9886   1.816   0.467  15.041 -0.3865 -0.4616 -0.3733
  668TMC3     O 9887   1.825   0.578  14.998  0.1967  0.3074 -0.4373
  668TMC3     H 9888   2.048   0.577  15.044  2.0957  1.1401  1.5899
  668TMC3    H1 9889   1.841   0.235  15.196  0.1105 -0.9813 -1.3936
  668TMC3    H2 9890   2.223   0.326  15.338 -0.0304 -2.6717 -0.9807
  668TMC3    C7 9891   2.009   0.174  15.386  0.3725  0.4391  0.2444
  668TMC3    C8 9892   2.255   0.546  15.200 -0.3684  0.0723 -0.9636
  668TMC3    O1 9893   2.111   0.138  15.445 -0.1939  0.4043 -0.3025
  668TMC3    O2 9894   2.309   0.551  15.310  0.3169 -0.1171  0.3703
  669TMC3    C1 9895   0.477   0.209  14.443  0.5196  0.3198 -0.0129
  669TMC3    C2 9896   0.349   0.225  14.389 -0.0662  0.2684 -0.2927
  669TMC3    C3 9897   0.319   0.331  14.306 -0.5538  0.0822 -0.0150
  669TMC3    C4 9898   0.578   0.293  14.404 -0.2411  0.1859 -0.5546
  669TMC3    C5 9899   0.547   0.385  14.314 -0.3520  0.0815  1.0583
  669TMC3    C6 9900   0.421   0.412  14.261 -0.2626  0.4055  0.2689
  669TMC3     C 9901   0.481   0.138  14.564  0.1821  0.1039 -0.7751
  669TMC3     O 9902   0.386   0.072  14.599  0.5116  0.2688 -0.4709
  669TMC3     H 9903   0.265   0.167  14.425  0.6532  0.7034  2.0622
  669TMC3    H1 9904   0.680   0.291  14.442 -0.2152 -0.5432 -0.6755
  669TMC3    H2 9905   0.394   0.505  14.212  2.8163  0.9941 -0.3227
  669TMC3    C7 9906   0.637   0.501  14.310  0.3335  0.4999 -1.0467
  669TMC3    C8 9907   0.182   0.344  14.256  0.2052 -0.6530  0.0147
  669TMC3    O1 9908   0.700   0.526  14.414 -0.4989  1.0513  0.1901
  669TMC3    O2 9909   0.109   0.247  14.286  0.0560 -0.3434 -0.1247
  670MPD2     C 9910   3.577   2.675  13.455  0.4347  0.1495  0.0798
  670MPD2    C1 9911   3.611   2.688  13.589  0.8292  0.5186 -0.5066
  670MPD2    C2 9912   3.529   2.627  13.684 -0.2304  0.0625 -0.6680
  670MPD2    C3 9913   3.421   2.545  13.655 -0.8967  0.1223 -0.9873
  670MPD2    C4 9914   3.404   2.512  13.522  0.7426  0.4982 -0.4833
  670MPD2    C5 9915   3.480   2.577  13.428  0.4762 -0.0842 -0.1853
  670MPD2     H 9916   3.548   2.640  13.790  1.1827  1.4268 -1.0870
  670MPD2    H1 9917   3.330   2.446  13.479  0.9515 -1.4344  2.1205
  670MPD2    H2 9918   3.640   2.712  13.375 -0.9132  0.4270 -0.8590
  670MPD2    H3 9919   3.461   2.545  13.326  0.2171  0.8265 -0.4225
  670MPD2     N 9920   3.333   2.505  13.753  0.4051 -0.6355  0.6380
  670MPD2    H5 9921   3.360   2.539  13.844 -0.5507  0.5551  0.4796
  670MPD2    N1 9922   3.736   2.752  13.628  0.8763  0.0648 -0.2070
  670MPD2    H7 9923   3.757   2.736  13.726 -0.7463  0.6018  0.2372
  671TMC3    C1 9924   3.149   2.408  13.848 -0.0533 -0.0472  0.6074
  671TMC3    C2 9925   3.197   2.360  13.967 -0.4519 -0.8439 -0.1934
  671TMC3    C3 9926   3.116   2.267  14.025 -0.6292 -0.5726  0.3821
  671TMC3    C4 9927   3.022   2.383  13.813  0.9379 -0.2115  0.8508
  671TMC3    C5 9928   2.935   2.303  13.884  0.2602 -0.0218  0.4900
  671TMC3    C6 9929   2.992   2.241  13.995 -0.0274 -0.2523 -0.2964
  671TMC3     C 9930   3.235   2.411  13.737  0.2384 -0.1294  0.3904
  671TMC3     O 9931   3.211   2.334  13.643  0.4320 -0.2254 -0.1972
  671TMC3     H 9932   3.303   2.341  13.979 -0.2814  0.7589  0.9654
  671TMC3    H1 9933   2.988   2.426  13.720 -0.2650 -0.6352  1.0936
  671TMC3    H2 9934   2.938   2.164  14.048  2.7439 -3.4943 -2.2466
  671TMC3    C7 9935   2.862   2.221  13.792  0.2087  0.6738 -0.0971
  671TMC3    C8 9936   3.180   2.168  14.114 -0.7627 -0.4441  0.7244
  671TMC3    O1 9937   2.882   2.230  13.670 -0.4233  0.0350 -0.1340
  671TMC3    O2 9938   3.132   2.060  14.125 -0.5992  0.0750 -0.3420
  672MPD2     C 9939   3.581   2.941   1.115  1.1919 -0.0032  0.0785
  672MPD2    C1 9940   3.706   2.895   1.098 -0.0490 -0.3306 -0.3694
  672MPD2    C2 9941   3.814   2.966   1.147  0.1368 -0.3506 -0.6352
  672MPD2    C3 9942   3.800   3.084   1.209  0.7259 -0.0446  0.9476
  672MPD2    C4 9943   3.673   3.129   1.227 -0.3494 -0.3089 -0.3131
  672MPD2    C5 9944   3.561   3.055   1.186 -0.2271 -0.4251 -0.2188
  672MPD2     H 9945   3.913   2.925   1.128  0.2688 -0.5244  0.4276
  672MPD2    H1 9946   3.649   3.222   1.277  1.5294 -0.6561  1.2152
  672MPD2    H2 9947   3.490   2.888   1.090  0.4876  1.4787 -0.5118
  672MPD2    H3 9948   3.460   3.082   1.216 -0.8292 -0.0993 -2.5879
  672MPD2     N 9949   3.903   3.179   1.240  0.5050  0.5372  0.5481
  672MPD2    H5 9950   3.872   3.264   1.285  0.5530  0.6241  0.4165
  672MPD2    N1 9951   3.733   2.781   1.015  0.2304 -0.5354  0.6259
  672MPD2    H7 9952   3.830   2.753   1.001  0.8612  0.3333  3.3155
  673TMC3    C1 9953   3.703   2.641   0.840  0.0999 -0.4973  0.0591
  673TMC3    C2 9954   3.815   2.562   0.867 -0.1675  0.3494  0.2243
  673TMC3    C3 9955   3.879   2.497   0.768  0.4014 -0.6065 -0.3575
  673TMC3    C4 9956   3.650   2.654   0.715  0.0497  0.5934 -1.0515
  673TMC3    C5 9957   3.726   2.593   0.616 -0.2982 -0.0855 -0.3491
  673TMC3    C6 9958   3.832   2.515   0.641 -0.2709  0.4457 -0.1902
  673TMC3     C 9959   3.634   2.716   0.943  0.2345 -0.5073  0.1701
  673TMC3     O 9960   3.514   2.740   0.920  0.1521 -0.2020 -0.0219
  673TMC3     H 9961   3.841   2.544   0.970  0.0836 -1.9628 -0.2315
  673TMC3    H1 9962   3.556   2.698   0.681 -1.1943 -0.8502  0.5411
  673TMC3    H2 9963   3.889   2.462   0.566 -0.5654 -1.8699  1.2194
  673TMC3    C7 9964   3.715   2.644   0.482 -0.9264 -0.6261 -0.3162
  673TMC3    C8 9965   3.993   2.408   0.793  0.0751  0.2046  0.2683
  673TMC3    O1 9966   3.702   2.563   0.391  0.3116 -0.3117  0.4226
  673TMC3    O2 9967   4.023   2.333   0.702 -0.3715 -0.0639  0.5102
  674MPD2     C 9968   3.353   3.009  17.696 -0.5740  0.1386  0.5613
  674MPD2    C1 9969   3.349   2.906   0.081 -0.3844  0.6272 -0.7541
  674MPD2    C2 9970   3.329   2.926   0.216 -0.1141 -0.0390 -0.2007
  674MPD2    C3 9971   3.333   3.050   0.270  0.1910 -0.3335  0.4877
  674MPD2    C4 9972   3.350   3.163   0.189  0.4489  0.3692 -0.7242
  674MPD2    C5 9973   3.357   3.135   0.052 -0.5665  0.2993 -0.7149
  674MPD2     H 9974   3.329   2.846   0.290  1.0724  0.6405  0.5367
  674MPD2    H1 9975   3.363   3.267   0.214 -0.2203  0.2000  0.3335
  674MPD2    H2 9976   3.350   2.991  17.589 -1.2388 -0.2635  0.6410
  674MPD2    H3 9977   3.378   3.217  17.684  1.0526  0.0700 -0.4907
  674MPD2     N 9978   3.330   3.056   0.406  0.9487 -0.6613 -0.0122
  674MPD2    H5 9979   3.330   2.969   0.458  0.5897  0.8691  2.5748
  674MPD2    N1 9980   3.362   2.768   0.028  0.0798 -0.2511  0.2925
  674MPD2    H7 9981   3.356   2.707   0.109  1.4432  0.7309  1.1352
  675TMC3    C1 9982   3.428   2.584  17.595  0.0024  0.6718  0.2462
  675TMC3    C2 9983   3.330   2.503  17.657 -0.0132 -0.2457  0.4524
  675TMC3    C3 9984   3.373   2.384   0.010  0.3499 -0.4394  0.4963
  675TMC3    C4 9985   3.553   2.539  17.570  0.1392  0.0411 -0.2426
  675TMC3    C5 9986   3.591   2.426  17.641 -0.2136 -0.2169  0.4826
  675TMC3    C6 9987   3.501   2.343   0.002 -0.3408 -0.0194  0.5712
  675TMC3     C 9988   3.400   2.724  17.600 -0.1082  0.1525 -0.0584
  675TMC3     O 9989   3.457   2.787  17.514 -0.0137 -0.3972  0.2217
  675TMC3     H 9990   3.233   2.544  17.679 -1.0167 -1.9784 -0.7356
  675TMC3    H1 9991   3.620   2.607  17.518  1.8532  0.1130  2.0961
  675TMC3    H2 9992   3.531   2.254   0.056  0.0091 -0.3648 -0.2079
  675TMC3    C7 9993   3.712   2.461   0.019 -0.4365 -0.4679 -0.1683
  675TMC3    C8 9994   3.308   2.330   0.130 -0.5822 -0.2673  0.3292
  675TMC3    O1 9995   3.752   2.575   0.003  0.2724  0.4047 -0.2747
  675TMC3    O2 9996   3.371   2.264   0.211  0.0653  0.6313 -0.3060
  676MPD2     C 9997   1.752   0.976  11.138  0.4106  0.5309 -0.3124
  676MPD2    C1 9998   1.667   0.916  11.227  0.1342 -0.3400 -0.2743
  676MPD2    C2 9999   1.649   0.781  11.226 -0.1980 -0.3148 -0.2635
  676MPD2    C310000   1.735   0.700  11.154 -0.0179 -0.0341  0.4759
  676MPD2    C410001   1.829   0.762  11.070  0.3985  0.4143  0.6647
  676MPD2    C510002   1.833   0.896  11.062 -0.4145 -0.2185 -0.1431
  676MPD2     H10003   1.565   0.747  11.285 -1.1492 -0.1023 -1.5005
  676MPD2    H110004   1.909   0.712  11.018 -0.7559 -0.3586 -0.3599
  676MPD2    H210005   1.771   1.083  11.131  2.2041  0.2129 -0.2674
  676MPD2    H310006   1.896   0.943  10.988 -1.2863  0.5019 -0.4252
  676MPD2     N10007   1.730   0.561  11.151 -0.5646  0.1785 -0.3896
  676MPD2    H510008   1.788   0.512  11.083  0.0370 -0.1467  0.3673
  676MPD2    N110009   1.583   0.989  11.313 -0.2346 -0.2115 -0.1233
  676MPD2    H710010   1.516   0.938  11.370 -0.9257  0.3969 -0.3928
  677TMC3    C110011   1.489   1.189  11.390  0.3857 -0.2510  0.5796
  677TMC3    C210012   1.373   1.129  11.394  0.5178 -0.1160 -0.1467
  677TMC3    C310013   1.273   1.187  11.462  0.5870  0.0704  0.0752
  677TMC3    C410014   1.514   1.307  11.453  0.5705 -0.3512  0.4474
  677TMC3    C510015   1.408   1.371  11.508  0.0160  0.3726 -0.4802
  677TMC3    C610016   1.280   1.320  11.505  0.6303 -0.0039  0.1204
  677TMC3     C10017   1.602   1.124  11.328 -0.3171  0.6296  0.4545
  677TMC3     O10018   1.699   1.195  11.304 -0.7275 -0.2300 -0.2326
  677TMC3     H10019   1.352   1.028  11.360 -0.1860 -0.9827  2.9395
  677TMC3    H110020   1.614   1.347  11.455 -0.0968  1.3618 -0.2535
  677TMC3    H210021   1.191   1.363  11.551  0.9042 -1.2100  1.7556
  677TMC3    C710022   1.430   1.459  11.624  0.0814  0.0991 -0.7737
  677TMC3    C810023   1.149   1.117  11.477  0.7002 -0.6565  0.2369
  677TMC3    O110024   1.341   1.456  11.708  0.0862  0.1181  0.0116
  677TMC3    O210025   1.122   1.046  11.381 -0.4625 -0.1245 -0.2433
  678MPD2     C10026   2.487   1.421   1.851 -0.3552 -0.4101 -0.2788
  678MPD2    C110027   2.496   1.360   1.728  0.6151  0.2400  0.2481
  678MPD2    C210028   2.379   1.323   1.665 -0.1407 -0.5728  0.1046
  678MPD2    C310029   2.258   1.353   1.717  0.5714  0.5617 -0.3597
  678MPD2    C410030   2.242   1.421   1.841  0.6002  0.3590 -0.0973
  678MPD2    C510031   2.359   1.450   1.908  0.5504 -0.3294  1.0275
  678MPD2     H10032   2.391   1.268   1.572 -1.9114 -0.1409 -0.3750
  678MPD2    H110033   2.153   1.442   1.898 -1.4755 -0.6817 -2.9311
  678MPD2    H210034   2.572   1.439   1.917 -1.0577 -0.9058  0.7555
  678MPD2    H310035   2.346   1.494   2.007 -1.2813  0.1310  0.5689
  678MPD2     N10036   2.150   1.331   1.636 -0.0353  0.2824 -0.1249
  678MPD2    H510037   2.173   1.278   1.553 -1.0701 -1.8264  0.9488
  678MPD2    N110038   2.620   1.331   1.677  1.1988  0.0850 -0.6052
  678MPD2    H710039   2.619   1.284   1.587  0.3394 -1.7757  0.3726
  679TMC3    C110040   2.972   1.160   1.547 -0.0055 -0.5117  0.6140
  679TMC3    C210041   2.866   1.200   1.617 -0.4718  0.3875 -0.2766
  679TMC3    C310042   2.846   1.335   1.638 -0.1997  0.0066  0.0213
  679TMC3    C410043   3.055   1.255   1.488 -0.5582  0.6517  0.4981
  679TMC3    C510044   3.040   1.383   1.536  0.3021 -0.1489 -0.5565
  679TMC3    C610045   2.933   1.431   1.603 -0.4617  0.0080  0.1437
  679TMC3     C10046   2.980   1.023   1.504  0.0353 -0.1569  0.0236
  679TMC3     O10047   3.088   0.992   1.460 -0.7428 -0.7674 -0.2363
  679TMC3     H10048   2.795   1.130   1.662 -2.2549  1.7066 -1.0385
  679TMC3    H110049   3.137   1.210   1.434  0.2707  2.3813  0.3117
  679TMC3    H210050   2.919   1.537   1.622  2.7272  0.5439 -0.5694
  679TMC3    C710051   3.097   1.482   1.447  0.3489  0.2696 -0.9115
  679TMC3    C810052   2.745   1.384   1.715 -0.1399  0.3339 -0.3432
  679TMC3    O110053   3.017   1.576   1.430 -0.4048 -0.2411 -0.0573
  679TMC3    O210054   2.774   1.477   1.795 -0.0137  0.0039 -0.3226
  680MPD2     C10055   3.956   4.035  14.011  0.9045 -0.5326 -0.7990
  680MPD2    C110056   3.827   4.063  14.047 -0.0006 -0.2041 -0.4821
  680MPD2    C210057   3.786   4.197  14.065 -0.0504 -0.7585 -0.1101
  680MPD2    C310058   3.864   4.307  14.041 -0.1380 -0.2923 -1.1583
  680MPD2    C410059   3.996   4.277  14.014 -0.3074  0.8624  0.8746
  680MPD2    C510060   4.033   4.143  13.997 -0.4823  0.1077  0.4530
  680MPD2     H10061   3.683   4.215  14.093  0.5482  0.1286  1.5115
  680MPD2    H110062   4.074   4.352  14.001  0.9626 -0.6182 -0.0065
  680MPD2    H210063   4.001   3.936  14.013 -1.0278 -1.3977  0.1322
  680MPD2    H310064   4.137   4.120  13.978 -0.3824  0.5634  0.4661
  680MPD2     N10065   3.822   4.440  14.043 -0.4035 -0.5411  0.3776
  680MPD2    H510066   3.888   4.503  14.000  0.4229 -0.6110  1.5493
  680MPD2    N110067   3.719   3.970  14.074 -0.3190  0.2274  0.7237
  680MPD2    H710068   3.632   4.008  14.110 -0.6201 -0.2326  0.4695
  681TMC3    C110069   3.599   3.774  14.080 -0.5535 -0.0319 -0.2323
  681TMC3    C210070   3.500   3.833  14.143 -0.3119  0.6063  0.4691
  681TMC3    C310071   3.369   3.788  14.120 -0.0022 -0.4952 -0.1442
  681TMC3    C410072   3.572   3.690  13.971 -0.1865 -0.2333 -0.4391
  681TMC3    C510073   3.439   3.655  13.941  0.6007 -0.3591  0.2066
  681TMC3    C610074   3.338   3.701  14.018 -0.2041 -0.1034 -0.5219
  681TMC3     C10075   3.729   3.836  14.064  0.1411  0.3538  0.7344
  681TMC3     O10076   3.817   3.762  14.014 -0.5344 -0.3624  0.3658
  681TMC3     H10077   3.524   3.898  14.227  1.1366  1.3916 -0.5509
  681TMC3    H110078   3.649   3.646  13.909 -1.0175  0.0344 -1.6740
  681TMC3    H210079   3.239   3.661  13.997  0.4338 -2.3640  0.7694
  681TMC3    C710080   3.393   3.664  13.806 -0.7503  0.0652 -0.0338
  681TMC3    C810081   3.267   3.820  14.215  0.1115  0.1061  0.0354
  681TMC3    O110082   3.303   3.592  13.760  0.1035  0.5632 -0.2913
  681TMC3    O210083   3.177   3.740  14.233  0.0496  0.1212  0.3102
  682MPD2     C10084   0.735   0.857  10.602 -0.9618  0.1900 -0.3550
  682MPD2    C110085   0.704   0.725  10.631 -1.1922  0.1391  0.0716
  682MPD2    C210086   0.647   0.689  10.752  0.5737 -0.4293 -0.0804
  682MPD2    C310087   0.623   0.780  10.850  0.0875  0.1337 -0.0448
  682MPD2    C410088   0.645   0.914  10.821 -0.3163 -1.2060  0.7128
  682MPD2    C510089   0.693   0.952  10.693  0.6499  0.5751  1.0246
  682MPD2     H10090   0.630   0.585  10.779  0.5376 -0.2435  0.6058
  682MPD2    H110091   0.608   0.987  10.892 -1.0321  0.2444 -1.1351
  682MPD2    H210092   0.775   0.886  10.505  1.8715  0.7157  0.9771
  682MPD2    H310093   0.711   1.056  10.670 -0.4276  0.0717 -2.0310
  682MPD2     N10094   0.574   0.750  10.977  0.2567 -0.1929 -0.8184
  682MPD2    H510095   0.582   0.818  11.051 -0.0206 -0.2792 -0.7096
  682MPD2    N110096   0.721   0.618  10.543  0.3328 -0.4426  0.7536
  682MPD2    H710097   0.674   0.532  10.568 -2.2945  1.0743  0.9608
  683TMC3    C110098   0.610   0.665  11.376 -0.5045 -0.2773  0.0201
  683TMC3    C210099   0.546   0.559  11.429 -1.2518  0.1842  0.4711
  683TMC3    C310100   0.473   0.481  11.338 -0.3551  0.2153 -0.2490
  683TMC3    C410101   0.588   0.692  11.243  0.4176  0.8632 -0.9833
  683TMC3    C510102   0.518   0.605  11.160 -0.2906 -0.3952 -0.3583
  683TMC3    C610103   0.456   0.496  11.206 -0.4037 -0.4667 -0.5693
  683TMC3     C10104   0.640   0.780  11.454 -0.7046 -0.2788 -0.3964
  683TMC3     O10105   0.602   0.886  11.406 -0.1179 -0.0999  0.4902
  683TMC3     H10106   0.541   0.550  11.537  0.6941  1.0491  0.6277
  683TMC3    H110107   0.635   0.781  11.203  2.3557 -0.4497 -1.6091
  683TMC3    H210108   0.415   0.421  11.140 -2.5425  0.4288 -0.2687
  683TMC3    C710109   0.524   0.626  11.021 -1.0594 -0.1220 -0.7918
  683TMC3    C810110   0.427   0.350  11.393 -0.5505 -0.6061 -0.1906
  683TMC3    O110111   0.488   0.533  10.951 -0.2854  0.0616  0.5444
  683TMC3    O210112   0.330   0.294  11.345 -0.0226  0.2467 -0.0344
  684MPD2     C10113   3.628   0.407  16.942  0.3298  0.0600 -0.4774
  684MPD2    C110114   3.601   0.460  16.817 -0.4464 -0.1501 -0.3326
  684MPD2    C210115   3.490   0.545  16.807 -0.2709 -0.0511 -0.7951
  684MPD2    C310116   3.416   0.585  16.917 -0.0672  0.5851 -0.5909
  684MPD2    C410117   3.459   0.544  17.041  0.4794 -0.0502 -0.2179
  684MPD2    C510118   3.560   0.456  17.048 -0.1322  0.0007 -0.0659
  684MPD2     H10119   3.487   0.594  16.711 -0.9645  1.0937 -0.1999
  684MPD2    H110120   3.421   0.582  17.136 -0.9727 -2.9059  0.3346
  684MPD2    H210121   3.719   0.352  16.960  0.2100 -0.1030 -0.3747
  684MPD2    H310122   3.585   0.409  17.143 -3.0101 -1.4364 -0.0225
  684MPD2     N10123   3.327   0.694  16.911 -0.2076  0.6241 -0.1914
  684MPD2    H510124   3.304   0.751  16.992 -0.8079  0.8255 -0.4979
  684MPD2    N110125   3.675   0.445  16.700  0.9636  0.1764 -0.0011
  684MPD2    H710126   3.627   0.477  16.616  1.8469  1.6799  0.0569
  685TMC3    C110127   3.886   0.434  16.579 -0.2227 -0.2281  0.4242
  685TMC3    C210128   3.822   0.468  16.462 -0.5864 -0.0791 -0.5888
  685TMC3    C310129   3.909   0.522  16.368  0.0031  0.5520 -0.2411
  685TMC3    C410130   4.019   0.445  16.598 -0.0648  0.0604 -0.7409
  685TMC3    C510131   4.095   0.500  16.502 -0.3987  0.1900 -0.0152
  685TMC3    C610132   4.045   0.539  16.382 -0.4836 -0.3077  0.1064
  685TMC3     C10133   3.810   0.402  16.696 -0.0505  0.1078 -0.4493
  685TMC3     O10134   3.877   0.363  16.788 -0.0653 -0.1889 -0.1036
  685TMC3     H10135   3.715   0.459  16.449 -0.7398  0.8844  0.0050
  685TMC3    H110136   4.067   0.414  16.690 -0.5911 -0.3911 -0.6154
  685TMC3    H210137   4.107   0.565  16.298 -3.1021  1.9639 -1.1122
  685TMC3    C710138   4.234   0.476  16.530 -0.4953 -0.3698 -0.3207
  685TMC3    C810139   3.861   0.514  16.229  0.1011 -0.5771  0.8581
  685TMC3    O110140   4.277   0.368  16.577  0.2452  0.2586  0.1883
  685TMC3    O210141   3.939   0.523  16.134  0.1625  0.7999 -0.0850
  686MPD2     C10142   0.171   0.241  15.557  0.1313 -0.9299 -0.2203
  686MPD2    C110143   0.222   0.247  15.683  0.3028  0.0294  0.2002
  686MPD2    C210144   0.316   0.163  15.722 -0.5700 -0.4075 -0.7638
  686MPD2    C310145   0.357   0.061  15.632  1.0141 -0.3782 -0.0738
  686MPD2    C410146   0.303   0.060  15.501 -0.4897  0.5670 -0.5644
  686MPD2    C510147   0.212   0.149  15.463 -0.0842  0.9731  0.1708
  686MPD2     H10148   0.365   0.167  15.818 -3.3828 -1.2067  0.7019
  686MPD2    H110149   0.323   4.708  15.427  0.9170 -0.5985  1.0053
  686MPD2    H210150   0.090   0.306  15.525  1.1560  0.6477  0.3696
  686MPD2    H310151   0.153   0.145  15.372 -1.2955 -2.4494  1.1069
  686MPD2     N10152   0.446   4.685  15.649 -0.5855 -0.4837  0.1195
  686MPD2    H510153   0.478   4.642  15.563  1.0742 -0.4185  0.7001
  686MPD2    N110154   0.167   0.333  15.767  0.7141  0.3753  0.0782
  686MPD2    H710155   0.086   0.374  15.723  0.4823 -0.6349 -0.4348
  687TMC3    C110156   0.451   4.665  15.889  0.2993  0.0655 -0.2934
  687TMC3    C210157   0.315   4.644  15.893  0.2321 -0.6182 -0.4134
  687TMC3    C310158   0.250   4.620  16.021 -0.1051 -0.4346  0.0754
  687TMC3    C410159   0.524   4.629  16.002  0.6455 -0.5916  0.2738
  687TMC3    C510160   0.454   4.596  16.113 -0.5635  0.5253  1.1901
  687TMC3    C610161   0.320   4.583  16.127  0.0556  0.1685 -0.0025
  687TMC3     C10162   0.520   4.664  15.763 -0.6086  0.5490 -0.5098
  687TMC3     O10163   0.629   4.611  15.763  0.2094  0.1402  0.0216
  687TMC3     H10164   0.252   4.651  15.806  1.7013 -2.2346 -1.6248
  687TMC3    H110165   0.628   4.657  16.009  0.9010 -0.9524 -2.2334
  687TMC3    H210166   0.276   4.562  16.224 -0.8958 -1.6395 -0.8198
  687TMC3    C710167   0.527   4.574  16.241  0.9873  0.0869  0.8618
  687TMC3    C810168   0.108   4.623  16.038 -0.1441 -0.5509 -0.6299
  687TMC3    O110169   0.464   4.594  16.347 -0.1524 -0.6253  0.0450
  687TMC3    O210170   0.058   4.538  16.112 -0.4496 -0.3943 -0.1727
  688MPD2     C10171   4.685   4.084  17.619  0.0426  0.1936 -0.1940
  688MPD2    C110172   4.651   3.952  17.604  0.0444  0.2790 -0.0191
  688MPD2    C210173   4.708   3.884  17.499 -0.1966 -0.4365 -0.4449
  688MPD2    C310174   0.066   3.949  17.410 -0.1362  0.2535 -0.0354
  688MPD2    C410175   0.097   4.082  17.430 -0.4386  0.1284  0.1704
  688MPD2    C510176   0.052   4.150  17.539  0.6219 -0.0361 -0.0933
  688MPD2     H10177   4.688   3.778  17.484 -0.8924 -0.5987  1.7174
  688MPD2    H110178   0.166   4.131  17.362  0.6420 -0.5527  0.7926
  688MPD2    H210179   4.640   4.146  17.696  1.7375  0.6131  0.4683
  688MPD2    H310180   0.082   4.253  17.553 -1.6590  0.6280 -0.0250
  688MPD2     N10181   0.118   3.890  17.284 -0.0401 -0.3459  0.9263
  688MPD2    H510182   0.168   3.955  17.224  0.2851 -1.9691 -0.5717
  688MPD2    N110183   4.542   3.893  17.681 -0.4218  0.3654  0.2069
  688MPD2    H710184   4.533   3.792  17.681 -0.0520  0.3294  0.0755
  689TMC3    C110185   4.364   3.867   0.141 -0.0101 -0.8845  0.6885
  689TMC3    C210186   4.250   3.928   0.179 -0.2433 -0.0210  0.3957
  689TMC3    C310187   4.151   3.842   0.217 -0.1259  0.2816 -0.0963
  689TMC3    C410188   4.384   3.730   0.134  0.0223 -0.4117 -0.4709
  689TMC3    C510189   4.282   3.649   0.174 -0.8686 -0.0906 -0.5592
  689TMC3    C610190   4.160   3.702   0.211  0.4104 -0.2455 -0.1959
  689TMC3     C10191   4.468   3.956   0.084  0.2410  0.1663  1.0639
  689TMC3     O10192   4.461   4.077   0.110  0.3658  0.5676 -0.6196
  689TMC3     H10193   4.250   4.033   0.206  0.1969 -0.3809  1.7969
  689TMC3    H110194   4.478   3.678   0.119  0.2189 -0.2311  0.1562
  689TMC3    H210195   4.087   3.646   0.268  1.9875  0.5358  2.6080
  689TMC3    C710196   4.292   3.506   0.160 -0.0651  0.2684 -0.6296
  689TMC3    C810197   4.045   3.891   0.302 -0.9236  1.0561  0.1276
  689TMC3    O110198   4.395   3.447   0.190  1.1534 -0.0494  0.5489
  689TMC3    O210199   4.011   3.811   0.389  0.4261  0.3819  0.0405
  690MPD2     C10200   1.756   1.308  16.040  0.5417  0.3772  1.1675
  690MPD2    C110201   1.735   1.288  15.907  0.0411  0.4081 -0.6553
  690MPD2    C210202   1.836   1.338  15.827  0.5654  0.1851 -0.0672
  690MPD2    C310203   1.939   1.423  15.867 -0.3633 -0.4038 -0.1435
  690MPD2    C410204   1.959   1.437  16.002 -0.6292  0.1861  0.6794
  690MPD2    C510205   1.876   1.369  16.085  0.4896 -0.6723 -0.0185
  690MPD2     H10206   1.836   1.315  15.721  1.7945  2.2585 -0.5323
  690MPD2    H110207   2.048   1.480  16.045  1.0430 -2.4420 -0.1522
  690MPD2    H210208   1.689   1.279  16.120 -0.4188  2.1505  1.0139
  690MPD2    H310209   1.897   1.377  16.191  0.1061  1.0252 -0.0736
  690MPD2     N10210   2.037   1.462  15.776 -0.3387 -0.1137  0.0821
  690MPD2    H510211   2.035   1.415  15.686  0.6108  0.1812 -0.0949
  690MPD2    N110212   1.627   1.218  15.850 -0.5942 -0.1061  0.2500
  690MPD2    H710213   1.623   1.211  15.748 -0.9331 -0.0192  0.2580
  691TMC3    C110214   1.424   1.114  15.849  1.0585 -0.4396 -0.6392
  691TMC3    C210215   1.287   1.128  15.857 -0.4558 -0.3161  0.0145
  691TMC3    C310216   1.206   1.031  15.801  0.0684  0.1910 -0.2381
  691TMC3    C410217   1.477   1.014  15.772  0.1113 -0.4556  0.7005
  691TMC3    C510218   1.400   0.921  15.717  0.3047 -0.3954 -0.8579
  691TMC3    C610219   1.263   0.929  15.735  0.2308  0.2271  0.1457
  691TMC3     C10220   1.514   1.191  15.924  0.0652 -0.8334 -0.0410
  691TMC3     O10221   1.468   1.248  16.022  0.5910  0.1723  0.4208
  691TMC3     H10222   1.258   1.207  15.925  0.4214  2.7901 -3.2034
  691TMC3    H110223   1.579   0.981  15.782 -0.5593 -2.0632  2.2973
  691TMC3    H210224   1.194   0.853  15.700  0.2775  0.2517  0.0016
  691TMC3    C710225   1.470   0.796  15.665  0.2777  0.3935  0.5578
  691TMC3    C810226   1.074   1.009  15.861  0.6773  0.2309 -0.7102
  691TMC3    O110227   1.592   0.793  15.649  0.4618 -0.1874 -0.4918
  691TMC3    O210228   1.012   0.907  15.841  0.0054  0.1438  0.6626
  692TMC3    C110229   2.959   1.954  16.163 -0.5010  0.3365 -0.5048
  692TMC3    C210230   3.088   1.982  16.205  0.1794  0.0934  0.5452
  692TMC3    C310231   3.183   1.888  16.248 -0.3818 -0.8800 -0.2025
  692TMC3    C410232   2.915   1.831  16.158 -0.8049 -1.1088  0.8112
  692TMC3    C510233   3.003   1.735  16.213 -0.8970  0.4482  0.4188
  692TMC3    C610234   3.127   1.759  16.257  0.0173 -0.6455 -0.2607
  692TMC3     C10235   2.856   2.058  16.191 -0.4948 -0.0907 -0.5132
  692TMC3     O10236   2.742   2.018  16.177  0.0743  0.0585 -0.0659
  692TMC3     H10237   3.126   2.079  16.177  1.4861 -0.4085  0.5673
  692TMC3    H110238   2.817   1.806  16.119 -0.9111  0.8948 -0.2119
  692TMC3    H210239   3.199   1.679  16.270  1.3218  0.1156 -2.8154
  692TMC3    C710240   2.966   1.602  16.180  0.0476 -0.1909 -0.3538
  692TMC3    C810241   3.260   1.930  16.356 -0.8999 -0.5364  0.9517
  692TMC3    O110242   2.892   1.573  16.087 -0.0151 -0.2120  0.1885
  692TMC3    O210243   3.330   1.845  16.415 -0.1556 -0.8036 -0.1967
  693MPD2     C10244   2.717   4.693  11.121 -0.9641  0.2274 -0.1202
  693MPD2    C110245   2.661   4.565  11.109 -0.0522  0.3805 -0.5852
  693MPD2    C210246   2.730   4.465  11.047  0.1633 -0.1934  1.2489
  693MPD2    C310247   2.861   4.484  11.019  0.0049 -0.4862 -0.3456
  693MPD2    C410248   2.921   4.607  11.045  0.0290 -0.0447  0.2289
  693MPD2    C510249   2.848   4.713  11.081 -0.0349 -0.7641  0.4011
  693MPD2     H10250   2.687   4.365  11.046 -0.1206 -0.0643  0.6361
  693MPD2    H110251   3.026   4.622  11.025  0.1563 -2.2692 -0.7541
  693MPD2    H210252   2.668   0.051  11.170 -0.9536 -0.6665  1.3901
  693MPD2    H310253   2.892   0.088  11.087 -1.6741 -0.1002  1.2662
  693MPD2     N10254   2.951   4.378  10.989 -0.1348 -0.6202  0.1244
  693MPD2    H510255   3.051   4.382  11.000 -0.0027 -0.7799 -0.9634
  693MPD2    N110256   2.532   4.538  11.171  0.0016 -0.2773  0.6482
  693MPD2    H710257   2.497   4.608  11.236  0.8651  3.1103 -2.5504
  694TMC3    C110258   2.352   4.396  11.222 -0.0588  0.3672  0.6495
  694TMC3    C210259   2.256   4.314  11.167 -0.5955  0.6078  0.3714
  694TMC3    C310260   2.225   4.207  11.231  0.8828 -0.2245  0.0268
  694TMC3    C410261   2.387   4.389  11.355 -0.3976  0.1443  0.0046
  694TMC3    C510262   2.334   4.288  11.426 -0.0783 -0.1453  0.5961
  694TMC3    C610263   2.264   4.194  11.359 -0.4856 -0.1375 -0.7157
  694TMC3     C10264   2.456   4.426  11.135 -0.3636  0.4606  0.1015
  694TMC3     O10265   2.460   4.367  11.027 -0.0601 -0.2723  0.2813
  694TMC3     H10266   2.229   4.315  11.062 -1.3793 -0.1153  0.5678
  694TMC3    H110267   2.451   4.463  11.400 -3.0628  1.9679  0.7723
  694TMC3    H210268   2.213   4.109  11.405 -1.1168  0.1418 -0.9054
  694TMC3    C710269   2.339   4.302  11.571  0.6421  0.0342  0.3190
  694TMC3    C810270   2.138   4.116  11.164 -0.0480 -0.7702 -0.5265
  694TMC3    O110271   2.424   4.373  11.617  0.1838  0.8981 -0.1352
  694TMC3    O210272   2.049   4.069  11.234 -0.6159 -0.5810 -0.2701
  695MPD2     C10273   3.392   1.286  13.735  0.6764 -0.0645 -0.0930
  695MPD2    C110274   3.348   1.408  13.789 -0.4602  0.4424  0.0039
  695MPD2    C210275   3.274   1.497  13.720 -0.0810  0.1014 -0.5210
  695MPD2    C310276   3.254   1.468  13.590 -0.4004  0.5542 -0.3887
  695MPD2    C410277   3.293   1.344  13.537 -0.9651  0.3592 -0.3014
  695MPD2    C510278   3.355   1.249  13.609 -0.5094 -0.4735 -0.9008
  695MPD2     H10279   3.257   1.595  13.762  1.4659  1.7226 -3.7040
  695MPD2    H110280   3.298   1.323  13.431  2.7242  0.1238 -0.0623
  695MPD2    H210281   3.462   1.219  13.784  2.8114  1.4941 -1.0432
  695MPD2    H310282   3.388   1.158  13.560  1.6559  0.0774 -0.4518
  695MPD2     N10283   3.181   1.562  13.506  0.7143 -0.1950 -0.2733
  695MPD2    H510284   3.146   1.642  13.558 -3.0573 -0.8197 -1.8444
  695MPD2    N110285   3.383   1.444  13.921 -0.6740  0.1675  0.1774
  695MPD2    H710286   3.365   1.539  13.951 -0.1322  0.7281 -1.2911
  696TMC3    C110287   3.086   1.649  13.301  0.4335  0.6481 -0.3629
  696TMC3    C210288   2.976   1.692  13.358 -0.1788 -0.7587 -0.0858
  696TMC3    C310289   2.898   1.785  13.305 -0.0283 -0.4007 -0.3637
  696TMC3    C410290   3.140   1.715  13.191 -0.3470  0.3035  0.0423
  696TMC3    C510291   3.056   1.805  13.134  0.3671  0.6474 -0.6319
  696TMC3    C610292   2.934   1.840  13.189 -0.0879  0.4643  0.2317
  696TMC3     C10293   3.167   1.544  13.367  0.1915 -0.0048 -0.7196
  696TMC3     O10294   3.220   1.465  13.285 -0.0995 -0.1555 -0.2204
  696TMC3     H10295   2.939   1.650  13.451 -0.1218 -0.4582  0.0740
  696TMC3    H110296   3.235   1.680  13.155 -0.2775 -0.8813  1.3719
  696TMC3    H210297   2.884   1.927  13.149  0.3428  0.7218  0.2578
  696TMC3    C710298   3.138   1.921  13.101 -0.0337 -0.1864  0.3083
  696TMC3    C810299   2.832   1.867  13.401 -0.2370  0.0559 -0.4953
  696TMC3    O110300   3.229   1.898  13.022  0.1143 -0.7704  0.3121
  696TMC3    O210301   2.867   1.980  13.381 -0.2608  0.1414 -0.5362
  697MPD2     C10302   2.505   3.875  16.015  0.1190  0.2291  0.1969
  697MPD2    C110303   2.579   3.811  15.920  0.0922 -0.3903 -0.5064
  697MPD2    C210304   2.642   3.879  15.818  0.1854  0.0410  0.3623
  697MPD2    C310305   2.631   4.019  15.817  0.1068 -0.2696 -0.8291
  697MPD2    C410306   2.558   4.086  15.918 -0.4564  0.0685 -0.0436
  697MPD2    C510307   2.497   4.010  16.012  0.5519 -0.9310 -0.2924
  697MPD2     H10308   2.692   3.825  15.739 -2.7194 -0.5408 -1.0995
  697MPD2    H110309   2.556   4.194  15.919 -1.4896  0.0580 -0.9697
  697MPD2    H210310   2.451   3.824  16.094  1.0145  0.5447  1.0099
  697MPD2    H310311   2.444   4.069  16.086 -0.0218  0.7088 -2.0019
  697MPD2     N10312   2.693   4.096  15.715  0.7710  0.2436  0.5237
  697MPD2    H510313   2.773   4.054  15.669 -1.8836 -2.3186 -1.7053
  697MPD2    N110314   2.599   3.674  15.919  0.1788 -0.1928 -0.4362
  697MPD2    H710315   2.632   3.628  15.835  0.6236 -0.6956  0.0183
  698TMC3    C110316   2.726   4.238  15.539  0.3129  0.0865  0.8751
  698TMC3    C210317   2.668   4.330  15.453  0.4191 -0.0160 -0.4520
  698TMC3    C310318   2.731   4.371  15.346 -0.0182 -0.1179 -0.1788
  698TMC3    C410319   2.839   4.176  15.503 -0.2526 -0.1610 -0.5827
  698TMC3    C510320   2.889   4.202  15.375  0.3901 -0.7624 -0.3246
  698TMC3    C610321   2.843   4.308  15.297 -0.3728 -0.1864  0.1636
  698TMC3     C10322   2.661   4.217  15.667 -1.0581  0.5171  0.2047
  698TMC3     O10323   2.570   4.289  15.700  0.0334 -0.3509 -0.7448
  698TMC3     H10324   2.584   4.388  15.490  0.6656 -0.0139  0.1133
  698TMC3    H110325   2.877   4.096  15.565  1.3471  0.0728 -1.2804
  698TMC3    H210326   2.889   4.341  15.205  0.0153  0.4221  0.5760
  698TMC3    C710327   2.938   4.084  15.306  0.1327  0.7748  0.7344
  698TMC3    C810328   2.658   4.453  15.254  0.2161  0.3096 -0.1812
  698TMC3    O110329   2.999   3.999  15.368 -0.4803 -0.3528 -0.0407
  698TMC3    O210330   2.536   4.446  15.245 -0.2464  1.1049 -0.1986
  699TMC3    C110331   2.992   1.464  12.888 -0.1830 -0.3400  0.5578
  699TMC3    C210332   3.010   1.391  13.003 -0.9111 -0.0399 -0.3469
  699TMC3    C310333   2.910   1.404  13.097 -0.4074  0.6926  0.0253
  699TMC3    C410334   2.892   1.553  12.874  0.1441 -0.2255 -0.4132
  699TMC3    C510335   2.790   1.559  12.963 -0.2416 -0.0267  0.2916
  699TMC3    C610336   2.796   1.476  13.071  0.3054  0.9428  0.0979
  699TMC3     C10337   3.123   1.498  12.824 -0.6659  0.8796 -0.1326
  699TMC3     O10338   3.106   1.540  12.708  0.0639 -0.3530 -0.3100
  699TMC3     H10339   3.091   1.319  13.007  2.1838  3.5715  1.5779
  699TMC3    H110340   2.898   1.616  12.786 -1.9699 -0.4974 -0.7629
  699TMC3    H210341   2.728   1.481  13.156  0.8144  0.9566  0.5056
  699TMC3    C710342   2.710   1.682  12.956 -0.0230  0.0408 -0.2762
  699TMC3    C810343   2.908   1.317  13.218  0.9035  0.1459  0.3960
  699TMC3    O110344   2.747   1.749  12.857  0.3901 -0.0993 -0.2109
  699TMC3    O210345   2.806   1.307  13.286 -0.3948  0.1434  0.1463
  700TMC3    C110346   2.004   4.561   0.178 -0.2031 -0.2879 -0.0108
  700TMC3    C210347   2.059   4.439   0.158 -0.3784  0.3781 -0.4457
  700TMC3    C310348   2.174   4.407   0.224  0.1442  0.0947 -0.4311
  700TMC3    C410349   2.068   4.654   0.261  0.3272  0.4903  0.7019
  700TMC3    C510350   2.185   4.615   0.327 -0.6028 -0.3495  0.0650
  700TMC3    C610351   2.237   4.495   0.302  0.0943 -0.0665 -0.1948
  700TMC3     C10352   1.953   4.607   0.050  0.5848 -0.4053  0.0927
  700TMC3     O10353   1.871   4.536  17.691  0.3787  0.3543  0.0511
  700TMC3     H10354   2.013   4.381   0.079  0.6512 -0.0893 -0.6986
  700TMC3    H110355   2.016   0.025   0.261  1.9508  1.3815 -1.1322
  700TMC3    H210356   2.329   4.471   0.354 -0.4583 -1.4301  0.1383
  700TMC3    C710357   2.272   4.715   0.380  0.0308  0.3015  0.7393
  700TMC3    C810358   2.246   4.285   0.204  0.1051 -0.3671  0.0624
  700TMC3    O110359   2.386   4.682   0.410 -0.0657 -0.1581 -0.0541
  700TMC3    O210360   2.366   4.291   0.207  0.2090 -0.4201 -0.5485
  701TMC3    C110361   2.091   3.019  15.781 -0.3305  0.1581  0.0705
  701TMC3    C210362   2.046   3.041  15.655  0.8117 -1.0419  0.6679
  701TMC3    C310363   2.043   3.172  15.607  0.7006  0.1441  0.3447
  701TMC3    C410364   2.157   3.117  15.854  0.2531  0.1421  0.2359
  701TMC3    C510365   2.188   3.225  15.779  0.3013 -0.2967  0.8248
  701TMC3    C610366   2.129   3.260  15.660  0.5997 -0.4304  0.0757
  701TMC3     C10367   2.082   2.879  15.827 -0.4891  0.1577  0.1281
  701TMC3     O10368   2.056   2.783  15.754 -0.1044 -0.0165  0.0842
  701TMC3     H10369   2.002   2.954  15.608 -1.0152  0.4109 -0.2707
  701TMC3    H110370   2.218   3.079  15.935 -1.3170  0.0585  1.3694
  701TMC3    H210371   2.181   3.339  15.607 -3.0615  1.3803 -0.7930
  701TMC3    C710372   2.241   3.338  15.853 -0.7530  0.2241  0.1437
  701TMC3    C810373   1.979   3.211  15.486  0.6153  1.2217 -0.4483
  701TMC3    O110374   2.302   3.423  15.790  0.0496  0.2081  0.7791
  701TMC3    O210375   1.970   3.334  15.472 -0.3205 -0.2227 -0.0615
  702MPD2     C10376   1.968   0.042  10.709  0.4365  0.0383 -0.2789
  702MPD2    C110377   1.963   0.149  10.795 -0.4563  0.0559 -0.0848
  702MPD2    C210378   2.047   0.258  10.759  0.3046  0.3967  0.2963
  702MPD2    C310379   2.117   0.265  10.643 -0.2234 -0.8282  0.4098
  702MPD2    C410380   2.121   0.157  10.557 -0.6690  0.5168  0.1393
  702MPD2    C510381   2.051   0.048  10.600  0.4075  0.2445  0.0296
  702MPD2     H10382   2.052   0.339  10.831 -0.3247  2.3473 -1.8499
  702MPD2    H110383   2.174   0.157  10.462 -0.9279 -0.1356 -0.0096
  702MPD2    H210384   1.912   4.674  10.718  1.8201 -0.7573  0.2752
  702MPD2    H310385   2.055   4.687  10.534  0.9509 -0.5346  1.0762
  702MPD2     N10386   2.171   0.394  10.606 -0.1569  0.5696  0.1706
  702MPD2    H510387   2.209   0.389  10.512  0.7501 -0.5436  0.5941
  702MPD2    N110388   1.881   0.171  10.912  0.0824  0.1176  0.6318
  702MPD2    H710389   1.897   0.256  10.966  1.1639  0.5073 -0.2960
  703TMC3    C110390   2.198   0.624  10.609  0.0649  0.0790  0.3451
  703TMC3    C210391   2.102   0.712  10.626  0.0628 -0.5556 -0.6258
  703TMC3    C310392   2.130   0.844  10.642  1.4469 -0.1082 -0.0247
  703TMC3    C410393   2.331   0.653  10.600  0.3159  0.1869 -0.1402
  703TMC3    C510394   2.355   0.785  10.609 -0.2789  0.1469  0.4223
  703TMC3    C610395   2.262   0.885  10.630  0.6782 -0.1049  0.0346
  703TMC3     C10396   2.168   0.504  10.684  0.3059 -0.1539 -0.4009
  703TMC3     O10397   2.127   0.516  10.798  0.7694 -0.2282 -0.5408
  703TMC3     H10398   2.002   0.678  10.653  0.3239 -1.5809 -0.9704
  703TMC3    H110399   2.407   0.576  10.606 -0.2799 -0.2726  1.6847
  703TMC3    H210400   2.295   0.983  10.659 -2.4990  1.6879 -2.3635
  703TMC3    C710401   2.471   0.831  10.537 -0.1315 -0.6731  0.1786
  703TMC3    C810402   2.044   0.946  10.677 -0.5634  0.2744 -0.5658
  703TMC3    O110403   2.576   0.765  10.532 -0.3664  0.1485  0.1659
  703TMC3    O210404   2.095   1.059  10.694  0.1050 -0.9165  0.5524
  704TMC3    C110405   4.444   3.719  12.682 -0.5467  0.5597 -0.8079
  704TMC3    C210406   4.564   3.718  12.614 -0.2434 -0.5924  0.0959
  704TMC3    C310407   4.673   3.670  12.677 -0.2552  0.4541  0.2804
  704TMC3    C410408   4.427   3.655  12.798 -0.4235  0.5940 -0.0102
  704TMC3    C510409   4.535   3.597  12.861 -0.3185 -0.2064  0.8036
  704TMC3    C610410   4.657   3.602  12.799  0.6237  0.1598  0.4570
  704TMC3     C10411   4.331   3.710  12.587 -0.5144  0.4018  0.0650
  704TMC3     O10412   4.215   3.716  12.629  0.1643 -0.1771  0.4498
  704TMC3     H10413   4.576   3.773  12.522  1.2890 -0.4341  0.3871
  704TMC3    H110414   4.325   3.648  12.834 -1.2422 -3.5759 -3.0597
  704TMC3    H210415   0.017   3.560  12.853  0.4867  1.7362  1.8940
  704TMC3    C710416   4.507   3.466  12.919  0.0730 -0.5017  0.3588
  704TMC3    C810417   0.043   3.610  12.581  0.0192 -0.0384 -0.7825
  704TMC3    O110418   4.589   3.389  12.880  0.0508  0.2289  0.1390
  704TMC3    O210419   4.718   3.584  12.476  0.0436  0.5172 -0.6872
  705MPD2     C10420   3.433   1.500  16.760 -0.2435 -0.4583  0.3797
  705MPD2    C110421   3.436   1.637  16.747  0.1395 -0.2026  0.8014
  705MPD2    C210422   3.348   1.716  16.809  0.3748  0.5054 -0.0559
  705MPD2    C310423   3.236   1.656  16.867  0.1927 -0.9994  0.1828
  705MPD2    C410424   3.228   1.514  16.889  0.6267  0.1152 -0.4960
  705MPD2    C510425   3.331   1.440  16.831 -0.3189 -0.0651 -0.0704
  705MPD2     H10426   3.343   1.822  16.789 -0.1886  0.5839  0.5047
  705MPD2    H110427   3.147   1.466  16.942  0.5145 -1.5046 -2.1310
  705MPD2    H210428   3.503   1.436  16.708  1.0662  0.1149  1.4406
  705MPD2    H310429   3.318   1.332  16.824 -1.7486  0.1064 -0.0749
  705MPD2     N10430   3.136   1.732  16.933 -0.2590 -0.4284  0.1699
  705MPD2    H510431   3.068   1.680  16.988 -0.0304  0.2360  1.0851
  705MPD2    N110432   3.537   1.705  16.673  0.2485 -0.3129  0.2396
  705MPD2    H710433   3.510   1.799  16.645  0.6879  0.8571  3.7767
  706TMC3    C110434   3.754   1.735  16.279  0.3452  0.6729  0.1667
  706TMC3    C210435   3.751   1.869  16.273  0.1407  1.0561 -0.5685
  706TMC3    C310436   3.715   1.930  16.394  0.2023  0.3068  0.2321
  706TMC3    C410437   3.723   1.655  16.390 -0.0073  0.3662  0.4481
  706TMC3    C510438   3.701   1.724  16.508  0.7587 -0.2779 -0.2325
  706TMC3    C610439   3.698   1.865  16.512  0.2406  0.0424 -0.0335
  706TMC3     C10440   3.811   1.669  16.162 -0.1650  0.1293  0.2070
  706TMC3     O10441   3.861   1.557  16.178 -0.0730 -0.0185 -0.6109
  706TMC3     H10442   3.773   1.934  16.189  1.9601 -0.4777 -1.2641
  706TMC3    H110443   3.735   1.547  16.392  1.4020  0.5052 -0.3885
  706TMC3    H210444   3.670   1.902  16.610 -1.6556  0.4848 -0.7321
  706TMC3    C710445   3.646   1.650  16.619  1.1335  0.1993  0.5501
  706TMC3    C810446   3.687   2.074  16.388 -0.1351 -0.7752  0.0619
  706TMC3    O110447   3.690   1.536  16.646  0.5074 -0.1963 -0.8119
  706TMC3    O210448   3.633   2.120  16.289  0.3551 -0.0428 -0.0517
  707TMC3    C110449   0.974   1.230   1.693 -0.2957 -0.1014 -0.8177
  707TMC3    C210450   1.075   1.241   1.785 -0.0942  0.1207  0.6883
  707TMC3    C310451   1.098   1.127   1.852  0.9655  0.4580  0.1766
  707TMC3    C410452   0.892   1.119   1.671  0.1870  0.1665  0.0002
  707TMC3    C510453   0.929   1.003   1.742  0.0422  0.1612 -0.6729
  707TMC3    C610454   1.028   1.008   1.831  0.2655 -0.5187 -0.3829
  707TMC3     C10455   0.983   1.334   1.596 -0.4160  0.0036 -0.4985
  707TMC3     O10456   0.966   1.450   1.635  0.9453 -0.1199  0.3251
  707TMC3     H10457   1.142   1.326   1.789  2.4023 -1.7974 -0.5350
  707TMC3    H110458   0.809   1.129   1.603  0.5744  2.2018 -0.1896
  707TMC3    H210459   1.020   0.949   1.922 -1.6922 -0.1330 -0.2896
  707TMC3    C710460   0.873   0.884   1.691 -0.0578 -0.2136  0.3540
  707TMC3    C810461   1.237   1.118   1.907 -0.2256 -1.3052  0.1708
  707TMC3    O110462   0.785   0.900   1.600 -0.2711 -0.2244 -0.2274
  707TMC3    O210463   1.284   1.215   1.965 -0.1158 -0.6399  0.3573
  708MPD2     C10464   1.274   0.758  13.688 -0.6458 -0.0281  0.0849
  708MPD2    C110465   1.314   0.668  13.777 -0.5555 -0.1267  0.4323
  708MPD2    C210466   1.332   0.701  13.909  0.0216  0.1336 -0.2385
  708MPD2    C310467   1.333   0.832  13.942  0.0620  0.5574 -0.0212
  708MPD2    C410468   1.313   0.933  13.849 -0.2123  0.2027 -1.1814
  708MPD2    C510469   1.276   0.894  13.722  0.4075 -0.6023 -0.5985
  708MPD2     H10470   1.370   0.628  13.980 -1.5386  1.5975  2.0894
  708MPD2    H110471   1.325   1.038  13.875  0.6821 -0.1627 -0.0872
  708MPD2    H210472   1.248   0.736  13.585  0.7646 -4.7459  0.7135
  708MPD2    H310473   1.269   0.971  13.645 -0.8123  0.2491  0.3708
  708MPD2     N10474   1.355   0.856  14.080  0.3043  0.0507 -0.0728
  708MPD2    H510475   1.368   0.781  14.147  0.2670  1.7092  1.8218
  708MPD2    N110476   1.343   0.530  13.758  0.1012 -0.2965  0.0639
  708MPD2    H710477   1.351   0.474  13.842 -0.7099 -1.5678 -0.6880
  709TMC3    C110478   1.387   0.329  13.661  0.4272  0.2837  0.6687
  709TMC3    C210479   1.510   0.282  13.616  0.0512  0.1482  0.3110
  709TMC3    C310480   1.581   0.195  13.697  0.7040  0.6854 -0.3942
  709TMC3    C410481   1.332   0.288  13.780 -0.2774  0.5007 -0.0642
  709TMC3    C510482   1.401   0.201  13.858 -0.0022 -0.7355 -0.8704
  709TMC3    C610483   1.530   0.163  13.822 -0.0955 -0.0953  0.5091
  709TMC3     C10484   1.362   0.469  13.639  1.2588  0.3151 -0.5069
  709TMC3     O10485   1.376   0.512  13.528 -0.5328  0.3566  0.1026
  709TMC3     H10486   1.547   0.318  13.520  2.7243  0.2318  1.3851
  709TMC3    H110487   1.236   0.332  13.803 -0.8368 -0.7396 -0.0689
  709TMC3    H210488   1.587   0.105  13.894  0.1539  1.4424  1.5645
  709TMC3    C710489   1.389   0.262  13.988 -0.8838  0.2051 -0.4613
  709TMC3    C810490   1.696   0.125  13.647 -0.8218  0.6670 -0.7516
  709TMC3    O110491   1.349   0.374  13.980  0.1312 -0.0887  0.1632
  709TMC3    O210492   1.695   0.011  13.691 -0.7367 -0.0294 -0.1944
  710TMC3    C110493   2.838   2.051   0.823 -0.0580 -0.3354  0.1638
  710TMC3    C210494   2.901   2.029   0.700 -0.3893  0.1175 -0.5307
  710TMC3    C310495   2.998   1.933   0.689  0.1109  0.1385 -0.5208
  710TMC3    C410496   2.877   1.988   0.933  0.0826 -0.9273  0.6328
  710TMC3    C510497   2.983   1.900   0.918  0.0110  0.3012 -0.3976
  710TMC3    C610498   3.038   1.858   0.799  0.5223 -0.5806 -0.0030
  710TMC3     C10499   2.745   2.160   0.824  0.0979  0.1137 -0.0838
  710TMC3     O10500   2.745   2.230   0.724  0.2541  0.4682 -0.4067
  710TMC3     H10501   2.890   2.099   0.618  1.3887 -2.1196 -2.6903
  710TMC3    H110502   2.832   2.002   1.031 -1.1463  1.2554 -0.2391
  710TMC3    H210503   3.119   1.787   0.791  0.1644 -0.9712 -0.2070
  710TMC3    C710504   3.041   1.833   1.049  0.1054 -0.5918  0.4609
  710TMC3    C810505   3.035   1.883   0.551 -0.5995  0.2696  0.3929
  710TMC3    O110506   2.970   1.831   1.149 -0.4046  0.1605 -0.1402
  710TMC3    O210507   3.152   1.837   0.528  0.3805  0.1002  0.5910
  711TMC3    C110508   2.591   2.349  15.399 -1.1401 -0.7429  0.7492
  711TMC3    C210509   2.655   2.238  15.435  0.2746 -0.0843  0.2241
  711TMC3    C310510   2.668   2.201  15.565  0.0288 -0.2214 -0.0658
  711TMC3    C410511   2.521   2.430  15.489  0.0462 -0.2770  0.1897
  711TMC3    C510512   2.534   2.382  15.615 -1.1496  0.0980  0.0791
  711TMC3    C610513   2.607   2.278  15.655  0.0451 -0.6969  0.0265
  711TMC3     C10514   2.569   2.364  15.256  0.4628 -0.5532 -0.0588
  711TMC3     O10515   2.583   2.263  15.196  0.1472 -0.4267 -0.4140
  711TMC3     H10516   2.707   2.175  15.363  1.9723  0.4297  1.0087
  711TMC3    H110517   2.458   2.510  15.452  0.8708  0.1165 -0.3777
  711TMC3    H210518   2.601   2.249  15.759 -0.3941  1.9986  0.7431
  711TMC3    C710519   2.567   2.492  15.713 -0.0947 -0.0474 -0.5360
  711TMC3    C810520   2.811   2.200  15.594 -0.8087  0.1072  0.1180
  711TMC3    O110521   2.663   2.474  15.784  0.0765  0.0248 -0.1779
  711TMC3    O210522   2.881   2.135  15.515 -0.3193 -0.1188  0.2929
  712MPD2     C10523   4.540   3.667  14.218  0.5285  0.6349  1.0494
  712MPD2    C110524   4.422   3.689  14.146 -0.2300 -0.6689  0.1266
  712MPD2    C210525   4.424   3.781  14.041  0.1773 -0.3044 -0.2715
  712MPD2    C310526   4.536   3.854  14.008  0.0625  0.3607 -0.2954
  712MPD2    C410527   4.654   3.831  14.082  0.1293  0.1662  0.1412
  712MPD2    C510528   4.649   3.745  14.185 -0.2426  0.0466 -0.0175
  712MPD2     H10529   4.331   3.793  13.987  0.4983 -1.2157 -1.0438
  712MPD2    H110530   0.023   3.883  14.069 -0.2896  0.2809 -2.3730
  712MPD2    H210531   4.544   3.598  14.302 -0.9811  1.3611  1.7134
  712MPD2    H310532   0.011   3.736  14.250 -1.7709 -0.8344  1.8848
  712MPD2     N10533   4.532   3.952  13.904  0.1189 -0.0615 -0.5975
  712MPD2    H510534   4.625   3.990  13.889  0.5909 -0.4896  1.1517
  712MPD2    N110535   4.312   3.606  14.166  0.2041 -0.0624  0.2430
  712MPD2    H710536   4.234   3.636  14.107  0.3624 -1.1682 -0.5386
  713TMC3    C110537   4.446   4.102  13.754  0.1803  0.2425  0.2538
  713TMC3    C210538   4.570   4.111  13.700 -0.1571  0.0442  0.2632
  713TMC3    C310539   4.602   4.221  13.617 -0.0186 -0.3815  0.5452
  713TMC3    C410540   4.346   4.190  13.720  0.1772 -0.3722 -0.6115
  713TMC3    C510541   4.379   4.293  13.637  0.7958 -0.2312  0.3959
  713TMC3    C610542   4.505   4.314  13.587 -0.1663  0.4495 -0.1994
  713TMC3     C10543   4.418   4.007  13.855  0.0743  0.0739  0.1894
  713TMC3     O10544   4.302   3.988  13.885  0.0710 -0.1087  0.6328
  713TMC3     H10545   4.642   4.031  13.709 -1.3293 -0.7585  2.5092
  713TMC3    H110546   4.250   4.185  13.770  0.3879  1.0272 -0.0721
  713TMC3    H210547   4.528   4.399  13.523 -0.2777  0.4428 -0.2485
  713TMC3    C710548   4.300   4.417  13.637 -0.4837 -0.3130 -0.4897
  713TMC3    C810549   0.014   4.236  13.563 -0.0575  0.3698 -0.0928
  713TMC3    O110550   4.355   4.523  13.606  0.2793 -0.4338  0.0209
  713TMC3    O210551   0.021   4.291  13.454 -0.1970 -0.2793  0.1002
  714MPD2     C10552   0.762   2.819   1.306  0.1192  0.3918 -0.4138
  714MPD2    C110553   0.812   2.692   1.304 -0.1025 -0.7453 -0.0133
  714MPD2    C210554   0.735   2.600   1.241 -0.0891 -1.1217 -0.0554
  714MPD2    C310555   0.612   2.625   1.183  0.3965  0.4213 -0.1646
  714MPD2    C410556   0.565   2.753   1.177 -0.4626 -0.1575 -0.3760
  714MPD2    C510557   0.639   2.842   1.247  0.5345  0.3646  0.3191
  714MPD2     H10558   0.777   2.503   1.215 -0.2916 -1.0294 -0.7136
  714MPD2    H110559   0.469   2.789   1.141 -0.0780  1.4339  0.1694
  714MPD2    H210560   0.812   2.897   1.362 -3.7654  2.4317  0.2740
  714MPD2    H310561   0.600   2.943   1.252 -0.2388  0.0417  0.7506
  714MPD2     N10562   0.545   2.515   1.126  0.8639  0.2895  0.2707
  714MPD2    H510563   0.583   2.423   1.145  2.6609  1.0837  0.6195
  714MPD2    N110564   0.931   2.658   1.379 -0.5105  0.1627 -0.6946
  714MPD2    H710565   0.994   2.731   1.410  0.1402  0.8648 -3.6232
  715TMC3    C110566   1.116   2.533   1.447 -0.1821 -0.0576 -0.9093
  715TMC3    C210567   1.189   2.426   1.432  0.7305  0.1519  0.0758
  715TMC3    C310568   1.301   2.400   1.509  0.5298  0.1763  0.9000
  715TMC3    C410569   1.153   2.633   1.540  0.4936 -0.4404  0.0500
  715TMC3    C510570   1.268   2.603   1.614 -0.7953  0.0026 -0.7152
  715TMC3    C610571   1.343   2.490   1.600  0.4233 -0.0287 -0.8722
  715TMC3     C10572   0.987   2.532   1.385  0.1689  0.0002  0.2390
  715TMC3     O10573   0.947   2.416   1.353  0.1102  0.6602  0.5235
  715TMC3     H10574   1.149   2.351   1.365  1.7012  0.3001 -0.6694
  715TMC3    H110575   1.084   2.713   1.564 -0.5166 -0.8537 -1.4617
  715TMC3    H210576   1.431   2.470   1.661  0.5216  2.0790 -0.3278
  715TMC3    C710577   1.318   2.693   1.713 -0.6704 -0.1722 -0.3007
  715TMC3    C810578   1.400   2.304   1.456 -0.2193 -0.2859 -0.1521
  715TMC3    O110579   1.375   2.647   1.812  0.4144  0.0449  0.0060
  715TMC3    O210580   1.352   2.214   1.387  0.0771  0.6509 -0.0682
  716MPD2     C10581   2.414   4.115  10.152 -0.7139  0.1949  0.2260
  716MPD2    C110582   2.299   4.184  10.163 -0.4649  0.1989 -0.2839
  716MPD2    C210583   2.175   4.121  10.162  0.2077 -0.4143  0.6827
  716MPD2    C310584   2.173   3.980  10.141 -0.3530 -0.2863 -0.0735
  716MPD2    C410585   2.285   3.914  10.093 -0.0854  0.0931 -0.8444
  716MPD2    C510586   2.398   3.983  10.110 -0.3340 -0.6939  0.0135
  716MPD2     H10587   2.078   4.166  10.183  0.5427  0.6286  0.0022
  716MPD2    H110588   2.291   3.809  10.067 -0.1591  0.1374 -1.0388
  716MPD2    H210589   2.511   4.161  10.137 -1.3959  0.8353 -2.2443
  716MPD2    H310590   2.487   3.936  10.069  0.0463  0.6119 -0.6551
  716MPD2     N10591   2.045   3.915  10.162  0.5788  0.0718 -0.0538
  716MPD2    H510592   1.968   3.978  10.181  1.6061  0.9992  1.0779
  716MPD2    N110593   2.314   4.327  10.171  0.1539 -0.4903  0.0095
  716MPD2    H710594   2.405   4.363  10.198 -1.2668  0.8264  3.0797
  717TMC3    C110595   1.887   3.733  10.173  0.3009 -0.1021 -0.6774
  717TMC3    C210596   1.784   3.815  10.205  0.3803 -0.1476  0.3241
  717TMC3    C310597   1.659   3.773  10.193  0.0582 -0.6645 -0.1134
  717TMC3    C410598   1.860   3.610  10.116  0.1293 -0.0019 -0.1069
  717TMC3    C510599   1.729   3.579  10.089  0.2603 -0.4154  0.1036
  717TMC3    C610600   1.625   3.660  10.125 -0.4846  0.0916 -0.5045
  717TMC3     C10601   2.019   3.781  10.139  0.0556  0.1858 -0.0538
  717TMC3     O10602   2.091   3.692  10.090  0.1417 -0.3044 -0.3205
  717TMC3     H10603   1.808   3.916  10.234 -2.6440  1.0647 -1.2569
  717TMC3    H110604   1.932   3.535  10.087 -1.8992 -1.7996 -0.4586
  717TMC3    H210605   1.528   3.612  10.132 -0.8474  1.0173  0.6843
  717TMC3    C710606   1.693   3.471  10.004 -0.7353 -0.0903  0.0452
  717TMC3    C810607   1.560   3.873  10.188 -0.6480 -0.1159 -0.6584
  717TMC3    O110608   1.575   3.443   9.997 -0.0851 -0.0662  0.2533
  717TMC3    O210609   1.586   3.980  10.243 -0.4447 -0.0151 -0.3709
  718MPD2     C10610   1.214   4.075  13.524  0.6528 -0.2522  0.2842
  718MPD2    C110611   1.170   4.000  13.417  0.4010 -0.7413 -0.5954
  718MPD2    C210612   1.124   3.873  13.447  0.1399 -0.4583  0.3417
  718MPD2    C310613   1.122   3.825  13.575 -0.3858 -0.0145 -0.3242
  718MPD2    C410614   1.161   3.901  13.674  0.1127 -0.1947 -0.2956
  718MPD2    C510615   1.200   4.026  13.651 -0.1314  0.2122  0.1901
  718MPD2     H10616   1.099   3.801  13.370 -0.5994  1.1686 -0.9657
  718MPD2    H110617   1.170   3.859  13.773  0.6230 -2.0443 -1.1315
  718MPD2    H210618   1.256   4.175  13.514  0.7425 -0.4310 -1.2331
  718MPD2    H310619   1.245   4.076  13.737 -0.5253 -0.0723  0.5562
  718MPD2     N10620   1.097   3.685  13.587  0.5870 -0.5271  0.2317
  718MPD2    H510621   1.087   3.633  13.501  1.4049  0.5103 -0.4822
  718MPD2    N110622   1.202   4.041  13.279  0.1003  0.2055 -0.0210
  718MPD2    H710623   1.255   4.127  13.274 -1.1587  0.8020 -2.9154
  719TMC3    C110624   1.201   4.050  13.044 -0.3084 -0.2594  0.3566
  719TMC3    C210625   1.167   3.972  12.939 -1.0901 -0.6190  0.8576
  719TMC3    C310626   1.259   3.939  12.844 -0.0636  0.1553 -0.4226
  719TMC3    C410627   1.317   4.125  13.056  0.5912  0.6135  0.2209
  719TMC3    C510628   1.409   4.102  12.956 -0.0101 -0.4080 -0.5621
  719TMC3    C610629   1.381   4.007  12.856  0.7522  0.2728 -0.5397
  719TMC3     C10630   1.165   3.979  13.167 -0.2339 -0.0749 -0.0235
  719TMC3     O10631   1.107   3.874  13.156  0.1200  0.1641  0.3350
  719TMC3     H10632   1.076   3.913  12.937 -1.2667 -0.3186  0.2322
  719TMC3    H110633   1.338   4.191  13.139  0.3504  0.9291  0.0339
  719TMC3    H210634   1.458   3.974  12.786  2.9957 -1.3333  2.6828
  719TMC3    C710635   1.532   4.176  12.940  0.0047 -0.2899 -0.2820
  719TMC3    C810636   1.282   3.796  12.833 -0.4129  0.2100 -0.0076
  719TMC3    O110637   1.561   4.189  12.822 -0.2043  0.2100 -0.8168
  719TMC3    O210638   1.353   3.755  12.740 -0.6271  0.1472  0.3718
  720MPD2     C10639   3.743   1.001  14.316 -0.1919 -0.4456  0.6078
  720MPD2    C110640   3.839   0.982  14.214  0.3444  0.2109 -0.0286
  720MPD2    C210641   3.969   0.955  14.250 -0.0421 -0.3156 -0.2158
  720MPD2    C310642   4.004   0.936  14.383 -0.7474  0.0274 -0.2333
  720MPD2    C410643   3.906   0.952  14.478 -0.7694  0.4289  0.3240
  720MPD2    C510644   3.779   0.985  14.445  0.2855  0.3831 -0.6915
  720MPD2     H10645   4.044   0.932  14.175  0.3872 -1.1585  0.4692
  720MPD2    H110646   3.923   0.966  14.584  0.6228 -1.4609  0.3552
  720MPD2    H210647   3.638   1.020  14.300 -0.5752 -1.6451  1.7580
  720MPD2    H310648   3.707   1.009  14.523  2.0915 -0.1048  1.1252
  720MPD2     N10649   4.136   0.902  14.423 -0.1456 -0.7950  0.8723
  720MPD2    H510650   4.204   0.889  14.349  1.5600  3.4620  1.6933
  720MPD2    N110651   3.806   0.983  14.082 -0.7108  0.3295 -0.3711
  720MPD2    H710652   3.878   0.967  14.012  0.3706  0.2094  0.7713
  721TMC3    C110653   4.311   0.836  14.579 -0.2889  0.3110  0.2516
  721TMC3    C210654   4.351   0.758  14.687  0.5065 -0.0119 -0.0830
  721TMC3    C310655   4.484   0.733  14.711  0.0536  0.2541  0.0005
  721TMC3    C410656   4.403   0.871  14.482 -0.4243  0.0724 -0.3227
  721TMC3    C510657   4.536   0.841  14.503 -0.1331 -0.5653  0.5993
  721TMC3    C610658   4.584   0.772  14.622 -0.6044  0.1628  0.2902
  721TMC3     C10659   4.170   0.864  14.557  0.3595 -0.7725  0.4229
  721TMC3     O10660   4.111   0.853  14.664  0.4749  0.2533  0.4589
  721TMC3     H10661   4.279   0.706  14.749  0.0989 -0.4950 -0.9528
  721TMC3    H110662   4.375   0.916  14.387  1.0561 -0.6909 -1.1078
  721TMC3    H210663   4.689   0.770  14.649 -0.6128  1.2886  0.3726
  721TMC3    C710664   4.643   0.885  14.407 -0.1099  0.3741 -0.1978
  721TMC3    C810665   4.522   0.702  14.844  0.1375 -0.3220 -0.3876
  721TMC3    O110666   4.632   0.990  14.348 -0.4196 -0.2371  0.2527
  721TMC3    O210667   4.435   0.747  14.920  0.5914 -0.4083 -0.6836
  722MPD2     C10668   3.090   4.222  14.083  0.2001 -0.3243  0.3113
  722MPD2    C110669   3.074   4.246  13.945 -0.2878 -0.0692 -0.0846
  722MPD2    C210670   2.979   4.174  13.879  0.2930  1.2956 -0.0661
  722MPD2    C310671   2.899   4.090  13.954 -0.1312 -0.5463 -0.0884
  722MPD2    C410672   2.903   4.082  14.092  0.1573 -0.7568  0.0173
  722MPD2    C510673   3.002   4.143  14.153 -0.5106 -0.4669  0.0271
  722MPD2     H10674   2.976   4.181  13.770  3.0288 -2.5018 -0.3515
  722MPD2    H110675   2.833   4.026  14.154 -2.4325  1.7441 -0.6506
  722MPD2    H210676   3.165   4.278  14.136  0.5189 -1.6545  1.2636
  722MPD2    H310677   3.002   4.149  14.261 -2.1307  0.6952 -0.0392
  722MPD2     N10678   2.801   4.017  13.882  0.2418 -0.4288  0.7001
  722MPD2    H510679   2.778   4.053  13.790  0.4980 -2.1554 -0.0407
  722MPD2    N110680   3.145   4.341  13.865  0.0347  0.3510  0.2777
  722MPD2    H710681   3.125   4.353  13.766  0.4974  0.7848  0.2390
  723TMC3    C110682   2.667   3.843  13.799  0.5242 -0.6860  0.1621
  723TMC3    C210683   2.649   3.706  13.797 -0.3316 -0.0254 -0.2588
  723TMC3    C310684   2.576   3.650  13.697 -0.2874  0.2521 -0.4748
  723TMC3    C410685   2.599   3.925  13.716 -0.0086  0.3660  0.8374
  723TMC3    C510686   2.514   3.857  13.629  0.1928 -0.0041 -0.5856
  723TMC3    C610687   2.507   3.726  13.612 -0.7172  0.7015 -0.2886
  723TMC3     C10688   2.745   3.894  13.913 -0.1629 -0.2689 -0.2949
  723TMC3     O10689   2.757   3.828  14.014 -0.6992  0.1594 -0.8613
  723TMC3     H10690   2.703   3.650  13.873 -0.4737 -0.7261 -0.6713
  723TMC3    H110691   2.602   4.033  13.718 -1.1927  0.3933  0.9526
  723TMC3    H210692   2.433   3.690  13.542 -1.5011 -0.5274  1.1805
  723TMC3    C710693   2.449   3.927  13.523  0.3505  0.0748  0.2162
  723TMC3    C810694   2.556   3.505  13.693  0.0676 -0.9165 -0.0160
  723TMC3    O110695   2.448   3.875  13.412 -0.1559 -0.0958 -0.6821
  723TMC3    O210696   2.572   3.454  13.805  0.2594  0.8953  0.2961
  724TMC3    C110697   3.612   1.579   9.286  0.3655  0.0597  0.4572
  724TMC3    C210698   3.563   1.633   9.402 -0.4727  0.3902  0.1196
  724TMC3    C310699   3.621   1.750   9.446  0.0068  0.6821 -0.0535
  724TMC3    C410700   3.711   1.641   9.213  0.2595 -0.4725  0.1889
  724TMC3    C510701   3.765   1.758   9.260  0.0677 -0.7321  1.0504
  724TMC3    C610702   3.716   1.816   9.369 -0.0139  0.1312  0.2027
  724TMC3     C10703   3.533   1.485   9.212 -0.4657 -0.2751  0.0240
  724TMC3     O10704   3.587   1.425   9.123  0.4949  0.1771  0.7015
  724TMC3     H10705   3.519   1.565   9.473 -3.0439  1.1281 -0.7634
  724TMC3    H110706   3.740   1.599   9.117  1.1934  1.0596 -0.1888
  724TMC3    H210707   3.774   1.902   9.400 -0.8538  1.1577 -1.0679
  724TMC3    C710708   3.875   1.824   9.189  0.0608 -0.1235  0.3100
  724TMC3    C810709   3.572   1.808   9.568 -0.1909  0.0887  0.3899
  724TMC3    O110710   3.899   1.943   9.223  0.3041 -0.4892 -0.0817
  724TMC3    O210711   3.492   1.743   9.636 -0.2923 -0.0777 -0.3316
  725TMC3    C110712   4.639   0.980  13.197 -0.4298 -0.0328  0.0087
  725TMC3    C210713   4.516   0.966  13.142  0.7292  0.0629 -0.7761
  725TMC3    C310714   4.505   0.901  13.021 -0.4856 -0.0610  1.0922
  725TMC3    C410715   0.026   0.933  13.139  1.0614 -0.3402 -0.7654
  725TMC3    C510716   0.019   0.872  13.019 -0.0046  0.9060  0.1917
  725TMC3    C610717   4.621   0.850  12.960  0.3129 -0.0084 -0.4598
  725TMC3     C10718   4.674   1.078  13.293 -0.0407 -0.1174  0.1475
  725TMC3     O10719   0.063   1.124  13.280 -0.3726 -0.0569  0.1414
  725TMC3     H10720   4.435   1.024  13.184  0.6544 -1.4690  1.1929
  725TMC3    H110721   0.117   0.929  13.197 -0.2697 -3.7274  1.0502
  725TMC3    H210722   4.610   0.795  12.866 -1.0750 -0.8850  0.2097
  725TMC3    C710723   0.143   0.816  12.963 -0.1101  0.0423  0.0291
  725TMC3    C810724   4.398   0.953  12.938  0.0502  1.0341 -0.0511
  725TMC3    O110725   0.132   0.731  12.876 -0.6414 -0.1556  0.5470
  725TMC3    O210726   4.301   0.994  12.998 -0.9014 -0.1779  0.1373
  726MPD2     C10727   3.210   2.221  10.602 -0.5785 -0.4387  0.1924
  726MPD2    C110728   3.123   2.275  10.510  0.0425 -0.2828  0.2771
  726MPD2    C210729   2.988   2.244  10.521  0.0251 -0.4128 -0.0964
  726MPD2    C310730   2.949   2.166  10.620  0.0793 -0.3299 -0.1651
  726MPD2    C410731   3.035   2.107  10.707 -0.1981 -0.8720  0.4384
  726MPD2    C510732   3.165   2.134  10.698 -0.1046 -0.6073  0.0472
  726MPD2     H10733   2.913   2.285  10.455 -0.6416 -1.0244  0.2747
  726MPD2    H110734   3.001   2.048  10.792 -0.5281 -1.4722 -0.1086
  726MPD2    H210735   3.316   2.241  10.606 -1.2517  3.0755  0.8661
  726MPD2    H310736   3.230   2.085  10.769  1.0810 -0.3661 -0.8686
  726MPD2     N10737   2.811   2.136  10.635 -0.0188 -0.1562  0.2626
  726MPD2    H510738   2.779   2.077  10.711 -1.2108 -1.6423 -1.4149
  726MPD2    N110739   3.152   2.376  10.422  0.3220 -0.3487 -0.3300
  726MPD2    H710740   3.074   2.400  10.362  0.7082 -0.1521 -0.7551
  727TMC3    C110741   3.258   2.573  10.345 -0.1323  0.5559  0.1128
  727TMC3    C210742   3.319   2.682  10.398 -0.0873 -0.4316 -0.1740
  727TMC3    C310743   3.302   2.799  10.332 -0.9355 -0.4095 -0.0986
  727TMC3    C410744   3.187   2.576  10.226  0.0942 -0.8719  0.5551
  727TMC3    C510745   3.170   2.700  10.164 -0.0949  0.8074  0.2064
  727TMC3    C610746   3.240   2.811  10.206 -0.6107 -0.2133  0.1998
  727TMC3     C10747   3.269   2.453  10.424 -0.1019  0.5294 -0.0053
  727TMC3     O10748   3.362   2.440  10.498 -0.2620 -0.8338 -0.0116
  727TMC3     H10749   3.364   2.682  10.496 -0.3213  3.4163 -0.0374
  727TMC3    H110750   3.148   2.480  10.195 -0.0825 -0.5201 -0.3127
  727TMC3    H210751   3.223   2.908  10.162 -1.6938 -0.0024  1.0637
  727TMC3    C710752   3.075   2.717  10.052  0.5443  0.5584 -0.1066
  727TMC3    C810753   3.398   2.908  10.374  0.0303  0.1095 -0.0561
  727TMC3    O110754   3.084   2.828   9.995 -0.0227  0.1648  0.6662
  727TMC3    O210755   3.462   2.890  10.478 -0.3936 -0.3104  0.6887
  728TMC3    C110756   2.184   1.616  15.664 -0.2295 -1.0345 -0.0985
  728TMC3    C210757   2.300   1.688  15.676 -0.0133 -0.0429 -0.0710
  728TMC3    C310758   2.363   1.711  15.556  0.4690  0.0517  0.5432
  728TMC3    C410759   2.124   1.582  15.543  0.2446  0.4821  0.2463
  728TMC3    C510760   2.186   1.620  15.430 -0.1892 -0.5778  0.1238
  728TMC3    C610761   2.308   1.684  15.432  0.0264 -0.2322 -0.1470
  728TMC3     C10762   2.117   1.576  15.786  0.2393 -0.3058  0.5118
  728TMC3     O10763   2.120   1.658  15.877  0.3698 -0.4211 -0.2698
  728TMC3     H10764   2.347   1.704  15.772 -1.4643  0.0858  0.6182
  728TMC3    H110765   2.024   1.541  15.543 -0.0091  1.1174 -0.5616
  728TMC3    H210766   2.356   1.716  15.340  1.2179 -0.7249  0.3142
  728TMC3    C710767   2.093   1.633  15.317  0.2739  0.2737  0.0015
  728TMC3    C810768   2.496   1.756  15.556 -0.3171  0.0587 -0.6306
  728TMC3    O110769   1.984   1.586  15.339 -0.1797 -0.1914  0.6992
  728TMC3    O210770   2.554   1.743  15.446  0.6001  0.1216 -0.2008
  729MPD2     C10771   3.954   2.694  16.761 -0.4847  0.1142 -0.5041
  729MPD2    C110772   4.072   2.625  16.765  0.6471  0.4616  0.3778
  729MPD2    C210773   4.107   2.560  16.881 -0.2410 -0.1017  0.6286
  729MPD2    C310774   4.025   2.576  16.989 -0.5098  0.9676  0.5618
  729MPD2    C410775   3.919   2.663  16.984 -0.2875  0.3393  0.0761
  729MPD2    C510776   3.878   2.721  16.872 -0.2547 -0.1687 -0.0532
  729MPD2     H10777   4.193   2.494  16.881  1.4779  2.1186 -0.5166
  729MPD2    H110778   3.864   2.671  17.077  1.9140 -1.0970  1.5190
  729MPD2    H210779   3.942   2.738  16.662  0.5457 -0.4249 -0.8671
  729MPD2    H310780   3.787   2.779  16.877  0.2953  0.7828 -1.2982
  729MPD2     N10781   4.051   2.517  17.109  0.2921 -0.2414 -0.6324
  729MPD2    H510782   3.994   2.543  17.189  2.3989  1.0326  0.4639
  729MPD2    N110783   4.159   2.629  16.653  0.0914 -0.0030 -0.4214
  729MPD2    H710784   4.134   2.688  16.574 -4.0165  0.8539  1.5360
  730TMC3    C110785   4.181   2.397  17.270 -0.3129 -0.6244 -0.7406
  730TMC3    C210786   4.276   2.301  17.288 -0.9110 -0.3580  0.4601
  730TMC3    C310787   4.395   2.341  17.346  0.0704  0.3512  0.2666
  730TMC3    C410788   4.194   2.519  17.339  0.0338 -0.1223 -0.0373
  730TMC3    C510789   4.308   2.551  17.402  0.1079  0.3498 -0.5097
  730TMC3    C610790   4.422   2.466  17.397  0.4654 -0.3214 -0.0552
  730TMC3     C10791   4.149   2.420  17.130  1.2334 -0.3384 -0.6658
  730TMC3     O10792   4.207   2.351  17.048 -0.0824 -0.1204 -0.0881
  730TMC3     H10793   4.275   2.204  17.239 -2.0976 -0.8388  1.4355
  730TMC3    H110794   4.118   2.596  17.336  0.8911  0.8167  2.4287
  730TMC3    H210795   4.520   2.489  17.439  0.3668  0.5505 -0.3038
  730TMC3    C710796   4.332   2.691  17.401 -0.1537 -0.6303 -0.0773
  730TMC3    C810797   4.510   2.287  17.266  0.1838  0.1986  0.4460
  730TMC3    O110798   4.266   2.752  17.315 -0.4904  0.0039  0.3254
  730TMC3    O210799   4.507   2.167  17.228 -0.3766  0.5196 -0.4625
  731MPD2     C10800   4.280   0.694  12.474 -0.0264 -0.2721 -0.7727
  731MPD2    C110801   4.388   0.609  12.476  0.5389  0.1449  0.3220
  731MPD2    C210802   4.434   0.564  12.598 -0.0990  0.1928 -0.0699
  731MPD2    C310803   4.370   0.602  12.719  0.8695  1.4412 -0.0639
  731MPD2    C410804   4.264   0.688  12.713  0.2223 -0.3202 -0.2075
  731MPD2    C510805   4.220   0.731  12.590  0.2075 -0.2176  0.0557
  731MPD2     H10806   4.525   0.506  12.593 -1.3876 -1.7052 -1.2268
  731MPD2    H110807   4.214   0.726  12.801  0.0913 -0.4446 -0.2288
  731MPD2    H210808   4.243   0.722  12.377  1.0821 -0.9480 -1.3878
  731MPD2    H310809   4.144   0.808  12.582 -1.0386 -1.3015  1.5094
  731MPD2     N10810   4.425   0.554  12.842  0.6261  0.3349  0.3038
  731MPD2    H510811   4.502   0.488  12.840 -0.3512 -0.7797 -1.0845
  731MPD2    N110812   4.441   0.561  12.352 -0.2466 -1.0523 -0.3854
  731MPD2    H710813   4.395   0.589  12.266  0.6742  1.9506  0.0909
  732TMC3    C110814   4.544   0.431  12.196  0.2805 -0.4686 -1.0252
  732TMC3    C210815   4.435   0.375  12.141 -0.1780 -0.6623 -0.4594
  732TMC3    C310816   4.449   0.309  12.016 -0.2314 -0.4451  0.3231
  732TMC3    C410817   4.667   0.414  12.134  0.6636  0.5329 -0.2672
  732TMC3    C510818   4.673   0.340  12.016  0.5741 -0.5133  0.2645
  732TMC3    C610819   4.562   0.302  11.950 -0.0941  0.5894 -0.6725
  732TMC3     C10820   4.541   0.472  12.339  0.0536  0.0957  0.0397
  732TMC3     O10821   4.634   0.438  12.410  0.3802  0.2310  0.4381
  732TMC3     H10822   4.343   0.378  12.200  1.1218 -1.2228  1.6128
  732TMC3    H110823   0.024   0.471  12.178  2.6208 -0.0134 -3.1714
  732TMC3    H210824   4.572   0.236  11.865  0.0665 -0.5273  0.2168
  732TMC3    C710825   0.072   0.273  11.982 -0.1880 -0.4497 -1.1721
  732TMC3    C810826   4.340   0.233  11.960  1.4246 -0.2444 -0.0181
  732TMC3    O110827   0.067   0.208  11.881 -0.1118 -0.1747 -0.3598
  732TMC3    O210828   4.346   0.206  11.840  0.4573 -0.6511  0.2408
  733TMC3    C110829   0.995   3.243  13.674 -0.1802  0.1569  0.7035
  733TMC3    C210830   1.018   3.369  13.725 -0.4156  0.2782  0.2948
  733TMC3    C310831   1.084   3.463  13.650  0.1965 -0.0786  0.1996
  733TMC3    C410832   1.030   3.211  13.547  0.0670 -0.0306 -0.1655
  733TMC3    C510833   1.106   3.303  13.478  0.3924 -0.7200 -0.3873
  733TMC3    C610834   1.117   3.437  13.520 -0.0204 -0.1575  0.0494
  733TMC3     C10835   0.888   3.182  13.736  0.6287  0.1537 -0.9451
  733TMC3     O10836   0.914   3.136  13.848  0.0661  0.0901 -0.3560
  733TMC3     H10837   0.985   3.393  13.825  1.8216 -0.7232  1.2737
  733TMC3    H110838   1.007   3.114  13.504 -0.8137 -0.7243  1.8795
  733TMC3    H210839   1.179   3.504  13.462  0.3182 -0.5237 -0.0055
  733TMC3    C710840   1.112   3.282  13.334 -0.2744 -1.1940  0.2189
  733TMC3    C810841   1.098   3.604  13.698  0.0896  0.0693 -0.7248
  733TMC3    O110842   1.125   3.169  13.286 -0.7124  0.1159 -0.0490
  733TMC3    O210843   1.083   3.633  13.814  0.4336  0.0253 -0.3356
  734MPD2     C10844   1.938   1.056  12.391 -0.4152 -0.1725 -0.5256
  734MPD2    C110845   1.996   0.970  12.302 -0.4623  0.4842  1.0706
  734MPD2    C210846   2.091   1.019  12.219  0.3985  0.1413  0.6533
  734MPD2    C310847   2.136   1.147  12.227  0.0374 -0.4480 -0.1931
  734MPD2    C410848   2.077   1.231  12.323 -0.9115  0.5387  0.1442
  734MPD2    C510849   1.976   1.185  12.404  0.2796 -0.9129  0.2804
  734MPD2     H10850   2.132   0.952  12.145  1.3994  0.1722  1.1794
  734MPD2    H110851   2.100   1.336  12.336 -1.5301  0.6830  0.0988
  734MPD2    H210852   1.864   1.025  12.463 -0.9060  1.8207 -0.1859
  734MPD2    H310853   1.922   1.253  12.469  0.4409 -2.7467  2.3682
  734MPD2     N10854   2.228   1.202  12.122  0.0881 -0.9261  0.1413
  734MPD2    H510855   2.255   1.132  12.054  1.1888  0.3589 -0.7320
  734MPD2    N110856   1.966   0.837  12.279 -0.7227 -1.4193  0.4689
  734MPD2    H710857   2.022   0.795  12.205  0.6036  0.4989  0.3861
  735TMC3    C110858   1.874   0.632  12.293  0.1310  0.7848 -0.6003
  735TMC3    C210859   1.807   0.631  12.177  0.0597 -0.2742  0.2583
  735TMC3    C310860   1.855   0.565  12.070  0.5237 -0.0929  0.1317
  735TMC3    C410861   1.986   0.555  12.306 -0.6944  0.0973 -0.2071
  735TMC3    C510862   2.019   0.474  12.199 -0.0703 -0.4246 -0.1852
  735TMC3    C610863   1.960   0.486  12.077 -0.5101  0.3364  0.1229
  735TMC3     C10864   1.873   0.760  12.349 -0.1174  0.0075 -0.2648
  735TMC3     O10865   1.773   0.794  12.414  0.5195  0.5439 -0.1110
  735TMC3     H10866   1.733   0.709  12.164 -0.2354 -0.6373 -0.2793
  735TMC3    H110867   2.043   0.554  12.397  0.7114  0.1406 -1.0917
  735TMC3    H210868   1.974   0.416  11.995  0.3624  0.7978 -0.1234
  735TMC3    C710869   2.142   0.400  12.205  0.2509 -0.7782  1.0445
  735TMC3    C810870   1.823   0.622  11.943  0.4634 -0.3510 -0.1378
  735TMC3    O110871   2.173   0.337  12.104  0.4207 -0.4121  0.8427
  735TMC3    O210872   1.717   0.681  11.934  0.0196  0.2274  0.0177
  736MPD2     C10873   2.348   0.319  12.505 -0.2132 -0.4974  0.9069
  736MPD2    C110874   2.324   0.341  12.373 -0.1817  0.0521  1.0616
  736MPD2    C210875   2.416   0.294  12.280  0.2136 -0.0182 -0.2096
  736MPD2    C310876   2.538   0.243  12.317  0.1325 -0.2618 -0.8159
  736MPD2    C410877   2.563   0.218  12.453 -0.4177 -0.0872 -0.1205
  736MPD2    C510878   2.474   0.265  12.545 -0.1329 -0.4065 -0.1600
  736MPD2     H10879   2.396   0.327  12.179 -0.5889 -1.7362 -0.6007
  736MPD2    H110880   2.656   0.183  12.496  0.0038  0.5829 -0.4843
  736MPD2    H210881   2.279   0.351  12.582 -1.9342  1.3032 -1.3830
  736MPD2    H310882   2.493   0.264  12.651 -1.7985  1.5693  0.1472
  736MPD2     N10883   2.635   0.197  12.226  0.3607 -0.2062  0.4061
  736MPD2    H510884   2.724   0.165  12.262  0.8761  1.5818  0.7428
  736MPD2    N110885   2.197   0.398  12.331  0.5932 -0.1574  0.1192
  736MPD2    H710886   2.137   0.422  12.409  1.2877 -0.4887  0.7623
  737TMC3    C110887   2.745   0.179  12.024  0.4514 -0.0061  0.4359
  737TMC3    C210888   2.859   0.246  12.061 -0.0924 -0.9174  0.1157
  737TMC3    C310889   2.969   0.227  11.982 -0.6576  0.3363 -0.4476
  737TMC3    C410890   2.739   0.085  11.922  0.2804  0.3799  0.4691
  737TMC3    C510891   2.854   0.053  11.866  1.0403 -0.1003 -0.1522
  737TMC3    C610892   2.972   0.120  11.891 -0.0502 -0.2600 -0.4443
  737TMC3     C10893   2.624   0.204  12.091  0.2099  0.7619  0.1188
  737TMC3     O10894   2.529   0.219  12.014  0.1918  0.3779 -0.3264
  737TMC3     H10895   2.857   0.330  12.129  1.5110  0.4001 -1.4551
  737TMC3    H110896   2.645   0.032  11.910  0.1299  0.2964  1.9340
  737TMC3    H210897   3.068   0.088  11.852  1.3063  0.1937  2.5602
  737TMC3    C710898   2.849   4.668  11.771 -0.5149  0.4056 -0.2879
  737TMC3    C810899   3.089   0.300  12.016 -0.0801 -0.1171  0.0687
  737TMC3    O110900   2.754   4.593  11.782  0.1927 -0.5744  0.2430
  737TMC3    O210901   3.092   0.361  12.121 -0.7281  0.3710  0.4271
  738MPD2     C10902   2.583   4.616  15.008  0.0788 -0.2910 -0.3404
  738MPD2    C110903   2.702   4.632  15.077  0.1238 -0.4435  0.1333
  738MPD2    C210904   2.795   4.712  15.027  0.6973  0.1889 -0.5815
  738MPD2    C310905   2.764   0.082  14.928 -0.7003  0.6479  0.6541
  738MPD2    C410906   2.650   0.075  14.864  0.4027  0.2660 -0.1775
  738MPD2    C510907   2.552   4.711  14.909 -0.4575  0.0157  0.4760
  738MPD2     H10908   2.892   4.708  15.074 -0.6597 -1.1224  2.1395
  738MPD2    H110909   2.624   0.149  14.789  3.8910 -0.0270 -1.7004
  738MPD2    H210910   2.503   4.558  15.052  1.7422 -1.7320  0.7969
  738MPD2    H310911   2.452   0.001  14.871 -0.4014 -0.4430  0.1613
  738MPD2     N10912   2.854   0.183  14.908 -0.2043  0.1288  0.4914
  738MPD2    H510913   2.839   0.241  14.826 -0.3211 -0.4681  0.0896
  738MPD2    N110914   2.743   4.541  15.183 -0.1433 -0.1140  0.3204
  738MPD2    H710915   2.842   4.540  15.205 -0.7055 -0.7883  2.8188
  739TMC3    C110916   3.027   0.346  14.963 -1.2995 -0.3215  0.2418
  739TMC3    C210917   3.073   0.351  14.835  0.3788  0.1868  0.3431
  739TMC3    C310918   3.170   0.438  14.801 -0.3989 -0.2160 -0.0684
  739TMC3    C410919   3.072   0.431  15.060 -0.1753  0.6068  0.3921
  739TMC3    C510920   3.173   0.519  15.027  0.7498  0.6454 -0.0427
  739TMC3    C610921   3.227   0.521  14.896 -0.0527  0.1974  0.6541
  739TMC3     C10922   2.920   0.252  15.011  0.4827  0.7171  0.6069
  739TMC3     O10923   2.896   0.248  15.132 -0.6139  0.1081 -0.0179
  739TMC3     H10924   3.047   0.269  14.770 -0.0032  0.3113  0.3416
  739TMC3    H110925   3.029   0.425  15.159 -2.3346 -0.4659 -0.6248
  739TMC3    H210926   3.308   0.586  14.866  0.6694 -0.8379  0.3964
  739TMC3    C710927   3.234   0.607  15.123 -0.8133  0.0510  0.1828
  739TMC3    C810928   3.256   0.396  14.686  0.0904  1.1783 -0.4518
  739TMC3    O110929   3.329   0.670  15.079  0.0336  0.2661 -0.1459
  739TMC3    O210930   3.241   0.295  14.625 -1.2264  0.1022  0.3021
  740TMC3    C110931   3.982   1.139  15.051  0.3224 -0.7532 -0.0087
  740TMC3    C210932   4.010   1.021  15.114 -0.0118 -0.1959 -0.6049
  740TMC3    C310933   4.093   0.925  15.056  0.0767 -0.0020 -0.3387
  740TMC3    C410934   4.032   1.168  14.927  0.4826  0.7509  0.3089
  740TMC3    C510935   4.120   1.080  14.877 -0.5863  0.1130 -0.5706
  740TMC3    C610936   4.146   0.961  14.932  0.0459  0.3166 -0.6282
  740TMC3     C10937   3.912   1.241  15.121 -0.1229 -0.2271 -0.0198
  740TMC3     O10938   3.952   1.355  15.111  0.4966  0.6522 -0.3297
  740TMC3     H10939   3.988   1.012  15.220  1.5858  0.9371 -0.1868
  740TMC3    H110940   4.001   1.259  14.877  0.7679 -0.0574 -1.3310
  740TMC3    H210941   4.212   0.891  14.882 -0.2188  0.9607 -1.8676
  740TMC3    C710942   4.223   1.132  14.789 -0.1972 -0.4357 -0.2581
  740TMC3    C810943   4.068   0.796  15.107  0.3201 -0.7901 -0.2114
  740TMC3    O110944   4.342   1.095  14.804  0.2528 -0.7576 -0.3077
  740TMC3    O210945   3.988   0.789  15.196 -1.0282 -0.3813 -0.1487
  741TMC3    C110946   3.116   0.456  14.270 -0.1332  0.3440  1.2189
  741TMC3    C210947   3.030   0.368  14.328 -0.3135 -0.1639 -0.4199
  741TMC3    C310948   2.979   0.392  14.451 -0.0723 -0.3163  0.7465
  741TMC3    C410949   3.142   0.573  14.326 -1.1840  0.2486  0.4844
  741TMC3    C510950   3.064   0.606  14.443  0.1273 -0.4208  0.2346
  741TMC3    C610951   2.987   0.513  14.514  0.1370  1.0217 -0.1225
  741TMC3     C10952   3.187   0.416  14.151  0.3994  0.2026  0.0798
  741TMC3     O10953   3.142   0.315  14.095 -0.1837 -0.1730 -0.3742
  741TMC3     H10954   2.998   0.278  14.278  1.8950 -0.6958 -0.8845
  741TMC3    H110955   3.189   0.648  14.264 -0.7575 -1.0749 -0.7816
  741TMC3    H210956   2.941   0.544  14.608  2.1491  1.8855  0.5810
  741TMC3    C710957   3.068   0.740  14.499 -0.3515  0.3831 -0.1303
  741TMC3    C810958   2.891   0.303  14.517  0.0096 -0.1033  0.1445
  741TMC3    O110959   3.036   0.763  14.617 -0.1965  0.4468  0.3700
  741TMC3    O210960   2.805   0.358  14.584  0.3837 -0.0651  0.1558
  742TMC3    C110961   3.089   3.557  15.619  0.3896  0.5314  0.1186
  742TMC3    C210962   3.033   3.561  15.492 -0.7994 -0.3532 -0.2987
  742TMC3    C310963   3.117   3.530  15.389 -0.4674  1.2044  0.0158
  742TMC3    C410964   3.222   3.532  15.641  0.6125 -0.2538 -0.0198
  742TMC3    C510965   3.300   3.498  15.531  0.0760 -0.8944 -0.2226
  742TMC3    C610966   3.247   3.493  15.405 -0.5146 -0.0897  0.4241
  742TMC3     C10967   3.004   3.606  15.730 -0.0198  0.1548 -0.4237
  742TMC3     O10968   2.908   3.680  15.710 -0.5922  0.1722  0.0013
  742TMC3     H10969   2.929   3.592  15.490 -0.4904  0.7547  1.2518
  742TMC3    H110970   3.260   3.532  15.742  2.5024 -0.4239 -0.7163
  742TMC3    H210971   3.312   3.484  15.319 -3.1904  2.7423 -1.9263
  742TMC3    C710972   3.444   3.511  15.534 -1.7042  0.3850 -0.1934
  742TMC3    C810973   3.058   3.496  15.261  0.1982  0.2017  0.1349
  742TMC3    O110974   3.505   3.469  15.440 -0.3049 -0.5163  0.4234
  742TMC3    O210975   3.125   3.418  15.193 -0.2140 -0.4746 -0.4868
  743MPD2     C10976   1.988   4.645   2.315  0.3741  0.3189 -0.3356
  743MPD2    C110977   1.958   0.045   2.280 -0.2456 -0.0337  0.5924
  743MPD2    C210978   2.065   0.134   2.258  0.1880 -0.7180 -0.1403
  743MPD2    C310979   2.196   0.109   2.279 -0.0236 -0.0016  0.0868
  743MPD2    C410980   2.218   4.710   2.338  0.0127 -0.5370 -0.0469
  743MPD2    C510981   2.116   4.616   2.346 -0.1346  0.5274 -0.5261
  743MPD2     H10982   2.039   0.237   2.234  1.7546 -0.4018 -0.4684
  743MPD2    H110983   2.320   4.680   2.358  0.6484  1.8937  0.3955
  743MPD2    H210984   1.905   4.578   2.338  0.1326  0.0316 -2.0370
  743MPD2    H310985   2.139   4.515   2.378 -3.2411  0.4489  1.5436
  743MPD2     N10986   2.292   0.208   2.242 -0.1617  0.1288 -0.6950
  743MPD2    H510987   2.258   0.293   2.199 -0.5398  0.7323  0.7996
  743MPD2    N110988   1.822   0.073   2.259 -0.5266 -0.0057 -0.2891
  743MPD2    H710989   1.755   4.722   2.253  1.1805 -1.6062  0.9528
  744TMC3    C110990   1.631   0.213   2.189 -0.9406 -0.1711  0.1747
  744TMC3    C210991   1.592   0.340   2.159 -0.5462 -0.3035 -0.1910
  744TMC3    C310992   1.503   0.368   2.053 -0.0922 -0.1013  0.4011
  744TMC3    C410993   1.591   0.114   2.102 -0.0998  0.2029 -0.8128
  744TMC3    C510994   1.502   0.137   2.009  0.4209  0.1156  0.1092
  744TMC3    C610995   1.454   0.267   1.979 -0.2852 -0.6289 -0.4543
  744TMC3     C10996   1.767   0.201   2.241 -0.2994 -0.4469 -0.3866
  744TMC3     O10997   1.819   0.307   2.266  0.4564  0.2619  0.0979
  744TMC3     H10998   1.637   0.420   2.218  0.4181 -1.9204  1.2804
  744TMC3    H110999   1.631   0.013   2.104  0.3044  0.3717  0.0220
  744TMC3    H211000   1.390   0.288   1.895  0.6284  0.5103 -0.8682
  744TMC3    C711001   1.482   0.036   1.913 -0.2152  0.5772  0.4354
  744TMC3    C811002   1.454   0.503   2.018  0.0075 -0.0234  0.2780
  744TMC3    O111003   1.471   4.645   1.955  0.2054 -0.0626 -0.3621
  744TMC3    O211004   1.364   0.512   1.939  0.3324  0.0642 -0.0522
  745TMC3    C111005   4.170   3.422  14.239  0.5080 -0.3476 -0.3803
  745TMC3    C211006   4.071   3.488  14.303  0.3462  0.0912  0.0418
  745TMC3    C311007   3.941   3.478  14.260 -0.2999 -0.4517 -0.0006
  745TMC3    C411008   4.146   3.368  14.114 -1.1139 -0.2257  0.3329
  745TMC3    C511009   4.016   3.350  14.077 -0.1729  0.1918 -0.7025
  745TMC3    C611010   3.912   3.414  14.140 -0.4199  1.3567  0.7342
  745TMC3     C11011   4.297   3.489  14.241  0.3207  0.3099  0.2003
  745TMC3     O11012   4.373   3.452  14.329  0.6670  0.2009 -0.4524
  745TMC3     H11013   4.100   3.528  14.399 -1.7620  1.9979 -0.1146
  745TMC3    H111014   4.233   3.310  14.086 -1.0863  0.2027 -0.4643
  745TMC3    H211015   3.810   3.414  14.103 -1.3215 -2.8869  3.1994
  745TMC3    C711016   3.994   3.319  13.937 -0.8849  0.1850 -0.2316
  745TMC3    C811017   3.852   3.579  14.299  0.0681 -0.0915 -0.4109
  745TMC3    O111018   3.879   3.307  13.900  0.2019 -0.2073 -0.1295
  745TMC3    O211019   3.735   3.552  14.274  0.2208 -0.0566  0.0751
  746TMC3    C111020   1.638   0.339  11.189 -0.2816 -0.4680 -0.0213
  746TMC3    C211021   1.725   0.280  11.099  0.4047 -0.0449  0.0356
  746TMC3    C311022   1.701   0.150  11.059 -0.6011  0.2080 -0.1820
  746TMC3    C411023   1.530   0.267  11.234 -0.8528  0.1385  0.0926
  746TMC3    C511024   1.515   0.134  11.183  0.0427  0.0297  0.1985
  746TMC3    C611025   1.588   0.088  11.082  0.1340  0.1361 -0.2905
  746TMC3     C11026   1.653   0.478  11.234  0.3284  0.5812  0.3175
  746TMC3     O11027   1.572   0.507  11.321 -0.0312  0.0635 -0.0756
  746TMC3     H11028   1.824   0.324  11.110 -0.0384  0.8182  0.6109
  746TMC3    H111029   1.460   0.310  11.305 -0.8000 -1.9571  1.4055
  746TMC3    H211030   1.573   4.709  11.051  0.0601  0.3688 -1.0263
  746TMC3    C711031   1.400   0.055  11.226 -0.6370 -0.1089 -0.4212
  746TMC3    C811032   1.766   0.103  10.936  0.2566  0.6409 -1.1916
  746TMC3    O111033   1.371   4.676  11.170 -0.1845  0.0031 -0.5245
  746TMC3    O211034   1.712   0.014  10.877  0.0494 -0.8089 -0.2098
  747TMC3    C111035   3.579   4.554  11.030 -0.5939 -0.1387  0.1161
  747TMC3    C211036   3.446   4.534  11.042  0.5554 -0.1963 -0.1350
  747TMC3    C311037   3.408   4.520  11.171 -1.0057 -0.0764  0.9853
  747TMC3    C411038   3.660   4.569  11.138  0.0206 -0.4546  0.4418
  747TMC3    C511039   3.615   4.567  11.267  0.1677 -0.1964  1.2048
  747TMC3    C611040   3.482   4.544  11.285  0.1855  0.7074 -0.0043
  747TMC3     C11041   3.630   4.543  10.903 -0.2401 -0.2098 -0.5583
  747TMC3     O11042   3.553   4.515  10.815 -0.1954  0.8798 -0.1049
  747TMC3     H11043   3.378   4.521  10.959 -2.2755 -2.4191  2.5409
  747TMC3    H111044   3.767   4.581  11.124 -0.1443  1.5321  0.9074
  747TMC3    H211045   3.440   4.506  11.377  1.8862 -1.3911 -0.0845
  747TMC3    C711046   3.684   4.610  11.393 -0.0540 -0.4562 -0.0269
  747TMC3    C811047   3.269   4.506  11.194 -0.5583 -0.1136  0.2689
  747TMC3    O111048   3.629   4.586  11.501 -0.0127  0.3771  0.2715
  747TMC3    O211049   3.205   4.445  11.107  0.2805 -0.0025  0.4745
  748MPD2     C11050   1.101   1.196   0.872  0.0685 -0.4150 -0.1305
  748MPD2    C111051   0.970   1.232   0.882 -0.2150  0.3051  0.1766
  748MPD2    C211052   0.945   1.338   0.968 -0.2076  0.1484  0.6640
  748MPD2    C311053   1.048   1.401   1.032 -0.3412  0.1117  0.3559
  748MPD2    C411054   1.180   1.359   1.018  0.8561  0.2273  0.1767
  748MPD2    C511055   1.205   1.259   0.936 -0.5700 -0.5806  0.4971
  748MPD2     H11056   0.847   1.377   0.996  0.3022  2.6235 -1.0013
  748MPD2    H111057   1.263   1.400   1.073 -0.3083  1.6048  0.9357
  748MPD2    H211058   1.128   1.108   0.815  2.5444  0.1897  0.1131
  748MPD2    H311059   1.309   1.230   0.927 -0.6776 -1.1954  1.2476
  748MPD2     N11060   1.004   1.514   1.108  0.6050 -0.2279 -0.4265
  748MPD2    H511061   0.912   1.552   1.091  1.9561  2.8202 -1.0574
  748MPD2    N111062   0.875   1.169   0.800 -0.1578 -0.0813 -0.1391
  748MPD2    H711063   0.911   1.096   0.739 -0.6866 -0.8070  0.4275
  749TMC3    C111064   0.980   1.658   1.283 -0.4315 -0.8353 -0.6509
  749TMC3    C211065   0.991   1.670   1.419  0.0680 -0.3259  0.3687
  749TMC3    C311066   0.943   1.785   1.476  0.0164  0.1050  0.5278
  749TMC3    C411067   0.921   1.746   1.201 -0.0139 -0.5592 -0.5910
  749TMC3    C511068   0.850   1.846   1.265  0.3253  0.4134  0.0535
  749TMC3    C611069   0.870   1.870   1.401 -1.2180  0.5362  0.3271
  749TMC3     C11070   1.070   1.565   1.216  0.1863  1.0068 -0.2566
  749TMC3     O11071   1.175   1.524   1.270  0.2191 -0.1378 -0.5602
  749TMC3     H11072   1.043   1.586   1.464  1.2887 -0.7750 -1.8881
  749TMC3    H111073   0.912   1.739   1.094  1.8576  0.5969 -0.8246
  749TMC3    H211074   0.823   1.960   1.438  0.7690  1.5689  0.2791
  749TMC3    C711075   0.796   1.958   1.188  0.5903 -0.2329 -0.5435
  749TMC3    C811076   0.989   1.824   1.601 -1.2961  0.3854  0.1431
  749TMC3    O111077   0.832   2.072   1.222 -0.6132  0.2310 -0.1473
  749TMC3    O211078   0.973   1.937   1.641 -0.0942  0.6574 -0.3297
  750MPD2     C11079   1.847   2.335  11.335 -0.1695 -0.6827 -0.2610
  750MPD2    C111080   1.714   2.306  11.337  0.8914 -0.2372  0.9961
  750MPD2    C211081   1.676   2.169  11.315  0.4450  0.0055  0.0501
  750MPD2    C311082   1.775   2.072  11.288 -0.0078 -0.2969  0.1448
  750MPD2    C411083   1.909   2.103  11.273 -0.1748  0.5796  0.6515
  750MPD2    C511084   1.946   2.233  11.303 -0.0453  0.5332 -0.0078
  750MPD2     H11085   1.570   2.146  11.321  1.1608 -3.5319 -0.7353
  750MPD2    H111086   1.974   2.023  11.240  0.3893  1.1083  0.4668
  750MPD2    H211087   1.871   2.436  11.366 -0.5855 -0.6146 -0.1626
  750MPD2    H311088   2.050   2.260  11.320 -0.3987  1.8227  0.1640
  750MPD2     N11089   1.752   1.937  11.262  0.1404  0.0140 -0.4608
  750MPD2    H511090   1.833   1.879  11.242 -0.7378 -0.4733 -2.6178
  750MPD2    N111091   1.629   2.412  11.356 -0.3472  0.4754 -0.0789
  750MPD2    H711092   1.665   2.506  11.349 -1.0795  0.6792 -1.0221
  751TMC3    C111093   1.629   1.744  11.197  0.0223 -0.1495  0.1283
  751TMC3    C211094   1.509   1.673  11.197  0.1958  0.8230 -0.3923
  751TMC3    C311095   1.531   1.540  11.199  0.3555  0.3237  0.1411
  751TMC3    C411096   1.753   1.686  11.181 -0.2624 -0.2928  0.3110
  751TMC3    C511097   1.764   1.552  11.185 -0.5061  0.4095  0.1275
  751TMC3    C611098   1.650   1.476  11.192 -0.1363 -0.4195  0.1823
  751TMC3     C11099   1.625   1.885  11.245  0.1223  0.2991 -0.3334
  751TMC3     O11100   1.514   1.930  11.266 -0.1773 -0.7099  0.5056
  751TMC3     H11101   1.411   1.716  11.216 -0.8026 -0.7917 -1.8143
  751TMC3    H111102   1.845   1.742  11.164 -0.3948 -0.1499  0.0606
  751TMC3    H211103   1.651   1.368  11.179  1.1292 -0.4580  0.5304
  751TMC3    C711104   1.892   1.488  11.146 -0.4619  0.4491  0.6822
  751TMC3    C811105   1.421   1.449  11.153  0.2642 -0.2324 -0.1222
  751TMC3    O111106   1.984   1.563  11.113  0.3560  0.6330 -0.6113
  751TMC3    O211107   1.447   1.344  11.102  0.5370  0.1643 -0.4361
  752TMC3    C111108   0.580   2.476  16.698  0.0880  0.0032 -0.2878
  752TMC3    C211109   0.526   2.424  16.811 -0.1844  0.2819  0.9353
  752TMC3    C311110   0.552   2.489  16.929 -0.1032 -0.7985 -0.5060
  752TMC3    C411111   0.662   2.585  16.696 -0.8023 -0.3605 -0.1086
  752TMC3    C511112   0.684   2.642  16.821  0.6394 -0.2623 -0.2497
  752TMC3    C611113   0.626   2.602  16.933 -0.8262  0.3159 -0.1256
  752TMC3     C11114   0.534   2.424  16.572 -0.8734  0.2049 -0.1632
  752TMC3     O11115   0.608   2.426  16.473 -0.0663  0.0354 -0.6855
  752TMC3     H11116   0.466   2.335  16.800 -0.2587  0.4615 -0.1010
  752TMC3    H111117   0.707   2.616  16.602 -0.1873  2.8178  1.2298
  752TMC3    H211118   0.650   2.652  17.026 -2.3013  0.2250  0.2995
  752TMC3    C711119   0.757   2.766  16.816  0.8660 -0.2061  0.4590
  752TMC3    C811120   0.470   2.446  17.040  0.4473 -0.1095  0.4990
  752TMC3    O111121   0.818   2.781  16.712  0.0839 -0.2686 -0.0354
  752TMC3    O211122   0.402   2.341  17.027  0.2640  0.0526  0.4456
  753TMC3    C111123   2.040   3.212  13.778  0.6407 -0.4038 -0.0901
  753TMC3    C211124   2.082   3.202  13.906  0.3970 -0.8894  0.4449
  753TMC3    C311125   2.105   3.077  13.953  0.0673 -0.0551  0.5007
  753TMC3    C411126   2.017   3.112  13.696 -0.6435  0.5065 -0.2493
  753TMC3    C511127   2.022   2.988  13.752  0.1668  0.1208 -0.8964
  753TMC3    C611128   2.074   2.969  13.876  0.2492  0.0516 -0.0094
  753TMC3     C11129   2.035   3.342  13.718  0.0699 -0.2334  0.0028
  753TMC3     O11130   1.958   3.362  13.626 -1.0700  0.2279 -0.2491
  753TMC3     H11131   2.100   3.291  13.964 -1.0728  0.0746 -0.5717
  753TMC3    H111132   2.006   3.123  13.589 -3.6928 -3.4184 -0.3675
  753TMC3    H211133   2.093   2.869  13.914  0.5941 -1.0857 -3.1985
  753TMC3    C711134   2.008   2.870  13.664  0.4876 -0.2014 -0.2087
  753TMC3    C811135   2.197   3.049  14.061  0.3353 -0.2050  0.0224
  753TMC3    O111136   2.044   2.879  13.547  0.4974  0.6887  0.3666
  753TMC3    O211137   2.242   2.935  14.066 -0.2743  0.1264 -0.1386
  754MPD2     C11138   0.675   1.923  12.839 -0.4678 -0.5924  0.0144
  754MPD2    C111139   0.685   1.797  12.894  0.2903 -0.0191 -0.1716
  754MPD2    C211140   0.607   1.762  13.004 -0.2490  0.3850  1.0143
  754MPD2    C311141   0.511   1.849  13.051 -0.5114  0.5728 -0.0957
  754MPD2    C411142   0.486   1.964  12.983  0.5576 -0.1922  0.0645
  754MPD2    C511143   0.569   1.998  12.873  0.6490  0.6871 -0.1387
  754MPD2     H11144   0.612   1.665  13.052  1.3239  0.1634  0.4113
  754MPD2    H111145   0.410   2.031  13.021 -0.3163 -0.4538 -1.2566
  754MPD2    H211146   0.737   1.948  12.754  0.4206  1.0228  1.1470
  754MPD2    H311147   0.559   2.098  12.833  0.6580  0.8289  0.2154
  754MPD2     N11148   0.452   1.833  13.175  0.4609 -0.2663 -0.1056
  754MPD2    H511149   0.372   1.894  13.191  1.2643  0.6948  0.2986
  754MPD2    N111150   0.784   1.710  12.833  0.3178 -0.1637  0.3709
  754MPD2    H711151   0.812   1.743  12.741  2.8160 -2.0621  0.4404
  755MPD2     C11152   0.075   2.524  13.517 -0.6150 -0.4038  0.3256
  755MPD2    C111153   0.092   2.433  13.624 -0.3392  0.6716  0.2067
  755MPD2    C211154   0.143   2.305  13.594 -0.5956  0.0975  0.1462
  755MPD2    C311155   0.148   2.264  13.462 -0.1802  0.2140  0.6042
  755MPD2    C411156   0.130   2.355  13.358  0.0733  0.4409  0.0047
  755MPD2    C511157   0.096   2.490  13.388 -0.3276  0.0918  0.1021
  755MPD2     H11158   0.161   2.231  13.671  1.8388  0.8819  0.3192
  755MPD2    H111159   0.153   2.337  13.254 -0.2408 -1.1638  0.2063
  755MPD2    H211160   0.051   2.628  13.535  0.8848 -0.2442  1.3347
  755MPD2    H311161   0.072   2.559  13.308  0.1094 -0.2074 -0.2902
  755MPD2     N11162   0.171   2.123  13.424 -0.3516  0.1697 -0.3511
  755MPD2    H511163   0.173   2.105  13.324  2.7373  0.9085 -0.4046
  755MPD2    N111164   0.068   2.467  13.755  0.0915  0.4267 -0.8917
  755MPD2    H711165   0.082   2.398  13.829  1.8338  1.0802 -0.6066
  756MPD2     C11166   1.174   2.126   9.721  0.1202  0.8601 -0.1831
  756MPD2    C111167   1.188   2.150   9.854  0.0810  0.2678 -0.0581
  756MPD2    C211168   1.124   2.067   9.946 -0.2945  0.3527  0.5698
  756MPD2    C311169   1.030   1.971   9.909 -0.1022 -0.7225 -0.5337
  756MPD2    C411170   1.007   1.950   9.778 -0.7004  0.2438  0.5845
  756MPD2    C511171   1.077   2.031   9.689  0.1937 -0.5001  0.7017
  756MPD2     H11172   1.150   2.085  10.049  0.4449 -0.2875  0.4971
  756MPD2    H111173   0.943   1.870   9.744  0.2148  0.3678 -1.4126
  756MPD2    H211174   1.221   2.181   9.641  0.8355 -0.4758 -0.6713
  756MPD2    H311175   1.074   2.010   9.582 -0.0127 -0.2358  0.6551
  756MPD2     N11176   0.981   1.895  10.017  0.2148 -0.1902 -0.3401
  756MPD2    H511177   1.019   1.919  10.108  0.5677 -0.2918 -0.4628
  756MPD2    N111178   1.262   2.257   9.907  0.3343  0.0316  0.0272
  756MPD2    H711179   1.270   2.273  10.007 -2.1380  2.4337 -0.1577
  757MPD2     C11180   0.690   0.952  10.232 -0.2795 -0.5911  0.4552
  757MPD2    C111181   0.768   1.002  10.130 -0.1560  0.6438  0.4353
  757MPD2    C211182   0.777   1.140  10.124 -0.2240  0.1994  0.1567
  757MPD2    C311183   0.729   1.219  10.220 -1.2847  0.4707 -0.1376
  757MPD2    C411184   0.659   1.167  10.325 -0.1232 -0.3322  0.0954
  757MPD2    C511185   0.638   1.027  10.332  0.0197 -0.8153  0.2274
  757MPD2     H11186   0.831   1.185  10.041 -1.6922  1.7630  0.0562
  757MPD2    H111187   0.621   1.226  10.408 -1.1227 -1.4319  0.4342
  757MPD2    H211188   0.664   0.847  10.243 -1.2557 -0.2860  1.0241
  757MPD2    H311189   0.584   0.983  10.415 -2.7744  1.0407 -0.5832
  757MPD2     N11190   0.756   1.363  10.215 -0.6482  0.4502 -0.0780
  757MPD2    H511191   0.826   1.392  10.148 -1.0827  0.4656 -0.5264
  757MPD2    N111192   0.836   0.915  10.039 -0.0547 -0.9583  0.2018
  757MPD2    H711193   0.801   0.821  10.025  2.1623 -2.3124  3.5452
  758MPD2     C11194   0.977   2.046  15.915  0.9908  0.6250  0.3448
  758MPD2    C111195   1.012   1.982  16.034 -0.1633  0.4622 -0.7646
  758MPD2    C211196   0.996   2.044  16.157 -0.0222  0.6440  0.0537
  758MPD2    C311197   0.936   2.172  16.156 -0.5212  0.9623  0.6101
  758MPD2    C411198   0.893   2.226  16.040  0.3101  0.1776 -0.8060
  758MPD2    C511199   0.917   2.165  15.927  0.5141 -0.0679 -1.0108
  758MPD2     H11200   1.034   2.010  16.253 -1.2218 -1.1615 -0.1148
  758MPD2    H111201   0.832   2.315  16.043 -1.9650 -1.4139  0.3395
  758MPD2    H211202   0.979   2.008  15.813 -0.1001 -0.9054  0.9010
  758MPD2    H311203   0.876   2.213  15.839  0.1262 -1.8761 -1.8187
  758MPD2     N11204   0.919   2.242  16.276  0.0925  0.0139  0.1253
  758MPD2    H511205   0.845   2.311  16.276 -0.4330 -0.5607  2.2767
  758MPD2    N111206   1.069   1.854  16.030  0.2378 -0.4474  0.0225
  758MPD2    H711207   1.086   1.808  15.942  1.6802 -1.1231  0.6586
  759MPD2     C11208   4.560   0.155  10.453 -0.2919 -0.3363 -0.7118
  759MPD2    C111209   4.597   0.032  10.399 -0.3934 -0.2067 -0.6316
  759MPD2    C211210   4.721   0.020  10.335  0.2707 -0.1156 -0.2323
  759MPD2    C311211   0.081   0.132  10.324  0.4938 -0.6510 -0.5246
  759MPD2    C411212   0.035   0.255  10.372 -0.2258  0.2010 -0.1524
  759MPD2    C511213   4.641   0.265  10.439 -0.1235  0.2629 -0.2178
  759MPD2     H11214   0.022   4.645  10.300 -4.0226 -1.2577 -0.0311
  759MPD2    H111215   0.105   0.338  10.372  0.4310 -0.3551 -0.6786
  759MPD2    H211216   4.464   0.181  10.497  1.0477  2.5492  0.5490
  759MPD2    H311217   4.615   0.360  10.485  1.9626  1.2283 -1.0148
  759MPD2     N11218   0.205   0.111  10.265 -0.5127 -0.0112  0.0933
  759MPD2    H511219   0.225   0.014  10.242  0.5288  0.3044 -0.3409
  759MPD2    N111220   4.511   4.643  10.396 -0.6118  0.0544 -0.5262
  759MPD2    H711221   4.551   4.560  10.355  0.9293  1.4884 -1.9305
  760MPD2     C11222   4.152   2.185  12.235 -0.4610 -0.3440 -0.3633
  760MPD2    C111223   4.288   2.179  12.209  0.2789 -0.3098 -0.1484
  760MPD2    C211224   4.350   2.057  12.205  0.4067  0.0008  1.4769
  760MPD2    C311225   4.283   1.934  12.222 -0.3003  0.1772 -0.5348
  760MPD2    C411226   4.148   1.941  12.241 -0.4018 -0.3527 -0.2697
  760MPD2    C511227   4.084   2.064  12.251  0.1122  0.1973  0.6046
  760MPD2     H11228   4.457   2.061  12.196  0.3716 -0.2416  0.9549
  760MPD2    H111229   4.093   1.849  12.255  0.2299 -0.4988  1.2401
  760MPD2    H211230   4.106   2.282  12.253  1.0438  0.4458 -0.8057
  760MPD2    H311231   3.980   2.059  12.282  0.7688 -0.0042  2.8083
  760MPD2     N11232   4.355   1.815  12.210 -0.0486  0.5630  0.0953
  760MPD2    H511233   4.295   1.735  12.202  0.2735  0.2814  0.4858
  760MPD2    N111234   4.363   2.292  12.163 -0.2451  0.4180  0.8226
  760MPD2    H711235   4.458   2.264  12.142 -0.5114  0.4885 -0.4462
  761MPD2     C11236   0.928   1.342  11.092  1.2115 -0.0811  0.0738
  761MPD2    C111237   1.041   1.302  11.020  0.1687  0.3536 -0.2025
  761MPD2    C211238   1.161   1.367  11.046 -0.0342  0.3852 -0.3793
  761MPD2    C311239   1.172   1.451  11.157  0.5226 -0.6643 -0.7232
  761MPD2    C411240   1.057   1.492  11.224 -0.1593  0.1332 -0.9132
  761MPD2    C511241   0.941   1.440  11.184 -0.4850  0.3141  0.3129
  761MPD2     H11242   1.251   1.340  10.991  0.5564  0.8642  0.3613
  761MPD2    H111243   1.063   1.566  11.304  0.9759 -0.3295 -0.5773
  761MPD2    H211244   0.832   1.301  11.063  0.7358 -0.6422  2.4285
  761MPD2    H311245   0.849   1.476  11.229 -0.2429  1.2035  0.0994
  761MPD2     N11246   1.297   1.505  11.191  0.2116  0.6392 -0.1853
  761MPD2    H511247   1.291   1.565  11.273  0.2551 -0.8880  0.9240
  761MPD2    N111248   1.023   1.199  10.919  0.4566  0.3256 -0.1224
  761MPD2    H711249   0.935   1.150  10.914  1.3792 -1.0621 -2.5404
  762MPD2     C11250   1.595   1.157  10.830  0.0943  0.0074 -0.0568
  762MPD2    C111251   1.566   1.037  10.757 -0.0885 -0.0979  0.0130
  762MPD2    C211252   1.676   0.962  10.705  0.2581 -0.1391  0.4228
  762MPD2    C311253   1.805   1.007  10.719 -0.0796  0.8348 -0.0366
  762MPD2    C411254   1.830   1.124  10.785  0.7584 -0.2791 -0.8270
  762MPD2    C511255   1.722   1.192  10.846 -0.2023  0.3743 -0.0501
  762MPD2     H11256   1.657   0.866  10.659  0.7185 -0.1762  0.3070
  762MPD2    H111257   1.930   1.165  10.798  0.5014 -0.4200  1.6358
  762MPD2    H211258   1.522   1.212  10.888  1.3081 -0.5991  2.0574
  762MPD2    H311259   1.744   1.283  10.902 -1.7627  0.0445  1.0755
  762MPD2     N11260   1.908   0.918  10.678  0.0650 -0.1594  0.5957
  762MPD2    H511261   1.877   0.833  10.632  0.2954 -0.3688  0.8222
  762MPD2    N111262   1.434   0.999  10.737  0.0167 -0.0320 -0.0721
  762MPD2    H711263   1.364   1.073  10.741  0.0770  0.1516 -2.8035
  763MPD2     C11264   2.926   1.935  16.574 -0.2315 -0.2389  0.1607
  763MPD2    C111265   2.798   1.989  16.577 -0.2867  0.4281  0.2938
  763MPD2    C211266   2.768   2.098  16.642 -0.5709 -0.1084 -0.1660
  763MPD2    C311267   2.878   2.170  16.694  0.5558 -0.1423 -0.3914
  763MPD2    C411268   3.008   2.120  16.692 -1.1864  0.6955  0.0152
  763MPD2    C511269   3.026   1.996  16.649 -0.4537 -0.4976 -0.8557
  763MPD2     H11270   2.673   2.151  16.646 -0.3371  0.1940  1.5027
  763MPD2    H111271   3.090   2.178  16.732 -1.8293 -0.0468  2.4023
  763MPD2    H211272   2.956   1.854  16.508 -3.1503  0.3100 -1.8187
  763MPD2    H311273   3.123   1.951  16.631 -0.6298 -0.8858 -0.8220
  763MPD2     N11274   2.867   2.300  16.754 -0.2938  0.1618  0.7984
  763MPD2    H511275   2.956   2.339  16.785  0.7617  0.6047 -2.6666
  763MPD2    N111276   2.695   1.921  16.506 -0.4668 -0.2184 -0.0958
  763MPD2    H711277   2.604   1.963  16.486 -0.3413  0.5753  1.0238
  764MPD2     C11278   1.463   3.176   0.307 -0.1791  0.2873  0.6119
  764MPD2    C111279   1.414   3.201   0.183 -0.8867  0.3313  0.3807
  764MPD2    C211280   1.293   3.141   0.147 -0.4857  0.0291  0.2802
  764MPD2    C311281   1.228   3.049   0.227  0.4206  0.1969 -0.4627
  764MPD2    C411282   1.278   3.020   0.350 -0.0333  0.1260 -0.3816
  764MPD2    C511283   1.386   3.088   0.389 -0.0994  0.2943  0.0949
  764MPD2     H11284   1.249   3.161   0.050  0.0832  0.7984  0.1775
  764MPD2    H111285   1.233   2.948   0.417  1.6733 -0.9755 -0.4184
  764MPD2    H211286   1.560   3.216   0.333  0.2080  0.6833 -1.4160
  764MPD2    H311287   1.431   3.056   0.483 -0.0824  0.2815  0.0824
  764MPD2     N11288   1.101   2.997   0.198  0.1691  0.4498  0.1136
  764MPD2    H511289   1.064   3.016   0.105 -0.6140  1.0029  0.5421
  764MPD2    N111290   1.482   3.284   0.088  0.2714  0.1090  0.6173
  764MPD2    H711291   1.430   3.296   0.002 -0.9173 -0.1197  1.3140
  765MPD2     C11292   0.642   1.205  16.048 -0.5593  0.6753  0.3226
  765MPD2    C111293   0.725   1.312  16.017 -0.4161  0.2851 -0.6239
  765MPD2    C211294   0.858   1.283  15.985  0.5030 -0.6875 -0.5362
  765MPD2    C311295   0.900   1.155  15.964  0.2238  0.2632 -0.1405
  765MPD2    C411296   0.818   1.054  15.993  0.3637 -1.0274 -0.5560
  765MPD2    C511297   0.690   1.077  16.037 -0.2880  0.3911 -0.3211
  765MPD2     H11298   0.935   1.358  15.972 -1.2380  0.8738 -1.8744
  765MPD2    H111299   0.847   0.951  15.978 -0.4548 -1.3258 -0.0597
  765MPD2    H211300   0.538   1.216  16.077 -0.0546  2.3862  1.4908
  765MPD2    H311301   0.631   0.990  16.065  0.0221  0.3698  0.2597
  765MPD2     N11302   1.028   1.127  15.912  0.7096 -0.0340  0.0440
  765MPD2    H511303   1.082   1.212  15.907  1.4957 -0.5322  0.1389
  765MPD2    N111304   0.663   1.436  16.026 -0.2789  0.2652  0.6943
  765MPD2    H711305   0.567   1.432  16.059  0.2314  1.0399  2.2426
  766MPD2     C11306   0.025   1.649  15.926 -0.0171  0.5911  0.1836
  766MPD2    C111307   0.154   1.612  15.887  0.3097  0.0586 -0.2797
  766MPD2    C211308   0.162   1.545  15.773  0.0608  0.3928  0.0038
  766MPD2    C311309   0.055   1.508  15.695 -0.1281  0.4267 -0.4157
  766MPD2    C411310   4.654   1.539  15.737 -0.4108  0.0147 -0.2291
  766MPD2    C511311   4.639   1.609  15.852  0.9698  0.3838  0.6876
  766MPD2     H11312   0.265   1.537  15.741  0.8287  1.6522  2.1745
  766MPD2    H111313   4.567   1.525  15.675  0.7713 -0.1637 -1.8628
  766MPD2    H211314   0.007   1.700  16.020  1.5435 -0.8143  1.2371
  766MPD2    H311315   4.538   1.627  15.884  0.4516  2.5950 -2.1262
  766MPD2     N11316   0.069   1.441  15.572  0.0557 -0.3710  0.4623
  766MPD2    H511317   4.705   1.434  15.523 -0.0801 -1.0516  0.7906
  766MPD2    N111318   0.273   1.652  15.954  0.1767 -0.9492  0.1053
  766MPD2    H711319   0.358   1.620  15.909  1.1338  2.4560 -0.4854
  767MPD2     C11320   4.399   1.716  15.491  0.0507 -1.5392  0.4756
  767MPD2    C111321   4.518   1.717  15.424 -0.0894 -0.0029  0.2419
  767MPD2    C211322   4.527   1.656  15.303 -0.2886  0.2800 -0.0728
  767MPD2    C311323   4.416   1.594  15.251 -0.1732 -0.0458  0.4706
  767MPD2    C411324   4.293   1.603  15.310  0.1632 -0.5189  0.0258
  767MPD2    C511325   4.287   1.660  15.434 -0.0832  0.0236  0.5443
  767MPD2     H11326   4.614   1.656  15.238  0.4658 -2.4687  0.9169
  767MPD2    H111327   4.202   1.561  15.269  0.3691 -0.7569 -0.1845
  767MPD2    H211328   4.381   1.753  15.592 -1.4375 -0.4328 -0.2006
  767MPD2    H311329   4.194   1.650  15.488 -0.3215 -0.8506 -0.0253
  767MPD2     N11330   4.437   1.516  15.134  0.2876  0.3429  0.3611
  767MPD2    H511331   4.527   1.515  15.088  1.2710 -2.7776  2.3412
  767MPD2    N111332   4.622   1.791  15.489 -0.2387 -0.3095 -0.7959
  767MPD2    H711333   4.609   1.837  15.578 -0.4790  1.1778 -1.5899
  768MPD2     C11334   1.371   4.316  11.156 -0.0394 -0.2947  0.7223
  768MPD2    C111335   1.273   4.288  11.248  0.0818  0.4515  0.1020
  768MPD2    C211336   1.308   4.300  11.386  0.1774  0.1327  0.8299
  768MPD2    C311337   1.439   4.321  11.432  0.2825 -0.1030  0.8562
  768MPD2    C411338   1.536   4.335  11.337 -0.6360  0.2616 -0.2074
  768MPD2    C511339   1.502   4.337  11.201 -0.2524  0.5456  1.1315
  768MPD2     H11340   1.229   4.277  11.457  0.7789  0.7053  1.6805
  768MPD2    H111341   1.638   4.351  11.373 -0.8418  0.7183  0.1802
  768MPD2    H211342   1.354   4.333  11.050  0.5850 -0.2237  0.6354
  768MPD2    H311343   1.578   4.354  11.125 -1.2028 -1.2860 -0.2372
  768MPD2     N11344   1.472   4.333  11.570 -0.3404  0.0527  0.9676
  768MPD2    H511345   1.569   4.345  11.598 -0.0719  1.1941 -0.4022
  768MPD2    N111346   1.135   4.270  11.218  0.1388  0.3583  0.4578
  768MPD2    H711347   1.069   4.274  11.295  1.2059 -1.6562  1.4635
  769MPD2     C11348   1.674   3.091  15.095  0.0406  0.1365  0.9386
  769MPD2    C111349   1.742   2.978  15.139 -0.7051  0.3215 -0.0514
  769MPD2    C211350   1.837   2.993  15.236 -0.1417 -0.2938 -0.4031
  769MPD2    C311351   1.852   3.113  15.305  0.5602 -0.6837 -0.1204
  769MPD2    C411352   1.786   3.224  15.256  0.0867  0.3926  0.4446
  769MPD2    C511353   1.699   3.208  15.159  0.2500 -0.7388 -0.2807
  769MPD2     H11354   1.905   2.911  15.258  2.0148  1.5955 -0.0264
  769MPD2    H111355   1.798   3.326  15.291 -0.4325  0.6998 -0.2686
  769MPD2    H211356   1.612   3.083  15.007  0.0780 -0.9913  1.0087
  769MPD2    H311357   1.661   3.302  15.120 -2.4322 -0.5518  2.7679
  769MPD2     N11358   1.945   3.107  15.411  0.3067 -0.9295  0.3837
  769MPD2    H511359   1.980   3.017  15.444  0.8680 -1.1966 -0.9606
  769MPD2    N111360   1.718   2.857  15.063 -1.3059 -0.1015 -0.1123
  769MPD2    H711361   1.650   2.869  14.990 -0.6592 -0.5242 -0.7832
  770MPD2     C11362   1.640   1.764  15.226 -0.4014 -0.8051 -0.1503
  770MPD2    C111363   1.526   1.809  15.166 -0.0637  0.4147  0.2854
  770MPD2    C211364   1.505   1.945  15.129  0.3137  0.0328  0.5050
  770MPD2    C311365   1.607   2.030  15.155 -0.2011  0.0449  0.2406
  770MPD2    C411366   1.727   1.987  15.218 -0.4658  0.0891 -0.3159
  770MPD2    C511367   1.743   1.853  15.250 -0.1279  0.2339 -0.0238
  770MPD2     H11368   1.413   1.985  15.090  1.0875  1.5364  0.2167
  770MPD2    H111369   1.811   2.049  15.249 -0.6296 -0.3612  1.0346
  770MPD2    H211370   1.650   1.660  15.251 -0.8990 -0.6728  0.5872
  770MPD2    H311371   1.829   1.813  15.302 -0.5646  0.4120  0.8392
  770MPD2     N11372   1.597   2.170  15.119  0.5188  0.0359 -0.4222
  770MPD2    H511373   1.506   2.204  15.091  0.4486  0.1843 -0.0171
  770MPD2    N111374   1.432   1.706  15.137  0.4580 -0.4493  0.1283
  770MPD2    H711375   1.462   1.612  15.160  1.6992  0.3240  1.6823
  771MPD2     C11376   2.361   0.554  14.048  0.5918 -0.3226 -0.8833
  771MPD2    C111377   2.409   0.616  13.936 -0.2829  0.0413 -0.3146
  771MPD2    C211378   2.386   0.552  13.816  0.2194  0.0793 -0.1387
  771MPD2    C311379   2.335   0.428  13.803  0.6693  0.0319 -0.3847
  771MPD2    C411380   2.301   0.367  13.920  0.1045 -0.0104  0.5292
  771MPD2    C511381   2.309   0.422  14.039  0.1870  0.0337  0.3583
  771MPD2     H11382   2.419   0.599  13.724 -1.4006  0.5115 -0.5003
  771MPD2    H111383   2.259   0.268  13.927  0.7574 -0.3298 -0.1089
  771MPD2    H211384   2.381   0.601  14.144 -1.1823 -0.0641 -0.6402
  771MPD2    H311385   2.285   0.366  14.129 -0.0012 -1.6162 -0.7275
  771MPD2     N11386   2.337   0.362  13.679  0.3181 -0.2960  0.0569
  771MPD2    H511387   2.368   0.425  13.605  1.8444 -1.8242 -0.5939
  771MPD2    N111388   2.495   0.737  13.934 -0.3318 -0.0728  0.3943
  771MPD2    H711389   2.533   0.760  13.843 -1.3303 -2.0323 -0.5256
  772MPD2     C11390   2.308   1.499  13.869  0.1582 -0.4607 -0.2181
  772MPD2    C111391   2.257   1.369  13.873 -0.1629 -0.0600  0.4807
  772MPD2    C211392   2.118   1.352  13.862 -0.0638 -0.2206  0.1361
  772MPD2    C311393   2.028   1.463  13.859 -0.0473 -0.0236  0.4657
  772MPD2    C411394   2.089   1.586  13.863 -0.1157 -0.1390 -0.1083
  772MPD2    C511395   2.222   1.602  13.868 -0.2022 -0.7120  0.1495
  772MPD2     H11396   2.075   1.253  13.858 -0.1297 -0.1810 -0.1381
  772MPD2    H111397   2.030   1.676  13.863 -0.5625 -0.4271 -0.6024
  772MPD2    H211398   2.410   1.524  13.892  0.0860 -0.5663  0.2072
  772MPD2    H311399   2.271   1.698  13.863 -0.0938 -0.6635  2.0915
  772MPD2     N11400   1.893   1.456  13.840  0.3506  0.5466 -0.3563
  772MPD2    H511401   1.840   1.543  13.835 -0.7973 -0.1013  0.6868
  772MPD2    N111402   2.341   1.258  13.872 -0.0076 -0.5039 -0.8311
  772MPD2    H711403   2.307   1.163  13.881  2.9785 -1.7049 -1.9909
  773MPD2     C11404   1.058   2.479   0.342 -0.0206  0.9022  0.0838
  773MPD2    C111405   1.008   2.353   0.310 -0.6014  0.5178 -0.6396
  773MPD2    C211406   1.065   2.243   0.373  0.3407  0.6818 -0.9086
  773MPD2    C311407   1.172   2.255   0.462 -0.2276 -0.3860  0.0623
  773MPD2    C411408   1.197   2.379   0.509  0.1081  0.0054  0.6091
  773MPD2    C511409   1.157   2.491   0.437  0.4634  0.4755 -0.3948
  773MPD2     H11410   1.041   2.143   0.338  1.8560  0.0169 -0.0387
  773MPD2    H111411   1.288   2.387   0.567 -0.7373  0.9407  1.8037
  773MPD2    H211412   1.037   2.572   0.290  0.8504  0.7978 -0.4685
  773MPD2    H311413   1.207   2.584   0.462 -1.8335  1.5658  0.1380
  773MPD2     N11414   1.231   2.140   0.518  0.5304  0.8634  0.1460
  773MPD2    H511415   1.213   2.055   0.466  2.5552  1.2735 -1.1968
  773MPD2    N111416   0.912   2.332   0.214  0.9933  0.3345 -0.0237
  773MPD2    H711417   0.873   2.239   0.198 -1.2869  1.5726 -1.6204
  774MPD2     C11418   0.314   1.293  13.620 -0.3068  0.4418 -0.0492
  774MPD2    C111419   0.428   1.347  13.685 -0.0317  0.2909 -0.2203
  774MPD2    C211420   0.539   1.379  13.603  0.5636  0.0253  0.5196
  774MPD2    C311421   0.536   1.338  13.474 -0.6643  0.4265  0.1290
  774MPD2    C411422   0.431   1.265  13.424 -0.1878 -0.1060  0.7154
  774MPD2    C511423   0.315   1.253  13.495  0.5606 -0.3646 -0.3383
  774MPD2     H11424   0.620   1.434  13.649  1.3384 -3.0796  2.8160
  774MPD2    H111425   0.422   1.219  13.326  0.0689 -0.3325  0.7986
  774MPD2    H211426   0.225   1.267  13.676  0.8329 -0.6246  1.3087
  774MPD2    H311427   0.230   1.203  13.450  1.9150 -2.0028 -1.0496
  774MPD2     N11428   0.640   1.374  13.387 -0.2236 -0.2958 -0.1440
  774MPD2    H511429   0.713   1.432  13.429  0.5904 -1.4893  0.1154
  774MPD2    N111430   0.424   1.371  13.825  0.2406 -0.1803  0.4924
  774MPD2    H711431   0.344   1.352  13.885  1.1438 -1.1360  1.3998
  775MPD2     C11432   2.355   2.671  16.292  0.0097 -0.3217 -0.1583
  775MPD2    C111433   2.326   2.795  16.349 -0.7883  0.7181  0.4417
  775MPD2    C211434   2.391   2.906  16.298 -0.4922 -0.5710  0.0589
  775MPD2    C311435   2.470   2.893  16.184 -0.2025  0.3575  0.4301
  775MPD2    C411436   2.497   2.767  16.129 -0.3612 -0.4470 -0.5782
  775MPD2    C511437   2.443   2.657  16.185 -0.0310 -0.0671 -0.2279
  775MPD2     H11438   2.364   2.997  16.349 -2.5150 -0.5014 -1.1273
  775MPD2    H111439   2.575   2.760  16.053  0.3198  0.7595  0.0116
  775MPD2    H211440   2.300   2.590  16.338  0.4376  0.5204  1.8329
  775MPD2    H311441   2.463   2.561  16.141  0.9651  0.7616 -1.5936
  775MPD2     N11442   2.525   3.004  16.119 -0.1300 -0.2686  0.0160
  775MPD2    H511443   2.600   2.976  16.056 -0.5371  0.6488 -0.8969
  775MPD2    N111444   2.233   2.795  16.457 -0.4240  0.4266 -0.5052
  775MPD2    H711445   2.197   2.708  16.496 -0.7595  0.7467 -0.1018
  776MPD2     C11446   1.683   2.781  11.861 -0.2392 -0.0060  0.2507
  776MPD2    C111447   1.630   2.848  11.758  0.1430 -0.4547 -0.6378
  776MPD2    C211448   1.651   2.989  11.755  0.2697  0.0700 -0.2943
  776MPD2    C311449   1.723   3.056  11.845  0.0576  0.8656 -0.1426
  776MPD2    C411450   1.780   2.981  11.944 -0.2636  0.4251  0.4172
  776MPD2    C511451   1.755   2.845  11.957 -0.4816  0.4003  0.3021
  776MPD2     H11452   1.601   3.047  11.678 -1.5863  0.3134  1.0938
  776MPD2    H111453   1.861   3.020  12.005  0.0229 -0.0087  0.3208
  776MPD2    H211454   1.666   2.674  11.870 -0.4499  0.0001 -0.0901
  776MPD2    H311455   1.805   2.788  12.034 -0.9801 -0.1202  0.2409
  776MPD2     N11456   1.751   3.194  11.834 -0.3022  0.1895  0.0074
  776MPD2    H511457   1.835   3.231  11.875  1.0920 -2.0157 -0.8406
  776MPD2    N111458   1.559   2.783  11.655  0.8155 -0.3251  0.3479
  776MPD2    H711459   1.546   2.684  11.670  0.1142 -0.4285 -0.9129
  777MPD2     C11460   1.370   1.004   1.209  0.2513  0.7647  0.0790
  777MPD2    C111461   1.443   0.935   1.299 -0.5826  0.5197  0.2254
  777MPD2    C211462   1.470   0.803   1.280  0.0712 -0.0270  0.2494
  777MPD2    C311463   1.429   0.740   1.162  0.2729  0.1904  0.0461
  777MPD2    C411464   1.346   0.812   1.078  0.2362  0.5755 -0.2228
  777MPD2    C511465   1.318   0.945   1.096  0.0221 -0.0428 -0.4051
  777MPD2     H11466   1.523   0.757   1.362 -0.8148 -1.4202  0.0399
  777MPD2    H111467   1.314   0.768   0.985 -1.8565  0.5952  0.5006
  777MPD2    H211468   1.341   1.107   1.230 -2.8119 -0.4381  1.8169
  777MPD2    H311469   1.259   1.004   1.026  0.9958  0.1061 -1.0961
  777MPD2     N11470   1.476   0.610   1.129 -0.0558  0.2715  0.0104
  777MPD2    H511471   1.531   0.573   1.207 -3.1551 -1.0417  1.6110
  777MPD2    N111472   1.485   1.003   1.411 -1.1544 -0.0509 -0.0058
  777MPD2    H711473   1.437   1.092   1.420 -1.3276  0.0816 -2.1316
  778MPD2     C11474   2.465   0.761  15.175  0.5925 -0.4910 -0.5281
  778MPD2    C111475   2.397   0.706  15.068 -0.3601  0.3068  0.6257
  778MPD2    C211476   2.442   0.736  14.943  0.0468 -0.1871  0.9222
  778MPD2    C311477   2.541   0.826  14.930 -0.2055 -0.6490 -0.4879
  778MPD2    C411478   2.603   0.884  15.032  0.2793  0.3558 -0.2594
  778MPD2    C511479   2.565   0.844  15.157 -0.0703  0.1315 -0.4872
  778MPD2     H11480   2.398   0.695  14.853  0.7424  0.3516  0.3334
  778MPD2    H111481   2.684   0.954  15.014  0.0371  0.4428 -1.0054
  778MPD2    H211482   2.432   0.738  15.276  2.4441  2.6286  0.7739
  778MPD2    H311483   2.629   0.880  15.238  2.0007  1.5309 -2.7397
  778MPD2     N11484   2.587   0.846  14.798  0.1717 -0.2531 -0.1333
  778MPD2    H511485   2.552   0.778  14.731 -0.8328  0.7781 -0.6761
  778MPD2    N111486   2.295   0.604  15.085 -0.6311 -0.1232  0.3125
  778MPD2    H711487   2.239   0.579  15.004  1.9999 -1.0781 -1.1867
  779MPD2     C11488   1.986   4.040  14.522  0.1568 -0.5726 -0.1036
  779MPD2    C111489   2.114   4.084  14.553  0.0004  0.3026  0.3214
  779MPD2    C211490   2.146   4.220  14.560  0.8830 -0.3344 -0.1628
  779MPD2    C311491   2.051   4.312  14.519  0.0476  0.0638  0.9577
  779MPD2    C411492   1.921   4.275  14.491 -0.3794  0.0111 -0.0302
  779MPD2    C511493   1.894   4.137  14.485  0.5227  0.3645  0.7370
  779MPD2     H11494   2.242   4.260  14.591  0.8133 -1.1239  1.0783
  779MPD2    H111495   1.839   4.344  14.478  0.0687  0.2519 -1.6727
  779MPD2    H211496   1.961   3.935  14.529 -1.7116  0.0691  2.7191
  779MPD2    H311497   1.795   4.100  14.459  1.2137 -0.1251 -1.2686
  779MPD2     N11498   2.089   4.450  14.506 -0.1123 -0.0401  0.3938
  779MPD2    H511499   2.189   4.468  14.506 -0.2041  0.4695  0.4328
  779MPD2    N111500   2.208   3.979  14.575 -0.0070  0.3412  0.6295
  779MPD2    H711501   2.172   3.884  14.577  1.2426 -0.1684 -0.8182
  780MPD2     C11502   2.833   4.573   1.411  0.0444 -0.5959 -0.7991
  780MPD2    C111503   2.706   4.602   1.436  0.0120  0.4311  0.6311
  780MPD2    C211504   2.618   4.623   1.330  0.3608  0.2056  0.0713
  780MPD2    C311505   2.656   4.616   1.198 -0.3375  0.2011  0.6697
  780MPD2    C411506   2.793   4.586   1.177 -0.2270 -0.3039  0.2039
  780MPD2    C511507   2.880   4.571   1.279  0.0597 -0.0834 -0.0875
  780MPD2     H11508   2.515   4.637   1.359  0.5738 -0.1644  1.0193
  780MPD2    H111509   2.827   4.574   1.074 -0.9756  0.6292 -0.1572
  780MPD2    H211510   2.903   4.562   1.493 -0.1280  1.2417 -0.4049
  780MPD2    H311511   2.980   4.540   1.252 -0.1657 -0.3793 -0.5814
  780MPD2     N11512   2.560   4.630   1.094 -0.2824  0.9523 -0.2443
  780MPD2    H511513   2.464   4.646   1.124 -0.8551 -1.5847 -0.7424
  780MPD2    N111514   2.668   4.610   1.573  0.3153  0.0198  0.2217
  780MPD2    H711515   2.729   4.586   1.650 -0.2324 -1.2867  0.2590
  781MPD2     C11516   3.859   0.853  12.544 -0.4729  0.0280 -0.3271
  781MPD2    C111517   3.879   0.733  12.605  0.4628  0.2360 -0.5282
  781MPD2    C211518   3.871   0.616  12.545  1.2196  0.1839  0.6541
  781MPD2    C311519   3.838   0.625  12.408  0.2111 -0.5565 -0.2332
  781MPD2    C411520   3.817   0.744  12.345 -0.9635  0.2745  0.1517
  781MPD2    C511521   3.830   0.866  12.406 -0.4910 -0.1589  0.2199
  781MPD2     H11522   3.907   0.525  12.591  0.4543 -0.6760 -0.4477
  781MPD2    H111523   3.773   0.755  12.247 -1.2363 -1.6040  0.0687
  781MPD2    H211524   3.879   0.949  12.590 -0.9741  0.6600 -1.4211
  781MPD2    H311525   3.801   0.956  12.354 -0.7357  0.0894  0.7857
  781MPD2     N11526   3.806   0.509  12.328  0.0424 -0.3458 -0.3613
  781MPD2    H511527   3.800   0.528  12.228  2.9677  1.6503 -0.1515
  781MPD2    N111528   3.907   0.724  12.745  0.7576 -0.1913 -0.2133
  781MPD2    H711529   3.933   0.636  12.787 -2.1493 -1.2978 -0.6768
  782MPD2     C11530   2.096   1.584  10.545 -0.4753 -0.4930  0.0681
  782MPD2    C111531   2.235   1.594  10.554  0.8406  0.0559  0.7888
  782MPD2    C211532   2.295   1.714  10.562  0.8213 -0.0165 -0.3361
  782MPD2    C311533   2.226   1.835  10.562  0.4848  0.7074 -0.1458
  782MPD2    C411534   2.093   1.831  10.543 -0.2915 -0.3369 -0.4955
  782MPD2    C511535   2.027   1.707  10.534 -0.8609 -0.6148 -0.0529
  782MPD2     H11536   2.403   1.720  10.559  0.8562 -0.1222  0.8751
  782MPD2    H111537   2.028   1.918  10.535 -0.1749 -0.1208  0.8445
  782MPD2    H211538   2.032   1.496  10.544  0.4871 -1.1938  1.3615
  782MPD2    H311539   1.919   1.697  10.542 -0.8975  0.4910  0.8491
  782MPD2     N11540   2.300   1.953  10.579  0.3088  0.5572 -0.3742
  782MPD2    H511541   2.400   1.942  10.591 -0.1203  0.3960  2.9705
  782MPD2    N111542   2.305   1.473  10.574 -0.9701  0.0389 -0.1561
  782MPD2    H711543   2.252   1.388  10.560  1.2520 -1.1626 -1.2453
  783MPD2     C11544   2.016   1.155  11.254 -0.4770 -0.8497  0.6816
  783MPD2    C111545   2.008   1.264  11.175  0.3105 -0.2660 -0.4402
  783MPD2    C211546   2.105   1.281  11.076  0.5977 -0.7608  0.7963
  783MPD2    C311547   2.194   1.185  11.041  0.7664  0.1679  0.0368
  783MPD2    C411548   2.191   1.069  11.114  0.3288  0.0260 -0.4897
  783MPD2    C511549   2.109   1.064  11.227 -0.1186 -0.1290  0.7085
  783MPD2     H11550   2.111   1.377  11.025 -0.7435  0.0282  2.1254
  783MPD2    H111551   2.259   0.985  11.100 -0.9074 -1.3463  1.7862
  783MPD2    H211552   1.949   1.138  11.337  0.1917 -2.7691  0.8332
  783MPD2    H311553   2.117   0.975  11.289  0.7343 -0.7188 -0.2574
  783MPD2     N11554   2.285   1.207  10.936  0.3698  0.9425 -0.2507
  783MPD2    H511555   2.278   1.299  10.895 -1.1455  1.5111  1.2558
  783MPD2    N111556   1.903   1.357  11.200  0.2615 -0.4389  0.1018
  783MPD2    H711557   1.825   1.330  11.258  1.0881  2.6023  2.6654
  784MPD2     C11558   4.354   2.181   1.085 -0.1920  0.2170 -0.0991
  784MPD2    C111559   4.324   2.302   1.142 -0.1061  0.6964  0.6144
  784MPD2    C211560   4.235   2.394   1.081  0.3510 -1.2335  1.0140
  784MPD2    C311561   4.166   2.347   0.967 -0.4192  1.1606 -0.3482
  784MPD2    C411562   4.198   2.227   0.914 -0.8486 -0.4158 -0.0380
  784MPD2    C511563   4.297   2.151   0.967 -0.0447 -0.4329  0.1201
  784MPD2     H11564   4.197   2.482   1.132  0.6144 -0.1911 -0.5896
  784MPD2    H111565   4.141   2.185   0.832 -3.6524 -1.3811  2.4140
  784MPD2    H211566   4.412   2.102   1.130 -1.7864 -0.4926  0.6943
  784MPD2    H311567   4.314   2.050   0.934 -1.0411 -0.6557  0.2918
  784MPD2     N11568   4.064   2.435   0.914 -0.0793  0.4712 -0.0071
  784MPD2    H511569   4.053   2.529   0.953  0.4090  0.5110  0.0345
  784MPD2    N111570   4.388   2.348   1.262 -0.7919  0.3203  0.0639
  784MPD2    H711571   4.378   2.443   1.297  0.6665 -0.3324  2.2168
  785MPD2     C11572   4.294   0.890  10.758  0.3390  0.5746 -0.4722
  785MPD2    C111573   4.196   0.896  10.663  0.4924 -0.4441  0.4116
  785MPD2    C211574   4.095   0.801  10.654 -0.6338 -0.5081 -0.1780
  785MPD2    C311575   4.107   0.682  10.720  0.2969  0.0790  0.4612
  785MPD2    C411576   4.214   0.662  10.803  0.2969  0.1101  0.2024
  785MPD2    C511577   4.300   0.769  10.825 -0.1977 -0.6655  1.2297
  785MPD2     H11578   4.023   0.803  10.573 -0.2705 -0.4661 -0.5042
  785MPD2    H111579   4.229   0.569  10.857 -0.3153  1.0463  1.9794
  785MPD2    H211580   4.376   0.958  10.778 -0.1765  0.8729  0.6429
  785MPD2    H311581   4.371   0.760  10.906  1.7855  0.1893 -0.3965
  785MPD2     N11582   4.022   0.581  10.682 -0.2232  0.8030 -0.6871
  785MPD2    H511583   3.952   0.611  10.615 -1.5007  0.9452  0.7114
  785MPD2    N111584   4.196   1.014  10.581 -0.1980  0.5368  0.7626
  785MPD2    H711585   4.269   1.081  10.602  0.0385  0.7984 -0.8982
  786MPD2     C11586   2.694   3.503  14.891  0.1258 -0.5520 -0.5390
  786MPD2    C111587   2.817   3.441  14.892 -0.3084 -0.8590 -0.4635
  786MPD2    C211588   2.899   3.458  15.005  0.0107  0.3434 -0.2990
  786MPD2    C311589   2.854   3.519  15.121  0.0003  0.0864  0.9860
  786MPD2    C411590   2.724   3.568  15.119  0.2380 -0.4503  0.8636
  786MPD2    C511591   2.649   3.568  15.002 -0.1023 -0.9328  0.1715
  786MPD2     H11592   2.998   3.415  14.997  0.7701  2.2359 -1.0152
  786MPD2    H111593   2.680   3.626  15.199 -1.4152 -1.7536  0.9141
  786MPD2    H211594   2.635   3.504  14.800 -0.0127  1.5725 -0.4219
  786MPD2    H311595   2.556   3.623  15.005  0.6329  0.2732  0.5683
  786MPD2     N11596   2.926   3.532  15.241 -0.3038 -0.0017 -0.0705
  786MPD2    H511597   2.886   3.600  15.305  1.0876  1.1790 -0.4452
  786MPD2    N111598   2.874   3.371  14.783  0.4888 -0.1516 -0.2558
  786MPD2    H711599   2.968   3.339  14.804 -0.3684 -1.4316  1.5686
  787MPD2     C11600   2.876   2.657  14.740 -0.1597  0.5823 -0.3393
  787MPD2    C111601   2.981   2.716  14.674  0.2552 -0.1256  0.8556
  787MPD2    C211602   3.098   2.652  14.650  0.2805  0.2027  0.4533
  787MPD2    C311603   3.109   2.523  14.704 -0.1610 -0.5508 -0.0895
  787MPD2    C411604   3.001   2.469  14.780 -0.2631 -0.2447 -0.2050
  787MPD2    C511605   2.892   2.537  14.796 -0.7143 -0.4786 -0.9439
  787MPD2     H11606   3.181   2.701  14.600  1.0199 -0.4441  1.0388
  787MPD2    H111607   3.008   2.368  14.820  0.6693  0.8441  2.3709
  787MPD2    H211608   2.777   2.700  14.742 -0.6286 -0.5987  1.2701
  787MPD2    H311609   2.808   2.488  14.844 -2.9120  2.7086 -1.5805
  787MPD2     N11610   3.229   2.453  14.719 -0.0723 -0.7342  0.3073
  787MPD2    H511611   3.228   2.359  14.757  0.2235 -1.5197 -1.6524
  787MPD2    N111612   2.955   2.852  14.640 -0.2187 -0.3326  0.5687
  787MPD2    H711613   2.869   2.896  14.669  1.5097  2.6889  1.2176
  788MPD2     C11614   0.276   1.720   0.671  0.3598 -0.4878 -0.2914
  788MPD2    C111615   0.172   1.673   0.601 -0.2289  0.1369  0.1585
  788MPD2    C211616   0.092   1.760   0.523 -0.0368  0.0282 -0.3048
  788MPD2    C311617   0.130   1.893   0.515 -0.3386 -1.0231  0.3770
  788MPD2    C411618   0.232   1.939   0.587  0.6408  0.0272 -0.3135
  788MPD2    C511619   0.298   1.852   0.668 -0.3434  0.6349  0.5171
  788MPD2     H11620   0.022   1.713   0.455  1.1221 -0.5708 -1.0784
  788MPD2    H111621   0.258   2.044   0.577 -0.0694  0.1252 -1.1022
  788MPD2    H211622   0.342   1.671   0.742 -0.1726  1.6775  1.6772
  788MPD2    H311623   0.381   1.883   0.730  0.5651  0.5225 -0.6469
  788MPD2     N11624   0.060   1.986   0.435 -0.3519  0.1454  0.2509
  788MPD2    H511625   0.089   2.083   0.434  0.0373  0.0313  0.8984
  788MPD2    N111626   0.155   1.538   0.579 -0.2127  0.0582 -0.5883
  788MPD2    H711627   0.081   1.499   0.522  1.5149  0.1140 -2.8771
  789MPD2     C11628   0.767   1.592  16.345 -0.4148  0.2689 -0.1586
  789MPD2    C111629   0.679   1.496  16.391  0.3506 -0.5807  0.5763
  789MPD2    C211630   0.544   1.531  16.418 -0.2569 -0.4991 -0.1236
  789MPD2    C311631   0.500   1.658  16.392 -0.2444  0.0109 -0.4343
  789MPD2    C411632   0.596   1.753  16.359  0.6185 -0.0186  0.3034
  789MPD2    C511633   0.731   1.726  16.336 -0.3167  0.3342  0.0641
  789MPD2     H11634   0.487   1.444  16.449 -0.1872 -0.4640  0.1053
  789MPD2    H111635   0.573   1.858  16.344  1.0691  0.4902  3.2284
  789MPD2    H211636   0.873   1.579  16.362 -0.0805  1.7451 -1.1674
  789MPD2    H311637   0.803   1.807  16.333 -0.8185  0.7366 -1.5183
  789MPD2     N11638   0.368   1.701  16.419 -0.0909  0.1617  0.1953
  789MPD2    H511639   0.352   1.801  16.408  0.6716  0.0706 -1.8459
  789MPD2    N111640   0.725   1.371  16.428 -0.2340  0.0453 -0.0519
  789MPD2    H711641   0.656   1.310  16.469 -0.4722  0.2764 -0.1075
  790MPD2     C11642   1.338   2.749  13.996 -0.2764  0.3186 -0.1862
  790MPD2    C111643   1.460   2.791  13.952  0.0854 -0.1127 -0.0529
  790MPD2    C211644   1.472   2.811  13.818 -0.0541  0.6721  0.0429
  790MPD2    C311645   1.360   2.802  13.736  0.5011  0.4980  0.0610
  790MPD2    C411646   1.236   2.764  13.784  0.0653  0.0556  0.3969
  790MPD2    C511647   1.227   2.723  13.917  0.3062  0.0647  0.6389
  790MPD2     H11648   1.565   2.821  13.764 -0.2250 -0.1454 -0.4138
  790MPD2    H111649   1.148   2.766  13.721  1.0144 -3.4974 -1.0827
  790MPD2    H211650   1.326   2.740  14.104 -2.0115 -1.6717 -0.5588
  790MPD2    H311651   1.134   2.693  13.964 -0.2289 -0.7481 -0.9494
  790MPD2     N11652   1.383   2.821  13.593  0.1073 -0.5090 -0.1615
  790MPD2    H511653   1.476   2.848  13.559  0.1317 -1.1471 -0.5890
  790MPD2    N111654   1.562   2.805  14.046  0.5639  0.6023  0.5810
  790MPD2    H711655   1.527   2.804  14.141  0.9660  1.5380  0.7358
  791MPD2     C11656   0.855   3.136  13.062  0.5442  0.6941 -0.5669
  791MPD2    C111657   0.933   3.029  13.020 -0.8187  0.6212 -0.5192
  791MPD2    C211658   0.881   2.932  12.940 -0.2689 -0.6057  0.0845
  791MPD2    C311659   0.749   2.934  12.901  0.0289  0.3336  0.1861
  791MPD2    C411660   0.676   3.051  12.927  0.5602  0.7368  0.0557
  791MPD2    C511661   0.731   3.151  13.000 -0.2513 -0.0214  0.0307
  791MPD2     H11662   0.935   2.842  12.914  0.9611  0.3663 -0.6847
  791MPD2    H111663   0.573   3.063  12.896  0.5996 -0.0918 -0.3870
  791MPD2    H211664   0.897   3.220  13.116 -0.2136 -0.5268  1.9008
  791MPD2    H311665   0.666   3.232  13.030  0.5574  0.3362  0.8037
  791MPD2     N11666   0.693   2.829  12.830  0.3854  0.2953  0.8395
  791MPD2    H511667   0.759   2.754  12.810 -3.0576 -2.6603  0.5713
  791MPD2    N111668   1.063   3.014  13.076 -0.0791  0.1803 -0.6709
  791MPD2    H711669   1.086   3.082  13.148  3.5589 -2.0465  0.2049
  792MPD2     C11670   2.244   2.615  11.562  0.5400  0.3411 -0.0534
  792MPD2    C111671   2.119   2.645  11.512  0.9312 -0.5213 -0.0053
  792MPD2    C211672   2.086   2.597  11.387  0.8097  0.3373  0.1916
  792MPD2    C311673   2.166   2.515  11.319 -0.3466 -0.4453  0.4730
  792MPD2    C411674   2.290   2.479  11.373  0.2423 -0.7974 -0.4714
  792MPD2    C511675   2.331   2.527  11.494 -0.5748 -0.6434 -0.5158
  792MPD2     H11676   1.991   2.630  11.347  0.4203 -0.9075  0.1090
  792MPD2    H111677   2.340   2.394  11.328  0.1463 -0.9450 -0.3013
  792MPD2    H211678   2.277   2.662  11.654  1.0442 -0.5087  0.2090
  792MPD2    H311679   2.427   2.500  11.539 -0.1572  0.0459 -0.9885
  792MPD2     N11680   2.131   2.464  11.189  0.4445 -0.3996 -0.0560
  792MPD2    H511681   2.185   2.386  11.152  0.3522 -0.7231  0.4916
  792MPD2    N111682   2.024   2.723  11.586  0.6002 -0.0533  0.1095
  792MPD2    H711683   2.058   2.759  11.675  1.4809 -0.0145 -0.2478
  793MPD2     C11684   1.345   2.664  10.540 -0.5704 -0.8002 -0.5075
  793MPD2    C111685   1.456   2.612  10.474  0.8369 -0.9535  0.1202
  793MPD2    C211686   1.560   2.561  10.543 -0.3899  1.0221 -0.3633
  793MPD2    C311687   1.562   2.560  10.679  1.2572  0.5771  1.2484
  793MPD2    C411688   1.450   2.600  10.752 -0.1003 -0.1953  0.5226
  793MPD2    C511689   1.341   2.645  10.681  0.1758  0.8794  0.9710
  793MPD2     H11690   1.638   2.536  10.471 -0.3394  0.8773 -0.2576
  793MPD2    H111691   1.453   2.586  10.859 -0.1758 -2.6727  0.1954
  793MPD2    H211692   1.258   2.696  10.484 -1.2817 -3.0653 -0.6596
  793MPD2    H311693   1.250   2.667  10.737  0.5808  0.9775  1.5926
  793MPD2     N11694   1.666   2.504  10.753  0.4511 -0.4399  0.4079
  793MPD2    H511695   1.661   2.512  10.854  1.5933  1.2001  0.3444
  793MPD2    N111696   1.468   2.595  10.333  0.2689 -0.1794 -0.6581
  793MPD2    H711697   1.562   2.569  10.303  0.0448 -2.0719  0.2456
  794MPD2     C11698   0.783   2.307  17.126  0.3748  0.2529  0.6595
  794MPD2    C111699   0.812   2.414  17.206  0.2941  0.3821 -0.0703
  794MPD2    C211700   0.891   2.509  17.150  0.3801  0.0137  0.0075
  794MPD2    C311701   0.943   2.505  17.019  0.0056 -0.1439  0.0233
  794MPD2    C411702   0.912   2.392  16.945  0.0592 -0.3387 -1.0265
  794MPD2    C511703   0.832   2.290  17.002  0.5136  0.4376 -0.3361
  794MPD2     H11704   0.914   2.592  17.216 -2.3663  1.3866 -0.7155
  794MPD2    H111705   0.948   2.378  16.844  1.8944  0.0214 -0.4221
  794MPD2    H211706   0.730   2.218  17.156 -0.0843 -0.1176 -1.2276
  794MPD2    H311707   0.827   2.192  16.956  1.1881 -1.2044  3.1094
  794MPD2     N11708   1.022   2.604  16.961 -0.0882 -0.2023 -0.0020
  794MPD2    H511709   1.063   2.581  16.871  1.6009  1.1857  0.4271
  794MPD2    N111710   0.761   2.422  17.337 -0.1777 -0.3356 -0.0505
  794MPD2    H711711   0.803   2.497  17.391 -0.9171 -0.6727  1.0031
  795MPD2     C11712   3.844   4.641  13.553 -0.4672  0.2315  0.2135
  795MPD2    C111713   3.821   4.518  13.620  0.1655  0.1738  0.4234
  795MPD2    C211714   3.932   4.442  13.657  0.1719  0.1547  0.0978
  795MPD2    C311715   4.061   4.480  13.627  0.4042 -0.1067  0.2714
  795MPD2    C411716   4.077   4.604  13.572  0.4496 -0.2013 -0.3076
  795MPD2    C511717   3.972   4.676  13.530 -0.0189 -0.5580 -0.8962
  795MPD2     H11718   3.908   4.349  13.706 -1.5550 -0.6501 -2.2681
  795MPD2    H111719   4.174   4.652  13.566 -0.7140  2.4531  1.9205
  795MPD2    H211720   3.769   4.711  13.518 -1.8015 -0.0237  2.5485
  795MPD2    H311721   3.991   0.048  13.484 -0.5444 -0.0999 -0.1542
  795MPD2     N11722   4.169   4.390  13.664  0.8610  0.2464 -0.0866
  795MPD2    H511723   4.138   4.295  13.677 -0.8865  0.9989  1.0960
  795MPD2    N111724   3.683   4.480  13.645  0.3221 -0.0633  0.2853
  795MPD2    H711725   3.661   4.401  13.705  0.5977 -0.6803 -0.4364
  796MPD2     C11726   2.979   1.099  16.301  0.3194 -0.2961  0.7551
  796MPD2    C111727   3.061   1.169  16.384 -0.0447 -0.4040  0.2991
  796MPD2    C211728   3.069   1.304  16.372 -0.3670 -0.0107  0.9626
  796MPD2    C311729   3.001   1.374  16.272 -0.5679  0.0441  0.5195
  796MPD2    C411730   2.927   1.304  16.181 -0.7734 -0.9285 -0.2564
  796MPD2    C511731   2.914   1.164  16.196  0.5617 -0.1477  0.2277
  796MPD2     H11732   3.121   1.368  16.442  1.7781 -0.0432 -0.6057
  796MPD2    H111733   2.865   1.354  16.108  2.8293  4.2262  0.2644
  796MPD2    H211734   2.945   0.999  16.325  0.1414 -0.3604  0.2309
  796MPD2    H311735   2.857   1.101  16.128  1.2737 -1.6525  1.0277
  796MPD2     N11736   3.010   1.517  16.282  0.4810 -0.1716 -0.5849
  796MPD2    H511737   3.061   1.557  16.360  1.6279 -1.5525 -0.6332
  796MPD2    N111738   3.131   1.105  16.492  0.1946  0.2460  0.5194
  796MPD2    H711739   3.116   1.005  16.502 -1.4025  0.2779 -1.5474
  797MPD2     C11740   4.595   0.561   0.007 -0.4298  0.2187  0.3423
  797MPD2    C111741   4.473   0.623   0.033  0.0252 -0.8563  0.1735
  797MPD2    C211742   4.443   0.741  17.662 -0.2399  0.3359  0.9052
  797MPD2    C311743   4.533   0.797  17.574  0.3192  0.2024  0.5769
  797MPD2    C411744   4.649   0.742  17.544  0.4177  0.8601  0.5237
  797MPD2    C511745   4.677   0.621  17.611 -0.9879 -0.9262 -0.2331
  797MPD2     H11746   4.341   0.774  17.677 -0.2018  1.8093 -2.0457
  797MPD2    H111747   4.721   0.779  17.472 -1.6073 -2.0358 -3.0061
  797MPD2    H211748   4.627   0.463   0.039 -0.3220 -0.7461 -2.7290
  797MPD2    H311749   0.037   0.567  17.570 -0.0841  0.4524 -0.1702
  797MPD2     N11750   4.485   0.910  17.504 -0.0320  0.2779  0.3438
  797MPD2    H511751   4.396   0.942  17.539 -0.7702 -1.2224 -0.1665
  797MPD2    N111752   4.373   0.581   0.117 -0.2478  0.0493  0.0962
  797MPD2    H711753   4.290   0.639   0.114  0.0365  0.3515 -2.0296
  798MPD2     C11754   3.811   1.024  17.670 -0.1453  0.9269  0.2709
  798MPD2    C111755   3.931   0.981  17.619  0.9764  0.4918 -0.3243
  798MPD2    C211756   3.960   0.846  17.629  0.2196 -0.1036  0.1931
  798MPD2    C311757   3.889   0.765   0.021  0.0326  0.4761 -0.4230
  798MPD2    C411758   3.774   0.816   0.081  0.0499  0.3334 -0.2701
  798MPD2    C511759   3.736   0.945   0.050  0.4477 -0.5231  0.2316
  798MPD2     H11760   4.043   0.808  17.571  0.7032 -1.0452  1.5005
  798MPD2    H111761   3.715   0.760   0.153 -0.9279  3.7826  1.5757
  798MPD2    H211762   3.780   1.126  17.651 -0.2875  0.5160 -1.6288
  798MPD2    H311763   3.644   0.976   0.100  1.1606 -0.7399  1.6887
  798MPD2     N11764   3.942   0.643   0.057  0.2437  0.0178  0.3392
  798MPD2    H511765   4.028   0.618   0.009 -0.0437  0.7084 -0.5365
  798MPD2    N111766   4.017   1.070  17.551 -0.0929 -0.5984 -0.5063
  798MPD2    H711767   3.975   1.155  17.515 -0.4068  0.3430  2.0358
  799MPD2     C11768   3.048   2.665  14.255 -0.5452  0.6814  0.2504
  799MPD2    C111769   2.965   2.575  14.194 -0.2837  0.3342 -0.8020
  799MPD2    C211770   2.925   2.596  14.067  0.8254 -0.4083  1.1038
  799MPD2    C311771   2.974   2.709  14.001 -0.7120 -0.4265  0.6850
  799MPD2    C411772   3.051   2.803  14.067 -0.3563 -0.1402 -0.2410
  799MPD2    C511773   3.092   2.781  14.199 -0.4234 -1.0352 -0.0038
  799MPD2     H11774   2.871   2.511  14.026 -0.5942  0.9725  0.1276
  799MPD2    H111775   3.086   2.891  14.016  2.6149 -0.9619  0.4018
  799MPD2    H211776   3.085   2.642  14.354  2.6753  1.6772 -0.7143
  799MPD2    H311777   3.159   2.848  14.251 -1.4619 -0.7552  0.9670
  799MPD2     N11778   2.942   2.743  13.870 -0.0322  0.3777 -0.1404
  799MPD2    H511779   3.009   2.814  13.842  0.5300  0.6472  1.8606
  799MPD2    N111780   2.911   2.460  14.261 -0.2101  0.0954 -0.0917
  799MPD2    H711781   2.821   2.432  14.224  0.8861 -2.7272 -0.5382
  800MPD2     C11782   3.787   4.050  14.442  0.8474 -0.0204  0.4764
  800MPD2    C111783   3.913   4.044  14.389 -0.3806  0.8337 -0.0922
  800MPD2    C211784   3.949   3.922  14.353 -0.2426 -0.2407 -0.3037
  800MPD2    C311785   3.867   3.812  14.367 -0.1580 -0.4820  1.0896
  800MPD2    C411786   3.746   3.822  14.426 -0.1230  0.1833  0.0817
  800MPD2    C511787   3.710   3.941  14.476 -0.3531 -0.2908  0.5636
  800MPD2     H11788   4.044   3.899  14.307 -0.2189 -0.3089 -0.2206
  800MPD2    H111789   3.672   3.743  14.433  0.4963 -0.5759 -1.7643
  800MPD2    H211790   3.745   4.150  14.454 -0.5061 -0.5129 -0.1977
  800MPD2    H311791   3.605   3.950  14.500 -0.6543 -0.0215 -0.8313
  800MPD2     N11792   3.923   3.688  14.330  0.1774  0.0964 -0.4294
  800MPD2    H511793   4.024   3.682  14.318  0.0079 -1.1053 -1.2598
  800MPD2    N111794   3.985   4.166  14.370  0.4505  0.5168  0.3665
  800MPD2    H711795   3.933   4.253  14.377  1.6654  1.1776  1.3407
  801MPD2     C11796   3.965   0.173  14.408 -0.8430 -0.8097 -0.6350
  801MPD2    C111797   3.918   0.041  14.403 -0.9608 -0.1950 -0.3487
  801MPD2    C211798   3.798   0.006  14.468  0.3585  0.2772 -0.2183
  801MPD2    C311799   3.716   0.101  14.528 -0.0750 -0.4222  0.0014
  801MPD2    C411800   3.763   0.232  14.532  0.0532  0.2424  0.7631
  801MPD2    C511801   3.883   0.266  14.469  0.6367 -0.2900  0.8740
  801MPD2     H11802   3.768   4.627  14.454 -0.4727  0.5761 -0.6432
  801MPD2    H111803   3.711   0.313  14.583  2.5477  3.1173 -1.2690
  801MPD2    H211804   4.058   0.213  14.370 -2.7152  0.6224 -3.7439
  801MPD2    H311805   3.914   0.369  14.482  0.9566 -0.1888 -0.6094
  801MPD2     N11806   3.595   0.072  14.591  0.0701 -0.3897  0.4203
  801MPD2    H511807   3.559   0.143  14.654 -2.0477 -1.1741  0.1037
  801MPD2    N111808   3.993   4.656  14.356  1.2047 -0.1658 -0.8063
  801MPD2    H711809   3.949   4.566  14.374 -0.6064  0.4439 -2.1117
  802MPD2     C11810   3.363   0.756   0.822  1.1078  0.3315  0.7012
  802MPD2    C111811   3.281   0.708   0.722  0.3032 -0.3268 -0.5627
  802MPD2    C211812   3.324   0.615   0.637  0.0809 -0.3038  0.1958
  802MPD2    C311813   3.454   0.567   0.650  0.2626  0.4884  0.3601
  802MPD2    C411814   3.532   0.620   0.748 -0.4799  0.2059  0.2686
  802MPD2    C511815   3.489   0.710   0.837  0.8698  0.4500  0.4564
  802MPD2     H11816   3.261   0.581   0.556 -0.4985 -1.6452  1.2063
  802MPD2    H111817   3.631   0.578   0.760 -0.1360  0.5589 -1.3376
  802MPD2    H211818   3.326   0.833   0.889  1.6972  3.9424 -3.1873
  802MPD2    H311819   3.555   0.755   0.910 -1.0119  1.2124  1.6985
  802MPD2     N11820   3.498   0.471   0.556  0.2513 -0.7623 -0.2034
  802MPD2    H511821   3.429   0.432   0.493  0.1095 -0.1931 -0.4028
  802MPD2    N111822   3.155   0.765   0.692 -0.1119  0.1314  0.4334
  802MPD2    H711823   3.103   0.716   0.620 -0.1323  0.8132 -0.0184
  803MPD2     C11824   4.610   2.896  11.914  0.3271  0.4607 -0.5215
  803MPD2    C111825   4.650   2.961  12.033 -0.5606 -0.1662  0.0802
  803MPD2    C211826   4.566   2.964  12.146 -0.4847 -0.3477 -0.5485
  803MPD2    C311827   4.458   2.880  12.146  0.8883 -0.1127  0.5310
  803MPD2    C411828   4.417   2.824  12.030  0.4730 -0.3423 -0.4443
  803MPD2    C511829   4.492   2.826  11.910  0.2561  0.1499  0.0313
  803MPD2     H11830   4.593   3.022  12.234 -0.6348 -1.1941  0.0511
  803MPD2    H111831   4.328   2.761  12.031  0.4727 -0.3347 -0.1496
  803MPD2    H211832   4.671   2.886  11.825  0.4018 -1.7257 -0.2183
  803MPD2    H311833   4.454   2.791  11.815 -0.1943  2.5787 -0.6616
  803MPD2     N11834   4.378   2.862  12.256  0.4424 -0.2345  0.0274
  803MPD2    H511835   4.297   2.802  12.244  0.1534  0.4191 -1.3270
  803MPD2    N111836   0.066   2.993  12.050 -0.1201 -0.0875  0.7231
  803MPD2    H711837   0.083   3.023  12.145  2.1010  0.9343  0.0121
  804MPD2     C11838   4.214   4.189  16.902  0.6305  0.4066  0.1608
  804MPD2    C111839   4.185   4.152  17.031  0.2831  0.2510  0.1463
  804MPD2    C211840   4.211   4.243  17.135  0.3647  0.1658 -0.3355
  804MPD2    C311841   4.274   4.365  17.118  0.0612  0.3617 -0.4365
  804MPD2    C411842   4.311   4.392  16.988  0.5908  0.3215 -0.1190
  804MPD2    C511843   4.271   4.306  16.885 -0.2732  0.0936 -0.5135
  804MPD2     H11844   4.194   4.211  17.237  0.8004  2.8817  0.5977
  804MPD2    H111845   4.358   4.487  16.964 -1.1554  1.2490  0.1221
  804MPD2    H211846   4.190   4.133  16.812 -2.8373  0.8155  0.8563
  804MPD2    H311847   4.297   4.341  16.786 -0.0338 -0.8186 -0.7752
  804MPD2     N11848   4.303   4.446  17.223 -0.0062  0.4260 -0.0984
  804MPD2    H511849   4.259   4.410  17.307  0.3618  1.1715  0.4140
  804MPD2    N111850   4.142   4.028  17.084 -0.0833  0.4350 -0.3797
  804MPD2    H711851   4.128   4.022  17.184  3.9903 -2.6675  0.0163
  805MPD2     C11852   3.095   2.288  15.635 -0.0651  0.2896  0.0555
  805MPD2    C111853   2.986   2.344  15.700  0.5090 -0.4110 -0.7045
  805MPD2    C211854   3.003   2.454  15.781 -0.2821  0.2399  0.3004
  805MPD2    C311855   3.136   2.488  15.814 -0.3240  0.3971 -0.4847
  805MPD2    C411856   3.246   2.442  15.744 -0.8917 -0.6184  0.1423
  805MPD2    C511857   3.220   2.353  15.646  0.0487 -0.2114  0.0139
  805MPD2     H11858   2.919   2.512  15.818  0.0743  0.6799  0.4239
  805MPD2    H111859   3.350   2.469  15.753 -1.3461  2.1788 -2.6258
  805MPD2    H211860   3.084   2.209  15.561 -1.3827  0.4552  0.0787
  805MPD2    H311861   3.298   2.301  15.593  1.2910  1.0215  0.6393
  805MPD2     N11862   3.146   2.574  15.929  0.3535  0.2942  0.3348
  805MPD2    H511863   3.060   2.619  15.961  1.3389 -0.1382  3.6516
  805MPD2    N111864   2.854   2.298  15.674 -0.1070  0.0324 -0.7498
  805MPD2    H711865   2.783   2.360  15.711  0.0769 -0.5197  0.5442
  806MPD2     C11866   2.898   2.273   0.419 -0.8232 -1.0684 -0.6022
  806MPD2    C111867   3.028   2.300   0.456 -0.6306 -0.0717 -0.7076
  806MPD2    C211868   3.125   2.314   0.358 -0.4467 -0.3771 -1.0841
  806MPD2    C311869   3.089   2.314   0.227  0.6158  0.0506 -0.3511
  806MPD2    C411870   2.960   2.287   0.192  0.3829  0.1787 -0.2819
  806MPD2    C511871   2.865   2.258   0.287  0.4558  0.4334 -0.0730
  806MPD2     H11872   3.227   2.334   0.389  0.3250 -3.5861 -1.6151
  806MPD2    H111873   2.927   2.282   0.088  1.6146  0.4104 -0.6798
  806MPD2    H211874   2.823   2.257   0.495 -1.2719 -0.2135 -0.8604
  806MPD2    H311875   2.759   2.243   0.269  0.2277  0.8648  0.8973
  806MPD2     N11876   3.173   2.343   0.121  0.2403  0.0428 -0.3274
  806MPD2    H511877   3.132   2.378   0.035 -2.2192 -1.0766  0.4119
  806MPD2    N111878   3.057   2.329   0.593 -0.3263  0.0222 -0.0186
  806MPD2    H711879   2.981   2.344   0.659 -0.5675  0.7199 -0.4546
  807MPD2     C11880   2.906   2.136   1.326  0.0480  0.3473 -0.8259
  807MPD2    C111881   3.039   2.121   1.293  0.6879  0.1656 -0.6038
  807MPD2    C211882   3.113   2.027   1.362  0.5519 -0.5925  0.3424
  807MPD2    C311883   3.065   1.957   1.472 -0.5843  0.4841  0.0736
  807MPD2    C411884   2.936   1.985   1.511 -0.3454  0.4513 -0.2002
  807MPD2    C511885   2.859   2.072   1.437  0.2540 -0.2972 -0.4529
  807MPD2     H11886   3.220   2.022   1.343  0.0752  1.3598 -2.9266
  807MPD2    H111887   2.895   1.941   1.602  2.0189 -3.0179 -0.8001
  807MPD2    H211888   2.844   2.205   1.270  0.0930  1.1810  0.1583
  807MPD2    H311889   2.764   2.098   1.482  0.8420  4.0276 -1.6324
  807MPD2     N11890   3.155   1.882   1.550  0.4252 -0.0519 -0.0965
  807MPD2    H511891   3.255   1.891   1.532  0.4472 -0.3460 -0.1337
  807MPD2    N111892   3.110   2.190   1.190  0.0516 -0.1813 -0.2937
  807MPD2    H711893   3.201   2.154   1.164 -0.1723 -1.5965  0.8160
  808MPD2     C11894   3.951   3.134  10.120  0.1570 -0.2022 -0.1041
  808MPD2    C111895   4.052   3.072  10.061 -0.5387  0.3928 -0.1765
  808MPD2    C211896   4.170   3.137  10.036 -0.0255  0.6965  0.4240
  808MPD2    C311897   4.183   3.270  10.062 -0.9231  0.1269  0.1910
  808MPD2    C411898   4.078   3.338  10.113 -0.3738 -0.8766 -0.6167
  808MPD2    C511899   3.964   3.270  10.146  0.0170 -0.3774  0.7065
  808MPD2     H11900   4.259   3.098   9.988  2.0666  1.9670  3.2577
  808MPD2    H111901   4.083   3.446  10.114 -0.6833 -0.8506 -2.0190
  808MPD2    H211902   3.858   3.083  10.145 -0.5423  0.9759 -0.2696
  808MPD2    H311903   3.881   3.316  10.199 -0.2660 -0.2124  0.1143
  808MPD2     N11904   4.297   3.352  10.038  0.0035  0.3557 -0.3457
  808MPD2    H511905   4.288   3.451  10.060  1.1369  0.4003 -0.1002
  808MPD2    N111906   4.046   2.927  10.028  0.7352 -0.7045 -0.0472
  808MPD2    H711907   4.125   2.900   9.969  1.1937 -2.6967  1.4775
  809MPD2     C11908   0.629   3.534   9.759  0.1503  0.9652 -0.4084
  809MPD2    C111909   0.586   3.468   9.872 -0.5742  0.6187 -0.5625
  809MPD2    C211910   0.453   3.453   9.893 -0.8686  0.3671 -0.2326
  809MPD2    C311911   0.365   3.518   9.805  0.4346 -0.7282 -0.3019
  809MPD2    C411912   0.410   3.585   9.695 -0.4685  0.2421 -0.9182
  809MPD2    C511913   0.543   3.592   9.667  0.8171  0.0179 -0.0947
  809MPD2     H11914   0.411   3.409   9.983  0.0767  0.2105  0.1251
  809MPD2    H111915   0.349   3.635   9.620  0.7633 -1.3399 -2.9533
  809MPD2    H211916   0.736   3.532   9.742  0.1944  1.4485 -0.1899
  809MPD2    H311917   0.583   3.628   9.573 -1.7706  0.3600 -1.0627
  809MPD2     N11918   0.227   3.515   9.832 -0.0828  0.2577  0.2419
  809MPD2    H511919   0.164   3.555   9.763  0.7245 -1.7313 -1.6469
  809MPD2    N111920   0.674   3.418   9.968 -0.1246 -0.8306  0.1307
  809MPD2    H711921   0.631   3.381  10.052 -0.2436 -0.5592  0.1889
  810MPD2     C11922   4.053   2.409  10.091 -0.0687 -0.4974 -0.4288
  810MPD2    C111923   4.007   2.421  10.223 -0.2284  0.0275  0.0085
  810MPD2    C211924   4.056   2.529  10.300 -0.3016 -0.2021  0.3359
  810MPD2    C311925   4.139   2.629  10.254 -0.2413  0.4856 -0.7450
  810MPD2    C411926   4.177   2.614  10.120  0.3561 -0.2718 -0.6492
  810MPD2    C511927   4.135   2.506  10.040 -0.0891 -0.1431 -0.0928
  810MPD2     H11928   4.023   2.543  10.403 -0.5360 -2.0597  0.5141
  810MPD2    H111929   4.247   2.684  10.076 -0.1828 -0.1163 -1.2442
  810MPD2    H211930   4.016   2.328  10.029  1.6052 -1.0616 -0.7040
  810MPD2    H311931   4.162   2.494   9.936  0.8966 -3.5524  0.5460
  810MPD2     N11932   4.170   2.751  10.324 -0.5451  0.0043  0.1631
  810MPD2    H511933   4.218   2.826  10.274 -1.1529  1.4805  1.7767
  810MPD2    N111934   3.903   2.342  10.264  0.1030 -0.1289  0.0165
  810MPD2    H711935   3.851   2.292  10.192  1.2495  0.2773 -1.0878
  811MPD2     C11936   3.120   2.120  10.067 -0.1605  0.7374 -0.1695
  811MPD2    C111937   3.224   2.207  10.097  1.3341 -0.2314 -1.0271
  811MPD2    C211938   3.239   2.316  10.014 -0.0566 -0.8398  0.2741
  811MPD2    C311939   3.155   2.336   9.901  0.3488 -0.5870  0.1307
  811MPD2    C411940   3.055   2.247   9.870 -0.3996  0.3755 -0.5075
  811MPD2    C511941   3.036   2.147   9.962 -0.4582  0.4870  0.7217
  811MPD2     H11942   3.321   2.386  10.030 -0.9257  0.2350  0.0633
  811MPD2    H111943   2.991   2.256   9.783  1.5771  3.5162 -1.6065
  811MPD2    H211944   3.109   2.039  10.138 -0.4824  0.6227 -0.3556
  811MPD2    H311945   2.963   2.069   9.943  0.7481 -0.0571 -1.7260
  811MPD2     N11946   3.178   2.454   9.827 -0.0011 -0.7164  0.3541
  811MPD2    H511947   3.260   2.506   9.857  0.2009 -0.0188 -1.4324
  811MPD2    N111948   3.312   2.173  10.207 -0.5623  0.2632 -0.2444
  811MPD2    H711949   3.308   2.082  10.252 -1.3165  0.4710  0.1123
  812MPD2     C11950   2.559   2.701  12.423 -0.1367 -0.6585  0.7035
  812MPD2    C111951   2.468   2.749  12.516  0.5546  0.3620 -0.1323
  812MPD2    C211952   2.411   2.665  12.611 -0.5051 -0.0368 -0.2105
  812MPD2    C311953   2.454   2.537  12.615  0.3621 -0.2813 -0.1800
  812MPD2    C411954   2.541   2.485  12.525  0.2593  0.2990 -0.3423
  812MPD2    C511955   2.601   2.570  12.434  0.7800 -0.5549  0.0296
  812MPD2     H11956   2.330   2.693  12.677  0.3726  0.6632  0.5621
  812MPD2    H111957   2.584   2.385  12.523 -0.9802 -0.2352 -0.3808
  812MPD2    H211958   2.605   2.754  12.341 -1.2765 -0.5729  0.1284
  812MPD2    H311959   2.678   2.544  12.363 -0.7506 -1.2945 -1.3541
  812MPD2     N11960   2.414   2.462  12.731  0.4042  0.6083  0.0457
  812MPD2    H511961   2.363   2.510  12.804  0.1146 -0.6122  0.6414
  812MPD2    N111962   2.440   2.889  12.507 -0.6921  0.2242  0.0379
  812MPD2    H711963   2.491   2.953  12.448 -2.6387  1.3461 -0.4240
  813MPD2     C11964   1.489   4.606  13.029 -0.9494 -0.2085 -0.1867
  813MPD2    C111965   1.498   0.020  13.014 -1.1085 -0.3811  0.6114
  813MPD2    C211966   1.406   0.096  13.086  0.1903  0.2611  0.0586
  813MPD2    C311967   1.310   0.045  13.170  0.1715 -0.1099 -0.3011
  813MPD2    C411968   1.302   4.632  13.188 -0.1132  0.5496 -0.1239
  813MPD2    C511969   1.388   4.557  13.108  0.1387  0.0524 -0.0998
  813MPD2     H11970   1.413   0.204  13.097 -0.0448  0.6493 -3.5354
  813MPD2    H111971   1.229   4.580  13.249  0.9427  0.9793  1.5076
  813MPD2    H211972   1.550   4.535  12.974  0.3783  0.7823  0.0137
  813MPD2    H311973   1.370   4.450  13.103 -0.4248  0.1775 -0.7645
  813MPD2     N11974   1.244   0.135  13.257 -0.0473  0.1581  0.1125
  813MPD2    H511975   1.260   0.233  13.235  3.6055 -0.2400  1.0222
  813MPD2    N111976   1.607   0.068  12.938 -0.2141  0.8386  0.1554
  813MPD2    H711977   1.678   0.005  12.902 -1.7735 -0.7813 -0.1083
  814MPD2     C11978   1.802   1.578  12.344 -0.3176 -0.5256 -0.3885
  814MPD2    C111979   1.908   1.566  12.251  0.3098  0.4738  0.2251
  814MPD2    C211980   2.018   1.647  12.256 -0.2154  0.0108  0.3605
  814MPD2    C311981   2.027   1.755  12.342  0.2730  0.2429 -0.2945
  814MPD2    C411982   1.920   1.766  12.428  0.1278 -0.0891  0.2110
  814MPD2    C511983   1.808   1.681  12.431 -0.1051  0.0557  0.2254
  814MPD2     H11984   2.099   1.628  12.187 -0.8928 -1.4055 -0.0424
  814MPD2    H111985   1.926   1.841  12.506  3.7864  0.0482 -0.2252
  814MPD2    H211986   1.716   1.512  12.343 -1.8849  1.5370 -1.1990
  814MPD2    H311987   1.724   1.699  12.497  0.2784  1.2906  0.3671
  814MPD2     N11988   2.140   1.840  12.371 -1.1488 -0.4243 -0.8499
  814MPD2    H511989   2.128   1.920  12.433 -2.4413 -0.5541 -0.9315
  814MPD2    N111990   1.909   1.476  12.145  0.4370 -0.5021 -0.0891
  814MPD2    H711991   1.986   1.483  12.079 -2.1244  0.0663 -2.9654
  815MPD2     C11992   2.746   4.409  12.113 -0.5211  1.5101 -0.0512
  815MPD2    C111993   2.682   4.289  12.113 -0.5038  0.3689  0.6039
  815MPD2    C211994   2.591   4.269  12.216 -0.1311  0.3407 -0.1031
  815MPD2    C311995   2.569   4.362  12.316 -0.3956 -1.0149 -0.1796
  815MPD2    C411996   2.634   4.480  12.314  0.4639 -0.0020 -0.4536
  815MPD2    C511997   2.719   4.504  12.211  1.1111 -0.1580  0.5408
  815MPD2     H11998   2.530   4.180  12.227 -1.2841  0.7535 -3.1150
  815MPD2    H111999   2.617   4.557  12.389  0.0471  0.3569 -0.9116
  815MPD2    H212000   2.827   4.438  12.048 -0.1991  1.9943  0.5596
  815MPD2    H312001   2.780   4.593  12.208 -0.3093  0.7424 -1.8146
  815MPD2     N12002   2.471   4.326  12.416  0.5874  0.4872 -0.4703
  815MPD2    H512003   2.442   4.229  12.420  0.0315  0.5572 -2.9126
  815MPD2    N112004   2.702   4.190  12.013 -0.3243 -0.2398 -0.4856
  815MPD2    H712005   2.769   4.213  11.940  0.2747 -1.1426 -0.2122
  816MPD2     C12006   2.069   3.974   0.099  0.1835  0.3309 -0.5042
  816MPD2    C112007   2.176   4.063   0.110 -0.0271  0.4688  0.0106
  816MPD2    C212008   2.296   4.021   0.052 -0.3411  0.1767 -0.1631
  816MPD2    C312009   2.321   3.892   0.005 -0.0310  0.7689 -0.8882
  816MPD2    C412010   2.219   3.803   0.019  0.0512  0.3857  0.4582
  816MPD2    C512011   2.094   3.844   0.065 -0.3754  0.1399 -0.4826
  816MPD2     H12012   2.376   4.094   0.052  0.1405 -0.3656  1.9096
  816MPD2    H112013   2.224   3.700  17.684 -2.6479 -0.8547  3.7736
  816MPD2    H212014   1.969   3.995   0.135  0.4446  0.4821  0.1400
  816MPD2    H312015   2.016   3.769   0.070  0.1173 -0.4268 -1.2770
  816MPD2     N12016   2.440   3.853  17.635  0.5451 -0.0240 -0.1475
  816MPD2    H512017   2.514   3.923  17.631  0.6928 -0.1610  0.1536
  816MPD2    N112018   2.159   4.192   0.165  0.4233 -0.1429 -0.6055
  816MPD2    H712019   2.065   4.211   0.197  1.3926  4.8016 -0.7788
  817MPD2     C12020   2.540   4.596  10.400 -0.0831  0.4499  0.3438
  817MPD2    C112021   2.644   4.651  10.323  0.8473 -0.3017 -0.0669
  817MPD2    C212022   2.644   0.065  10.306  0.4372  0.0487  0.8809
  817MPD2    C312023   2.542   0.140  10.360  0.2125 -0.7644  0.6928
  817MPD2    C412024   2.445   0.078  10.436 -0.5096 -0.3274  0.4085
  817MPD2    C512025   2.453   4.670  10.459 -0.0218  0.3990  0.1512
  817MPD2     H12026   2.721   0.107  10.242  2.1901 -0.5682  2.6222
  817MPD2    H112027   2.372   0.141  10.484 -0.4041 -0.1617  0.3499
  817MPD2    H212028   2.538   4.488  10.408 -1.0730  0.4031 -0.6493
  817MPD2    H312029   2.379   4.623  10.523  0.4561  0.6814  0.9154
  817MPD2     N12030   2.540   0.275  10.327 -0.0579 -0.4802  0.6599
  817MPD2    H512031   2.622   0.299  10.272 -0.1350  0.9097  1.1503
  817MPD2    N112032   2.728   4.575  10.252 -0.5325  0.0872 -0.4945
  817MPD2    H712033   2.799   4.627  10.202  0.2558 -0.9010 -0.3950
  818MPD2     C12034   1.341   0.094  10.427 -0.7608  0.0335 -0.5364
  818MPD2    C112035   1.231   0.055  10.351  0.2546  0.3246  0.7097
  818MPD2    C212036   1.231   4.650  10.304  0.3468  0.6439 -0.3299
  818MPD2    C312037   1.335   4.565  10.337 -0.1587 -0.4658  0.1146
  818MPD2    C412038   1.437   4.606  10.421  0.3221  0.0258  0.2791
  818MPD2    C512039   1.444   0.010  10.458  0.2733 -0.3369 -0.5135
  818MPD2     H12040   1.145   4.621  10.245  0.3544 -0.2580  0.1119
  818MPD2    H112041   1.509   4.530  10.449  0.8574  1.1794  1.9435
  818MPD2    H212042   1.353   0.195  10.463  2.5866  0.1355 -1.9278
  818MPD2    H312043   1.533   0.046  10.507  0.8469 -1.5115 -0.6886
  818MPD2     N12044   1.346   4.424  10.294  0.3131 -0.4983 -0.2266
  818MPD2    H512045   1.429   4.377  10.327 -0.0239 -1.1104 -0.2537
  818MPD2    N112046   1.111   0.129  10.337 -0.8053  0.2689  0.0420
  818MPD2    H712047   1.032   0.088  10.288  2.0045 -1.8293 -2.6917
  819MPD2     C12048   3.535   2.911  16.151  0.0959 -0.5859 -0.2257
  819MPD2    C112049   3.530   2.835  16.034  0.0395  0.4221  0.5351
  819MPD2    C212050   3.616   2.723  16.032  0.0191  0.3963  0.2408
  819MPD2    C312051   3.702   2.697  16.136 -0.3787 -0.5799 -1.0174
  819MPD2    C412052   3.716   2.782  16.240  0.2736  0.5047  0.2138
  819MPD2    C512053   3.628   2.888  16.248  0.8179 -0.3589  0.2813
  819MPD2     H12054   3.612   2.648  15.954  1.3547  0.5226  0.0552
  819MPD2    H112055   3.783   2.756  16.321 -1.8482 -0.2020  1.7339
  819MPD2    H212056   3.479   3.003  16.159 -0.2874 -0.9429  1.0511
  819MPD2    H312057   3.638   2.955  16.333 -2.8343  0.6005 -0.0485
  819MPD2     N12058   3.778   2.579  16.122  0.0357 -0.0232  0.3107
  819MPD2    H512059   3.759   2.528  16.036  0.2149 -0.6260  0.6254
  819MPD2    N112060   3.431   2.864  15.936 -0.8209 -0.1399 -0.1187
  819MPD2    H712061   3.365   2.940  15.952 -0.3796 -0.2702  2.4111
  820MPD2     C12062   2.448   2.834  15.711 -0.6014  0.2694 -0.1398
  820MPD2    C112063   2.535   2.727  15.717 -0.1518  0.1626 -0.0563
  820MPD2    C212064   2.667   2.753  15.743 -0.5716  0.4136  0.1613
  820MPD2    C312065   2.716   2.885  15.726 -0.2003 -0.7427 -0.5570
  820MPD2    C412066   2.625   2.987  15.701  0.5592 -0.2921  0.4693
  820MPD2    C512067   2.489   2.962  15.705 -0.1037  0.6548 -0.5951
  820MPD2     H12068   2.740   2.681  15.779  0.3378  2.3586  2.2112
  820MPD2    H112069   2.653   3.089  15.678  1.1556 -0.2348  1.4898
  820MPD2    H212070   2.342   2.815  15.697 -1.2983  3.9643  0.2655
  820MPD2    H312071   2.417   3.038  15.678  0.4116  1.1119 -0.6804
  820MPD2     N12072   2.852   2.917  15.728  0.0401 -0.3380 -0.9582
  820MPD2    H512073   2.876   2.991  15.664  0.4497  0.3803  0.0251
  820MPD2    N112074   2.485   2.597  15.701  0.2307  0.2099  0.4592
  820MPD2    H712075   2.392   2.579  15.665  0.1686 -0.3841  0.9080
  821MPD2     C12076   4.018   3.209  13.657  0.4511  0.0739  0.5234
  821MPD2    C112077   4.125   3.241  13.738 -0.0226 -0.5503 -0.7037
  821MPD2    C212078   4.254   3.243  13.686  0.6229  0.2145 -0.0433
  821MPD2    C312079   4.282   3.211  13.553 -0.2483 -0.5447  0.5512
  821MPD2    C412080   4.177   3.164  13.474 -0.3030  0.6011 -0.9444
  821MPD2    C512081   4.047   3.172  13.523 -0.0754  1.1841  0.0532
  821MPD2     H12082   4.335   3.270  13.752 -0.8786  2.0704  1.0236
  821MPD2    H112083   4.185   3.119  13.376  1.6850 -1.1600  0.0389
  821MPD2    H212084   3.918   3.197  13.698 -0.5658  2.2587 -1.3410
  821MPD2    H312085   3.964   3.147  13.458  1.0575 -2.3085 -0.0054
  821MPD2     N12086   4.410   3.207  13.492  0.2444  0.3205  0.6346
  821MPD2    H512087   4.419   3.183  13.394  4.6746  1.5160  0.7512
  821MPD2    N112088   4.114   3.288  13.872 -0.4078 -0.4002 -0.2308
  821MPD2    H712089   4.206   3.290  13.916 -0.8209  0.4485  0.5777
  822MPD2     C12090   0.032   3.962  15.840 -0.7336  0.0361 -0.0543
  822MPD2    C112091   0.087   3.919  15.959 -0.5287 -0.3774  0.8890
  822MPD2    C212092   0.061   3.991  16.080  0.2289 -0.6442 -0.2643
  822MPD2    C312093   4.691   4.104  16.079 -0.4672  0.2511 -0.3601
  822MPD2    C412094   4.630   4.137  15.958  0.4494  0.2124 -0.3098
  822MPD2    C512095   4.659   4.062  15.847  0.2748 -0.4570 -0.5347
  822MPD2     H12096   0.099   3.955  16.175 -2.4085 -4.1365 -0.5342
  822MPD2    H112097   4.558   4.216  15.945  0.9784  1.2784  3.4184
  822MPD2    H212098   0.041   3.901  15.751 -0.5440  0.7297 -0.5089
  822MPD2    H312099   4.592   4.063  15.761  0.7465 -1.8000 -0.9212
  822MPD2     N12100   4.655   4.174  16.200 -0.6254 -0.6356 -0.2491
  822MPD2    H512101   4.592   4.253  16.192  0.1731  0.0764  0.5029
  822MPD2    N112102   0.165   3.801  15.978 -0.0106  0.1746 -0.5612
  822MPD2    H712103   0.189   3.777  16.074  1.6746 -1.0589 -1.2926
  823MPD2     C12104   4.560   4.188  17.159  0.1724  0.1448 -0.6177
  823MPD2    C112105   4.570   4.110  17.044  0.4296  0.1233 -0.2197
  823MPD2    C212106   4.545   3.967  17.045  0.1650 -0.0457 -0.0605
  823MPD2    C312107   4.494   3.911  17.159 -0.1554 -0.6259 -0.9594
  823MPD2    C412108   4.483   3.993  17.269  0.4539 -0.6785 -0.0348
  823MPD2    C512109   4.525   4.119  17.272 -0.8930 -0.4359 -0.5873
  823MPD2     H12110   4.582   3.913  16.959 -0.9982  1.3839 -1.4699
  823MPD2    H112111   4.458   3.961  17.369 -2.2763 -0.6122 -0.6761
  823MPD2    H212112   4.565   4.296  17.171 -0.3992  0.2056 -0.9592
  823MPD2    H312113   4.510   4.182  17.359 -0.9322 -2.0063  0.5392
  823MPD2     N12114   4.477   3.771  17.177 -0.0996 -0.0868  0.3212
  823MPD2    H512115   4.484   3.732  17.271 -1.3165 -1.4192 -0.1447
  823MPD2    N112116   4.611   4.181  16.922  0.0071 -0.7200 -0.2706
  823MPD2    H712117   4.635   4.280  16.932  1.9402 -1.2437  0.3814
  824MPD2     C12118   0.245   3.220  15.444 -0.5081  0.5798 -0.6573
  824MPD2    C112119   0.308   3.186  15.563 -0.0125  0.9876 -0.0231
  824MPD2    C212120   0.391   3.077  15.567  0.1452 -0.3242 -0.5085
  824MPD2    C312121   0.427   3.015  15.454 -0.5054  0.0233  0.4562
  824MPD2    C412122   0.375   3.060  15.337  0.8675  0.6445  0.1352
  824MPD2    C512123   0.287   3.162  15.330 -0.1553  0.0618  0.0798
  824MPD2     H12124   0.429   3.037  15.661 -0.2492  1.2541  0.3183
  824MPD2    H112125   0.395   3.011  15.242 -0.2413 -0.7433  0.6064
  824MPD2    H212126   0.177   3.305  15.437 -1.9531 -0.6031 -0.9925
  824MPD2    H312127   0.237   3.199  15.241 -0.1132  2.4233  1.0418
  824MPD2     N12128   0.517   2.911  15.439 -0.1976  0.1004  0.0621
  824MPD2    H512129   0.553   2.893  15.346 -0.5730 -2.5333  0.4126
  824MPD2    N112130   0.285   3.268  15.672 -0.1507 -0.3872  0.5878
  824MPD2    H712131   0.211   3.335  15.654 -0.3562 -0.2605  1.8822
  825MPD2     C12132   1.319   2.913  15.516  0.1468  0.0482 -0.0151
  825MPD2    C112133   1.224   2.938  15.419  0.1027  1.0462 -0.0049
  825MPD2    C212134   1.225   3.066  15.357  0.2413 -0.0104  0.9446
  825MPD2    C312135   1.329   3.158  15.384 -0.3475 -0.4503  0.1233
  825MPD2    C412136   1.418   3.122  15.477 -0.4352 -0.4685 -0.3419
  825MPD2    C512137   1.408   3.009  15.550  0.3712 -0.0124  0.1331
  825MPD2     H12138   1.146   3.094  15.287  0.3477 -0.6082  0.5850
  825MPD2    H112139   1.494   3.194  15.506 -0.2926  0.4975 -3.1416
  825MPD2    H212140   1.314   2.813  15.559  0.6127 -0.3151 -0.7985
  825MPD2    H312141   1.488   2.984  15.619 -0.1957  2.1887  1.5881
  825MPD2     N12142   1.323   3.295  15.338 -0.0702 -0.5215  0.1252
  825MPD2    H512143   1.384   3.359  15.388 -0.0660  0.7023 -1.4554
  825MPD2    N112144   1.119   2.842  15.405 -0.7185  0.6509  0.8345
  825MPD2    H712145   1.127   2.750  15.447 -0.2881  0.4570  0.3338
  826MPD2     C12146   0.460   2.603  13.916 -0.5935 -0.3139 -0.1768
  826MPD2    C112147   0.405   2.669  13.807  0.3403 -0.2762  0.3291
  826MPD2    C212148   0.320   2.774  13.838 -0.2171  0.5909  0.6241
  826MPD2    C312149   0.299   2.808  13.975 -0.1740 -0.1613 -0.5452
  826MPD2    C412150   0.361   2.742  14.072 -0.5229  0.7609 -0.0428
  826MPD2    C512151   0.438   2.637  14.043 -0.0989  0.2867  0.2317
  826MPD2     H12152   0.274   2.834  13.760  4.0021 -0.0450 -2.3893
  826MPD2    H112153   0.350   2.759  14.179 -2.7452 -0.6537 -0.0467
  826MPD2    H212154   0.505   2.507  13.896  0.1495 -0.3475  1.6447
  826MPD2    H312155   0.465   2.572  14.125 -3.5339  0.1112  1.2075
  826MPD2     N12156   0.215   2.910  14.022 -0.1842 -0.3165 -0.3216
  826MPD2    H512157   0.219   2.934  14.121  2.4926 -3.1526  0.2364
  826MPD2    N112158   0.429   2.609  13.681 -0.1654  0.7335 -0.2609
  826MPD2    H712159   0.499   2.538  13.664 -0.6425  0.1519  0.2227
  827MPD2     C12160   1.696   3.209  10.724  0.4497 -0.1452  0.2885
  827MPD2    C112161   1.579   3.281  10.709  0.0234 -0.5447  0.4457
  827MPD2    C212162   1.489   3.232  10.619 -0.5480 -0.0613 -0.7257
  827MPD2    C312163   1.519   3.128  10.533  0.6793 -0.5885 -1.0584
  827MPD2    C412164   1.639   3.065  10.549  0.3561  0.4635  0.3470
  827MPD2    C512165   1.725   3.095  10.652 -0.1890 -0.6909  0.8273
  827MPD2     H12166   1.400   3.292  10.602 -1.5110 -1.1141  0.5866
  827MPD2    H112167   1.662   2.974  10.495 -0.7383  2.3646 -3.3411
  827MPD2    H212168   1.769   3.231  10.801  0.5303  0.6794 -0.0172
  827MPD2    H312169   1.819   3.044  10.668  0.8007  0.5404 -1.1183
  827MPD2     N12170   1.428   3.092  10.431 -0.3315  0.4309 -0.0778
  827MPD2    H512171   1.340   3.142  10.424  0.5209  1.7326 -1.5061
  827MPD2    N112172   1.564   3.405  10.785  0.1873  0.1466  0.3803
  827MPD2    H712173   1.645   3.446  10.830  0.0943 -0.3215  0.9872
  828MPD2     C12174   0.146   4.041  12.601 -0.0424  0.1352 -0.2369
  828MPD2    C112175   0.111   3.987  12.483  0.6030  0.4309 -0.4218
  828MPD2    C212176   0.207   3.908  12.418  0.2079 -0.6576  0.8882
  828MPD2    C312177   0.339   3.884  12.465 -0.0189  0.0939 -0.1024
  828MPD2    C412178   0.371   3.951  12.578  0.1313  0.2978  0.8249
  828MPD2    C512179   0.275   4.030  12.637 -0.2746  0.0458  0.3982
  828MPD2     H12180   0.168   3.860  12.329 -1.5654  1.3990  0.5660
  828MPD2    H112181   0.468   3.944  12.626  0.5370  2.5398  0.3685
  828MPD2    H212182   0.075   4.107  12.649 -1.0137  0.3713 -1.9927
  828MPD2    H312183   0.300   4.083  12.728  1.5247  0.0060 -0.0775
  828MPD2     N12184   0.434   3.810  12.399  0.4253  0.3034  0.0711
  828MPD2    H512185   0.522   3.788  12.443  0.2196 -0.0009  0.3326
  828MPD2    N112186   4.705   3.996  12.421  0.6493  0.0541 -0.4166
  828MPD2    H712187   4.697   3.957  12.328 -2.0286 -0.3641 -0.0065
  829MPD2     C12188   4.566   3.605  11.710  0.3022 -0.3186  0.7958
  829MPD2    C112189   4.445   3.664  11.716  0.3475 -0.4392 -0.2862
  829MPD2    C212190   4.414   3.748  11.822  0.4876 -0.2216 -0.0675
  829MPD2    C312191   4.512   3.780  11.912  0.5434 -0.1008  0.9524
  829MPD2    C412192   4.638   3.721  11.903 -0.7618  0.3287 -0.2343
  829MPD2    C512193   4.663   3.627  11.803  0.0098 -0.3435  0.5581
  829MPD2     H12194   4.314   3.791  11.828  0.6538  0.5554 -2.9542
  829MPD2    H112195   4.724   3.754  11.960  0.3025 -1.9379 -0.5494
  829MPD2    H212196   4.591   3.545  11.623  1.1629  0.3494  0.5881
  829MPD2    H312197   0.036   3.582  11.790 -0.0608 -0.4299  0.3424
  829MPD2     N12198   4.489   3.861  12.024  0.1807  0.3329  0.2924
  829MPD2    H512199   4.565   3.878  12.089 -0.4042  1.4787  0.6702
  829MPD2    N112200   4.362   3.657  11.602 -1.0207 -0.4270  0.0400
  829MPD2    H712201   4.402   3.609  11.522  0.7315  0.5379  0.3402
  830MPD2     C12202   4.043   1.991  15.597  0.2393  0.0615  0.5137
  830MPD2    C112203   3.970   2.099  15.634 -0.2707 -0.3046  0.0970
  830MPD2    C212204   3.906   2.170  15.535  0.1594 -0.3487 -0.0070
  830MPD2    C312205   3.922   2.143  15.404  0.1916  0.0107 -0.1952
  830MPD2    C412206   4.003   2.034  15.368 -1.0741 -0.6190 -0.0264
  830MPD2    C512207   4.072   1.965  15.463 -0.4612 -0.6728 -0.2518
  830MPD2     H12208   3.847   2.256  15.566  0.3433 -1.3598  3.2080
  830MPD2    H112209   4.002   2.002  15.264 -3.0080 -0.4917 -0.0580
  830MPD2    H212210   4.093   1.936  15.675  0.1462 -2.3979 -1.1696
  830MPD2    H312211   4.136   1.882  15.437 -0.2562  0.0516 -2.0438
  830MPD2     N12212   3.869   2.224  15.298  0.3182 -0.1942 -0.1971
  830MPD2    H512213   3.920   2.205  15.213  0.4862  1.5685 -0.4881
  830MPD2    N112214   3.971   2.140  15.769  0.6586 -0.0854  0.0519
  830MPD2    H712215   4.025   2.090  15.839 -0.1389  1.2588  1.6307
  831MPD2     C12216   0.009   3.732  16.638 -0.1409  0.6429  0.2007
  831MPD2    C112217   0.053   3.724  16.511  0.2932 -0.7113  0.1630
  831MPD2    C212218   4.704   3.657  16.417 -0.3274 -0.0488 -0.1399
  831MPD2    C312219   4.575   3.616  16.450 -1.0556 -0.5269 -0.0418
  831MPD2    C412220   4.522   3.637  16.574  0.8528 -0.2053  0.3956
  831MPD2    C512221   4.608   3.691  16.672 -0.1221 -0.3060  0.4633
  831MPD2     H12222   0.025   3.659  16.318  0.4826  0.2013  0.2355
  831MPD2    H112223   4.422   3.603  16.600  0.3054  0.5842 -0.7231
  831MPD2    H212224   0.073   3.775  16.715  0.0695 -0.3890  0.5951
  831MPD2    H312225   4.569   3.711  16.771  0.5998  1.7428  0.3328
  831MPD2     N12226   4.485   3.560  16.360  0.2481  0.2155 -0.1576
  831MPD2    H512227   4.396   3.530  16.399 -0.4834  2.0081 -0.4813
  831MPD2    N112228   0.186   3.779  16.489 -0.1717 -0.0786  0.6553
  831MPD2    H712229   0.222   3.828  16.570  2.6402 -1.1562  0.0458
  832MPD2     C12230   3.195   0.398   0.063  0.6492  0.3901  0.1044
  832MPD2    C112231   3.152   0.507  17.696 -0.3708  0.7113  0.2329
  832MPD2    C212232   3.054   0.499  17.604 -0.4287  1.1308  0.0680
  832MPD2    C312233   2.980   0.378  17.586 -0.2738  0.0224 -0.2402
  832MPD2    C412234   3.021   0.269  17.661  0.2989 -0.1392  0.6455
  832MPD2    C512235   3.132   0.278   0.043  0.4064  1.2916  0.1030
  832MPD2     H12236   3.007   0.582  17.552 -2.1321 -0.3208 -0.6726
  832MPD2    H112237   2.976   0.171  17.666  1.3828 -0.6223  0.9420
  832MPD2    H212238   3.270   0.401   0.141 -0.0477 -0.7640  0.8281
  832MPD2    H312239   3.171   0.194   0.100 -1.7028  1.5407  1.8864
  832MPD2     N12240   2.864   0.355  17.507 -0.4774  0.1962 -0.1034
  832MPD2    H512241   2.820   0.264  17.519 -2.6565  1.1879 -0.5255
  832MPD2    N112242   3.216   0.628   0.023  0.4308  0.0473  0.3147
  832MPD2    H712243   3.295   0.638   0.086  0.6981 -0.5674  0.0835
  833MPD2     C12244   0.218   0.960  12.619  0.2222 -0.0731 -0.2105
  833MPD2    C112245   0.295   1.072  12.637 -0.1932  0.2843 -0.2301
  833MPD2    C212246   0.437   1.069  12.621  0.1092  0.1084  0.3008
  833MPD2    C312247   0.489   0.952  12.576  0.1204  0.3539  0.2137
  833MPD2    C412248   0.409   0.852  12.539 -0.2290  0.6478  0.7086
  833MPD2    C512249   0.275   0.847  12.564 -0.3374 -0.2876 -0.1732
  833MPD2     H12250   0.511   1.144  12.644  1.3606 -1.2384  0.7018
  833MPD2    H112251   0.453   0.770  12.483  1.9260  1.1171  1.7060
  833MPD2    H212252   0.111   0.976  12.626  0.2457  0.8440 -2.1057
  833MPD2    H312253   0.218   0.760  12.534 -0.0745 -0.4765 -0.1252
  833MPD2     N12254   0.624   0.953  12.537  0.1575  0.3701 -0.0909
  833MPD2    H512255   0.671   1.040  12.561 -1.6163  1.5375 -0.7625
  833MPD2    N112256   0.226   1.184  12.691  0.2390  0.3643  0.2198
  833MPD2    H712257   0.136   1.174  12.738  0.7846  1.4828  1.5286
  834MPD2     C12258   0.561   0.956  11.672 -0.3959 -0.1565  0.1134
  834MPD2    C112259   0.655   0.854  11.695 -0.3751  0.2883  0.5164
  834MPD2    C212260   0.730   0.853  11.814  0.3156 -0.5077 -0.1316
  834MPD2    C312261   0.707   0.945  11.914  0.0097  0.2523 -0.8191
  834MPD2    C412262   0.602   1.027  11.901 -0.3594  0.7302  0.3682
  834MPD2    C512263   0.524   1.028  11.787 -0.5413  0.6846 -0.1155
  834MPD2     H12264   0.813   0.785  11.835  1.7560  1.6364  1.1048
  834MPD2    H112265   0.572   1.103  11.971  0.0435  0.6011  0.6788
  834MPD2    H212266   0.487   0.972  11.595  0.3104 -0.7576 -0.6789
  834MPD2    H312267   0.434   1.089  11.780 -0.6158  0.5875 -0.0153
  834MPD2     N12268   0.797   0.958  12.023 -0.2557  0.0990  0.2009
  834MPD2    H512269   0.871   0.890  12.038 -0.1596  0.6716  2.2592
  834MPD2    N112270   0.676   0.755  11.588  0.3807 -0.1487 -0.2590
  834MPD2    H712271   0.729   0.673  11.613 -0.1924 -0.3526  0.2922
  835MPD2     C12272   0.329   3.739  11.688  0.1107  0.4753  0.0546
  835MPD2    C112273   0.251   3.846  11.723  0.1978 -0.5617 -0.4978
  835MPD2    C212274   0.289   3.927  11.830  0.7920 -0.7543 -0.1547
  835MPD2    C312275   0.411   3.906  11.888 -0.0027  0.6158  0.5677
  835MPD2    C412276   0.493   3.805  11.849  0.5786 -0.2494 -0.0209
  835MPD2    C512277   0.449   3.721  11.757  0.7109  0.0034  0.1364
  835MPD2     H12278   0.226   4.011  11.858  2.3448 -0.0084  1.0422
  835MPD2    H112279   0.590   3.779  11.892 -0.4772 -0.4181  2.2495
  835MPD2    H212280   0.308   3.677  11.601 -0.0363 -2.6171  2.2906
  835MPD2    H312281   0.520   3.642  11.737 -0.5071 -1.0055 -0.2281
  835MPD2     N12282   0.463   3.998  11.985 -0.6440  0.2533 -0.1005
  835MPD2    H512283   0.559   3.980  12.010 -1.7439 -3.0626  1.7726
  835MPD2    N112284   0.137   3.897  11.651  0.0894 -0.2808 -0.3314
  835MPD2    H712285   0.110   3.992  11.673  0.9217 -0.2140  0.3949
  836MPD2     C12286   4.687   4.278  12.190 -0.0566 -0.0259  0.1608
  836MPD2    C112287   0.038   4.311  12.294  0.5000  0.3102 -0.1216
  836MPD2    C212288   4.695   4.334  12.417 -0.1359 -0.0855 -0.0481
  836MPD2    C312289   4.557   4.349  12.428  0.2113 -0.6252 -0.1326
  836MPD2    C412290   4.487   4.324  12.317  1.2074 -0.2381 -0.2759
  836MPD2    C512291   4.549   4.283  12.203 -0.8869 -0.4930 -0.6462
  836MPD2     H12292   0.025   4.354  12.509 -0.3935 -1.6709  0.4449
  836MPD2    H112293   4.379   4.327  12.329  1.1179  1.4797 -1.5019
  836MPD2    H212294   0.003   4.231  12.102  0.3940  2.6539 -1.0338
  836MPD2    H312295   4.485   4.250  12.122  1.5760 -1.7718 -2.0648
  836MPD2     N12296   4.486   4.344  12.554 -0.7187  0.3847 -0.0716
  836MPD2    H512297   4.388   4.320  12.549 -0.8140  0.5205  1.0755
  836MPD2    N112298   0.175   4.309  12.276 -0.2250 -0.2665 -0.1132
  836MPD2    H712299   0.212   4.271  12.190 -0.4870 -0.0840 -0.3039
  837MPD2     C12300   3.596   3.102   9.812 -0.0370  0.0484 -0.2832
  837MPD2    C112301   3.461   3.104   9.830  0.3168  0.0467  0.1575
  837MPD2    C212302   3.406   3.215   9.880 -0.1689  0.2356  0.5580
  837MPD2    C312303   3.483   3.323   9.918  0.6405 -0.0063  0.0523
  837MPD2    C412304   3.622   3.314   9.931 -0.5398 -0.2468 -0.4566
  837MPD2    C512305   3.677   3.206   9.867 -0.3592 -0.0432 -0.2039
  837MPD2     H12306   3.300   3.238   9.885 -0.1292  0.6104 -0.3402
  837MPD2    H112307   3.686   3.398   9.959  0.5672 -0.3013 -2.7735
  837MPD2    H212308   3.652   3.021   9.767 -1.0725  0.0340 -1.5672
  837MPD2    H312309   3.784   3.199   9.853 -0.3290  0.8325 -0.3772
  837MPD2     N12310   3.406   3.442   9.944 -0.0732  0.5540 -0.2315
  837MPD2    H512311   3.305   3.434   9.937  0.2317 -0.6223 -3.4009
  837MPD2    N112312   3.381   3.007   9.772 -0.5656 -0.3892 -0.0898
  837MPD2    H712313   3.283   3.025   9.792 -0.2857  0.4354  0.5541
  838MPD2     C12314   1.951   2.512  12.065 -0.1703  0.2298 -0.4815
  838MPD2    C112315   1.883   2.411  11.996  0.3409 -0.8139  0.6908
  838MPD2    C212316   1.755   2.374  12.034 -0.1149  0.4232  0.0748
  838MPD2    C312317   1.707   2.431  12.149  0.1242  0.1742  0.1248
  838MPD2    C412318   1.768   2.538  12.210 -0.5411  0.7329  0.9578
  838MPD2    C512319   1.889   2.585  12.166  0.5774 -0.0873  0.0811
  838MPD2     H12320   1.697   2.295  11.986 -0.7635  1.0255 -0.1243
  838MPD2    H112321   1.723   2.581  12.299 -2.1251  0.2737  0.3901
  838MPD2    H212322   2.058   2.527  12.054 -0.2312  0.6444 -0.5230
  838MPD2    H312323   1.933   2.679  12.198  1.6794 -0.1912 -1.1186
  838MPD2     N12324   1.588   2.367  12.182  0.3714  0.0423 -0.0554
  838MPD2    H512325   1.560   2.288  12.126 -0.7686 -0.6723  1.5115
  838MPD2    N112326   1.942   2.331  11.899  0.5730 -0.2591  0.2463
  838MPD2    H712327   1.889   2.264  11.843  0.5591  0.2349 -0.3260
  839MPD2     C12328   1.540   1.582  11.876  0.5003 -0.6647  0.2434
  839MPD2    C112329   1.603   1.586  11.748  0.0360 -0.0426  0.0350
  839MPD2    C212330   1.706   1.675  11.734 -0.0312  0.1936 -0.4219
  839MPD2    C312331   1.751   1.758  11.833  0.2618  0.1837  0.1908
  839MPD2    C412332   1.686   1.749  11.954 -0.3943  0.0483  0.0961
  839MPD2    C512333   1.585   1.668  11.970  0.3470 -0.0486 -0.4728
  839MPD2     H12334   1.757   1.681  11.639  2.3297  0.1185  0.8270
  839MPD2    H112335   1.718   1.808  12.038 -0.5184 -0.6138  0.6077
  839MPD2    H212336   1.459   1.519  11.911 -0.1028 -0.3559 -0.6016
  839MPD2    H312337   1.540   1.672  12.068 -2.6304 -2.1405 -1.7350
  839MPD2     N12338   1.856   1.860  11.821 -0.2631  0.4582  0.3640
  839MPD2    H512339   1.879   1.919  11.901  2.1639  0.5679 -0.4262
  839MPD2    N112340   1.560   1.513  11.637 -0.5844 -0.5024  0.6403
  839MPD2    H712341   1.630   1.495  11.565 -1.7297  3.3117 -1.4073
  840MPD2     C12342   2.021   3.809  10.775  0.0741  0.1134 -0.1864
  840MPD2    C112343   1.951   3.833  10.893  0.4153 -0.0891 -1.0525
  840MPD2    C212344   1.995   3.939  10.974 -0.3299 -0.6857 -0.8669
  840MPD2    C312345   2.112   4.003  10.944  0.2112  0.3982 -0.1200
  840MPD2    C412346   2.178   3.982  10.828  0.0358 -0.2286 -0.3605
  840MPD2    C512347   2.133   3.888  10.742  0.8881 -0.3673 -0.2139
  840MPD2     H12348   1.951   3.958  11.071 -0.9776 -2.3270 -0.8260
  840MPD2    H112349   2.271   4.029  10.799 -0.1198  0.7544  0.7302
  840MPD2    H212350   1.997   3.720  10.718  0.5357 -1.3812  1.9704
  840MPD2    H312351   2.190   3.861  10.654  1.2660 -0.7173  0.1373
  840MPD2     N12352   2.179   4.092  11.035 -0.1180 -0.8807  0.5368
  840MPD2    H512353   2.272   4.122  11.011 -0.9078  2.5664  1.8589
  840MPD2    N112354   1.839   3.749  10.920 -0.3535  0.1724 -0.1490
  840MPD2    H712355   1.829   3.666  10.863 -1.0722 -1.1959  1.9278
  841MPD2     C12356   1.309   4.114  15.153 -0.4008  0.6917 -0.1618
  841MPD2    C112357   1.366   4.093  15.029 -0.1626  0.7532 -0.0889
  841MPD2    C212358   1.317   4.173  14.929 -0.9037  0.9356 -0.5370
  841MPD2    C312359   1.230   4.283  14.948 -0.2120  0.4376  0.7156
  841MPD2    C412360   1.197   4.315  15.080 -0.2932 -0.0247 -0.4658
  841MPD2    C512361   1.227   4.222  15.173  0.0182 -0.5826 -0.8587
  841MPD2     H12362   1.349   4.151  14.828  0.3378  0.0822  0.0421
  841MPD2    H112363   1.131   4.399  15.095 -0.7943 -0.5554  0.3345
  841MPD2    H212364   1.329   4.044  15.234  1.3728  0.5069 -0.7560
  841MPD2    H312365   1.186   4.228  15.273 -0.2288 -2.2193 -0.8643
  841MPD2     N12366   1.198   4.367  14.837 -0.0232 -0.1748  0.3070
  841MPD2    H512367   1.234   4.341  14.746 -0.3930 -1.5968  0.5586
  841MPD2    N112368   1.443   3.980  14.993 -0.0604 -0.7044  0.4057
  841MPD2    H712369   1.468   3.964  14.896  1.7050  0.7412  0.6404
  842MPD2     C12370   2.188   0.497  17.068  0.3518  0.9803  1.0953
  842MPD2    C112371   2.057   0.439  17.066 -0.1988 -0.6884  0.2800
  842MPD2    C212372   1.998   0.402  17.182 -0.0101 -0.1162  0.3460
  842MPD2    C312373   2.065   0.432  17.302  0.3667 -0.4111 -0.2024
  842MPD2    C412374   2.186   0.492  17.301  0.1374 -0.3368  0.3150
  842MPD2    C512375   2.247   0.529  17.186 -0.7484 -0.4829 -0.3296
  842MPD2     H12376   1.901   0.354  17.182  0.1504 -0.4478 -0.0414
  842MPD2    H112377   2.241   0.507  17.394  1.5968  0.0855 -0.6190
  842MPD2    H212378   2.235   0.529  16.976 -0.7337  0.4777  0.3693
  842MPD2    H312379   2.343   0.576  17.205  0.0087 -1.6249 -1.3234
  842MPD2     N12380   2.007   0.408  17.429 -0.1220 -0.0056  0.1265
  842MPD2    H512381   2.057   0.441  17.511 -2.0242  1.6900  0.6181
  842MPD2    N112382   1.997   0.436  16.942  0.1541  0.1633 -0.0801
  842MPD2    H712383   2.040   0.481  16.862 -1.8417  2.2488  0.0267
  843MPD2     C12384   3.781   0.748   0.509 -0.6690 -0.5914  0.6988
  843MPD2    C112385   3.915   0.713   0.498  0.2246  0.0578  0.1370
  843MPD2    C212386   3.996   0.792   0.416  0.0651 -0.0345 -0.1578
  843MPD2    C312387   3.947   0.904   0.352 -0.2369  0.2729 -0.0633
  843MPD2    C412388   3.820   0.951   0.385 -0.2467  0.2695 -0.0626
  843MPD2    C512389   3.738   0.863   0.449  0.3862  0.1235 -0.2061
  843MPD2     H12390   4.101   0.773   0.401 -0.4114 -1.0641 -2.1636
  843MPD2    H112391   3.772   1.038   0.342 -0.4689 -0.4463 -1.2634
  843MPD2    H212392   3.703   0.693   0.562 -1.3755  0.0059  0.2864
  843MPD2    H312393   3.634   0.891   0.467  0.5611 -0.6635  2.1124
  843MPD2     N12394   4.029   0.992   0.279  0.5959 -0.4558  0.2241
  843MPD2    H512395   3.997   1.088   0.275  0.7068 -0.4825 -1.1804
  843MPD2    N112396   3.959   0.606   0.580 -0.3447  0.6153  0.1461
  843MPD2    H712397   3.889   0.551   0.629  1.0018 -0.8951  0.4147
  844MPD2     C12398   2.474   4.489  17.114 -0.0967  0.3797 -0.7818
  844MPD2    C112399   2.524   4.525  16.987 -0.0918  0.2688 -0.0545
  844MPD2    C212400   2.608   4.634  16.989  0.6110  0.0224  0.6595
  844MPD2    C312401   2.647   4.693  17.104  0.0195 -0.2251  0.4337
  844MPD2    C412402   2.576   4.673  17.218  0.4739 -0.8554  1.0610
  844MPD2    C512403   2.495   4.565  17.226 -0.0223  0.6529  0.3956
  844MPD2     H12404   2.666   4.656  16.900  0.1216 -1.4705 -0.0271
  844MPD2    H112405   2.600   0.000  17.310  3.2977  0.6789 -0.5220
  844MPD2    H212406   2.403   4.408  17.120 -1.3766  1.4177 -1.8538
  844MPD2    H312407   2.446   4.549  17.321  0.5113 -0.7571  0.4198
  844MPD2     N12408   2.756   0.067  17.100 -0.3679 -0.3427  0.3471
  844MPD2    H512409   2.800   0.076  17.009 -1.2794  1.5703  0.0972
  844MPD2    N112410   2.504   4.445  16.867  0.3314  0.0827  0.8820
  844MPD2    H712411   2.465   4.352  16.868 -0.7112  0.5237  0.4715
  845MPD2     C12412   2.930   1.016  16.874  0.0811 -0.2540 -0.3926
  845MPD2    C112413   2.973   0.997  17.002  0.2379  0.4301 -0.4029
  845MPD2    C212414   2.986   0.869  17.048  0.0858  0.5186 -0.4635
  845MPD2    C312415   2.975   0.758  16.964 -0.0646 -0.2391 -0.2535
  845MPD2    C412416   2.932   0.775  16.836  0.0256 -0.6877 -0.3320
  845MPD2    C512417   2.900   0.900  16.800 -0.5534  0.2778 -0.5077
  845MPD2     H12418   3.013   0.848  17.151  2.8470  1.7613 -0.9590
  845MPD2    H112419   2.910   0.690  16.772 -1.8639 -0.6550  0.2967
  845MPD2    H212420   2.908   1.112  16.829  0.8381 -0.2421 -0.7239
  845MPD2    H312421   2.853   0.911  16.703 -1.0907  3.6582  0.1255
  845MPD2     N12422   3.007   0.627  17.027 -0.0039  0.0026 -0.1239
  845MPD2    H512423   3.048   0.619  17.120 -1.3076 -0.7485  0.3878
  845MPD2    N112424   2.995   1.108  17.087 -0.2827  0.2366  0.3480
  845MPD2    H712425   2.969   1.199  17.052 -1.2806 -0.4813 -0.7536
  846MPD2     C12426   4.373   1.271  14.326  0.1745  0.7359  0.7249
  846MPD2    C112427   4.233   1.295  14.334  0.2463  0.1572 -0.3410
  846MPD2    C212428   4.168   1.278  14.451  0.2701  0.1873 -0.1456
  846MPD2    C312429   4.234   1.232  14.564 -0.1690  0.3575  0.5059
  846MPD2    C412430   4.369   1.206  14.549 -0.1130  0.7519  0.3825
  846MPD2    C512431   4.436   1.231  14.436 -0.3094  0.7306  0.2291
  846MPD2     H12432   4.061   1.294  14.450  0.7520  3.4280 -2.7140
  846MPD2    H112433   4.434   1.171  14.629  0.6548  0.5860 -0.3080
  846MPD2    H212434   4.430   1.297  14.238 -0.6119 -1.5390 -0.4463
  846MPD2    H312435   4.541   1.204  14.441 -0.2104  0.8625 -1.0917
  846MPD2     N12436   4.164   1.200  14.687 -0.1555 -0.2170  0.0121
  846MPD2    H512437   4.064   1.218  14.686 -0.1796 -0.4360 -1.9737
  846MPD2    N112438   4.164   1.344  14.217  0.2257 -0.5131  1.0886
  846MPD2    H712439   4.078   1.394  14.241 -0.1100  0.3228 -1.8567
  847MPD2     C12440   4.518   2.230  14.661  0.3657 -0.3884 -0.2359
  847MPD2    C112441   4.604   2.307  14.737 -0.0549 -0.0100  0.7109
  847MPD2    C212442   4.661   2.266  14.853 -0.1956 -0.0024 -0.1821
  847MPD2    C312443   4.636   2.136  14.890 -0.4140  0.5349  0.4305
  847MPD2    C412444   4.555   2.046  14.816 -0.0385 -0.2479 -0.0047
  847MPD2    C512445   4.505   2.098  14.701  0.0622  0.4621  0.4656
  847MPD2     H12446   4.715   2.335  14.916  1.5853 -1.2541 -0.3359
  847MPD2    H112447   4.532   1.945  14.847 -0.7866 -0.0996 -0.0588
  847MPD2    H212448   4.476   2.257  14.565 -1.7199 -0.5610  0.6143
  847MPD2    H312449   4.436   2.036  14.645 -1.3654  1.6146  0.9577
  847MPD2     N12450   4.700   2.094  15.011 -0.1046 -0.0199  0.3628
  847MPD2    H512451   0.046   2.154  15.052 -1.8974 -0.0000  3.4300
  847MPD2    N112452   4.638   2.443  14.702 -0.0603 -0.1011  0.1116
  847MPD2    H712453   4.682   2.490  14.780  3.3610 -0.6525 -1.5119
  848MPD2     C12454   2.568   0.562  16.741 -0.1102  0.2086  0.0321
  848MPD2    C112455   2.564   0.640  16.855 -0.5637 -0.0892  0.2422
  848MPD2    C212456   2.549   0.780  16.849 -0.0555 -0.1639 -0.0894
  848MPD2    C312457   2.543   0.834  16.723 -0.0900 -0.1918 -0.5059
  848MPD2    C412458   2.561   0.760  16.608 -0.6235 -0.4156  0.1269
  848MPD2    C512459   2.568   0.625  16.623 -0.1535 -0.1200 -0.0621
  848MPD2     H12460   2.554   0.833  16.943  1.9083 -0.7180  0.1264
  848MPD2    H112461   2.548   0.809  16.513  0.5897 -2.2898 -1.0017
  848MPD2    H212462   2.580   0.455  16.741 -0.6586  0.1441  0.6063
  848MPD2    H312463   2.571   0.572  16.528 -0.1886  1.6376 -1.0578
  848MPD2     N12464   2.514   0.969  16.701 -0.1500 -0.0103  0.0673
  848MPD2    H512465   2.514   1.000  16.605 -1.8865  0.4132  0.1998
  848MPD2    N112466   2.579   0.580  16.982  0.6870  0.1188 -0.0305
  848MPD2    H712467   2.595   0.643  17.060 -0.9327  1.0222 -0.4420
  849MPD2     C12468   1.523   0.146  14.311 -0.2525  1.0176 -0.1088
  849MPD2    C112469   1.478   0.236  14.216  0.1176  0.4426 -0.3170
  849MPD2    C212470   1.459   0.370  14.256  0.4071  0.1580  0.4224
  849MPD2    C312471   1.490   0.416  14.390 -0.2151 -0.0418  0.1523
  849MPD2    C412472   1.560   0.327  14.466 -0.0889  0.2884 -0.4840
  849MPD2    C512473   1.566   0.191  14.436 -0.2524 -0.4006 -0.0966
  849MPD2     H12474   1.411   0.432  14.182  0.9621  1.3183  1.0464
  849MPD2    H112475   1.606   0.365  14.556 -0.2013 -1.4547  0.2981
  849MPD2    H212476   1.532   0.039  14.296  0.9979  0.9504  1.1606
  849MPD2    H312477   1.609   0.118  14.504  3.2360  0.8493 -0.9478
  849MPD2     N12478   1.476   0.550  14.438 -0.4366 -0.1395  0.3610
  849MPD2    H512479   1.526   0.567  14.524 -0.4098 -1.3790  0.5924
  849MPD2    N112480   1.453   0.192  14.085 -0.4054 -0.6991  0.2519
  849MPD2    H712481   1.473   0.095  14.062 -0.9522 -1.1793  1.7753
  850MPD2     C12482   4.712   3.633  15.002 -0.2308  0.7395  0.7914
  850MPD2    C112483   4.685   3.602  15.132  0.6348  0.3961  0.4178
  850MPD2    C212484   0.069   3.586  15.222  0.3684  0.2955  0.1311
  850MPD2    C312485   0.198   3.622  15.184  0.2673  0.1062  0.3647
  850MPD2    C412486   0.215   3.659  15.052  0.7408 -0.1842  0.2374
  850MPD2    C512487   0.109   3.673  14.967  1.0850 -0.3077 -0.0004
  850MPD2     H12488   0.053   3.555  15.325  1.2913 -1.4223 -0.2536
  850MPD2    H112489   0.312   3.679  15.007 -0.4323  1.2188 -1.6785
  850MPD2    H212490   4.635   3.635  14.926 -1.1295  0.8485  1.7075
  850MPD2    H312491   0.121   3.710  14.866 -0.9776 -0.0451 -0.1324
  850MPD2     N12492   0.316   3.605  15.255  0.2807 -0.1015  0.1392
  850MPD2    H512493   0.404   3.632  15.213 -0.5359  0.2229 -1.3440
  850MPD2    N112494   4.551   3.589  15.178 -0.1259  0.4247 -0.2036
  850MPD2    H712495   4.479   3.588  15.106  0.4437  0.9155 -0.7831
  851MPD2     C12496   4.417   2.947  15.135 -0.8899  0.0242  0.1669
  851MPD2    C112497   4.294   3.011  15.128  0.3190  0.0873  0.0529
  851MPD2    C212498   4.182   2.936  15.104 -0.2309  0.0697  0.3604
  851MPD2    C312499   4.193   2.800  15.073  0.1714 -0.1981  0.1383
  851MPD2    C412500   4.319   2.737  15.073 -0.9733 -0.3521 -0.1422
  851MPD2    C512501   4.425   2.814  15.107 -0.4071  0.0340  0.5534
  851MPD2     H12502   4.085   2.984  15.107 -1.4819 -2.3201 -1.9984
  851MPD2    H112503   4.329   2.631  15.053 -0.4956 -0.8469  2.7620
  851MPD2    H212504   4.506   2.999  15.168 -1.3498 -0.4309  2.0857
  851MPD2    H312505   4.521   2.764  15.119  0.2122  1.7113  2.4827
  851MPD2     N12506   4.073   2.727  15.063 -0.8803 -0.5218  0.4663
  851MPD2    H512507   3.983   2.764  15.092 -1.2380 -0.2314 -1.0381
  851MPD2    N112508   4.292   3.149  15.153  0.1057  0.3001 -0.0949
  851MPD2    H712509   4.379   3.198  15.169 -0.3968  1.2336 -0.2158
  852MPD2     C12510   4.088   4.720  10.195 -1.0874 -0.1724  0.4628
  852MPD2    C112511   4.127   0.115  10.250  0.2783 -0.0559 -0.2034
  852MPD2    C212512   4.252   0.163  10.219  1.1260 -0.1602 -0.7247
  852MPD2    C312513   4.334   0.094  10.134  0.4320 -0.3624 -0.2498
  852MPD2    C412514   4.296   4.706  10.072  0.8512  0.4049  0.2770
  852MPD2    C512515   4.167   4.662  10.094  0.5927 -0.4148  0.0054
  852MPD2     H12516   4.295   0.251  10.265 -1.1519 -0.0845  1.2368
  852MPD2    H112517   4.369   4.665  10.003 -0.2404 -0.3979 -0.4028
  852MPD2    H212518   3.992   4.682  10.225 -0.6346 -0.6998  1.2276
  852MPD2    H312519   4.153   4.563  10.053 -2.0022  0.2462 -0.6935
  852MPD2     N12520   4.465   0.152  10.121  0.0058 -0.4649  0.3355
  852MPD2    H512521   4.481   0.235  10.176  0.5358  0.5888 -1.4158
  852MPD2    N112522   4.056   0.194  10.341 -0.0119  0.1681 -0.5303
  852MPD2    H712523   4.115   0.265  10.383 -2.9849  2.0825  0.4338
  853MPD2     C12524   1.523   1.062  12.275  0.4467 -0.8799 -0.0254
  853MPD2    C112525   1.389   1.041  12.304  0.0490  1.1482 -0.0198
  853MPD2    C212526   1.315   0.963  12.208  0.1308  0.3261  0.1435
  853MPD2    C312527   1.377   0.898  12.097 -0.0237 -0.5907  0.4808
  853MPD2    C412528   1.517   0.910  12.090 -0.5149 -0.3258  0.1871
  853MPD2    C512529   1.580   0.992  12.179 -0.1109 -0.7658 -0.3307
  853MPD2     H12530   1.208   0.952  12.221  0.4646 -0.2248  2.4057
  853MPD2    H112531   1.567   0.865  12.005  1.3978 -1.0659  1.6865
  853MPD2    H212532   1.574   1.136  12.337 -2.6083 -0.5367  2.1063
  853MPD2    H312533   1.687   1.005  12.169  0.2717 -2.7853  1.1042
  853MPD2     N12534   1.307   0.833  11.990 -0.2967 -0.5142 -0.1027
  853MPD2    H512535   1.364   0.770  11.935 -1.9008 -0.3805 -1.8784
  853MPD2    N112536   1.332   1.099  12.420 -0.3411 -0.1438  0.2674
  853MPD2    H712537   1.391   1.162  12.474  0.1213 -0.8918  0.6377
  854MPD2     C12538   2.443   0.766  13.316  0.4295 -0.2458  0.0494
  854MPD2    C112539   2.523   0.738  13.208 -0.2305  0.4482  0.4753
  854MPD2    C212540   2.608   0.629  13.214 -1.0919 -0.2060 -0.6083
  854MPD2    C312541   2.622   0.557  13.321 -0.0211  0.6307  0.1688
  854MPD2    C412542   2.553   0.590  13.433 -0.2856  0.2841  0.2337
  854MPD2    C512543   2.463   0.686  13.426 -0.1860 -0.2627  0.5158
  854MPD2     H12544   2.673   0.615  13.128 -1.8008 -0.8739 -1.0447
  854MPD2    H112545   2.559   0.547  13.533  3.3824  1.6324  0.6310
  854MPD2    H212546   2.364   0.840  13.315  0.1719 -0.5188  0.6836
  854MPD2    H312547   2.402   0.707  13.514  1.6292  2.8046  1.0525
  854MPD2     N12548   2.712   0.448  13.320  0.1735 -0.2703  0.4430
  854MPD2    H512549   2.769   0.438  13.237 -2.5194 -0.4894 -1.3842
  854MPD2    N112550   2.504   0.809  13.090 -0.3800  0.0583  0.3869
  854MPD2    H712551   2.440   0.886  13.107 -0.8901 -0.1000 -0.8075
  855MPD2     C12552   3.604   0.252  13.537 -0.0028  0.2151  0.5763
  855MPD2    C112553   3.526   0.176  13.623  0.6861  0.5816  0.2279
  855MPD2    C212554   3.400   0.150  13.584  0.1064  0.2292 -0.5774
  855MPD2    C312555   3.343   0.208  13.468  0.7247 -0.6788  1.0121
  855MPD2    C412556   3.421   0.295  13.396  1.0476 -0.3335  0.3191
  855MPD2    C512557   3.544   0.321  13.432  0.7785 -0.3307  0.4447
  855MPD2     H12558   3.344   0.088  13.652 -0.3837 -0.9362 -2.0564
  855MPD2    H112559   3.385   0.331  13.300 -1.0552  3.9078  2.6540
  855MPD2    H212560   3.710   0.271  13.551  0.2479 -0.9794  0.2939
  855MPD2    H312561   3.595   0.397  13.373  0.1426 -1.0393 -1.0160
  855MPD2     N12562   3.215   0.190  13.422 -0.4507  0.1619 -0.0723
  855MPD2    H512563   3.184   0.225  13.333 -1.5137 -1.6001 -0.3856
  855MPD2    N112564   3.574   0.116  13.742  0.0646 -0.1914 -0.0372
  855MPD2    H712565   3.499   0.089  13.805 -1.6036  0.1990 -1.8525
  856MPD2     C12566   0.320   1.475  14.501  0.4991  0.1479 -0.3230
  856MPD2    C112567   0.416   1.573  14.469  0.6450 -0.2042 -0.0186
  856MPD2    C212568   0.378   1.679  14.393  0.3899  0.1509  0.1344
  856MPD2    C312569   0.240   1.692  14.359 -0.1237 -0.4820 -0.5278
  856MPD2    C412570   0.146   1.596  14.397 -0.1928  0.0211 -0.2705
  856MPD2    C512571   0.183   1.485  14.466 -0.3895  0.1130 -0.1973
  856MPD2     H12572   0.447   1.759  14.369  0.8575 -0.2836  0.0362
  856MPD2    H112573   0.044   1.600  14.362  0.1767  1.7198 -1.1862
  856MPD2    H212574   0.342   1.395  14.570  1.2396  1.4393  0.9300
  856MPD2    H312575   0.109   1.410  14.494 -0.3656  0.1293 -0.0893
  856MPD2     N12576   0.195   1.816  14.308 -0.4727 -0.8368  0.6396
  856MPD2    H512577   0.095   1.836  14.309 -0.4308 -0.6078  0.2487
  856MPD2    N112578   0.552   1.578  14.519 -0.1346  1.0228 -0.4136
  856MPD2    H712579   0.600   1.663  14.489 -0.1947  1.2615  0.1738
  857MPD2     C12580   2.337   3.068  13.524  0.4860 -0.4689  0.0246
  857MPD2    C112581   2.375   3.144  13.415 -0.3386 -0.2634 -0.1373
  857MPD2    C212582   2.418   3.274  13.433 -0.8127  0.1195 -0.1619
  857MPD2    C312583   2.448   3.321  13.561  0.0156  0.7633 -0.1904
  857MPD2    C412584   2.427   3.240  13.666 -0.2062 -0.7419  0.0927
  857MPD2    C512585   2.370   3.115  13.648  0.4254  0.1427  0.2637
  857MPD2     H12586   2.431   3.335  13.344  0.3553  1.4784  0.9332
  857MPD2    H112587   2.461   3.263  13.767  1.3132  0.7230 -0.7400
  857MPD2    H212588   2.298   2.968  13.515  0.0908 -0.2615 -0.5848
  857MPD2    H312589   2.359   3.045  13.730  3.4807 -0.6492  0.0198
  857MPD2     N12590   2.507   3.449  13.573  0.3391 -0.0044  0.1472
  857MPD2    H512591   2.510   3.505  13.488 -0.9277 -1.1752 -0.6626
  857MPD2    N112592   2.374   3.079  13.290  0.2964 -0.2152  0.1757
  857MPD2    H712593   2.344   2.982  13.287 -0.1176 -0.1222  1.8007
  858MPD2     C12594   3.150   3.029  16.963  0.5698 -0.0260 -0.4923
  858MPD2    C112595   3.092   2.929  17.040 -0.3272  1.0339  0.0634
  858MPD2    C212596   3.048   2.958  17.171 -0.3081  0.3869 -0.5662
  858MPD2    C312597   3.069   3.084  17.233 -0.8384  1.3247 -0.1299
  858MPD2    C412598   3.116   3.185  17.144 -0.2981 -0.4344 -0.3119
  858MPD2    C512599   3.156   3.155  17.016  0.4649  0.6367  0.0375
  858MPD2     H12600   3.015   2.874  17.232  0.2939  0.5446 -0.0225
  858MPD2    H112601   3.119   3.288  17.176 -1.7109  0.5577 -3.4114
  858MPD2    H212602   3.174   3.007  16.860 -1.0015 -0.6885 -0.7198
  858MPD2    H312603   3.194   3.236  16.955  2.2497  1.0395  1.7003
  858MPD2     N12604   3.048   3.115  17.370 -0.3191 -0.4950 -0.4485
  858MPD2    H512605   3.091   3.203  17.396  0.1112 -0.9040  0.2290
  858MPD2    N112606   3.079   2.803  16.971  0.5648 -0.3534  0.2266
  858MPD2    H712607   3.137   2.785  16.890  0.4462  0.0130  0.0551
  859MPD2     C12608   1.243   0.096  15.400  0.0814  0.5318 -0.1564
  859MPD2    C112609   1.363   0.110  15.325 -0.1923 -0.2818 -0.3984
  859MPD2    C212610   1.433   4.721  15.286  0.2274 -0.4374 -0.4554
  859MPD2    C312611   1.382   4.595  15.303 -0.0029  0.1079 -0.9099
  859MPD2    C412612   1.268   4.582  15.383  0.8989 -0.5386  0.6854
  859MPD2    C512613   1.203   4.690  15.432 -0.2186  0.2757  0.7394
  859MPD2     H12614   1.531   0.006  15.240 -0.7401  0.4384 -2.3562
  859MPD2    H112615   1.238   4.483  15.417  1.3807 -0.6342  0.8351
  859MPD2    H212616   1.184   0.183  15.423  0.3529  0.2458  1.6778
  859MPD2    H312617   1.109   4.673  15.484 -0.4837  0.8318  0.4507
  859MPD2     N12618   1.456   4.477  15.263  0.9949  0.0185 -0.2813
  859MPD2    H512619   1.426   4.392  15.309  0.2598  1.4733  1.9064
  859MPD2    N112620   1.412   0.241  15.288 -0.0780 -0.4055 -0.1919
  859MPD2    H712621   1.340   0.312  15.296  0.7817  0.5530 -1.0429
  860MPD2     C12622   4.092   0.061  11.932  0.6513  0.2992 -0.5777
  860MPD2    C112623   4.140   0.113  12.050 -0.0898 -0.0691 -0.4362
  860MPD2    C212624   4.071   0.076  12.165  0.3726  0.1489 -0.3039
  860MPD2    C312625   3.963   4.714  12.163  0.2136  0.1517  0.1718
  860MPD2    C412626   3.932   4.655  12.047  0.3686  0.5377  0.3085
  860MPD2    C512627   3.987   4.694  11.930  0.2495 -0.6347 -0.0431
  860MPD2     H12628   4.109   0.118  12.257 -1.8630 -0.0121  0.6830
  860MPD2    H112629   3.860   4.575  12.037  0.9320  0.0625  0.0831
  860MPD2    H212630   4.149   0.068  11.840  0.9949  0.2911 -0.3667
  860MPD2    H312631   3.955   4.639  11.843 -0.1008 -1.1056  0.3789
  860MPD2     N12632   3.896   4.687  12.280 -0.3006 -0.2251 -0.0941
  860MPD2    H512633   3.930   0.005  12.366 -2.1157  0.2989  0.3782
  860MPD2    N112634   4.259   0.186  12.061  0.2652 -0.1767 -0.6203
  860MPD2    H712635   4.288   0.208  12.156  0.0951 -2.7316  0.0318
  861MPD2     C12636   2.779   2.892  11.145 -0.4114 -0.6442 -0.3094
  861MPD2    C112637   2.756   3.008  11.210  0.3248 -0.4290 -0.5765
  861MPD2    C212638   2.659   3.093  11.153  0.0843  0.7596  1.1100
  861MPD2    C312639   2.594   3.063  11.036 -0.1853  0.0235  0.0184
  861MPD2    C412640   2.624   2.946  10.975 -0.8329  0.3085  0.2194
  861MPD2    C512641   2.721   2.869  11.025  0.4736 -0.7751  0.0882
  861MPD2     H12642   2.634   3.182  11.210  2.5752  1.6287  0.8504
  861MPD2    H112643   2.577   2.921  10.880 -0.1398 -0.3508  0.0577
  861MPD2    H212644   2.845   2.817  11.188  0.6681  0.5173  0.0783
  861MPD2    H312645   2.741   2.779  10.970  1.9136  1.0843 -2.4190
  861MPD2     N12646   2.493   3.144  10.974  0.4675 -0.3830  0.5416
  861MPD2    H512647   2.467   3.114  10.881  1.3764  0.3609  0.0533
  861MPD2    N112648   2.807   3.046  11.337 -0.1851  0.2918 -0.9857
  861MPD2    H712649   2.764   3.126  11.382  0.8204 -1.2288  2.6184
  862MPD2     C12650   2.338   3.435  10.310 -0.0885  0.0704 -0.2122
  862MPD2    C112651   2.353   3.338  10.412 -0.0079 -0.1169  0.0840
  862MPD2    C212652   2.367   3.208  10.377  0.3306 -0.3707 -0.8642
  862MPD2    C312653   2.395   3.182  10.244  0.2475 -0.2388  0.1484
  862MPD2    C412654   2.397   3.278  10.144  0.7244  0.5046  0.3973
  862MPD2    C512655   2.355   3.399  10.177  0.5164 -0.1699  0.1608
  862MPD2     H12656   2.362   3.131  10.453  0.4160 -0.4950 -0.9843
  862MPD2    H112657   2.430   3.252  10.044 -1.6363 -1.5621  0.1376
  862MPD2    H212658   2.325   3.541  10.332  1.5830  0.1561  0.3717
  862MPD2    H312659   2.358   3.468  10.093 -1.0498 -0.0958  0.1692
  862MPD2     N12660   2.441   3.050  10.214 -0.3611 -0.2982  0.1151
  862MPD2    H512661   2.464   2.993  10.295 -2.5501  1.3276  1.8919
  862MPD2    N112662   2.347   3.364  10.554  0.5901 -0.2074  0.0962
  862MPD2    H712663   2.354   3.278  10.608  0.3445 -0.2570  0.0495
  863MPD2     C12664   1.422   1.982  16.698 -0.4229 -0.6548 -0.3853
  863MPD2    C112665   1.303   1.981  16.775  0.2027 -0.1922  0.3848
  863MPD2    C212666   1.300   1.939  16.908 -0.2737 -0.5777 -0.8106
  863MPD2    C312667   1.418   1.894  16.955  0.2314 -0.3384  0.1549
  863MPD2    C412668   1.531   1.893  16.882  0.3675 -0.7475 -0.0746
  863MPD2    C512669   1.535   1.943  16.758 -0.2123  0.2834 -0.0169
  863MPD2     H12670   1.212   1.956  16.969 -0.0461  1.0722 -0.9565
  863MPD2    H112671   1.616   1.847  16.933 -1.3542 -1.1895  2.3507
  863MPD2    H212672   1.435   2.000  16.592  0.0593  1.7712  0.0737
  863MPD2    H312673   1.619   1.934  16.691  0.4901 -1.0300  1.0476
  863MPD2     N12674   1.434   1.851  17.087  0.2337 -0.4107  0.1647
  863MPD2    H512675   1.523   1.817  17.122 -1.0801 -3.5271  0.4329
  863MPD2    N112676   1.182   2.025  16.710  0.0530  0.1418  0.2983
  863MPD2    H712677   1.193   2.070  16.619  2.2190  1.3704  1.1804
  864MPD2     C12678   1.475   2.676   0.091  0.3122  0.2720  0.4260
  864MPD2    C112679   1.565   2.607   0.014  0.2652 -0.3419  0.9696
  864MPD2    C212680   1.663   2.678  17.653 -0.5421 -0.0974 -0.2925
  864MPD2    C312681   1.669   2.818  17.658 -0.8398 -0.5285  0.7114
  864MPD2    C412682   1.586   2.884   0.041  0.5904 -0.0672 -0.0304
  864MPD2    C512683   1.483   2.815   0.101 -0.3649  0.4842 -0.5166
  864MPD2     H12684   1.735   2.624  17.592  0.2073  0.3561  0.1990
  864MPD2    H112685   1.595   2.992   0.046  1.0003 -0.0169 -1.6913
  864MPD2    H212686   1.393   2.621   0.137  1.1216  0.1345  1.7006
  864MPD2    H312687   1.399   2.869   0.144  1.9796  2.0075  2.2490
  864MPD2     N12688   1.760   2.900  17.580 -0.9769 -0.0508 -0.2234
  864MPD2    H512689   1.770   2.995  17.613  1.1222 -0.1188 -0.6351
  864MPD2    N112690   1.539   2.470  17.683 -0.3706  0.7846  0.1743
  864MPD2    H712691   1.456   2.435   0.030  0.4773 -0.0469  1.0569
  865MPD2     C12692   2.088   3.401  16.912  0.1166  0.0210  0.0874
  865MPD2    C112693   2.038   3.288  16.970 -0.6693  0.3555 -0.6864
  865MPD2    C212694   2.008   3.291  17.107  0.1071  0.3828  0.0022
  865MPD2    C312695   2.036   3.399  17.189 -0.3346  0.1218 -0.0995
  865MPD2    C412696   2.085   3.509  17.128 -0.7903 -0.4935  0.0588
  865MPD2    C512697   2.112   3.511  16.999  0.4330  0.1690  0.5102
  865MPD2     H12698   1.950   3.208  17.147 -0.1656  0.0518 -1.0811
  865MPD2    H112699   2.109   3.591  17.196 -0.5079 -0.7003  0.2097
  865MPD2    H212700   2.111   3.400  16.806 -2.3140  0.3472 -0.4471
  865MPD2    H312701   2.163   3.595  16.954 -0.3668  0.5572  0.3446
  865MPD2     N12702   2.009   3.404  17.328 -0.3959  0.3497 -0.3596
  865MPD2    H512703   2.016   3.500  17.361  4.4571 -0.7646  1.7805
  865MPD2    N112704   2.026   3.173  16.896  0.3095 -0.0357 -0.2129
  865MPD2    H712705   2.055   3.182  16.799  1.2309 -1.1198 -0.0469
  866MPD2     C12706   3.466   3.646  11.288 -0.0480  0.6039  0.4559
  866MPD2    C112707   3.415   3.615  11.165  0.5711 -0.3887  0.2632
  866MPD2    C212708   3.287   3.655  11.132 -0.4251  0.9864 -0.6096
  866MPD2    C312709   3.199   3.716  11.225  0.5494 -0.1668  0.0045
  866MPD2    C412710   3.255   3.750  11.347  0.7890 -0.3393 -0.0245
  866MPD2    C512711   3.390   3.721  11.376 -0.0543 -0.0468 -0.2538
  866MPD2     H12712   3.237   3.623  11.041 -0.9126  2.4841 -0.8736
  866MPD2    H112713   3.201   3.802  11.425  0.7391 -0.7283  0.1991
  866MPD2    H212714   3.563   3.610  11.322 -0.9042 -0.6054  1.6326
  866MPD2    H312715   3.425   3.751  11.474 -1.2503 -0.4563  0.3028
  866MPD2     N12716   3.062   3.749  11.203  0.1364  0.3055  0.3647
  866MPD2    H512717   3.011   3.803  11.272 -0.4419  0.3460 -0.0933
  866MPD2    N112718   3.501   3.543  11.083  0.0319  0.4565 -0.4036
  866MPD2    H712719   3.596   3.527  11.114  0.8349  3.6077 -1.3006
  867MPD2     C12720   1.440   3.432  16.858  0.8794  0.1771  0.3675
  867MPD2    C112721   1.430   3.328  16.942 -0.7599  0.7260 -0.3822
  867MPD2    C212722   1.487   3.344  17.068 -0.0402 -1.1118  0.3094
  867MPD2    C312723   1.554   3.461  17.105  0.2675 -0.2585  0.5844
  867MPD2    C412724   1.568   3.562  17.016 -0.2925 -0.3421 -0.1977
  867MPD2    C512725   1.502   3.553  16.896 -0.1948 -0.3082  0.8130
  867MPD2     H12726   1.484   3.257  17.134 -1.7806 -0.6985  0.7645
  867MPD2    H112727   1.615   3.656  17.045 -1.1994 -0.2078  0.8641
  867MPD2    H212728   1.397   3.417  16.760  0.6529  3.0561  0.0197
  867MPD2    H312729   1.510   3.629  16.819 -0.0850  0.8629  1.9862
  867MPD2     N12730   1.587   3.486  17.236 -0.2725  0.0516 -0.5985
  867MPD2    H512731   1.621   3.578  17.263  0.3821 -0.9001  1.8920
  867MPD2    N112732   1.361   3.208  16.900  0.1601 -0.1759 -0.3910
  867MPD2    H712733   1.329   3.207  16.803 -0.4630 -3.3227 -0.1506
  868MPD2     C12734   2.621   1.949  13.034 -0.2873 -0.4450  0.2505
  868MPD2    C112735   2.601   1.841  13.114  0.0199 -0.0565 -0.1640
  868MPD2    C212736   2.538   1.864  13.238  0.0280 -0.5279  0.2406
  868MPD2    C312737   2.520   1.986  13.282 -0.4696 -0.6832  0.2264
  868MPD2    C412738   2.567   2.093  13.209 -0.5319 -0.3051 -0.4267
  868MPD2    C512739   2.613   2.074  13.083 -0.4673 -0.4804  0.0719
  868MPD2     H12740   2.510   1.776  13.294  0.1485 -0.8282 -0.1668
  868MPD2    H112741   2.565   2.194  13.248  1.2503 -0.2886 -0.3533
  868MPD2    H212742   2.651   1.940  12.930  1.1921  2.7006  0.3979
  868MPD2    H312743   2.645   2.154  13.018  2.4468 -0.5437  1.4236
  868MPD2     N12744   2.462   2.006  13.414  0.0214  0.3101 -0.4791
  868MPD2    H512745   2.418   1.926  13.459 -0.3404 -0.3740 -2.0486
  868MPD2    N112746   2.633   1.712  13.069  0.3526  0.2040  1.2249
  868MPD2    H712747   2.594   1.635  13.124  0.0446  1.5824  2.9345
  869MPD2     C12748   3.301   4.411   1.866 -0.2430  0.1734 -0.0317
  869MPD2    C112749   3.211   4.512   1.888  0.2922  0.3996  0.4231
  869MPD2    C212750   3.181   4.597   1.783 -0.3340  0.2667  0.2021
  869MPD2    C312751   3.237   4.575   1.656  0.1214 -0.4251  0.2910
  869MPD2    C412752   3.311   4.465   1.633  0.4230 -0.4685  0.5838
  869MPD2    C512753   3.346   4.387   1.739 -0.0837  0.2792 -0.7483
  869MPD2     H12754   3.126   4.690   1.795  1.0700  0.8384  2.0571
  869MPD2    H112755   3.373   4.459   1.544  0.7685  3.4928  0.5363
  869MPD2    H212756   3.334   4.344   1.944  3.1093  0.1939 -1.4391
  869MPD2    H312757   3.427   4.317   1.721  0.4569  0.5528  0.6116
  869MPD2     N12758   3.235   4.669   1.551 -0.2347  0.4357 -0.0503
  869MPD2    H512759   3.289   4.638   1.471  0.4581  1.3530  0.0593
  869MPD2    N112760   3.169   4.535   2.017  0.0355  0.1921  0.3794
  869MPD2    H712761   3.192   4.464   2.086 -0.3737 -1.6551 -1.4020
  870MPD2     C12762   3.056   3.306   1.683 -0.0219  0.8529  1.0642
  870MPD2    C112763   3.161   3.334   1.597  0.1795 -0.2296  0.5453
  870MPD2    C212764   3.148   3.441   1.509 -0.4583  0.5501 -0.5443
  870MPD2    C312765   3.029   3.512   1.499  0.5094 -0.2109  0.1573
  870MPD2    C412766   2.925   3.483   1.585  0.1150  0.2723  0.3267
  870MPD2    C512767   2.939   3.379   1.667  0.5271 -0.5381 -0.2504
  870MPD2     H12768   3.208   3.447   1.420 -0.0699  0.4147 -0.2924
  870MPD2    H112769   2.833   3.542   1.587 -0.5470 -0.8094  2.0645
  870MPD2    H212770   3.045   3.221   1.750 -0.3546 -1.5207 -2.0192
  870MPD2    H312771   2.850   3.346   1.719 -0.8517  0.0013 -2.2647
  870MPD2     N12772   3.036   3.621   1.409 -0.1927 -0.4505  0.2006
  870MPD2    H512773   3.118   3.629   1.349 -0.2126  2.2703  0.5187
  870MPD2    N112774   3.264   3.238   1.600 -0.0846 -0.9977  0.3153
  870MPD2    H712775   3.255   3.164   1.668 -1.3820 -1.2455 -0.1110
  871MPD2     C12776   4.664   3.319  16.569  0.5698  0.0562  0.5862
  871MPD2    C112777   4.575   3.259  16.652 -0.6069 -0.1358 -0.6245
  871MPD2    C212778   4.503   3.151  16.606  0.2086  0.2168 -0.5186
  871MPD2    C312779   4.541   3.090  16.490 -0.1968 -0.3402 -0.4276
  871MPD2    C412780   4.633   3.151  16.402  0.6119  0.3944  0.4157
  871MPD2    C512781   4.689   3.262  16.445 -0.4845 -0.6628  0.2352
  871MPD2     H12782   4.419   3.109  16.661 -0.0097  0.3424 -0.7560
  871MPD2    H112783   4.667   3.109  16.309  0.9032 -1.9294  1.5708
  871MPD2    H212784   4.710   3.413  16.596 -0.4004  0.5813  0.4388
  871MPD2    H312785   0.027   3.311  16.371  0.1252 -1.0749  0.4703
  871MPD2     N12786   4.482   2.967  16.458  0.2951  0.1816 -0.5313
  871MPD2    H512787   4.413   2.917  16.513  0.8769  0.9546  0.8961
  871MPD2    N112788   4.558   3.312  16.782  0.3630  0.0966 -0.0054
  871MPD2    H712789   4.593   3.404  16.808 -0.6581  0.1943  1.0310
  872MPD2     C12790   0.421   0.855  14.320  0.3246  0.1376 -0.0304
  872MPD2    C112791   0.341   0.958  14.292  0.1108  0.2883  0.6300
  872MPD2    C212792   0.203   0.945  14.317 -0.3715 -0.1228 -0.3567
  872MPD2    C312793   0.154   0.826  14.363  0.2817 -0.0095 -0.1118
  872MPD2    C412794   0.246   0.725  14.385 -0.1151  0.1610  0.3012
  872MPD2    C512795   0.380   0.734  14.368 -0.1866 -0.5269 -0.0549
  872MPD2     H12796   0.137   1.028  14.294 -2.0721 -1.7989 -1.5086
  872MPD2    H112797   0.213   0.634  14.434 -0.2548 -0.2043 -0.4835
  872MPD2    H212798   0.525   0.862  14.288  0.3600 -2.6932 -0.5930
  872MPD2    H312799   0.441   0.649  14.394  0.4124 -0.4808 -1.3290
  872MPD2     N12800   0.023   0.802  14.411  0.5001 -0.0109  0.3613
  872MPD2    H512801   0.013   0.709  14.451 -2.1522 -0.7407 -1.9531
  872MPD2    N112802   0.389   1.085  14.241  0.3334  0.5220  0.0322
  872MPD2    H712803   0.322   1.159  14.226 -0.2095 -0.1279 -0.7210
  873MPD2     C12804   1.696   0.971   1.012  0.7623  0.2480 -0.1611
  873MPD2    C112805   1.777   0.952   1.120  0.7415 -0.3212 -0.7831
  873MPD2    C212806   1.852   0.838   1.136 -0.1322 -0.2876  0.1516
  873MPD2    C312807   1.845   0.736   1.043  0.4545  0.2967 -0.3025
  873MPD2    C412808   1.755   0.753   0.935 -0.2558  0.5691 -0.7436
  873MPD2    C512809   1.687   0.869   0.922 -0.4523  0.3823 -0.4653
  873MPD2     H12810   1.919   0.822   1.219  0.5207  1.3675 -0.0614
  873MPD2    H112811   1.751   0.671   0.864 -0.2058 -1.6719  1.8180
  873MPD2    H212812   1.640   1.063   1.006  0.6578  0.1043 -1.3984
  873MPD2    H312813   1.614   0.878   0.842  0.2402  0.1866 -1.1221
  873MPD2     N12814   1.914   0.610   1.046 -0.3059  0.1915 -0.0872
  873MPD2    H512815   1.896   0.544   0.971  0.5566 -0.0620 -0.0787
  873MPD2    N112816   1.778   1.062   1.213 -0.1422  0.4420  0.1409
  873MPD2    H712817   1.711   1.138   1.197 -0.3966  0.4427  1.2122
  874MPD2     C12818   1.840   0.984  16.361  0.4371  0.2649 -0.2869
  874MPD2    C112819   1.865   0.948  16.494  0.3376 -0.1145 -0.5747
  874MPD2    C212820   1.958   1.021  16.566  0.4172 -0.1131  0.5495
  874MPD2    C312821   2.020   1.134  16.506 -0.7888  0.2259 -0.1063
  874MPD2    C412822   1.961   1.182  16.392 -0.6509  0.2618  0.2834
  874MPD2    C512823   1.892   1.101  16.309 -0.9546  0.6235 -0.1747
  874MPD2     H12824   1.993   0.990  16.664  1.1876 -0.8871  0.0294
  874MPD2    H112825   1.996   1.271  16.341  2.4287 -1.4035 -0.5311
  874MPD2    H212826   1.771   0.934  16.294  0.1781  1.6859 -1.0894
  874MPD2    H312827   1.859   1.133  16.211 -0.4640 -1.5033 -1.0377
  874MPD2     N12828   2.131   1.189  16.566 -0.6297 -0.2388 -0.0360
  874MPD2    H512829   2.153   1.162  16.661  4.6902 -0.3110 -1.3079
  874MPD2    N112830   1.807   0.829  16.549  0.2350  0.6002  0.8311
  874MPD2    H712831   1.738   0.778  16.496 -2.1875  4.4152  0.2748
  875MPD2     C12832   2.972   3.792  14.896  0.3675 -0.0699  0.2021
  875MPD2    C112833   2.870   3.885  14.870 -0.1553 -0.7891 -0.2963
  875MPD2    C212834   2.851   3.984  14.968 -0.3351 -0.3916 -0.0407
  875MPD2    C312835   2.924   3.978  15.086 -0.6669 -0.6339 -0.8168
  875MPD2    C412836   3.019   3.884  15.115  0.4808 -0.0421 -0.2474
  875MPD2    C512837   3.035   3.789  15.017 -0.0748 -0.6989  0.0162
  875MPD2     H12838   2.763   4.047  14.966 -0.4961 -0.6022  0.6076
  875MPD2    H112839   3.094   3.892  15.193 -1.9619  0.6290  2.0506
  875MPD2    H212840   2.994   3.713  14.826  1.0919 -1.4548  1.9983
  875MPD2    H312841   3.113   3.715  15.033  1.2222  0.8988  1.1034
  875MPD2     N12842   2.893   4.079  15.176 -0.5811 -0.2906  0.1089
  875MPD2    H512843   2.824   4.152  15.157 -0.3704 -0.4071 -1.0444
  875MPD2    N112844   2.763   3.878  14.775  0.3158 -0.6143  0.7793
  875MPD2    H712845   2.686   3.943  14.779  1.9538  1.2824  1.5456
  876MPD2     C12846   2.255   0.894  16.398  0.6114 -0.5353  0.7082
  876MPD2    C112847   2.259   0.804  16.296  0.0810  0.9913 -0.1513
  876MPD2    C212848   2.260   0.671  16.331  0.1297 -0.0205  0.5108
  876MPD2    C312849   2.233   0.638  16.468  0.1539 -0.3840  0.1787
  876MPD2    C412850   2.229   0.732  16.575  0.1992  0.4460 -0.2473
  876MPD2    C512851   2.239   0.862  16.528  0.1039  0.5746  0.5283
  876MPD2     H12852   2.263   0.590  16.258  1.9210  1.5811 -1.1870
  876MPD2    H112853   2.236   0.714  16.681  0.3434  1.1980 -0.1291
  876MPD2    H212854   2.265   0.998  16.369 -0.3834 -0.7045 -0.2361
  876MPD2    H312855   2.246   0.940  16.603 -0.2053  1.5893 -0.5135
  876MPD2     N12856   2.235   0.501  16.497 -0.1745  0.0359 -0.7040
  876MPD2    H512857   2.261   0.449  16.414  0.2828 -1.7638  0.5453
  876MPD2    N112858   2.251   0.848  16.163  0.0729 -1.0504  0.1485
  876MPD2    H712859   2.226   0.945  16.147  1.4914 -0.7518 -0.2657
  877MPD2     C12860   1.801   1.034  15.568 -0.1515 -0.1408  0.3060
  877MPD2    C112861   1.916   1.101  15.548  0.2130  0.0278  0.5151
  877MPD2    C212862   1.926   1.193  15.444 -0.0028 -0.0014  0.2297
  877MPD2    C312863   1.831   1.190  15.347  0.1403 -0.0045  0.4202
  877MPD2    C412864   1.718   1.126  15.375 -0.4886 -0.1327  0.3650
  877MPD2    C512865   1.700   1.055  15.486  0.8294 -0.4329 -0.6682
  877MPD2     H12866   2.011   1.260  15.440  1.3445 -1.8177 -1.7083
  877MPD2    H112867   1.630   1.126  15.311 -1.1241 -0.1394  1.2305
  877MPD2    H212868   1.784   0.967  15.651 -1.3089  0.9772  0.9755
  877MPD2    H312869   1.605   1.005  15.504  1.1557 -0.3093  1.4700
  877MPD2     N12870   1.852   1.249  15.222 -0.0280 -0.1020  0.1644
  877MPD2    H512871   1.777   1.244  15.153 -2.8519 -1.0616  3.3058
  877MPD2    N112872   2.020   1.103  15.645 -0.1971 -0.2010 -0.4413
  877MPD2    H712873   2.105   1.146  15.609  0.2279 -0.2535  0.4966
  878MPD2     C12874   2.042   0.041  13.278  0.4388 -0.1760 -0.2223
  878MPD2    C112875   1.975   0.154  13.251 -0.0925  0.5259  0.4463
  878MPD2    C212876   1.884   0.203  13.337 -0.4214  0.4851 -0.0791
  878MPD2    C312877   1.852   0.139  13.457 -0.4049  0.1056  0.2373
  878MPD2    C412878   1.909   0.012  13.474 -0.2515  0.2078 -0.1919
  878MPD2    C512879   2.014   4.697  13.394 -0.7721  0.0743  0.1718
  878MPD2     H12880   1.837   0.301  13.329 -2.1733 -0.2385  1.4782
  878MPD2    H112881   1.898   4.684  13.569 -3.4007  0.8213 -0.2093
  878MPD2    H212882   2.123   0.007  13.215  0.4703 -2.3360  0.9944
  878MPD2    H312883   2.075   4.611  13.420 -0.2147  0.7930  1.2558
  878MPD2     N12884   1.762   0.191  13.550  0.1070  0.0646 -0.3515
  878MPD2    H512885   1.727   0.282  13.522  0.4096 -0.2100 -1.5787
  878MPD2    N112886   1.998   0.213  13.123  0.0178  0.7085  0.0253
  878MPD2    H712887   2.036   0.149  13.054  0.1709 -0.2203  0.9751
  879MPD2     C12888   1.594   1.502  17.637  0.1151 -0.8909  0.1206
  879MPD2    C112889   1.695   1.540  17.551  0.2744 -0.1245  0.2126
  879MPD2    C212890   1.712   1.476  17.429 -0.4928  0.3020 -0.5660
  879MPD2    C312891   1.627   1.377  17.392  0.4484 -0.1351  0.3239
  879MPD2    C412892   1.518   1.344  17.474 -0.6077  0.2608 -0.0546
  879MPD2    C512893   1.512   1.403  17.593 -0.7902 -0.1246  0.3893
  879MPD2     H12894   1.797   1.502  17.367  1.3400  0.1585  1.9295
  879MPD2    H112895   1.457   1.260  17.443 -1.8730  0.8358  0.8753
  879MPD2    H212896   1.573   1.539   0.038 -0.1530  1.3836 -0.7721
  879MPD2    H312897   1.441   1.357  17.661  1.0670  1.4109  3.3570
  879MPD2     N12898   1.635   1.299  17.271  0.4812 -0.0400  0.0448
  879MPD2    H512899   1.563   1.227  17.265 -0.2020  1.0007 -4.1901
  879MPD2    N112900   1.782   1.642  17.600 -0.2449  0.3078  0.4099
  879MPD2    H712901   1.785   1.647   0.002  2.1999 -1.2658  0.4221
  880MPD2     C12902   3.658   3.044   0.180  0.1224 -0.9951 -0.1196
  880MPD2    C112903   3.661   3.085   0.311  0.0349 -0.1060  0.1139
  880MPD2    C212904   3.667   2.999   0.413  0.5571 -0.3924  0.2182
  880MPD2    C312905   3.686   2.861   0.385  0.5531  0.1133 -0.8301
  880MPD2    C412906   3.692   2.818   0.253  0.4956  0.5735 -0.1952
  880MPD2    C512907   3.674   2.912   0.153  0.2762  0.2683 -0.2299
  880MPD2     H12908   3.662   3.029   0.517  1.0895 -1.5322  0.5743
  880MPD2    H112909   3.706   2.713   0.231 -2.1867  0.5286 -1.6744
  880MPD2    H212910   3.636   3.115   0.102 -2.0210 -2.7382 -1.1108
  880MPD2    H312911   3.660   2.865   0.056  2.0701  1.4364 -1.0546
  880MPD2     N12912   3.694   2.776   0.494  0.2296  0.2114 -0.0209
  880MPD2    H512913   3.701   2.820   0.585  1.1284  1.1448 -0.5406
  880MPD2    N112914   3.658   3.229   0.326  0.0668 -0.0544  0.4465
  880MPD2    H712915   3.661   3.283   0.240 -2.2834 -1.4753 -0.5354
  881MPD2     C12916   3.713   3.976  17.503  0.2507 -0.2277  0.1704
  881MPD2    C112917   3.778   3.852  17.518 -0.1021 -0.3053  0.2998
  881MPD2    C212918   3.801   3.803  17.648 -0.7108  0.1487  0.7463
  881MPD2    C312919   3.726   3.854   0.052  0.1190 -0.4447 -0.4800
  881MPD2    C412920   3.654   3.968   0.030  0.2545 -0.0920 -0.0856
  881MPD2    C512921   3.643   4.019  17.609  0.0625 -0.3195  0.1141
  881MPD2     H12922   3.874   3.726  17.667 -0.3095  0.7303  1.5812
  881MPD2    H112923   3.608   4.021   0.112  0.5464  0.0438 -0.0083
  881MPD2    H212924   3.701   4.022  17.406 -1.4168 -1.8708 -0.3822
  881MPD2    H312925   3.586   4.111  17.602 -0.3515 -0.7170 -1.7253
  881MPD2     N12926   3.716   3.785   0.175 -0.3603  0.2096 -0.6989
  881MPD2    H512927   3.649   3.823   0.241  0.1712 -0.8219  0.4557
  881MPD2    N112928   3.856   3.824  17.405  0.1774 -0.7287 -0.5469
  881MPD2    H712929   3.841   3.885  17.326  2.2755  0.7508  0.2048
  882MPD2     C12930   1.748   1.379  14.401  0.0942 -0.5917  0.4989
  882MPD2    C112931   1.684   1.410  14.514 -0.1414  0.4305  0.2538
  882MPD2    C212932   1.546   1.418  14.519 -0.2082  0.6685 -0.4985
  882MPD2    C312933   1.477   1.390  14.400  0.4814  0.9243 -0.0702
  882MPD2    C412934   1.547   1.357  14.288  0.2733  0.4977  0.2904
  882MPD2    C512935   1.681   1.349  14.284 -0.3853 -0.3005 -0.1520
  882MPD2     H12936   1.500   1.451  14.611 -0.9397  0.2351 -0.7029
  882MPD2    H112937   1.495   1.336  14.195  0.9175 -1.1479  0.3001
  882MPD2    H212938   1.856   1.375  14.405  0.0671 -0.4072  1.5016
  882MPD2    H312939   1.733   1.311  14.197  0.2161 -2.1848  1.0314
  882MPD2     N12940   1.339   1.383  14.386 -0.2277  0.8011 -0.5506
  882MPD2    H512941   1.300   1.363  14.294  1.0150 -0.3718 -0.8297
  882MPD2    N112942   1.764   1.411  14.630  0.5726  0.3174 -0.3608
  882MPD2    H712943   1.863   1.419  14.608  0.5267  0.8226 -0.3706
  883MPD2     C12944   3.766   0.777  16.718  0.3279 -0.3941 -0.2348
  883MPD2    C112945   3.826   0.856  16.623 -0.2587  0.9271 -0.3834
  883MPD2    C212946   3.965   0.864  16.620 -0.5814 -0.1397 -0.1663
  883MPD2    C312947   4.040   0.815  16.726  0.1177  0.0757 -0.5338
  883MPD2    C412948   3.976   0.755  16.828  0.4678 -0.0580  0.6895
  883MPD2    C512949   3.843   0.730  16.821 -0.0026  0.4384 -0.1644
  883MPD2     H12950   4.014   0.906  16.533 -2.5439  0.5143 -0.9609
  883MPD2    H112951   4.024   0.714  16.917  2.8637  0.3495 -0.4379
  883MPD2    H212952   3.659   0.758  16.717  0.2010  0.3159  1.0023
  883MPD2    H312953   3.802   0.665  16.897 -0.0417 -0.6435 -1.1126
  883MPD2     N12954   4.177   0.854  16.731 -0.2707 -0.4063 -0.4640
  883MPD2    H512955   4.209   0.908  16.651 -0.2249  2.0347  1.2027
  883MPD2    N112956   3.761   0.911  16.509  0.5850  0.5199 -0.9137
  883MPD2    H712957   3.815   0.965  16.443  3.2506 -2.5293 -1.2589
  884MPD2     C12958   0.834   1.413  15.550  0.2933  0.5007 -0.2087
  884MPD2    C112959   0.834   1.491  15.438 -0.3898  1.0459  0.2125
  884MPD2    C212960   0.722   1.568  15.417 -0.6703 -0.5416 -0.0416
  884MPD2    C312961   0.621   1.569  15.512  0.7071 -0.4748  1.0742
  884MPD2    C412962   0.619   1.481  15.617  0.0944  0.5848 -0.2478
  884MPD2    C512963   0.729   1.399  15.629 -0.1061 -0.4623  0.3297
  884MPD2     H12964   0.726   1.627  15.326 -2.6329 -3.9426 -2.3661
  884MPD2    H112965   0.544   1.481  15.695 -1.4119  0.9199 -1.7077
  884MPD2    H212966   0.917   1.352  15.582  1.4485  0.9250 -2.3615
  884MPD2    H312967   0.735   1.325  15.708 -3.1751 -0.2408  0.7824
  884MPD2     N12968   0.522   1.673  15.514  0.5161 -0.3635  0.2287
  884MPD2    H512969   0.520   1.733  15.433 -0.0813  0.6323  0.9851
  884MPD2    N112970   0.937   1.499  15.343 -0.3381 -0.1815  0.7506
  884MPD2    H712971   0.928   1.563  15.264 -0.3771  0.9669  1.6855
  885MPD2     C12972   3.596   1.526  17.663 -0.1536 -0.3418 -0.4363
  885MPD2    C112973   3.660   1.639   0.014  0.1288 -0.3418  0.0746
  885MPD2    C212974   3.697   1.736  17.620  0.5425  0.3874 -0.8844
  885MPD2    C312975   3.666   1.726  17.492 -0.5236 -0.1367 -0.2133
  885MPD2    C412976   3.605   1.613  17.443 -0.2481 -0.0793 -0.0453
  885MPD2    C512977   3.574   1.513  17.530 -0.4643 -0.5890  0.1577
  885MPD2     H12978   3.749   1.826  17.653  0.7002 -0.1567  0.3389
  885MPD2    H112979   3.597   1.602  17.335 -1.7676 -1.3325  0.1937
  885MPD2    H212980   3.575   1.435   0.019 -0.6655 -0.1655 -0.3399
  885MPD2    H312981   3.545   1.413  17.500  2.0410 -1.1175 -0.5160
  885MPD2     N12982   3.714   1.816  17.393 -0.5101  0.0127 -0.2596
  885MPD2    H512983   3.708   1.787  17.296 -1.2843 -1.0734  0.1113
  885MPD2    N112984   3.697   1.638   0.151 -0.5525 -0.3001 -0.1141
  885MPD2    H712985   3.684   1.553   0.205  0.6547  1.4861  3.0004
  886MPD2     C12986   0.624   0.328  15.987 -0.0567  0.2056 -0.3095
  886MPD2    C112987   0.682   0.278  15.873  0.2260  0.6072  0.2157
  886MPD2    C212988   0.636   0.330  15.759 -0.9147  0.5409  0.2854
  886MPD2    C312989   0.538   0.434  15.746 -0.1127  1.1462  0.2776
  886MPD2    C412990   0.490   0.484  15.865 -0.3956  0.0184 -0.1604
  886MPD2    C512991   0.541   0.442  15.981  0.4959 -0.5243 -0.5809
  886MPD2     H12992   0.679   0.300  15.665 -1.2128  0.2854  0.2287
  886MPD2    H112993   0.425   0.571  15.865 -1.9109 -1.1260 -0.5156
  886MPD2    H212994   0.676   0.312  16.080 -3.4642 -1.2247  1.3568
  886MPD2    H312995   0.505   0.492  16.070  3.1408  2.3215 -1.1096
  886MPD2     N12996   0.503   0.488  15.617 -0.0102 -0.4826 -0.1334
  886MPD2    H512997   0.548   0.443  15.538  0.7737  0.9273 -0.5034
  886MPD2    N112998   0.801   0.197  15.873  0.0765  0.2511  0.1699
  886MPD2    H712999   0.836   0.180  15.779  0.5979  2.3244 -0.0218
  887MPD2     C13000   1.497   0.282  15.665  0.1927 -0.0780 -0.1193
  887MPD2    C113001   1.364   0.325  15.665 -0.0534 -0.2435 -0.1421
  887MPD2    C213002   1.321   0.456  15.658 -0.1341  0.6972 -0.8020
  887MPD2    C313003   1.422   0.555  15.661 -1.2903  0.0147  0.2490
  887MPD2    C413004   1.556   0.511  15.646  0.3106  0.1276 -0.0873
  887MPD2    C513005   1.595   0.379  15.647 -0.4663 -0.0014 -0.5687
  887MPD2     H13006   1.216   0.482  15.654 -0.4035 -0.3038 -0.3704
  887MPD2    H113007   1.635   0.585  15.642 -0.5401  1.0956  1.0481
  887MPD2    H213008   1.532   0.180  15.670  0.5710  0.2475  3.3692
  887MPD2    H313009   1.702   0.363  15.637 -0.1218  1.9673 -0.1304
  887MPD2     N13010   1.384   0.687  15.667 -0.2370  0.8103  1.0703
  887MPD2    H513011   1.288   0.715  15.685 -0.8262 -0.4939 -0.0525
  887MPD2    N113012   1.258   0.231  15.691 -0.3121 -0.7216 -0.3187
  887MPD2    H713013   1.170   0.274  15.714  0.2868  1.3260 -1.9039
  888MPD2     C13014   2.840   0.617  14.981 -0.3449 -0.1935 -0.1428
  888MPD2    C113015   2.797   0.591  15.109 -0.1032  0.2785 -0.5513
  888MPD2    C213016   2.847   0.667  15.214  0.4465 -0.4563 -0.0542
  888MPD2    C313017   2.915   0.784  15.193  0.3220  0.2510 -0.3513
  888MPD2    C413018   2.959   0.810  15.061 -0.6132 -0.1894  0.1440
  888MPD2    C513019   2.926   0.720  14.960  0.5996 -0.3348 -0.3494
  888MPD2     H13020   2.803   0.652  15.312  0.8150 -2.0126 -0.1288
  888MPD2    H113021   3.010   0.898  15.023  0.5962  0.0220  2.2801
  888MPD2    H213022   2.831   0.543  14.902 -1.1875 -0.0158 -0.2107
  888MPD2    H313023   2.954   0.744  14.859  1.7423  0.1902  0.1032
  888MPD2     N13024   2.934   0.876  15.297 -0.3265 -0.1696 -0.3772
  888MPD2    H513025   2.879   0.860  15.381 -0.1607  0.1831 -0.1992
  888MPD2    N113026   2.697   0.494  15.136 -0.2169  0.1667  0.2006
  888MPD2    H713027   2.671   0.491  15.234 -1.4764  0.5523 -0.1267
  889MPD2     C13028   2.297   4.123  13.355 -0.1914  0.6550  0.0007
  889MPD2    C113029   2.382   4.160  13.455  0.0482  0.3107  0.8773
  889MPD2    C213030   2.380   4.293  13.485  0.0948 -0.4964  1.0322
  889MPD2    C313031   2.345   4.385  13.387 -0.0939 -0.4714  0.2041
  889MPD2    C413032   2.277   4.343  13.276 -0.6382 -0.3872 -0.2429
  889MPD2    C513033   2.239   4.217  13.272  0.1065  0.0784  0.0991
  889MPD2     H13034   2.437   4.325  13.571  4.0401  0.2129 -1.8144
  889MPD2    H113035   2.240   4.416  13.205 -0.8946 -0.2894 -0.0106
  889MPD2    H213036   2.283   4.019  13.325  1.2538  0.2864  0.5909
  889MPD2    H313037   2.187   4.173  13.187  2.5793  1.5267 -2.1653
  889MPD2     N13038   2.382   4.517  13.407 -0.3126 -0.0617 -0.7648
  889MPD2    H513039   2.416   4.534  13.501 -0.4881  0.4193 -0.7847
  889MPD2    N113040   2.438   4.067  13.546 -0.3693 -0.2285  0.6030
  889MPD2    H713041   2.472   4.095  13.637  0.0932 -0.5602  0.5370
  890MPD2     C13042   1.926   1.793  14.860  0.2238  0.0944  0.0517
  890MPD2    C113043   2.062   1.831  14.867 -0.3835  0.3949  0.2350
  890MPD2    C213044   2.131   1.798  14.987 -0.4857  0.5606 -0.2616
  890MPD2    C313045   2.069   1.726  15.093 -0.0769  1.1702  0.1999
  890MPD2    C413046   1.936   1.691  15.077 -0.7166  0.2686  0.3094
  890MPD2    C513047   1.867   1.723  14.964 -0.0668  0.4269 -0.0575
  890MPD2     H13048   2.227   1.844  15.008  0.0266 -0.7242  0.1618
  890MPD2    H113049   1.877   1.648  15.156  0.4755 -2.5879 -0.3613
  890MPD2    H213050   1.864   1.821  14.776  0.4326 -0.7290 -0.3839
  890MPD2    H313051   1.759   1.733  14.953 -0.5532 -2.1832  2.2518
  890MPD2     N13052   2.142   1.710  15.205  0.4864  0.2253 -0.4393
  890MPD2    H513053   2.236   1.749  15.207  1.3878 -2.0912  2.6671
  890MPD2    N113054   2.115   1.908  14.763 -0.3672 -0.5208 -0.0223
  890MPD2    H713055   2.053   1.927  14.684  0.8436 -1.0545 -1.0980
  891MPD2     C13056   0.472   4.615  16.915  0.5690  0.2030  0.6460
  891MPD2    C113057   0.397   4.640  17.024  0.4723 -0.1292 -0.0125
  891MPD2    C213058   0.421   4.567  17.139  0.0810 -0.5866  0.1239
  891MPD2    C313059   0.507   4.462  17.149  0.3859  0.5536  0.3813
  891MPD2    C413060   0.580   4.435  17.034  0.2101  0.1531  0.2085
  891MPD2    C513061   0.551   4.508  16.921  0.2346  0.3205 -0.6605
  891MPD2     H13062   0.352   4.592  17.219  1.3695  0.2045  0.9952
  891MPD2    H113063   0.634   4.344  17.015 -0.4768 -0.4282  1.0546
  891MPD2    H213064   0.452   4.655  16.816  0.4208  1.2700  1.0978
  891MPD2    H313065   0.606   4.488  16.830 -1.2407 -1.5209 -1.1593
  891MPD2     N13066   0.528   4.392  17.268 -0.1321 -0.1942 -0.1271
  891MPD2    H513067   0.456   4.403  17.339 -2.6151  1.1969 -2.8660
  891MPD2    N113068   0.288   0.008  17.015 -0.3214  0.5265 -0.9775
  891MPD2    H713069   0.285   0.061  16.929  2.6040  2.8799  0.3852
  892MPD2     C13070   0.771   1.198  15.181 -0.5594 -0.0817 -0.5691
  892MPD2    C113071   0.675   1.203  15.082 -0.1015  0.0787 -0.0430
  892MPD2    C213072   0.722   1.221  14.951 -0.3549  0.2373 -0.1543
  892MPD2    C313073   0.859   1.234  14.921  0.5665  0.6648  0.1050
  892MPD2    C413074   0.946   1.223  15.026 -0.4963 -0.4230 -0.3810
  892MPD2    C513075   0.901   1.206  15.154 -1.2313  0.4835 -0.6983
  892MPD2     H13076   0.650   1.225  14.870 -0.1614 -2.6230 -0.4648
  892MPD2    H113077   1.053   1.216  15.008 -0.6015 -2.4966 -0.1444
  892MPD2    H213078   0.747   1.199  15.287 -2.1568 -0.0216 -0.9244
  892MPD2    H313079   0.971   1.202  15.238  0.8073  0.1716 -2.4120
  892MPD2     N13080   0.913   1.252  14.790  0.1452  0.6725  0.1919
  892MPD2    H513081   1.015   1.254  14.796  0.0452  0.6694  2.0777
  892MPD2    N113082   0.540   1.207  15.110 -0.2144 -0.1107  0.7990
  892MPD2    H713083   0.478   1.246  15.039  0.4888  0.8237  0.6868
  893MPD2     C13084   3.492   3.230   1.926 -0.6687  0.1029  0.0772
  893MPD2    C113085   3.519   3.362   1.922 -0.3925 -0.5742  0.3791
  893MPD2    C213086   3.644   3.415   1.949 -0.2973  0.0775 -0.2445
  893MPD2    C313087   3.744   3.323   1.970 -0.2594  0.8792  0.0769
  893MPD2    C413088   3.720   3.186   1.965  0.1924  0.1319  0.1430
  893MPD2    C513089   3.594   3.141   1.946  0.7770 -0.6427 -0.4413
  893MPD2     H13090   3.661   3.522   1.955 -0.6722  0.1773 -0.9636
  893MPD2    H113091   3.803   3.122   1.994  1.7630  1.7302 -0.7950
  893MPD2    H213092   3.388   3.199   1.913 -0.1555 -1.7848  0.4631
  893MPD2    H313093   3.579   3.034   1.955  2.5289 -0.9340 -1.0506
  893MPD2     N13094   3.877   3.372   1.987 -0.4401 -0.6659  0.0801
  893MPD2    H513095   3.949   3.301   1.998  0.5783  0.5544  1.2919
  893MPD2    N113096   3.418   3.447   1.884 -0.4921  0.1987 -0.6093
  893MPD2    H713097   3.323   3.413   1.888 -0.3076  0.0447  2.6653
  894MPD2     C13098   0.439   1.667   1.330 -1.0704 -0.3032 -0.8125
  894MPD2    C113099   0.501   1.778   1.386 -0.6073  0.8447 -0.1922
  894MPD2    C213100   0.485   1.893   1.319 -0.4241 -0.3916 -0.4671
  894MPD2    C313101   0.413   1.902   1.200  0.2111 -0.7112  0.0338
  894MPD2    C413102   0.348   1.791   1.154 -0.4089  0.1123  0.5474
  894MPD2    C513103   0.359   1.673   1.218  0.3480 -0.2979 -0.2052
  894MPD2     H13104   0.532   1.982   1.359  0.0046  0.9074 -3.8308
  894MPD2    H113105   0.282   1.794   1.068  2.8970 -2.5417 -2.0764
  894MPD2    H213106   0.437   1.570   1.379 -0.2290  0.8705  1.6009
  894MPD2    H313107   0.307   1.582   1.189 -2.2130  0.6850  1.3224
  894MPD2     N13108   0.403   2.029   1.136  0.2214 -0.4466 -0.1161
  894MPD2    H513109   0.443   2.112   1.179  1.4131  0.0922 -2.2412
  894MPD2    N113110   0.579   1.783   1.499  0.3349  0.2517 -0.2851
  894MPD2    H713111   0.597   1.874   1.540 -2.3960  0.2530  0.8806
  895MPD2     C13112   0.417   0.385  13.930  0.1208 -0.2851  0.9359
  895MPD2    C113113   0.488   0.467  13.846  0.4472 -0.1128  0.6014
  895MPD2    C213114   0.559   0.412  13.746  0.2227 -0.5337 -0.0032
  895MPD2    C313115   0.553   0.274  13.718 -0.5462 -0.2595  0.1325
  895MPD2    C413116   0.502   0.193  13.812  0.5255 -0.5016 -0.1524
  895MPD2    C513117   0.431   0.251  13.912  0.7677  0.4504  0.5658
  895MPD2     H13118   0.595   0.487  13.675 -1.3820 -0.4708 -0.7517
  895MPD2    H113119   0.505   0.086  13.792  1.3319 -0.3065 -1.0623
  895MPD2    H213120   0.353   0.426  14.007  0.4564  2.8191 -0.4367
  895MPD2    H313121   0.379   0.184  13.979  0.5950 -2.4296 -2.4477
  895MPD2     N13122   0.611   0.231  13.593 -0.4106  0.4650  0.3866
  895MPD2    H513123   0.614   0.130  13.585  3.7429  0.6060  0.0900
  895MPD2    N113124   0.456   0.606  13.853 -0.6535  0.3448 -0.1309
  895MPD2    H713125   0.488   0.654  13.770 -1.0110 -0.2950 -0.6416
  896MPD2     C13126   2.246   3.084   1.898  0.2278  0.6184 -0.1308
  896MPD2    C113127   2.231   3.002   1.790  0.4633  0.3461 -0.9800
  896MPD2    C213128   2.100   3.016   1.736  0.7030 -0.2051  0.2048
  896MPD2    C313129   1.994   3.088   1.785  0.6349 -0.1842  0.1860
  896MPD2    C413130   2.017   3.162   1.893  0.3194 -0.1099  0.3821
  896MPD2    C513131   2.140   3.157   1.947 -0.4735 -0.2788  0.2500
  896MPD2     H13132   2.078   2.956   1.648 -2.8440  0.3938  0.7111
  896MPD2    H113133   1.940   3.219   1.944 -0.3724 -0.3562 -0.3834
  896MPD2    H213134   2.340   3.081   1.951 -0.1703  0.2994  0.5532
  896MPD2    H313135   2.148   3.212   2.039 -0.4220  0.3860 -0.1550
  896MPD2     N13136   1.867   3.090   1.714 -0.2983 -0.0197  0.5448
  896MPD2    H513137   1.853   3.039   1.627 -5.4719  0.9897  0.7829
  896MPD2    N113138   2.340   2.940   1.735 -0.0792 -0.4214  0.1176
  896MPD2    H713139   2.429   2.945   1.782 -0.1251 -1.1880  0.2838
  897MPD2     C13140   3.394   3.712  10.364 -0.5628 -0.5464 -0.2713
  897MPD2    C113141   3.491   3.775  10.441  0.3023  0.1616  0.5183
  897MPD2    C213142   3.446   3.817  10.568 -0.2350 -0.6790 -0.3235
  897MPD2    C313143   3.309   3.809  10.606  0.0314  0.5484 -0.1973
  897MPD2    C413144   3.219   3.763  10.510  0.1883 -0.7404 -0.1334
  897MPD2    C513145   3.261   3.710  10.395 -0.6771 -0.1283  0.1138
  897MPD2     H13146   3.509   3.869  10.639 -0.4813  0.8271 -1.2076
  897MPD2    H113147   3.113   3.754  10.530  0.0929 -1.6510 -1.0278
  897MPD2    H213148   3.412   3.662  10.269 -0.0028 -0.2350 -0.3287
  897MPD2    H313149   3.188   3.653  10.338 -0.1750  0.1284 -0.7787
  897MPD2     N13150   3.266   3.856  10.730 -0.5250  0.1286 -0.2218
  897MPD2    H513151   3.336   3.879  10.799 -0.3043  2.4471 -1.2077
  897MPD2    N113152   3.621   3.801  10.383  0.0619 -0.1364 -0.4398
  897MPD2    H713153   3.632   3.791  10.282  0.5521  1.1759 -0.5185
  898MPD2     C13154   1.431   0.623   0.321  0.3984 -0.3282 -0.3764
  898MPD2    C113155   1.339   0.538   0.267 -0.0031 -0.0085  0.2995
  898MPD2    C213156   1.294   0.569   0.133  0.3710 -0.2094  0.2890
  898MPD2    C313157   1.354   0.680   0.067  0.2472 -0.0628  0.1082
  898MPD2    C413158   1.448   0.762   0.130  0.4926 -0.4844  0.6195
  898MPD2    C513159   1.480   0.733   0.259 -0.1609 -0.3493 -0.2419
  898MPD2     H13160   1.218   0.511   0.083 -0.4893  0.6020  0.6539
  898MPD2    H113161   1.482   0.860   0.096  0.3807  0.0049  1.9152
  898MPD2    H213162   1.462   0.618   0.425  1.1179 -0.1753 -0.5852
  898MPD2    H313163   1.532   0.807   0.319  0.5505  1.7602 -3.4647
  898MPD2     N13164   1.310   0.692  17.631 -0.0028 -0.6808  0.2508
  898MPD2    H513165   1.247   0.620  17.597 -0.6751  0.0280 -0.0167
  898MPD2    N113166   1.288   0.423   0.334 -0.3420  0.4271 -0.6242
  898MPD2    H713167   1.221   0.367   0.282 -0.5553  0.5260 -0.4549
  899MPD2     C13168   1.164   1.291  17.566  0.1716 -0.1428  0.0394
  899MPD2    C113169   1.152   1.415  17.622  0.0301 -0.1215  0.3294
  899MPD2    C213170   1.088   1.436   0.045  0.4320  0.2695  0.1414
  899MPD2    C313171   1.034   1.325   0.117 -0.0073 -0.1378 -0.0657
  899MPD2    C413172   1.046   1.202   0.060 -0.0994 -0.0338 -0.4482
  899MPD2    C513173   1.117   1.193  17.642 -0.4618  0.4857  0.1598
  899MPD2     H13174   1.081   1.537   0.082  2.4267 -0.1077  1.5259
  899MPD2    H113175   0.999   1.117   0.108  1.4717 -0.6082  0.1043
  899MPD2    H213176   1.208   1.286  17.467  0.6282 -0.2598  0.2518
  899MPD2    H313177   1.130   1.091  17.607  0.9824  0.2658  1.3518
  899MPD2     N13178   0.967   1.332   0.244  0.1311  0.0822  0.2972
  899MPD2    H513179   0.924   1.246   0.278  2.3968 -1.8778 -1.8495
  899MPD2    N113180   1.202   1.527  17.551 -0.1908  0.7345  0.2265
  899MPD2    H713181   1.232   1.511  17.456 -0.6606 -0.5007  0.2913
  900MPD2     C13182   1.447   2.983  12.729 -0.0075  0.7060 -1.1862
  900MPD2    C113183   1.375   2.866  12.746  0.3302 -0.4799 -0.3075
  900MPD2    C213184   1.245   2.853  12.702 -0.6620 -0.7348 -0.8223
  900MPD2    C313185   1.171   2.953  12.644 -0.5482  0.2157  0.2939
  900MPD2    C413186   1.241   3.074  12.630 -0.3020 -0.6330  0.3469
  900MPD2    C513187   1.376   3.081  12.655  0.3817  0.0375 -0.8510
  900MPD2     H13188   1.196   2.759  12.721  0.2316 -0.9948  0.2118
  900MPD2    H113189   1.199   3.161  12.579 -0.2737  0.0331  1.4564
  900MPD2    H213190   1.550   2.993  12.759 -0.5460 -0.2500  0.9773
  900MPD2    H313191   1.418   3.179  12.634 -0.4233  0.5440 -0.0881
  900MPD2     N13192   1.031   2.933  12.610  0.4132  0.2048  0.1155
  900MPD2    H513193   1.010   2.834  12.599  0.4902  0.2031 -0.0164
  900MPD2    N113194   1.440   2.758  12.810  0.4089 -0.6669 -0.3668
  900MPD2    H713195   1.531   2.776  12.851  1.0907 -2.2407 -1.1960
  901MPD2     C13196   1.429   1.777  13.246 -0.0488  0.1112 -0.0576
  901MPD2    C113197   1.506   1.784  13.134  0.4500 -0.4941 -0.6243
  901MPD2    C213198   1.533   1.908  13.077 -0.1535  0.0893 -0.5995
  901MPD2    C313199   1.482   2.023  13.124 -0.5811  0.1811  0.7745
  901MPD2    C413200   1.388   2.016  13.228  0.5804 -0.6947  0.1244
  901MPD2    C513201   1.368   1.897  13.281 -0.0080  0.2795 -0.4336
  901MPD2     H13202   1.592   1.923  12.987 -0.7562 -0.6974 -1.1351
  901MPD2    H113203   1.339   2.100  13.275  1.2218 -0.2726  0.0207
  901MPD2    H213204   1.387   1.689  13.292 -0.3614  0.9242  1.1909
  901MPD2    H313205   1.307   1.900  13.371  1.1601  1.7886  0.2989
  901MPD2     N13206   1.518   2.146  13.067 -0.7569 -0.1869 -1.2174
  901MPD2    H513207   1.589   2.136  12.995  0.1572  1.0566 -0.4840
  901MPD2    N113208   1.555   1.661  13.073  0.4678 -0.3797  0.1484
  901MPD2    H713209   1.548   1.576  13.129 -1.4631 -0.4014 -0.1128
  902MPD2     C13210   0.474   0.969  12.977  0.2433  0.4531 -0.0070
  902MPD2    C113211   0.379   0.871  12.945 -1.2339  0.1643 -0.1207
  902MPD2    C213212   0.427   0.754  12.887 -0.5338  0.4740  0.0826
  902MPD2    C313213   0.561   0.747  12.850 -0.2364  0.4225 -0.6566
  902MPD2    C413214   0.651   0.850  12.885  0.2974  0.3767 -0.1270
  902MPD2    C513215   0.601   0.962  12.946 -0.2038  0.5828 -0.3831
  902MPD2     H13216   0.361   0.669  12.873  1.0609 -1.1646  2.3062
  902MPD2    H113217   0.756   0.846  12.857 -0.5260  0.4641 -3.2452
  902MPD2    H213218   0.452   1.055  13.038  0.7736  0.9283 -0.4915
  902MPD2    H313219   0.673   1.039  12.970 -0.0325  0.2925  0.0402
  902MPD2     N13220   0.628   0.635  12.795  0.1188  0.1308 -0.3678
  902MPD2    H513221   0.725   0.644  12.766  0.7363  0.4459  1.7772
  902MPD2    N113222   0.249   0.889  12.998 -0.6469 -0.4426 -0.1308
  902MPD2    H713223   0.225   0.978  13.040 -1.4522 -0.8902  0.3632
  903MPD2     C13224   0.564   0.153  12.072 -0.4041 -0.3220  0.0350
  903MPD2    C113225   0.522   0.258  12.163  0.1513 -0.3707 -0.4865
  903MPD2    C213226   0.396   0.307  12.158 -0.5732 -0.0970 -0.1736
  903MPD2    C313227   0.308   0.253  12.058  0.3112 -0.1173 -0.0561
  903MPD2    C413228   0.350   0.156  11.965  0.7804 -0.4652 -0.3835
  903MPD2    C513229   0.471   0.103  11.984  0.6764  0.3417 -0.0278
  903MPD2     H13230   0.365   0.392  12.219 -0.3133 -0.8566  1.0206
  903MPD2    H113231   0.286   0.101  11.898  3.5223 -2.8604 -1.0483
  903MPD2    H213232   0.663   0.110  12.079  0.0287  0.7656  0.4924
  903MPD2    H313233   0.506   0.022  11.922  0.2163  1.8541 -2.2803
  903MPD2     N13234   0.177   0.304  12.062  0.9664  0.0462 -0.0617
  903MPD2    H513235   0.151   0.360  12.142  1.4177  2.9151 -1.9191
  903MPD2    N113236   0.621   0.307  12.251  0.2593 -0.0117 -0.0333
  903MPD2    H713237   0.703   0.246  12.251 -0.1645 -0.5825 -0.7801
  904MPD2     C13238   4.509   4.338  14.031  0.8648  0.0284  0.7597
  904MPD2    C113239   4.585   4.447  13.978 -0.3637  0.0903 -0.3042
  904MPD2    C213240   4.723   4.440  13.970 -0.4581  0.3606  1.1132
  904MPD2    C313241   0.063   4.333  14.026 -0.1468  0.3943 -0.3248
  904MPD2    C413242   4.717   4.226  14.064  0.0967 -0.0923  0.2285
  904MPD2    C513243   4.575   4.231  14.068 -0.1699  0.6596  0.2108
  904MPD2     H13244   0.058   4.523  13.934  0.6985 -0.1945  1.7477
  904MPD2    H113245   0.044   4.140  14.105  1.3835 -0.3794 -1.9987
  904MPD2    H213246   4.401   4.350  14.041  0.6365 -0.9239 -0.6766
  904MPD2    H313247   4.517   4.144  14.093 -1.3548  1.3008 -0.3133
  904MPD2     N13248   0.205   4.337  14.021  0.2549  0.6860 -0.1361
  904MPD2    H513249   0.246   4.426  13.996  0.2540  0.2849 -1.5475
  904MPD2    N113250   4.526   4.570  13.937 -0.0432 -0.1557 -0.2152
  904MPD2    H713251   4.587   4.638  13.893 -1.7149  1.2677 -0.3210
  905MPD2     C13252   0.026   0.519  13.719  0.8420 -0.0006 -0.3280
  905MPD2    C113253   4.716   0.400  13.658  0.0235 -0.0545 -0.4663
  905MPD2    C213254   0.076   0.343  13.560  0.0762 -0.0244 -0.0741
  905MPD2    C313255   0.195   0.399  13.530 -0.3473 -0.7027  0.2101
  905MPD2    C413256   0.227   0.524  13.586 -0.4083  0.0426 -0.2362
  905MPD2    C513257   0.141   0.577  13.679 -0.0580 -0.3648 -0.7351
  905MPD2     H13258   0.046   0.249  13.514 -2.1321  0.9626 -0.6394
  905MPD2    H113259   0.314   0.578  13.552  0.8577 -1.3865  0.7620
  905MPD2    H213260   4.678   0.569  13.783  0.5890 -0.8477  0.0469
  905MPD2    H313261   0.157   0.676  13.719  1.3718 -0.6923 -0.4889
  905MPD2     N13262   0.288   0.337  13.441 -0.5333 -0.1329  0.0846
  905MPD2    H513263   0.376   0.386  13.429 -0.6875  0.1029 -0.1036
  905MPD2    N113264   4.590   0.342  13.688  0.0314 -0.9297 -0.0529
  905MPD2    H713265   4.529   0.390  13.752  0.1168 -2.0121  0.8363
  906MPD2     C13266   2.299   4.282  11.872 -0.4106 -0.0875 -0.4035
  906MPD2    C113267   2.229   4.214  11.774  0.1750  0.3502 -0.3123
  906MPD2    C213268   2.135   4.121  11.804 -0.5250 -0.2201  0.8718
  906MPD2    C313269   2.112   4.091  11.938 -0.2384  0.4874  0.0762
  906MPD2    C413270   2.181   4.155  12.033  0.1905 -0.4593 -0.8847
  906MPD2    C513271   2.273   4.253  12.002  0.7158 -0.1425 -0.1805
  906MPD2     H13272   2.076   4.077  11.725 -2.1426  0.0707  1.9007
  906MPD2    H113273   2.153   4.134  12.136  3.0330 -0.8900 -0.1702
  906MPD2    H213274   2.376   4.357  11.857  0.0171 -0.4331  0.0383
  906MPD2    H313275   2.316   4.320  12.075  2.1829 -0.9728 -0.2860
  906MPD2     N13276   2.014   4.000  11.985  0.0058 -0.1577 -0.1338
  906MPD2    H513277   2.009   3.997  12.087  1.0615 -2.3070 -0.1300
  906MPD2    N113278   2.250   4.225  11.639  0.7989 -0.5642  0.3991
  906MPD2    H713279   2.189   4.174  11.576  2.7558 -1.5023 -0.7452
  907MPD2     C13280   1.234   3.898  15.723 -0.4162  0.3717 -0.1550
  907MPD2    C113281   1.316   3.796  15.684  0.0125 -0.4677  0.4941
  907MPD2    C213282   1.412   3.746  15.770  0.6077  0.0537  0.0283
  907MPD2    C313283   1.434   3.816  15.892  0.3498  0.8095  0.2655
  907MPD2    C413284   1.350   3.921  15.923  0.1176 -0.2556 -0.3047
  907MPD2    C513285   1.255   3.970  15.842 -0.0417 -0.3898 -0.2101
  907MPD2     H13286   1.471   3.660  15.738 -0.3141 -0.9703  1.0766
  907MPD2    H113287   1.362   3.972  16.017 -0.3062  0.2787 -0.5424
  907MPD2    H213288   1.155   3.935  15.659  0.4333 -0.6959 -1.8179
  907MPD2    H313289   1.191   4.052  15.872  0.8876 -0.0466  0.8344
  907MPD2     N13290   1.525   3.761  15.986 -0.2235  0.3146 -0.6085
  907MPD2    H513291   1.557   3.668  15.962 -0.4730  0.1495 -0.3046
  907MPD2    N113292   1.297   3.733  15.554  1.3257  0.5882  0.3995
  907MPD2    H713293   1.359   3.652  15.544 -1.3124 -1.2736 -0.9217
  908MPD2     C13294   3.300   3.954   9.637  0.4176 -0.6208 -0.3436
  908MPD2    C113295   3.404   3.862   9.654 -0.4066 -0.4805 -0.1943
  908MPD2    C213296   3.503   3.870   9.753  0.3122 -0.2864  0.3100
  908MPD2    C313297   3.493   3.976   9.842 -0.3791  0.2250  0.3788
  908MPD2    C413298   3.390   4.069   9.827 -0.4420 -0.3744 -0.3778
  908MPD2    C513299   3.295   4.060   9.725  0.8034  0.4115  0.3133
  908MPD2     H13300   3.581   3.797   9.772  0.2052 -0.6260 -0.5720
  908MPD2    H113301   3.385   4.156   9.891 -1.5253 -1.1371  0.5770
  908MPD2    H213302   3.226   3.959   9.558  0.1393 -0.2751 -0.0624
  908MPD2    H313303   3.227   4.140   9.699 -0.7171 -1.8719 -2.7618
  908MPD2     N13304   3.591   3.979   9.942  0.2471 -0.0454  0.4239
  908MPD2    H513305   3.645   3.893   9.948  1.3943  0.6864  0.7285
  908MPD2    N113306   3.395   3.748   9.567  0.2669  0.1613  0.2238
  908MPD2    H713307   3.316   3.754   9.504  1.3565  1.0610 -1.0574
  909MPD2     C13308   3.650   2.322  12.392 -0.3200 -0.5006 -0.3236
  909MPD2    C113309   3.629   2.417  12.301  0.6048  0.3006 -0.3644
  909MPD2    C213310   3.549   2.523  12.346  0.3172 -0.1485  0.1498
  909MPD2    C313311   3.490   2.520  12.474  0.6346  0.1099  0.3803
  909MPD2    C413312   3.521   2.427  12.568 -0.5511  0.7418 -0.2912
  909MPD2    C513313   3.608   2.327  12.519  0.6233  0.1444 -0.6574
  909MPD2     H13314   3.525   2.604  12.279 -0.7894 -0.6001 -0.0176
  909MPD2    H113315   3.494   2.425  12.672 -0.5700  1.5399 -0.2763
  909MPD2    H213316   3.724   2.245  12.372 -1.6254 -1.6584 -0.6798
  909MPD2    H313317   3.630   2.241  12.581  0.4623 -0.8344 -1.9867
  909MPD2     N13318   3.403   2.628  12.494 -0.6347 -0.1325  0.1447
  909MPD2    H513319   3.376   2.679  12.411 -0.9056  1.8512  1.4661
  909MPD2    N113320   3.686   2.419  12.177 -0.0410 -0.4832 -0.9196
  909MPD2    H713321   3.656   2.495  12.116  0.4847  0.3435 -0.1597
  910MPD2     C13322   0.912   4.320  15.698 -1.0530 -0.1388  0.0773
  910MPD2    C113323   0.829   4.214  15.687 -0.2621 -0.6490 -0.5059
  910MPD2    C213324   0.726   4.204  15.596 -0.3121 -0.6394  0.3742
  910MPD2    C313325   0.715   4.314  15.515  0.8175 -0.1437  0.0150
  910MPD2    C413326   0.796   4.423  15.531  0.0984  0.1281  0.0603
  910MPD2    C513327   0.893   4.434  15.623 -0.0134  0.4221 -0.1295
  910MPD2     H13328   0.667   4.114  15.587  1.6470 -1.8354 -0.4696
  910MPD2    H113329   0.788   4.504  15.458  1.3502 -1.3065 -1.6739
  910MPD2    H213330   0.992   4.319  15.771 -0.4992  1.3791 -0.5075
  910MPD2    H313331   0.954   4.524  15.620 -1.5905  1.4513 -1.7518
  910MPD2     N13332   0.609   4.328  15.422 -0.1808 -0.0257  0.3662
  910MPD2    H513333   0.594   4.416  15.375 -2.6991 -1.1942 -0.9609
  910MPD2    N113334   0.843   4.109  15.777 -0.0315 -0.0727  0.9607
  910MPD2    H713335   0.783   4.028  15.765  1.1521 -1.2084  2.6881
  911MPD2     C13336   3.336   0.204  16.778 -0.1112 -0.0052 -0.2102
  911MPD2    C113337   3.395   0.233  16.657  0.2619 -0.1529  0.3138
  911MPD2    C213338   3.320   0.302  16.566  0.0694 -0.1481  0.5349
  911MPD2    C313339   3.182   0.328  16.593 -0.1558  0.0123 -0.6415
  911MPD2    C413340   3.125   0.285  16.707  0.0928  0.0508  0.3683
  911MPD2    C513341   3.203   0.228  16.800  0.2963 -0.0762  0.4399
  911MPD2     H13342   3.361   0.334  16.471  1.1315 -1.7711  0.4377
  911MPD2    H113343   3.023   0.307  16.736  0.4397  2.6329 -0.3156
  911MPD2    H213344   3.397   0.166  16.858  1.0928  4.2982  0.9183
  911MPD2    H313345   3.164   0.195  16.896 -1.0482  4.4160  1.3993
  911MPD2     N13346   3.100   0.388  16.493  0.3169 -0.0265 -0.1518
  911MPD2    H513347   3.001   0.386  16.515  0.9451 -0.4428  2.6230
  911MPD2    N113348   3.516   0.164  16.626  0.6854  0.0353  0.0190
  911MPD2    H713349   3.552   0.094  16.690  2.8775  2.9144  1.9523
  912MPD2     C13350   2.689   4.674  15.901  0.7029 -0.0380  0.1684
  912MPD2    C113351   2.736   4.706  16.023  0.3845 -0.2925 -0.7062
  912MPD2    C213352   2.698   4.623  16.128  0.2923 -0.0167  0.2285
  912MPD2    C313353   2.605   4.526  16.112  1.1246  0.5220 -0.0281
  912MPD2    C413354   2.558   4.493  15.986 -0.4882 -0.1405  0.1630
  912MPD2    C513355   2.601   4.570  15.884 -0.4764  0.9540  0.5010
  912MPD2     H13356   2.737   4.631  16.229  1.6091 -1.8582 -0.1259
  912MPD2    H113357   2.486   4.412  15.981  1.2135 -1.7579  1.6010
  912MPD2    H213358   2.723   0.009  15.816 -1.3639  1.8438  0.6510
  912MPD2    H313359   2.577   4.540  15.783  1.7126  2.2640 -0.4143
  912MPD2     N13360   2.563   4.468  16.236 -0.6860  0.3220 -0.5724
  912MPD2    H513361   2.628   4.484  16.312 -0.6900 -0.0467 -0.4897
  912MPD2    N113362   2.823   0.096  16.035  0.2298 -0.1300 -0.1026
  912MPD2    H713363   2.861   0.126  15.946 -0.0942  0.4287 -0.0525
  913MPD2     C13364   3.584   1.029  10.401  0.5617  0.2553  0.3513
  913MPD2    C113365   3.654   1.136  10.451 -0.0063 -0.0536 -0.2024
  913MPD2    C213366   3.675   1.246  10.373 -0.4405 -0.2119 -0.0579
  913MPD2    C313367   3.641   1.245  10.236 -0.1966 -0.1303  0.4231
  913MPD2    C413368   3.562   1.142  10.187  0.0390  0.6519  0.3987
  913MPD2    C513369   3.539   1.032  10.270 -0.2352 -0.0848  0.3392
  913MPD2     H13370   3.733   1.328  10.412 -1.6240  0.1975  0.8481
  913MPD2    H113371   3.540   1.131  10.081  4.3755  2.1102 -0.6473
  913MPD2    H213372   3.561   0.944  10.464  2.8721  0.4390  1.4122
  913MPD2    H313373   3.482   0.947  10.236  2.7730 -1.0991 -2.1433
  913MPD2     N13374   3.690   1.338  10.140 -0.3930  0.2363  0.6164
  913MPD2    H513375   3.648   1.324  10.049 -3.2322 -1.4688  2.1798
  913MPD2    N113376   3.698   1.115  10.582  0.2431  0.3747  0.1358
  913MPD2    H713377   3.661   1.034  10.630  2.6660 -0.2959  0.8683
  914MPD2     C13378   1.312   1.698  12.251  0.1466 -0.6940  0.5268
  914MPD2    C113379   1.339   1.776  12.366  0.5976  0.4494  0.5488
  914MPD2    C213380   1.408   1.712  12.466  0.2300 -0.4195 -0.0713
  914MPD2    C313381   1.446   1.580  12.455 -0.0303 -0.4437  0.2123
  914MPD2    C413382   1.426   1.510  12.335  0.0805 -0.4712  0.1670
  914MPD2    C513383   1.356   1.573  12.236 -0.7905  0.3152  0.2016
  914MPD2     H13384   1.432   1.760  12.560 -1.1966  0.8852 -0.3827
  914MPD2    H113385   1.457   1.409  12.311 -0.7347 -0.6286 -0.2415
  914MPD2    H213386   1.258   1.743  12.169  0.9566 -1.3348 -0.3454
  914MPD2    H313387   1.332   1.519  12.145 -0.7246  0.6883 -0.0369
  914MPD2     N13388   1.517   1.522  12.566  0.5005  0.1464 -0.0223
  914MPD2    H513389   1.527   1.591  12.640 -1.6583  1.8503 -1.3136
  914MPD2    N113390   1.289   1.905  12.371  0.1081  0.0182 -0.4443
  914MPD2    H713391   1.231   1.926  12.291  0.9067  2.0574 -0.4805
  915MPD2     C13392   3.921   1.676  15.667  0.4565  0.0335 -0.2393
  915MPD2    C113393   3.816   1.767  15.686 -0.6262  0.2712 -0.5128
  915MPD2    C213394   3.771   1.774  15.813  0.0661 -0.0669  0.1153
  915MPD2    C313395   3.835   1.714  15.919  0.8086 -0.5502 -0.5193
  915MPD2    C413396   3.941   1.626  15.893 -0.0792 -0.8435  0.0371
  915MPD2    C513397   3.983   1.611  15.769 -0.4884  0.3318 -1.0013
  915MPD2     H13398   3.695   1.848  15.834  0.5198  1.5965 -4.0932
  915MPD2    H113399   4.005   1.579  15.968  1.3454 -0.0625 -0.6839
  915MPD2    H213400   3.959   1.649  15.569 -0.2315  2.4401 -1.1797
  915MPD2    H313401   4.068   1.546  15.751  0.7299  1.5265  0.3917
  915MPD2     N13402   3.796   1.749  16.050 -0.1620  0.2481  0.1235
  915MPD2    H513403   3.742   1.832  16.072 -0.5441  0.2726 -0.9315
  915MPD2    N113404   3.749   1.829  15.586  0.4520  0.6101 -0.4286
  915MPD2    H713405   3.675   1.896  15.604 -2.4597 -2.8640  0.5163
  916MPD2     C13406   2.234   0.123  16.069 -0.5155 -0.2408 -0.1940
  916MPD2    C113407   2.238   0.028  16.164  0.0831 -0.5654 -0.1153
  916MPD2    C213408   2.225   4.621  16.125 -0.5205  0.0190  0.2764
  916MPD2    C313409   2.211   4.586  15.993 -0.2032  0.7087  0.4468
  916MPD2    C413410   2.197   4.687  15.893  0.1359  0.5551  0.2569
  916MPD2    C513411   2.219   0.085  15.937  0.3247  0.3221  0.0437
  916MPD2     H13412   2.232   4.544  16.202 -1.6524 -0.7946 -0.4332
  916MPD2    H113413   2.179   4.661  15.790 -0.4109 -4.0262  1.4922
  916MPD2    H213414   2.241   0.226  16.103 -1.1487 -0.2292 -0.0947
  916MPD2    H313415   2.221   0.167  15.865 -0.5376  0.7052  0.4570
  916MPD2     N13416   2.207   4.449  15.967  0.0732 -0.0818 -0.5071
  916MPD2    H513417   2.219   4.394  16.051  1.5094  0.8702 -0.0974
  916MPD2    N113418   2.248   0.080  16.292 -0.0998 -0.6779 -0.1548
  916MPD2    H713419   2.253   0.182  16.293 -2.3899 -0.5672 -0.3749
  917MPD2     C13420   2.940   1.784  11.208  0.1554 -0.0812  0.6471
  917MPD2    C113421   2.934   1.894  11.288  0.1741  0.2769  0.6084
  917MPD2    C213422   2.993   2.011  11.242  0.6501  0.0423  0.8009
  917MPD2    C313423   3.050   2.025  11.114  0.3531 -0.4751  0.2276
  917MPD2    C413424   3.052   1.908  11.034  0.1769  0.0371 -0.7499
  917MPD2    C513425   2.990   1.791  11.081  0.7996 -0.4428  0.5148
  917MPD2     H13426   2.969   2.106  11.289  0.8089  0.8726 -0.8088
  917MPD2    H113427   3.094   1.918  10.934 -2.2354 -1.1074 -1.8774
  917MPD2    H213428   2.901   1.689  11.242 -0.1433  0.1420  0.9402
  917MPD2    H313429   2.984   1.704  11.017  0.5656  0.8262 -1.1824
  917MPD2     N13430   3.100   2.144  11.058  0.1717  0.0172 -0.2102
  917MPD2    H513431   3.141   2.135  10.965  2.0395 -1.4821  0.7617
  917MPD2    N113432   2.861   1.882  11.412 -0.0362  0.2656  0.3433
  917MPD2    H713433   2.797   1.803  11.424  2.0378 -1.3613  0.5998
  918MPD2     C13434   3.012   2.298  12.344  0.2060 -0.2210  0.3213
  918MPD2    C113435   3.090   2.226  12.258 -0.2235  0.7244 -0.3325
  918MPD2    C213436   3.034   2.162  12.144  0.6616 -0.4523 -0.2134
  918MPD2    C313437   2.903   2.181  12.102 -0.7202 -0.1058 -0.4584
  918MPD2    C413438   2.819   2.254  12.188 -0.4444  0.2142 -1.2518
  918MPD2    C513439   2.877   2.309  12.302  0.3519 -0.2289  0.3745
  918MPD2     H13440   3.097   2.100  12.082  1.2922 -1.2590  1.2337
  918MPD2    H113441   2.715   2.285  12.178 -0.4073 -0.0494 -2.3790
  918MPD2    H213442   3.049   2.340  12.437  0.1884  1.1327 -0.2893
  918MPD2    H313443   2.811   2.366  12.367 -0.2263 -1.0522  0.5013
  918MPD2     N13444   2.855   2.111  11.992  0.2653 -0.8621 -0.6933
  918MPD2    H513445   2.921   2.056  11.939 -1.8623 -0.9668 -3.2417
  918MPD2    N113446   3.226   2.207  12.291  0.3514  0.7504  0.3870
  918MPD2    H713447   3.246   2.219  12.390 -2.0011  1.3083  0.8080
  919MPD2     C13448   3.360   0.424  12.019 -0.7700  0.1576  0.2365
  919MPD2    C113449   3.297   0.368  11.905  0.4991  0.9799  0.1617
  919MPD2    C213450   3.359   0.374  11.783 -0.3036  0.6819  0.2977
  919MPD2    C313451   3.479   0.452  11.767 -0.1523 -0.1686  0.1739
  919MPD2    C413452   3.528   0.510  11.881 -0.6249  0.2725 -0.0453
  919MPD2    C513453   3.464   0.498  12.002 -0.4076 -0.0224  0.2080
  919MPD2     H13454   3.311   0.333  11.695 -0.0128 -1.6428  1.2241
  919MPD2    H113455   3.624   0.558  11.865 -0.6613  1.0883  2.1897
  919MPD2    H213456   3.309   0.422  12.115 -0.0341 -2.5778  0.5769
  919MPD2    H313457   3.529   0.516  12.087 -1.6181  0.0404  1.1186
  919MPD2     N13458   3.542   0.466  11.639  0.1520 -0.2687  0.5193
  919MPD2    H513459   3.616   0.534  11.630 -1.0831  0.8516 -1.0283
  919MPD2    N113460   3.175   0.304  11.910 -0.1306  0.1370  0.5496
  919MPD2    H713461   3.148   0.267  11.819  1.7864 -0.9556  0.4225
  920MPD2     C13462   3.442   1.184  10.940 -0.3085 -0.0235 -0.0428
  920MPD2    C113463   3.415   1.069  10.865  1.0215 -0.7752 -0.8000
  920MPD2    C213464   3.430   0.948  10.932 -0.2065 -0.2075  0.7414
  920MPD2    C313465   3.490   0.943  11.057 -0.2673  0.8660 -0.0778
  920MPD2    C413466   3.516   1.062  11.129  0.1332  0.3740 -0.2350
  920MPD2    C513467   3.494   1.180  11.066  0.7546  0.0084 -0.6492
  920MPD2     H13468   3.400   0.858  10.879  0.0058  0.2119 -0.1054
  920MPD2    H113469   3.551   1.065  11.232  1.3977  1.3485 -0.6893
  920MPD2    H213470   3.406   1.283  10.914  0.2823  0.9348  2.7339
  920MPD2    H313471   3.518   1.272  11.118  2.5403 -0.9984  0.3068
  920MPD2     N13472   3.508   0.819  11.108 -0.4396 -0.9243 -0.8971
  920MPD2    H513473   3.470   0.748  11.047 -1.3875 -1.9544  0.8998
  920MPD2    N113474   3.365   1.070  10.730  0.5320 -0.4981 -0.2150
  920MPD2    H713475   3.336   0.989  10.676 -1.5719  0.1103 -0.0021
  921MPD2     C13476   4.170   0.146  17.186 -0.4925 -0.4367  0.1434
  921MPD2    C113477   4.226   0.153  17.065  0.9471  0.0230  0.4084
  921MPD2    C213478   4.152   0.110  16.951 -0.0662  0.3432 -0.0451
  921MPD2    C313479   4.021   0.065  16.965 -0.4273  0.5585 -0.3386
  921MPD2    C413480   3.968   0.047  17.097  0.8107  0.9712  0.0827
  921MPD2    C513481   4.049   0.081  17.204  0.0623 -0.8561  0.4686
  921MPD2     H13482   4.200   0.130  16.856  1.3429 -1.7512  0.2232
  921MPD2    H113483   3.869   0.004  17.104  1.1318 -0.1109 -2.1264
  921MPD2    H213484   4.227   0.183  17.270  0.3163 -0.7091 -0.2868
  921MPD2    H313485   4.008   0.103  17.302 -0.2809  0.1107  0.1116
  921MPD2     N13486   3.937   0.037  16.860 -0.7227  0.1325 -0.0996
  921MPD2    H513487   3.837   0.034  16.876 -0.8323 -0.9444 -1.0213
  921MPD2    N113488   4.363   0.180  17.050 -0.1469  0.4561 -0.3659
  921MPD2    H713489   4.402   0.193  16.957  0.0305 -0.1413 -0.3793
  922MPD2     C13490   0.108   2.408  16.877  0.7812  0.8494  0.1014
  922MPD2    C113491   0.104   2.514  16.960  0.1148  0.3171 -0.8374
  922MPD2    C213492   0.033   2.504  17.076  0.5467 -0.2151 -0.3830
  922MPD2    C313493   4.690   2.387  17.112 -0.3567  0.6362  0.1095
  922MPD2    C413494   4.700   2.281  17.032 -0.3415  0.8234  0.0384
  922MPD2    C513495   0.052   2.289  16.918  0.3325  0.2530 -0.4649
  922MPD2     H13496   0.023   2.586  17.146  0.8337 -0.9980  0.5768
  922MPD2    H113497   4.650   2.189  17.060  0.6673  0.5822  1.0666
  922MPD2    H213498   0.173   2.407  16.790  0.5221  2.9025 -0.1102
  922MPD2    H313499   0.070   2.204  16.853  0.8732  1.1138 -1.4508
  922MPD2     N13500   4.590   2.389  17.223  0.4564  0.5157 -0.6552
  922MPD2    H513501   4.557   2.481  17.251 -1.6334 -0.1224 -1.0220
  922MPD2    N113502   0.176   2.632  16.935 -0.5305  0.2584 -0.5530
  922MPD2    H713503   0.180   2.699  17.011 -1.4575  1.2200 -1.3547
  923MPD2     C13504   1.285   4.092   9.829 -0.7631  0.4519 -0.0530
  923MPD2    C113505   1.378   4.146   9.911 -0.0603  0.4302 -0.0308
  923MPD2    C213506   1.430   4.063  10.010  0.2926  0.4327 -0.3103
  923MPD2    C313507   1.391   3.931  10.015 -0.0853  0.2024 -0.2951
  923MPD2    C413508   1.293   3.881   9.929 -0.2792  0.0121 -0.5097
  923MPD2    C513509   1.244   3.964   9.833 -0.0475  0.3088  0.0020
  923MPD2     H13510   1.502   4.112  10.075  0.0593 -1.6392  1.5159
  923MPD2    H113511   1.266   3.776   9.921 -0.1844 -0.0101 -0.5452
  923MPD2    H213512   1.252   4.157   9.749  0.8039 -1.1491 -2.0181
  923MPD2    H313513   1.174   3.921   9.762  0.4574 -1.1618  0.3770
  923MPD2     N13514   1.456   3.838  10.104  0.2116 -0.5185 -0.1991
  923MPD2    H513515   1.427   3.744  10.081  1.0583 -0.2658 -2.3116
  923MPD2    N113516   1.409   4.290   9.886 -0.1159  0.1023 -0.0206
  923MPD2    H713517   1.365   4.344   9.812  0.0055  0.3912  0.1197
  924MPD2     C13518   1.715   3.127  15.793  0.2945 -0.0903  0.1168
  924MPD2    C113519   1.728   3.112  15.929 -0.0171  0.0128 -0.3740
  924MPD2    C213520   1.776   3.221  16.001 -0.1455  1.1615 -0.2236
  924MPD2    C313521   1.815   3.340  15.940  0.0838 -0.4974  0.0751
  924MPD2    C413522   1.798   3.348  15.804 -0.2876 -0.6474 -0.3064
  924MPD2    C513523   1.740   3.247  15.727  0.5520  0.4685  0.6117
  924MPD2     H13524   1.769   3.208  16.109  0.8870  3.3656  0.1039
  924MPD2    H113525   1.816   3.435  15.742 -0.3822 -0.2085  0.2836
  924MPD2    H213526   1.682   3.033  15.749 -1.8946  0.5140  0.4715
  924MPD2    H313527   1.739   3.257  15.619  0.3836 -2.1169  0.3758
  924MPD2     N13528   1.856   3.454  16.010 -0.2246 -0.6794 -0.5979
  924MPD2    H513529   1.897   3.532  15.960  0.9457 -1.0331 -0.1747
  924MPD2    N113530   1.682   2.989  15.986 -0.0346 -0.0568 -0.0547
  924MPD2    H713531   1.631   2.928  15.923  1.5999 -0.6405 -0.7992
  925MPD2     C13532   0.110   0.591  14.999 -0.4809 -0.3358 -0.3309
  925MPD2    C113533   4.710   0.646  14.992  0.2873 -0.6663 -0.3879
  925MPD2    C213534   4.645   0.676  15.111  0.0423 -0.0886  0.4279
  925MPD2    C313535   4.697   0.631  15.237 -0.4062  0.3917 -0.1818
  925MPD2    C413536   0.095   0.580  15.242  0.6144 -0.0419 -0.0176
  925MPD2    C513537   0.167   0.566  15.123 -0.2591  0.3502  0.3919
  925MPD2     H13538   4.550   0.727  15.106 -0.5946 -1.2914  0.3756
  925MPD2    H113539   0.152   0.552  15.330 -0.5716 -0.8244  0.4977
  925MPD2    H213540   0.157   0.567  14.905  1.1161  2.7260 -0.3158
  925MPD2    H313541   0.268   0.527  15.115 -0.2011  0.4684  0.5514
  925MPD2     N13542   4.627   0.638  15.359  0.3365 -0.7997 -0.6737
  925MPD2    H513543   4.678   0.586  15.430  0.5522  1.2427  0.6634
  925MPD2    N113544   4.649   0.657  14.867  0.4580 -0.2924 -0.3789
  925MPD2    H713545   4.702   0.630  14.785  1.9431 -0.4198  0.6222
  926MPD2     C13546   3.448   3.696  13.507 -0.3528  0.1159  0.4247
  926MPD2    C113547   3.502   3.770  13.606 -0.4190  0.1872 -0.0502
  926MPD2    C213548   3.596   3.869  13.561  0.2402  0.3527 -0.0223
  926MPD2    C313549   3.617   3.888  13.428  0.1766 -0.0093 -0.6996
  926MPD2    C413550   3.571   3.801  13.330  0.3795 -0.0816  0.0349
  926MPD2    C513551   3.489   3.705  13.375  0.0736 -0.2572  0.0834
  926MPD2     H13552   3.648   3.929  13.635 -2.5638  2.7352  0.0262
  926MPD2    H113553   3.577   3.832  13.226  2.8104  0.7192  0.4154
  926MPD2    H213554   3.371   3.623  13.528  2.2308 -2.2281  1.6657
  926MPD2    H313555   3.437   3.633  13.313 -1.1256  1.9529 -1.4757
  926MPD2     N13556   3.678   3.999  13.368 -0.2107  0.0773 -0.1442
  926MPD2    H513557   3.691   4.003  13.267 -1.7339  0.0385 -0.3394
  926MPD2    N113558   3.479   3.752  13.746  0.0474 -0.1104 -0.2681
  926MPD2    H713559   3.540   3.801  13.810 -0.9893 -2.3235  2.4437
  927MPD2     C13560   2.818   1.949   0.269  0.0405 -0.0306  0.9853
  927MPD2    C113561   2.940   1.925   0.328 -0.6761 -0.0281  0.1894
  927MPD2    C213562   3.054   1.911   0.254  0.2137 -0.3023 -0.3652
  927MPD2    C313563   3.058   1.960   0.121  0.0221  0.8156 -0.4701
  927MPD2    C413564   2.938   2.000   0.059  0.2404 -0.6432 -0.4567
  927MPD2    C513565   2.825   1.991   0.135 -0.3060 -0.1798  0.3902
  927MPD2     H13566   3.146   1.874   0.297  0.5495  2.1642  1.0194
  927MPD2    H113567   2.933   2.041  17.658  3.8169 -0.5235 -0.5782
  927MPD2    H213568   2.718   1.953   0.310 -0.0654 -0.2212  0.7440
  927MPD2    H313569   2.731   2.032   0.100 -0.3003  0.2807  0.9131
  927MPD2     N13570   3.178   1.960   0.047  0.3577  0.0386  0.5700
  927MPD2    H513571   3.258   1.907   0.081  0.0588 -2.0117 -1.8771
  927MPD2    N113572   2.932   1.908   0.468 -0.7522  0.5002 -0.8031
  927MPD2    H713573   2.844   1.936   0.509 -0.6493 -0.1912 -0.1041
  928MPD2     C13574   1.448   4.582   1.673 -0.7443  0.0158 -0.0634
  928MPD2    C113575   1.493   4.711   1.671 -0.3368  0.1995  0.1183
  928MPD2    C213576   1.510   0.050   1.553 -0.3868  0.3148 -0.6139
  928MPD2    C313577   1.492   4.701   1.434 -0.5878  0.4875 -0.4229
  928MPD2    C413578   1.449   4.566   1.438  0.7877  0.2371  1.2814
  928MPD2    C513579   1.435   4.509   1.563 -0.6829  0.2063  0.0279
  928MPD2     H13580   1.534   0.156   1.556 -0.1699  0.1390  3.3437
  928MPD2    H113581   1.443   4.499   1.354  0.4618  1.4382  0.3524
  928MPD2    H213582   1.404   4.535   1.760 -0.6439  1.8296  0.9765
  928MPD2    H313583   1.400   4.407   1.556 -0.0731  0.0648 -0.8782
  928MPD2     N13584   1.515   0.032   1.310  0.1414  0.3386 -0.7194
  928MPD2    H513585   1.482   4.699   1.233  0.7523 -0.4514 -0.3863
  928MPD2    N113586   1.496   0.079   1.783  0.1313  0.0766 -0.2958
  928MPD2    H713587   1.522   0.176   1.770  0.5911  0.2901  2.2789
  929MPD2     C13588   1.705   4.079  10.825  0.1506 -0.0395  0.3872
  929MPD2    C113589   1.578   4.035  10.857  0.7298  0.2032 -0.9170
  929MPD2    C213590   1.496   4.002  10.750  0.4707 -0.6116  0.1724
  929MPD2    C313591   1.535   4.008  10.617 -0.3815  0.8428  0.5043
  929MPD2    C413592   1.667   4.033  10.589  0.1482 -0.0831 -0.5011
  929MPD2    C513593   1.755   4.069  10.695  0.4953 -0.1612  0.4728
  929MPD2     H13594   1.400   3.955  10.767  2.1646 -3.2713  2.4947
  929MPD2    H113595   1.698   4.038  10.486 -0.0717 -1.0677 -0.6140
  929MPD2    H213596   1.775   4.114  10.901  0.4451 -0.7452  0.4436
  929MPD2    H313597   1.853   4.106  10.669  0.7977 -1.2746  0.0647
  929MPD2     N13598   1.439   4.002  10.507  0.3448 -0.1584  0.2867
  929MPD2    H513599   1.483   4.008  10.415  1.0103 -0.0490  0.6143
  929MPD2    N113600   1.545   4.031  10.997 -0.4759 -0.1593  0.0245
  929MPD2    H713601   1.612   4.051  11.071 -0.3238 -0.5066 -0.0195
  930MPD2     C13602   2.622   1.953  13.856 -0.0732  0.2619  0.4721
  930MPD2    C113603   2.726   2.015  13.788  0.2319 -0.8533 -0.0778
  930MPD2    C213604   2.772   1.966  13.672 -0.7237  0.0980 -0.9366
  930MPD2    C313605   2.709   1.863  13.607 -0.3456  0.2321  0.2902
  930MPD2    C413606   2.605   1.803  13.674  0.5428 -0.7207 -0.2921
  930MPD2    C513607   2.560   1.846  13.798  0.6711  0.8406  0.0879
  930MPD2     H13608   2.863   2.003  13.627 -0.7462  1.1940 -0.0799
  930MPD2    H113609   2.546   1.729  13.621 -0.8527 -0.7983  1.4064
  930MPD2    H213610   2.582   2.006  13.942 -2.2788 -2.6421  1.2500
  930MPD2    H313611   2.479   1.790  13.843  0.9557  0.2258 -0.1691
  930MPD2     N13612   2.760   1.801  13.495  0.0654  0.1005 -0.4507
  930MPD2    H513613   2.725   1.708  13.475  0.9821 -0.8044  2.1323
  930MPD2    N113614   2.782   2.124  13.853  0.0497 -0.1923 -0.3489
  930MPD2    H713615   2.766   2.133  13.953  0.5890  2.0552 -0.4678
  931MPD2     C13616   3.349   1.642   1.028  0.4335  0.4563  0.4052
  931MPD2    C113617   3.230   1.680   1.086  0.2353  0.1551  0.2528
  931MPD2    C213618   3.177   1.612   1.196 -0.3109 -0.9303  0.2692
  931MPD2    C313619   3.253   1.516   1.261 -1.0012 -0.0374 -0.1653
  931MPD2    C413620   3.377   1.475   1.209  0.0750 -0.0587 -0.0050
  931MPD2    C513621   3.417   1.540   1.096 -0.2970 -0.8663  0.6229
  931MPD2     H13622   3.087   1.650   1.244  0.8595  0.9597  0.9635
  931MPD2    H113623   3.432   1.389   1.245  0.2324 -0.0145 -0.1391
  931MPD2    H213624   3.389   1.690   0.939 -1.5430 -1.2560 -1.3951
  931MPD2    H313625   3.517   1.511   1.064 -0.2982  1.4428 -1.4219
  931MPD2     N13626   3.204   1.440   1.367  0.1497  0.1893  1.0243
  931MPD2    H513627   3.254   1.360   1.404  1.1381 -0.6049 -2.0081
  931MPD2    N113628   3.162   1.783   1.017  0.2422 -0.4992 -0.0681
  931MPD2    H713629   3.201   1.811   0.927  0.6159 -2.1650 -0.4289
  932MPD2     C13630   0.397   0.105  11.554 -0.7898  0.1103 -1.3074
  932MPD2    C113631   0.517   0.176  11.538  0.5347  0.9706 -1.2423
  932MPD2    C213632   0.628   0.131  11.600 -0.2242  0.0024  0.3807
  932MPD2    C313633   0.626   0.004  11.670 -0.2872 -0.0244  0.0107
  932MPD2    C413634   0.506   4.658  11.671  0.7628 -0.2112 -0.5634
  932MPD2    C513635   0.390   4.708  11.618  0.0848 -1.0684  0.4708
  932MPD2     H13636   0.711   0.200  11.596 -1.3779  1.2824 -1.8007
  932MPD2    H113637   0.502   4.564  11.726  1.8468 -1.8748 -3.3244
  932MPD2    H213638   0.302   0.154  11.535 -1.6927 -1.6048 -1.2469
  932MPD2    H313639   0.295   4.657  11.622 -0.8996  0.7091 -0.3901
  932MPD2     N13640   0.734   4.676  11.742  0.4863  0.3064 -0.0586
  932MPD2    H513641   0.721   4.587  11.789  1.6436 -0.0439 -0.3820
  932MPD2    N113642   0.516   0.304  11.482 -0.6332  0.5536  0.2261
  932MPD2    H713643   0.600   0.357  11.505 -1.7244  2.1716  0.4894
  933MPD2     C13644   1.597   0.827   2.103  0.0807  0.6309 -0.1384
  933MPD2    C113645   1.517   0.745   2.027 -0.7852  0.1094 -0.1625
  933MPD2    C213646   1.406   0.796   1.953  0.5094 -0.6937 -0.0891
  933MPD2    C313647   1.395   0.931   1.955  0.6431 -0.5743 -0.0699
  933MPD2    C413648   1.495   1.014   2.010  0.5062 -0.0226  0.3326
  933MPD2    C513649   1.593   0.961   2.087  0.7704  0.0966  0.2474
  933MPD2     H13650   1.323   0.738   1.914  0.3507 -0.0397 -0.7416
  933MPD2    H113651   1.488   1.122   2.013 -0.0057 -0.0387 -0.2695
  933MPD2    H213652   1.681   0.791   2.161  0.3562 -1.2409 -1.6787
  933MPD2    H313653   1.675   1.015   2.134  2.1520 -1.6043 -0.2264
  933MPD2     N13654   1.278   0.990   1.887 -0.3074 -0.0699 -0.2279
  933MPD2    H513655   1.217   0.934   1.828 -1.2444  1.4801 -0.7007
  933MPD2    N113656   1.545   0.603   2.050 -0.2717  0.4741  0.0786
  933MPD2    H713657   1.630   0.580   2.100 -2.3457  0.3118  3.5636
  934MPD2     C13658   1.373   3.179   1.862 -0.1606 -0.1065  0.1711
  934MPD2    C113659   1.432   3.061   1.910 -0.0693 -0.2667 -0.7158
  934MPD2    C213660   1.416   2.944   1.837  0.0153 -0.2723  0.2910
  934MPD2    C313661   1.323   2.942   1.738  0.4758 -0.5607  0.3517
  934MPD2    C413662   1.255   3.052   1.709 -0.6776  0.1946 -0.3018
  934MPD2    C513663   1.283   3.172   1.768  0.3491  0.6472  0.2600
  934MPD2     H13664   1.463   2.851   1.866 -0.2913  0.5166  3.2911
  934MPD2    H113665   1.193   3.049   1.620 -0.6003 -0.0732 -0.3470
  934MPD2    H213666   1.385   3.275   1.910 -1.0670 -0.4779  1.1590
  934MPD2    H313667   1.230   3.262   1.740  1.5026  1.8794  1.9720
  934MPD2     N13668   1.281   2.823   1.679 -0.7896  0.2563  0.1912
  934MPD2    H513669   1.216   2.838   1.602  0.1681 -1.8621 -1.0268
  934MPD2    N113670   1.518   3.062   2.028  0.1284 -0.5226  0.7875
  934MPD2    H713671   1.564   2.979   2.064 -0.8391 -1.3596  0.0979
  935MPD2     C13672   1.854   2.055   1.495  0.0818 -0.1093  0.7659
  935MPD2    C113673   1.748   2.040   1.404 -0.9776 -0.1593 -0.3129
  935MPD2    C213674   1.638   2.133   1.401 -0.2088  0.3079  0.1469
  935MPD2    C313675   1.637   2.235   1.494  0.0125 -0.3755  0.0638
  935MPD2    C413676   1.750   2.256   1.566 -0.3942 -0.4794  0.9725
  935MPD2    C513677   1.856   2.172   1.567 -0.5568  0.0838 -0.3121
  935MPD2     H13678   1.547   2.115   1.344  0.5904 -2.5186 -0.2137
  935MPD2    H113679   1.742   2.326   1.649 -3.0303 -0.5707  0.7825
  935MPD2    H213680   1.932   1.984   1.519 -0.3342 -1.4818 -1.9347
  935MPD2    H313681   1.936   2.186   1.639 -1.1381  1.3625  0.0653
  935MPD2     N13682   1.532   2.325   1.505 -0.1938 -0.7046 -0.0384
  935MPD2    H513683   1.542   2.406   1.566  1.2501 -1.2834  0.4897
  935MPD2    N113684   1.739   1.944   1.309  0.0074  0.4055 -0.2010
  935MPD2    H713685   1.663   1.932   1.243  0.6336  0.7139 -0.9820
  936MPD2     C13686   1.215   3.330  13.053 -0.0731 -0.0536 -0.3156
  936MPD2    C113687   1.167   3.428  13.128  0.1268  0.0580 -0.0553
  936MPD2    C213688   1.163   3.563  13.084 -0.0859  0.1190 -0.9081
  936MPD2    C313689   1.222   3.596  12.964  0.4531 -0.2592 -0.4115
  936MPD2    C413690   1.272   3.497  12.882  0.7827 -0.7973 -0.0621
  936MPD2    C513691   1.263   3.369  12.929  0.1042 -0.8789  0.1353
  936MPD2     H13692   1.114   3.640  13.142  3.2973  1.0710  0.7185
  936MPD2    H113693   1.327   3.526  12.793  0.3015  0.0694 -0.0810
  936MPD2    H213694   1.208   3.226  13.082 -3.3009  0.3417  0.2715
  936MPD2    H313695   1.323   3.301  12.869 -0.3187  0.3012 -1.6135
  936MPD2     N13696   1.224   3.732  12.941  0.1765 -0.8062  0.6770
  936MPD2    H513697   1.176   3.784  13.013  3.0257  0.8809  1.3455
  936MPD2    N113698   1.122   3.406  13.261  0.0125 -0.0841  0.2530
  936MPD2    H713699   1.079   3.486  13.307 -1.5230 -0.2351 -0.9212
  937MPD2     C13700   2.877   4.517  11.522  0.0818 -0.2803 -0.1617
  937MPD2    C113701   2.980   4.585  11.578 -0.0415  0.1472  0.4654
  937MPD2    C213702   3.098   4.601  11.504 -0.4087  0.6397  0.1689
  937MPD2    C313703   3.113   4.537  11.383 -0.3055 -0.7969 -0.1533
  937MPD2    C413704   3.013   4.458  11.336 -0.4387 -0.0070  0.3047
  937MPD2    C513705   2.896   4.446  11.408 -0.4032 -0.2617 -0.1514
  937MPD2     H13706   3.180   4.664  11.536  0.2613 -1.5315  2.7706
  937MPD2    H113707   3.028   4.410  11.240  2.9386  1.0482  0.3202
  937MPD2    H213708   2.775   4.518  11.559 -0.1121  1.5413 -0.7206
  937MPD2    H313709   2.813   4.383  11.379  0.7967 -0.5393 -3.0201
  937MPD2     N13710   3.229   4.565  11.309  0.1901  0.4071 -0.3466
  937MPD2    H513711   3.292   4.634  11.348 -1.0677  0.8373  0.9112
  937MPD2    N113712   2.950   4.674  11.683 -0.0199  0.5542 -0.1333
  937MPD2    H713713   3.015   0.027  11.692  0.7352 -0.2713  1.5204
  938MPD2     C13714   0.622   2.186   0.769 -0.1852  0.1458  0.0086
  938MPD2    C113715   0.706   2.236   0.872  0.1944  0.4474  0.4337
  938MPD2    C213716   0.757   2.145   0.964  0.3902  0.4224 -0.4931
  938MPD2    C313717   0.717   2.012   0.965  0.3391 -0.4447  0.3331
  938MPD2    C413718   0.638   1.964   0.873 -0.2373 -0.0054 -0.2223
  938MPD2    C513719   0.600   2.049   0.770 -0.3881 -0.2038  1.0343
  938MPD2     H13720   0.834   2.187   1.027  0.8067  0.7606 -1.2312
  938MPD2    H113721   0.615   1.859   0.857  0.4384  0.1420 -2.1604
  938MPD2    H213722   0.582   2.245   0.687  0.6377  1.8470  0.8367
  938MPD2    H313723   0.558   2.013   0.676 -2.0611  2.0750  0.8975
  938MPD2     N13724   0.752   1.920   1.068  0.1101 -0.7971  0.2897
  938MPD2    H513725   0.723   1.824   1.056 -1.0974 -0.4449  0.4118
  938MPD2    N113726   0.740   2.370   0.868  0.0099  0.0211 -0.0576
  938MPD2    H713727   0.801   2.412   0.937 -0.1076  0.5246 -0.2579
  939MPD2     C13728   2.386   3.393   1.710 -0.0219 -0.0900 -0.1162
  939MPD2    C113729   2.488   3.488   1.690 -0.8680  0.5183 -0.6559
  939MPD2    C213730   2.529   3.523   1.566 -0.4082  0.6887  0.2038
  939MPD2    C313731   2.460   3.466   1.457  0.7765  0.4659 -0.8848
  939MPD2    C413732   2.366   3.369   1.467  0.1152 -0.1425  0.2045
  939MPD2    C513733   2.328   3.335   1.593  0.0526  0.2310  0.1635
  939MPD2     H13734   2.613   3.588   1.544  0.0494 -0.9748 -3.0072
  939MPD2    H113735   2.305   3.334   1.385  1.5965  0.9734 -1.3710
  939MPD2    H213736   2.352   3.374   1.811  0.8120  0.3646  0.2526
  939MPD2    H313737   2.243   3.268   1.597  2.1051 -2.3693  0.1454
  939MPD2     N13738   2.485   3.524   1.327 -0.4143 -0.3302 -0.3710
  939MPD2    H513739   2.560   3.592   1.332 -0.1585 -0.7184  1.1889
  939MPD2    N113740   2.535   3.536   1.812 -1.0144  0.1729  0.8930
  939MPD2    H713741   2.482   3.508   1.893  0.3110 -0.1269  1.6475
  940MPD2     C13742   1.426   3.735  13.443 -0.2727 -0.0353 -0.1707
  940MPD2    C113743   1.486   3.625  13.498  0.1635  0.8292 -0.2025
  940MPD2    C213744   1.519   3.515  13.417 -0.5930  0.0456 -1.0064
  940MPD2    C313745   1.511   3.519  13.282 -0.0659  0.1849 -0.4082
  940MPD2    C413746   1.457   3.638  13.223  0.6627  0.0626 -0.4130
  940MPD2    C513747   1.418   3.740  13.305  0.9666  0.4833 -0.0168
  940MPD2     H13748   1.562   3.427  13.463 -1.2977  0.5131  0.5312
  940MPD2    H113749   1.448   3.648  13.116 -1.0799 -2.4883 -0.5261
  940MPD2    H213750   1.406   3.821  13.505 -0.8692 -1.4645  1.6361
  940MPD2    H313751   1.382   3.831  13.259  0.8180 -0.1572 -1.1708
  940MPD2     N13752   1.559   3.417  13.190  0.4016  0.4432  0.1732
  940MPD2    H513753   1.543   3.443  13.093  3.3593  0.7017 -0.2548
  940MPD2    N113754   1.487   3.594  13.632 -0.1798 -0.2305 -0.0173
  940MPD2    H713755   1.479   3.494  13.650 -2.7035 -0.3331 -1.6617
  941MPD2     C13756   0.951   2.388   9.851  0.0035  0.4833 -0.6400
  941MPD2    C113757   0.964   2.525   9.884 -0.5564  0.2914  0.0639
  941MPD2    C213758   0.883   2.578   9.984  0.2252  0.1202  0.0250
  941MPD2    C313759   0.787   2.500  10.045 -0.3827  1.0380 -0.0084
  941MPD2    C413760   0.782   2.362  10.020 -0.7229  0.3450 -0.9397
  941MPD2    C513761   0.859   2.311   9.919  0.5081  0.1635  0.3427
  941MPD2     H13762   0.897   2.680  10.017 -4.3165  1.3569 -1.8421
  941MPD2    H113763   0.710   2.294  10.064  0.9984 -1.4449 -0.9292
  941MPD2    H213764   1.000   2.331   9.773  0.9519 -0.2284  0.4818
  941MPD2    H313765   0.844   2.204   9.906 -0.8778  0.3242  0.5652
  941MPD2     N13766   0.698   2.557  10.131  0.2593 -0.4644  0.0259
  941MPD2    H513767   0.637   2.494  10.182  0.8885  0.9555  2.5303
  941MPD2    N113768   1.060   2.610   9.822  0.3692 -0.0232 -0.0296
  941MPD2    H713769   1.067   2.706   9.854  0.6917  0.0968 -0.4617
  942MPD2     C13770   0.428   3.767  10.002  0.9795 -0.5806  0.2028
  942MPD2    C113771   0.554   3.803   9.973 -0.0280 -0.4633  0.0286
  942MPD2    C213772   0.651   3.758  10.065  0.6402 -0.3197  0.3124
  942MPD2    C313773   0.620   3.705  10.185 -0.0558 -0.0295  0.1306
  942MPD2    C413774   0.487   3.679  10.220 -0.5526 -0.3427 -0.0551
  942MPD2    C513775   0.395   3.713  10.123  0.2650 -0.1363 -0.4097
  942MPD2     H13776   0.756   3.769  10.038  1.1919 -0.2184  2.5037
  942MPD2    H113777   0.451   3.620  10.304  0.3458 -0.5693  0.1649
  942MPD2    H213778   0.344   3.787   9.937  0.3614 -1.1434  0.8316
  942MPD2    H313779   0.291   3.688  10.143  0.0391 -0.2259 -1.7504
  942MPD2     N13780   0.718   3.674  10.285  0.3466 -0.4193  0.4836
  942MPD2    H513781   0.689   3.640  10.377 -0.8057  0.7367  0.5417
  942MPD2    N113782   0.600   3.870   9.854  0.7526 -0.2797 -0.4615
  942MPD2    H713783   0.700   3.887   9.849  0.7389 -0.4540 -1.3186
  943MPD2     C13784   4.490   2.841   9.431 -0.4882 -0.7000  0.3693
  943MPD2    C113785   4.470   2.710   9.450 -0.2386  0.0215 -0.5065
  943MPD2    C213786   4.459   2.626   9.336 -0.0530 -0.4039  0.4258
  943MPD2    C313787   4.451   2.684   9.213  0.0093 -0.0295  0.1610
  943MPD2    C413788   4.474   2.821   9.197  0.3453  0.4218  0.4040
  943MPD2    C513789   4.494   2.904   9.307  0.2817 -0.3725  0.7495
  943MPD2     H13790   4.438   2.521   9.352  0.0159 -0.7038 -1.4179
  943MPD2    H113791   4.460   2.881   9.107  0.6912  0.7919  0.5958
  943MPD2    H213792   4.500   2.910   9.513 -2.9203  1.3679 -1.0989
  943MPD2    H313793   4.494   3.012   9.302  0.5297 -0.3161  1.9923
  943MPD2     N13794   4.430   2.602   9.100 -0.0002  0.3682  0.1149
  943MPD2    H513795   4.451   2.648   9.012  1.2457  0.5192  0.4945
  943MPD2    N113796   4.465   2.665   9.582  0.1602 -0.1465  0.0586
  943MPD2    H713797   4.480   2.736   9.653 -2.1445  1.1678 -0.7648
  944MPD2     C13798   4.642   1.336  11.147 -0.0991  0.0956 -0.1356
  944MPD2    C113799   4.640   1.221  11.226 -0.4732  0.2771  0.1988
  944MPD2    C213800   4.592   1.231  11.356  0.7371  0.8923 -0.5148
  944MPD2    C313801   4.556   1.356  11.408  0.1034  0.4467  0.0396
  944MPD2    C413802   4.556   1.467  11.321  0.9001  0.5934  0.0257
  944MPD2    C513803   4.610   1.459  11.194  0.1341  0.0349 -0.2509
  944MPD2     H13804   4.608   1.152  11.428 -1.2383  2.1245  1.2693
  944MPD2    H113805   4.511   1.562  11.347 -0.0756  0.1413  0.0031
  944MPD2    H213806   4.673   1.346  11.043 -1.3358 -2.0460 -0.7388
  944MPD2    H313807   4.618   1.544  11.127  0.0402 -0.6228 -1.0951
  944MPD2     N13808   4.509   1.357  11.538  0.4262  0.0936 -0.4554
  944MPD2    H513809   4.532   1.271  11.586  1.5744  1.3134  1.2053
  944MPD2    N113810   4.679   1.102  11.168  0.3913  0.0457 -0.1825
  944MPD2    H713811   4.719   1.114  11.075  0.4108  0.8825 -0.0672
    1TCq1    O113812   1.790   2.057  14.592 -0.4399  0.2531 -0.1962
    1TCq1    C113813   1.781   2.136  14.705  0.6126  0.0321 -0.4395
    1TCq1    O213814   1.792   2.100  14.823  0.3579 -0.4869 -0.2481
    1TCq1    C213815   1.793   2.269  14.667  1.2635  0.5560 -0.5172
    1TCq1    C313816   1.706   2.316  14.567 -0.3217  0.6867 -0.0266
    1TCq1    C413817   1.691   2.444  14.556  0.1424  0.1628  0.7274
    1TCq1    C513818   1.778   2.531  14.627 -0.2697  0.6726 -1.0197
    1TCq1    C613819   1.877   2.479  14.711 -0.1933 -0.1920 -0.0891
    1TCq1    C713820   1.877   2.346  14.739  0.7092  0.4675  0.1332
    1TCq1    C813821   1.967   2.564  14.776 -0.6761 -0.2459  0.2780
    1TCq1    O413822   2.038   2.514  14.864  0.4803 -0.2262  0.9091
    1TCq1    C913823   1.598   2.494  14.460 -0.3321 -0.0631 -0.9248
    1TCq1    O513824   1.530   2.407  14.399 -0.0873 -0.4051  0.9032
    1TCq1    O613825   1.560   2.617  14.471  0.9658 -0.1529 -0.0485
    1TCq1    H113826   1.824   2.116  14.521 -0.6032  0.4001 -0.1527
    1TCq1    H213827   1.649   2.255  14.498 -1.3907 -0.3554  1.7842
    1TCq1    H313828   1.784   2.637  14.604  0.5309  1.0854  1.0740
    1TCq1    H413829   1.938   2.298  14.814  0.5065  1.0158  0.6477
    2MPD2     C13830   2.187   3.009  14.899  0.2364  0.0051  0.8095
    2MPD2    C113831   2.111   3.031  14.792  0.4923  0.3031  0.1389
    2MPD2    C213832   2.029   2.931  14.740  0.3270  0.7840 -0.6109
    2MPD2    C313833   2.047   2.802  14.786  0.3457 -0.4893 -0.2208
    2MPD2    C413834   2.141   2.778  14.883  0.1589 -0.4217  0.3053
    2MPD2    C513835   2.196   2.881  14.944 -0.6311  0.0299  0.1820
    2MPD2     H13836   1.950   2.946  14.668 -0.7155 -1.8313 -0.0179
    2MPD2    H113837   2.158   2.680  14.925  3.8809  0.3415  0.5640
    2MPD2    H213838   2.245   3.085  14.951  1.4212 -0.5820  0.3437
    2MPD2    H313839   2.271   2.863  15.020 -0.4292 -1.1173 -0.2933
    2MPD2     N13840   1.959   2.700  14.735  0.9456  0.0261 -0.0217
    2MPD2    H513841   1.877   2.724  14.681  1.3705 -0.3226 -0.8248
    2MPD2    N113842   2.115   3.158  14.739  0.3812 -0.2460  0.5398
    2MPD2    H713843   2.161   3.234  14.788 -1.8232  1.4902 -0.0815
    3TMC2    C113844   2.060   3.312  14.567  0.2941  0.3204  0.6653
    3TMC2    C213845   2.059   3.407  14.664  1.1477 -0.1567 -1.2302
    3TMC2    C313846   2.035   3.534  14.612  0.2888  0.6965 -0.1627
    3TMC2    C413847   2.026   3.331  14.440 -0.2521  0.7321  0.7908
    3TMC2    C513848   2.009   3.462  14.391 -0.1285 -0.2167  0.1613
    3TMC2    C613849   2.004   3.563  14.483 -1.1575  0.0892 -0.2667
    3TMC2     C13850   2.068   3.175  14.612  0.3256  0.0089  0.0597
    3TMC2     O13851   2.055   3.090  14.523  0.8490 -0.4727 -0.3369
    3TMC2     H13852   2.066   3.382  14.769  0.1298 -2.7909 -1.8179
    3TMC2    H113853   2.011   3.249  14.371  0.6524  0.1489  1.2837
    3TMC2    H213854   2.021   3.666  14.452 -1.6989  0.5494  0.9534
    3TMC2    C713855   1.965   3.473  14.253  0.2892 -0.2512  0.1900
    3TMC2    C813856   2.100   3.635  14.688 -0.2257  0.0134 -0.4792
    3TMC2    O113857   1.981   3.378  14.172  0.4265 -0.2263 -0.0572
    3TMC2    O213858   2.081   3.754  14.666  0.6183 -0.3048  0.5175
    3TMC2    O513859   2.208   3.588  14.751  0.2096  0.0443 -0.0547
    3TMC2    H513860   2.206   3.490  14.762  0.1045  0.3139  2.4441
    4MPD2     C13861   0.849   4.312  13.627 -0.2174 -0.2347  0.0204
    4MPD2    C113862   0.953   4.370  13.575 -0.4062 -0.1483  0.6599
    4MPD2    C213863   1.073   4.375  13.645  0.2827  0.0288  0.3510
    4MPD2    C313864   1.072   4.339  13.778  0.2989  0.2708  0.4831
    4MPD2    C413865   0.955   4.297  13.836  0.4551  0.4965  0.2889
    4MPD2    C513866   0.843   4.283  13.758  0.0457 -0.3281 -0.1248
    4MPD2     H13867   1.166   4.418  13.609 -0.9154  2.3222 -0.0336
    4MPD2    H113868   0.946   4.262  13.938 -0.4685  1.0435  0.3984
    4MPD2    H213869   0.763   4.282  13.567 -0.3770  0.4533 -0.0976
    4MPD2    H313870   0.757   4.241  13.807 -1.8665  2.6336 -0.9258
    4MPD2     N13871   1.197   4.318  13.839  0.4955 -0.1880 -0.0353
    4MPD2    H513872   1.275   4.360  13.789 -0.0223  0.6514 -0.1377
    4MPD2    N113873   0.937   4.410  13.439 -0.1489  0.4599 -0.9142
    4MPD2    H713874   0.846   4.399  13.397  0.0521 -1.0028 -0.9402
    5TCq2    C113875   1.216   4.258  13.959 -0.1436  0.4262 -0.2849
    5TCq2    O213876   1.142   4.185  14.022 -0.1113  0.0682  0.0085
    5TCq2    C213877   1.357   4.245  13.997  0.2109 -0.2985 -0.5247
    5TCq2    C313878   1.440   4.330  13.933 -0.4035  0.1564  0.5663
    5TCq2    C413879   1.567   4.302  13.906 -0.1740  0.0159  0.5339
    5TCq2    C513880   1.620   4.193  13.976  0.0253 -0.4445 -0.1591
    5TCq2    C613881   1.536   4.112  14.046 -0.3859 -0.6063 -0.5300
    5TCq2    C713882   1.399   4.132  14.054  0.9106  0.2271 -0.6093
    5TCq2    C813883   1.591   3.987  14.087  0.3035  0.1613 -0.0489
    5TCq2    O413884   1.549   3.949  14.191  0.3117  0.1948 -0.0558
    5TCq2    C913885   1.655   4.408  13.864  0.1921 -0.0883  0.0578
    5TCq2    O513886   1.771   4.404  13.905  0.7171 -0.1130  0.1156
    5TCq2    O613887   1.603   4.516  13.838  0.1946  0.2839 -0.8676
    5TCq2    H213888   1.412   4.434  13.924  2.1464  0.6762 -1.5426
    5TCq2    H313889   1.728   4.183  13.978  0.0633 -0.2882 -1.5034
    5TCq2    H413890   1.337   4.056  14.100 -1.6506  1.1589 -2.5260
    6MPD1     C13891   2.226   4.597  12.190  0.1553  0.3031 -0.0737
    6MPD1    C113892   2.184   0.006  12.170  0.2104 -0.3813  0.3501
    6MPD1    C213893   2.055   0.041  12.203 -0.2971  0.8264  0.3662
    6MPD1    C313894   1.972   4.676  12.276 -0.2851 -0.5309  0.2298
    6MPD1    C413895   2.017   4.550  12.300  0.0924  0.1948  0.0084
    6MPD1    C513896   2.140   4.508  12.255 -0.0580 -0.7659 -0.4585
    6MPD1     H13897   2.016   0.133  12.162 -2.2224  0.5200  1.4640
    6MPD1    H113898   1.959   4.471  12.348 -1.2035  1.4871  0.5703
    6MPD1    H213899   2.325   4.563  12.162  0.6873  1.0108  0.9483
    6MPD1    H313900   2.172   4.408  12.281  1.0629 -0.0944  0.7582
    6MPD1     N13901   1.838   4.716  12.307  0.1762  0.0041 -0.0280
    6MPD1    H513902   1.776   4.638  12.328 -1.3919  1.6993  1.6456
    6MPD1    N113903   2.249   0.082  12.075  0.5681 -0.6701 -0.3953
    6MPD1    H613904   2.350   0.070  12.076  1.0184  3.2405  0.8111
    6MPD1    H713905   2.224   0.180  12.083  0.9982 -0.4190 -2.0830
    7MPD2     C13906   1.185   0.347  12.757 -0.4513  0.2383  0.1252
    7MPD2    C113907   1.238   0.223  12.749  0.3586 -0.0311  0.1874
    7MPD2    C213908   1.182   0.125  12.831 -0.0146 -0.1421  0.0571
    7MPD2    C313909   1.075   0.144  12.913  0.2142 -0.3819  0.0915
    7MPD2    C413910   1.019   0.272  12.910 -0.0077  0.8795  0.5304
    7MPD2    C513911   1.081   0.373  12.845  0.3016 -0.6871 -0.3152
    7MPD2     H13912   1.219   0.025  12.812  1.1982 -0.1748  2.5693
    7MPD2    H113913   0.933   0.296  12.972 -0.0952 -1.0427  1.1587
    7MPD2    H213914   1.233   0.433  12.711  1.6364 -0.8841  0.1905
    7MPD2    H313915   1.046   0.476  12.852  2.3490 -0.0392  0.2763
    7MPD2     N13916   1.017   0.029  12.964 -0.4320 -0.4633 -0.3739
    7MPD2    H513917   1.045   4.662  12.929  0.9887 -0.6849  1.3746
    7MPD2    N113918   1.337   0.186  12.660  0.5106  0.4756  0.1548
    7MPD2    H713919   1.378   0.093  12.667  1.1009  0.7691  0.6007
    8TMC3    C113920   0.883   4.614  13.081 -0.0308  0.9978  0.1185
    8TMC3    C213921   0.920   4.575  13.204  0.2338 -0.3375 -0.2676
    8TMC3    C313922   0.980   4.453  13.213 -1.0088 -0.1347  0.2936
    8TMC3    C413923   0.900   4.533  12.972 -0.7193  1.0514  0.2099
    8TMC3    C513924   0.961   4.414  12.986  0.2218  0.3801 -0.7477
    8TMC3    C613925   0.998   4.370  13.108 -0.4138  0.1905 -0.0721
    8TMC3     C13926   0.928   0.023  13.061  0.0892 -0.3363  0.3362
    8TMC3     O13927   0.890   0.104  13.147 -0.3790 -1.0411 -0.0528
    8TMC3     H13928   0.921   4.644  13.287 -0.6459  1.4642 -1.7491
    8TMC3    H113929   0.866   4.576  12.878 -0.0972  1.9448  0.3860
    8TMC3    H213930   1.057   4.280  13.126 -0.0800  0.0929 -1.6597
    8TMC3    C713931   1.070   4.410  12.890  0.2335  0.6209  0.5903
    8TMC3    C813932   1.037   4.414  13.343 -0.0902 -0.4072 -0.1645
    8TMC3    O113933   1.120   4.524  12.871 -0.1966  0.4798 -0.1465
    8TMC3    O213934   1.151   4.373  13.353  0.4733  0.0329 -0.1581
    9TMC3    C113935   1.629   0.105  12.330  0.6796 -0.7048 -0.6327
    9TMC3    C213936   1.560   4.719  12.290  0.2965  0.6288  0.3049
    9TMC3    C313937   1.440   4.694  12.347 -0.4342  0.1407  1.0142
    9TMC3    C413938   1.567   0.206  12.403  0.3382 -1.0290  0.1240
    9TMC3    C513939   1.446   0.179  12.449  0.5867 -0.5295 -0.8491
    9TMC3    C613940   1.383   0.061  12.426  0.3899  0.0231 -0.2340
    9TMC3     C13941   1.776   0.118  12.300  0.0402 -0.7033  0.3327
    9TMC3     O13942   1.828   0.232  12.311  0.1099 -0.6855 -0.0732
    9TMC3     H13943   1.600   4.642  12.224 -0.7913 -0.5762  1.0539
    9TMC3    H113944   1.628   0.292  12.429 -0.4815 -0.4021 -0.0349
    9TMC3    H213945   1.280   0.052  12.460  0.2635  2.7208  0.0902
    9TMC3    C713946   1.386   0.265  12.554 -0.3699  0.4013  0.3845
    9TMC3    C813947   1.399   4.549  12.358  0.7654 -0.6038  0.4106
    9TMC3    O113948   1.412   0.385  12.546 -0.1811  0.4289 -0.6502
    9TMC3    O213949   1.418   4.477  12.260 -0.6373 -0.1689  0.2803
   10MPD2     C13950   1.137   4.179  12.607 -0.0253  0.5365 -0.2895
   10MPD2    C113951   1.146   4.294  12.681  0.3128  0.8790  0.6536
   10MPD2    C213952   1.236   4.392  12.645  0.3183 -0.0751  0.3873
   10MPD2    C313953   1.286   4.397  12.512 -0.1378  0.4083  0.9585
   10MPD2    C413954   1.270   4.280  12.434 -0.0467 -0.6840  0.1300
   10MPD2    C513955   1.194   4.172  12.486 -0.0283  0.1707  0.1185
   10MPD2     H13956   1.264   4.474  12.710  2.4453  1.6891 -2.7371
   10MPD2    H113957   1.312   4.269  12.335 -0.1515 -2.1199  0.2534
   10MPD2    H213958   1.055   4.118  12.642  0.4028  0.4430  0.5400
   10MPD2    H313959   1.168   4.093  12.417  1.3644  0.5676 -0.8423
   10MPD2     N13960   1.351   4.520  12.481 -0.9135 -0.1434 -0.0485
   10MPD2    H513961   1.364   4.589  12.554  1.9690  0.8200 -1.4572
   10MPD2    N113962   1.077   4.299  12.802  0.0330 -0.1609 -0.0051
   10MPD2    H713963   1.016   4.222  12.829 -1.8369  0.9331 -1.0967
   11MPD2     C13964   1.883   3.583  13.990 -0.0857  0.2240  0.4339
   11MPD2    C113965   1.841   3.639  14.113 -0.8744  0.4940  0.0056
   11MPD2    C213966   1.767   3.756  14.111  0.4966 -0.2371  0.0898
   11MPD2    C313967   1.719   3.809  13.990 -0.2490 -0.1418  0.5167
   11MPD2    C413968   1.758   3.749  13.875  0.0416 -0.6410  0.2150
   11MPD2    C513969   1.837   3.634  13.876 -0.8021  0.0337  0.1876
   11MPD2     H13970   1.740   3.802  14.205  2.8516  0.9066  0.2026
   11MPD2    H113971   1.718   3.782  13.780 -0.5808  1.0282  1.0568
   11MPD2    H213972   1.938   3.489  13.983  0.0457  0.5009 -1.9830
   11MPD2    H313973   1.867   3.583  13.786 -3.8432  0.4792 -1.0743
   11MPD2     N13974   1.644   3.929  13.985 -0.3528 -0.5358  0.4676
   11MPD2    H513975   1.628   3.974  13.895 -1.2434 -1.5953  0.0936
   11MPD2    N113976   1.884   3.587  14.233  0.4992 -0.3945 -0.6157
   11MPD2    H713977   1.863   3.653  14.308  0.5513 -1.9501  0.7620
    1MPD1     C13978   4.457   0.485  17.349 -0.2159  0.5114 -0.2549
    1MPD1    C113979   4.574   0.417  17.382 -0.0836 -0.7010 -0.2974
    1MPD1    C213980   4.687   0.463  17.320  0.0392  0.2936  0.5090
    1MPD1    C313981   4.689   0.564  17.225  0.7121 -0.2508  0.0143
    1MPD1    C413982   4.576   0.622  17.189 -0.7598 -0.3079 -0.3296
    1MPD1    C513983   4.456   0.581  17.251 -0.2210  0.5408 -0.7861
    1MPD1     H13984   0.057   0.417  17.346  0.0504  1.3310  2.3363
    1MPD1    H113985   4.578   0.706  17.120 -0.4293 -0.7380 -0.8430
    1MPD1    H213986   4.360   0.454  17.387 -1.2925  3.1230 -0.8746
    1MPD1    H313987   4.364   0.629  17.221 -0.1046 -2.6672 -6.2731
    1MPD1     N13988   0.087   0.617  17.171  0.1243 -0.3725  0.3142
    1MPD1    H513989   0.077   0.697  17.109 -0.2770 -1.5878 -1.1930
    1MPD1    N113990   4.562   0.296  17.458  0.3833 -0.1247  0.3601
    1MPD1    H613991   4.544   0.228  17.384 -0.6103 -0.1866  0.6566
    1MPD1    H713992   4.478   0.293  17.515 -0.2127  0.1317 -0.5044
    2MPD1     C13993   1.056   0.322  17.207  0.0653 -0.3929 -0.0012
    2MPD1    C113994   0.950   0.281  17.285  0.5739  0.2578  0.1244
    2MPD1    C213995   0.840   0.364  17.286  0.6714 -0.2939  0.7451
    2MPD1    C313996   0.828   0.480  17.213  0.1077  0.2492  0.7428
    2MPD1    C413997   0.935   0.516  17.134  0.2166 -0.1078  0.1893
    2MPD1    C513998   1.049   0.434  17.130 -0.1737  0.3251  0.6528
    2MPD1     H13999   0.758   0.336  17.352 -0.8762  0.4026 -0.8784
    2MPD1    H114000   0.932   0.602  17.069  1.8248 -1.7910 -2.1330
    2MPD1    H214001   1.149   0.268  17.204  0.7625  0.6413  2.6311
    2MPD1    H314002   1.128   0.462  17.061  0.4086 -3.6200 -0.2564
    2MPD1     N14003   0.703   0.551  17.221 -0.2004 -0.0422  0.1930
    2MPD1    H514004   0.628   0.506  17.273  0.0216 -1.7940 -1.0055
    2MPD1    N114005   0.965   0.172  17.381 -0.9741  0.1515  0.1730
    2MPD1    H614006   1.046   0.114  17.360 -2.1137 -1.9146  1.4601
    2MPD1    H714007   0.882   0.114  17.388 -0.9523  0.4735  3.0711
    3TMC3    C114008   0.543   0.712  17.148 -0.0971 -0.3921 -0.6022
    3TMC3    C214009   0.516   0.838  17.109 -1.0891 -0.3613  0.0514
    3TMC3    C314010   0.388   0.875  17.111 -0.5214  0.1025 -0.5916
    3TMC3    C414011   0.447   0.621  17.175 -0.2123  0.3500 -0.0096
    3TMC3    C514012   0.318   0.661  17.169  0.0293  0.4110 -0.0727
    3TMC3    C614013   0.288   0.788  17.137  0.0616 -0.2873 -0.2304
    3TMC3     C14014   0.680   0.668  17.150 -0.1944  0.1763 -0.4361
    3TMC3     O14015   0.755   0.729  17.069 -0.2771 -0.0196  0.6574
    3TMC3     H14016   0.600   0.906  17.096 -0.9378 -0.7426 -1.0042
    3TMC3    H114017   0.467   0.523  17.215 -2.6811  0.6591  1.9808
    3TMC3    H214018   0.187   0.826  17.147 -0.4212 -1.1506 -2.0175
    3TMC3    C714019   0.211   0.564  17.190 -0.1002  0.7299 -0.5452
    3TMC3    C814020   0.341   1.009  17.066 -0.2758  0.5305 -0.0162
    3TMC3    O114021   0.253   0.467  17.253  0.2397 -0.3096  0.2319
    3TMC3    O214022   0.229   1.054  17.097  0.3737  0.1134 -0.3686
    4MPD1     C14023   0.408   1.448  16.807 -0.0111  0.0765  0.3633
    4MPD1    C114024   0.528   1.374  16.801  0.3812  0.8384 -0.2187
    4MPD1    C214025   0.538   1.250  16.863  0.0260  0.2978  0.4463
    4MPD1    C314026   0.426   1.197  16.928  0.7526  0.2745 -0.2389
    4MPD1    C414027   0.303   1.267  16.919 -0.7846 -0.0887 -0.7751
    4MPD1    C514028   0.305   1.391  16.867 -0.3161 -0.4901 -0.1044
    4MPD1     H14029   0.630   1.193  16.861 -0.8656 -1.0423 -1.7477
    4MPD1    H114030   0.209   1.233  16.959  0.9851 -2.0940  1.6647
    4MPD1    H214031   0.413   1.548  16.767  1.5060 -0.1333  0.0310
    4MPD1    H314032   0.216   1.448  16.889  0.5995  0.5954  0.8064
    4MPD1     N14033   0.435   1.066  16.983 -0.8883  0.3580  0.0930
    4MPD1    H514034   0.522   1.013  16.985 -1.6015 -0.8008 -0.1189
    4MPD1    N114035   0.644   1.422  16.734 -0.0342 -0.1023 -0.6877
    4MPD1    H614036   0.657   1.522  16.720 -2.3752  0.1752 -0.8133
    4MPD1    H714037   0.733   1.391  16.773 -0.6574 -0.2307  0.6357
    1TCq1    O114038   4.418   4.592  11.443  0.5782 -0.3178 -0.5094
    1TCq1    C114039   4.480   4.492  11.374  0.6731  0.5100  0.3012
    1TCq1    O214040   4.420   4.404  11.310  0.4376  0.6413  0.1977
    1TCq1    C214041   4.613   4.517  11.399  0.2162  0.1251 -0.1605
    1TCq1    C314042   4.660   4.646  11.377  0.7328 -0.2764 -1.3365
    1TCq1    C414043   0.069   4.664  11.347 -0.3677  0.3543 -0.0120
    1TCq1    C514044   0.154   4.562  11.357 -0.3649 -0.1079 -1.1790
    1TCq1    C614045   0.103   4.439  11.387 -0.6602 -0.1763  0.1568
    1TCq1    C714046   4.695   4.412  11.405 -0.0358  0.5156  0.3011
    1TCq1    C814047   0.190   4.323  11.397  0.3513 -0.2417 -0.6610
    1TCq1    O414048   0.147   4.209  11.397  0.4751  0.3394  0.1898
    1TCq1    C914049   0.105   0.060  11.268  0.4339 -0.7051  0.2830
    1TCq1    O514050   0.028   0.160  11.272  0.1732  0.4017  0.2664
    1TCq1    O614051   0.199   0.047  11.193  0.1645  0.1302  0.5081
    1TCq1    H114052   4.483   4.652  11.486  0.2768 -2.0989  2.4352
    1TCq1    H214053   4.591   4.723  11.343  0.4489  0.0162 -0.1114
    1TCq1    H314054   0.253   4.574  11.314 -0.6983  1.4910 -1.4978
    1TCq1    H414055   4.657   4.311  11.403 -0.1875  0.5512  1.6523
    2MPD1     C14056   0.653   4.127  11.502  0.0814 -0.5172 -0.3642
    2MPD1    C114057   0.658   4.261  11.514 -0.2298 -0.1363 -0.7602
    2MPD1    C214058   0.544   4.336  11.477  0.2944 -0.4959 -0.6282
    2MPD1    C314059   0.427   4.280  11.448  0.4926  0.2187  0.2224
    2MPD1    C414060   0.421   4.140  11.458  0.1639  0.0289 -0.1115
    2MPD1    C514061   0.536   4.066  11.477  0.2807  0.2835 -0.2641
    2MPD1     H14062   0.557   4.443  11.472 -3.2014  0.0060  1.1780
    2MPD1    H114063   0.335   4.078  11.435  0.2454 -0.2572  0.3461
    2MPD1    H214064   0.739   4.062  11.506  1.1667  0.7835 -2.4312
    2MPD1    H314065   0.537   3.959  11.461 -0.5252  0.4355 -1.3642
    2MPD1     N14066   0.318   4.366  11.421 -0.1578 -0.3483 -0.1572
    2MPD1    H514067   0.338   4.465  11.435 -0.0198 -0.2692 -0.9060
    2MPD1    N114068   0.777   4.332  11.526  0.3909  0.6524  0.1238
    2MPD1    H614069   0.843   4.283  11.586 -0.9429  0.0737  1.1436
    2MPD1    H714070   0.762   4.427  11.559 -1.7180  0.4812 -0.3090
    1TCq1    O114071   3.151   1.260   0.770 -0.5107 -0.0167 -0.2183
    1TCq1    C114072   3.124   1.344   0.874 -0.2237 -0.1710 -0.3318
    1TCq1    O214073   3.040   1.432   0.880  0.2441 -0.2131 -0.3619
    1TCq1    C214074   3.136   1.246   0.978 -0.2625 -0.3912  0.1077
    1TCq1    C314075   3.258   1.190   1.004  0.2446  0.5727 -0.3771
    1TCq1    C414076   3.264   1.102   1.113 -0.4406 -0.8555 -0.1879
    1TCq1    C514077   3.147   1.039   1.149  0.3484  0.0033 -0.6544
    1TCq1    C614078   3.028   1.084   1.105  0.0597 -0.5363 -0.2590
    1TCq1    C714079   3.021   1.196   1.030  0.0286  0.3264 -0.0024
    1TCq1    C814080   2.927   0.987   1.074 -0.3682 -0.4226  0.4775
    1TCq1    O414081   2.818   1.029   1.030  0.2832 -0.1598 -0.6309
    1TCq1    C914082   3.391   1.054   1.151 -0.8045  0.0465 -0.5575
    1TCq1    O514083   3.387   0.935   1.187 -0.2266  0.3539  0.4924
    1TCq1    O614084   3.498   1.110   1.116 -0.7997 -0.0877  0.3270
    1TCq1    H114085   3.215   1.192   0.801 -1.8781 -0.4750  1.6299
    1TCq1    H214086   3.350   1.238   0.971  0.1036  1.2441  0.1941
    1TCq1    H314087   3.146   0.958   1.222 -1.3690  2.5406  2.1684
    1TCq1    H414088   2.922   1.221   0.992  0.7477  1.8890 -0.8425
    2MPD1     C14089   2.771   0.504   1.012  0.5276 -0.4816 -0.7835
    2MPD1    C114090   2.912   0.507   1.014 -0.3331 -0.1347 -0.4199
    2MPD1    C214091   2.977   0.629   1.027  0.1584  0.1181 -0.2675
    2MPD1    C314092   2.901   0.743   1.053 -0.9454 -0.5230  0.1963
    2MPD1    C414093   2.761   0.735   1.063 -0.7126  0.0372  0.0635
    2MPD1    C514094   2.702   0.615   1.041 -0.1490 -0.0525  0.5568
    2MPD1     H14095   3.084   0.641   1.014 -0.2955  1.9482 -2.2741
    2MPD1    H114096   2.702   0.824   1.080  3.5380  2.8310  0.2587
    2MPD1    H214097   2.711   0.415   1.000 -1.0794  0.6720 -1.2389
    2MPD1    H314098   2.593   0.610   1.040 -0.1354 -0.4261  0.9754
    2MPD1     N14099   2.978   0.858   1.072  0.3833 -0.1252  0.9159
    2MPD1    H514100   3.079   0.849   1.078  0.2820 -0.7120  1.8896
    2MPD1    N114101   2.982   0.387   0.985 -0.1302 -0.0436 -0.4171
    2MPD1    H614102   3.083   0.385   0.997 -0.1038 -0.5726 -0.7031
    2MPD1    H714103   2.937   0.298   1.007 -0.7911  0.8758  2.0600
    1MPD1     C14104   1.845   4.238  11.501 -0.1439  0.3535 -0.0328
    1MPD1    C114105   1.823   4.280  11.632  0.0289  0.2418  0.0788
    1MPD1    C214106   1.890   4.395  11.675 -0.0108  0.3931  0.2531
    1MPD1    C314107   1.962   4.478  11.589 -0.0424 -0.8665 -0.2026
    1MPD1    C414108   1.976   4.436  11.457 -0.9059  0.8658  0.4901
    1MPD1    C514109   1.920   4.320  11.420  0.3204  0.1011  0.5180
    1MPD1     H14110   1.875   4.437  11.774 -4.5109 -3.8152  1.3805
    1MPD1    H114111   2.019   4.499  11.379 -1.1544  1.3453  0.7371
    1MPD1    H214112   1.811   4.141  11.466 -0.3863  0.6536 -0.6156
    1MPD1    H314113   1.935   4.282  11.320 -2.4693 -1.2819  0.6158
    1MPD1     N14114   2.028   4.595  11.635 -0.8469  0.1687 -0.4456
    1MPD1    H514115   1.997   4.627  11.726 -0.3668 -1.9006  0.4509
    1MPD1    N114116   1.773   4.183  11.728 -0.2352  0.0156 -0.3410
    1MPD1    H614117   1.842   4.122  11.771 -1.5458 -1.8917 -0.9692
    1MPD1    H714118   1.709   4.122  11.677  1.1707 -1.9388  0.2776
    2MPD1     C14119   1.736   0.142  11.493 -0.2846  0.1055  0.9528
    2MPD1    C114120   1.723   0.016  11.436  0.3738 -0.1385  0.3310
    2MPD1    C214121   1.816   4.702  11.343 -0.1025  0.1223 -0.7727
    2MPD1    C314122   1.919   0.061  11.303 -0.2098  0.5591  0.1571
    2MPD1    C414123   1.926   0.191  11.367 -0.3175 -0.4072  0.2003
    2MPD1    C514124   1.837   0.228  11.458  0.4041 -0.2275  1.2844
    2MPD1     H14125   1.810   4.606  11.293  3.5325  0.3793 -1.6402
    2MPD1    H114126   2.014   0.253  11.357 -1.0990  0.7561  0.5775
    2MPD1    H214127   1.670   0.179  11.571  1.1465  1.4457  1.5361
    2MPD1    H314128   1.864   0.321  11.505  2.8016 -0.4592  0.3858
    2MPD1     N14129   2.014   0.032  11.205  0.1424 -0.4275  0.1859
    2MPD1    H514130   2.082   0.106  11.191  2.0670 -2.1940  0.2015
    2MPD1    N114131   1.622   4.654  11.474  0.2321  0.0259 -0.2609
    2MPD1    H614132   1.583   4.594  11.402  0.1284 -2.4826  1.8897
    2MPD1    H714133   1.544   4.700  11.522 -0.4653 -0.5912 -0.8068
    3MPD1     C14134   2.507   4.065  10.542  0.4314  0.2232  0.2729
    3MPD1    C114135   2.583   4.108  10.647  0.6270 -0.2976 -0.6489
    3MPD1    C214136   2.537   4.218  10.716 -0.8293 -0.0972  0.5794
    3MPD1    C314137   2.415   4.280  10.683  0.6029  0.8373 -0.2174
    3MPD1    C414138   2.352   4.243  10.575  0.3592  0.3205 -0.2754
    3MPD1    C514139   2.401   4.141  10.494 -0.2950 -0.5269  0.2608
    3MPD1     H14140   2.595   4.251  10.801  1.5838 -2.2736 -0.1977
    3MPD1    H114141   2.263   4.297  10.546 -0.7129 -0.6713  1.1787
    3MPD1    H214142   2.536   3.975  10.488 -1.1049 -0.4844  0.6155
    3MPD1    H314143   2.346   4.099  10.410 -0.3151  0.3963 -0.1875
    3MPD1     N14144   2.369   4.376  10.772 -0.5653  0.8128  0.5925
    3MPD1    H514145   2.424   4.411  10.850  1.6935  0.7073 -0.9565
    3MPD1    N114146   2.680   4.020  10.703 -0.2537  0.0936 -0.0651
    3MPD1    H614147   2.738   4.076  10.765  0.2210 -0.3715 -0.0833
    3MPD1    H714148   2.741   3.979  10.632  0.0829  2.2983 -1.0402
    4MPD2     C14149   2.014   0.589  11.510 -0.6879  0.7960  0.1083
    4MPD2    C114150   2.137   0.552  11.558 -0.1411  0.5435  0.8167
    4MPD2    C214151   2.246   0.614  11.507  1.0169 -0.4299 -0.1152
    4MPD2    C314152   2.232   0.694  11.395 -0.8638 -0.1263 -0.1674
    4MPD2    C414153   2.112   0.726  11.339 -0.4390  0.3498  0.0333
    4MPD2    C514154   2.001   0.677  11.413 -0.1418  0.0199  0.3491
    4MPD2     H14155   2.344   0.593  11.548  1.5231  1.5741 -0.2863
    4MPD2    H114156   2.104   0.778  11.244 -1.5870 -2.8291 -1.5897
    4MPD2    H214157   1.922   0.544  11.546  0.4417 -0.1332  1.8369
    4MPD2    H314158   1.904   0.691  11.366  0.2640 -0.5211 -0.6504
    4MPD2     N14159   2.347   0.740  11.323  0.3333 -0.5462 -0.6411
    4MPD2    H514160   2.327   0.802  11.245  0.2769 -1.2199 -1.1557
    4MPD2    N114161   2.164   0.448  11.654  0.3407  0.4128 -0.4018
    4MPD2    H714162   2.262   0.427  11.671  0.2371  0.5404  0.3715
    5TMC3    C114163   2.143   0.249  11.765 -0.2924 -0.0209 -0.0511
    5TMC3    C214164   2.090   0.136  11.702 -0.0747  0.0507  0.3283
    5TMC3    C314165   2.174   0.052  11.637  0.3010 -0.1655  0.1221
    5TMC3    C414166   2.277   0.264  11.768 -0.8114  0.4444  0.9821
    5TMC3    C514167   2.354   0.180  11.692  0.8765  0.4118 -0.9815
    5TMC3    C614168   2.307   0.068  11.625 -0.9061  1.0108  0.1379
    5TMC3     C14169   2.075   0.372  11.719 -0.2430 -0.1122 -0.1169
    5TMC3     O14170   1.951   0.371  11.706 -0.9100 -0.3033  0.4549
    5TMC3     H14171   1.985   0.124  11.678 -0.2626  1.1706  0.6025
    5TMC3    H114172   2.325   0.343  11.825  0.0083  0.4590  0.2623
    5TMC3    H214173   2.367   0.002  11.563  1.0720  2.0340  0.9417
    5TMC3    C714174   2.468   0.255  11.637  0.5736 -0.2807  0.2544
    5TMC3    C814175   2.134   4.654  11.570 -0.2340  0.0272 -0.0123
    5TMC3    O114176   2.457   0.379  11.653  0.3102  0.3813  0.6163
    5TMC3    O214177   2.202   4.623  11.470  0.1481  0.5359 -0.2123
    6TMC3    C114178   2.138   4.652  11.035  0.2458 -0.4924  0.0650
    6TMC3    C214179   2.152   4.541  10.959 -0.2264 -0.1364  0.7823
    6TMC3    C314180   2.248   4.544  10.864  0.7262 -0.0351  1.1786
    6TMC3    C414181   2.225   0.033  11.025  0.5964 -0.1749  0.3652
    6TMC3    C514182   2.320   0.034  10.928  0.2307  0.2791  0.0401
    6TMC3    C614183   2.335   4.651  10.850  0.4215 -0.2614 -0.0510
    6TMC3     C14184   2.021   4.647  11.119  0.5144  0.3957 -0.4362
    6TMC3     O14185   1.931   4.564  11.103  0.3415 -0.1802 -0.7151
    6TMC3     H14186   2.081   4.460  10.971  0.4814 -1.3189 -3.1445
    6TMC3    H114187   2.217   0.110  11.101 -0.8850  0.9874 -0.9597
    6TMC3    H214188   2.391   4.645  10.757 -1.6372 -1.3120 -1.2233
    6TMC3    C714189   2.375   0.159  10.891  0.1555 -0.1300 -0.0351
    6TMC3    C814190   2.246   4.435  10.762 -0.8523 -0.3363 -0.3841
    6TMC3    O114191   2.333   0.257  10.952  0.1941 -0.1270  0.0137
    6TMC3    O214192   2.140   4.406  10.715  0.3851  0.0571  0.0251
    7MPD2     C14193   2.882   0.318  11.335 -0.1770 -0.1755  0.0262
    7MPD2    C114194   2.775   0.402  11.355  0.5720 -0.3172 -0.1210
    7MPD2    C214195   2.668   0.355  11.432 -0.2699 -1.1630  0.3672
    7MPD2    C314196   2.658   0.222  11.477  0.5904 -0.7026 -0.6432
    7MPD2    C414197   2.754   0.142  11.430  0.1224 -0.1768 -0.0396
    7MPD2    C514198   2.869   0.189  11.375 -0.1734 -0.1899  0.0290
    7MPD2     H14199   2.585   0.421  11.453  0.1038 -1.4032  2.6462
    7MPD2    H114200   2.766   0.044  11.476 -1.5595 -1.8648 -3.2152
    7MPD2    H214201   2.977   0.344  11.290 -0.8383  1.9844 -0.1289
    7MPD2    H314202   2.951   0.119  11.366 -0.6018 -0.5848 -0.8299
    7MPD2     N14203   2.557   0.178  11.570  0.0127  0.3722 -0.0514
    7MPD2    H514204   2.550   0.077  11.581  0.2104  0.3321 -0.2918
    7MPD2    N114205   2.768   0.537  11.314  0.2624 -0.8658  0.5147
    7MPD2    H714206   2.684   0.587  11.341  0.4064 -0.9880  1.1839
    8TMC3    C114207   2.794   0.735  11.207  0.4323  0.0426  0.0227
    8TMC3    C214208   2.757   0.737  11.072  0.0086  0.0468 -0.0164
    8TMC3    C314209   2.626   0.766  11.038 -0.2655  0.2602  0.0049
    8TMC3    C414210   2.699   0.770  11.297  0.9028 -0.2395 -0.0802
    8TMC3    C514211   2.572   0.790  11.267 -0.1931  0.0837 -0.1638
    8TMC3    C614212   2.536   0.794  11.134 -0.4869  0.1527  0.6639
    8TMC3     C14213   2.859   0.603  11.240 -0.2233  0.3337 -0.4219
    8TMC3     O14214   2.947   0.572  11.162 -0.1946 -0.7597  0.5043
    8TMC3     H14215   2.824   0.694  10.999 -0.0593  0.1492 -0.1384
    8TMC3    H114216   2.721   0.757  11.402 -0.7279  0.3276  0.3267
    8TMC3    H214217   2.432   0.805  11.106 -0.2977 -1.7221 -0.7210
    8TMC3    C714218   2.476   0.737  11.367  0.3647 -0.1967  0.2366
    8TMC3    C814219   2.560   0.675  10.946  0.6892 -0.2844  0.3005
    8TMC3    O114220   2.518   0.695  11.470  0.0983 -0.4337  0.1707
    8TMC3    O214221   2.457   0.626  10.995 -0.6171  0.4907  0.2995
    9MPD2     C14222   2.736   0.457  10.692 -0.4003 -0.2212  0.6969
    9MPD2    C114223   2.632   0.494  10.777  0.6029  0.4919 -0.0735
    9MPD2    C214224   2.541   0.395  10.814 -0.0601 -0.0057 -0.1074
    9MPD2    C314225   2.557   0.261  10.767 -0.0482  0.1717 -0.1590
    9MPD2    C414226   2.655   0.234  10.661  0.2934  0.8930 -0.1423
    9MPD2    C514227   2.737   0.341  10.619  1.0856 -0.1482  0.0109
    9MPD2     H14228   2.474   0.416  10.897 -0.1703  1.0015 -0.4524
    9MPD2    H114229   2.679   0.139  10.615  0.1856  0.4019  0.8131
    9MPD2    H214230   2.812   0.531  10.671 -0.8262  0.5156  1.7737
    9MPD2    H314231   2.815   0.311  10.550  0.5293 -1.8028  0.0788
    9MPD2     N14232   2.477   0.153  10.804 -0.1457 -0.0893  0.3347
    9MPD2    H514233   2.517   0.062  10.785 -3.7034 -0.9608 -2.8963
    9MPD2    N114234   2.637   0.624  10.836 -0.1498 -0.4683 -0.1533
    9MPD2    H714235   2.710   0.683  10.798 -0.4240 -0.4863 -0.7221
    1MPD1     C14236   2.164   4.192  16.846  0.8906  0.3134  0.0319
    1MPD1    C114237   2.118   4.115  16.745 -0.7851  0.2387 -0.1264
    1MPD1    C214238   2.070   4.179  16.632 -0.5708  0.1145  0.3701
    1MPD1    C314239   2.081   4.317  16.621 -0.4918  0.2666 -0.8815
    1MPD1    C414240   2.141   4.383  16.720 -0.1708  0.2491  0.8864
    1MPD1    C514241   2.188   4.324  16.834 -0.2456  0.5212  0.1597
    1MPD1     H14242   2.028   4.116  16.555  1.0960 -1.1572  0.4943
    1MPD1    H114243   2.151   4.490  16.707  0.6293  0.1672  0.8188
    1MPD1    H214244   2.213   4.146  16.931 -0.2049  1.3759  1.2212
    1MPD1    H314245   2.236   4.392  16.904  1.0177 -1.5102  1.2460
    1MPD1     N14246   2.033   4.393  16.507 -0.1465 -0.2301 -0.0545
    1MPD1    H514247   2.065   4.489  16.507  2.1992 -1.0203 -2.3235
    1MPD1    N114248   2.117   3.976  16.756  0.6391 -0.0077 -0.1455
    1MPD1    H614249   2.195   3.960  16.820 -0.1456  3.1287  1.5819
    1MPD1    H714250   2.133   3.928  16.667  1.3744 -1.5203  0.7975
    2MPD1     C14251   1.953   0.595  16.161 -0.5237  0.1497  0.2785
    2MPD1    C114252   1.932   0.508  16.052  0.1352  0.4858 -0.5127
    2MPD1    C214253   1.923   0.373  16.060  0.4538 -0.2675  0.0712
    2MPD1    C314254   1.924   0.310  16.182  0.6769 -0.4142  0.1058
    2MPD1    C414255   1.946   0.388  16.296 -0.1711 -0.4557 -0.2206
    2MPD1    C514256   1.953   0.525  16.285  0.1834 -0.2091  0.1255
    2MPD1     H14257   1.925   0.322  15.964  1.1723  1.4946 -0.8399
    2MPD1    H114258   1.949   0.341  16.394 -0.9622  1.0823  0.5416
    2MPD1    H214259   1.964   0.702  16.149 -1.5207  0.1095 -1.0187
    2MPD1    H314260   1.979   0.584  16.372  0.7507 -0.0037 -0.1792
    2MPD1     N14261   1.911   0.165  16.176  0.9681  0.2785  0.0953
    2MPD1    H514262   1.901   0.122  16.084 -0.8741  0.4185  0.2175
    2MPD1    N114263   1.951   0.564  15.926  0.2281  1.0161  0.4235
    2MPD1    H614264   1.893   0.507  15.865  1.4414  0.4801 -0.2102
    2MPD1    H714265   1.922   0.662  15.920  2.5105  1.5406 -1.9989
    3TCq2    C114266   1.909   0.083  16.285 -0.0032  0.0295 -0.6905
    3TCq2    O214267   1.899   0.113  16.402  0.2349 -0.0761  0.1616
    3TCq2    C214268   1.898   4.665  16.250  1.3113 -0.7826 -0.2395
    3TCq2    C314269   1.861   4.633  16.120 -0.0022  0.6718  0.7341
    3TCq2    C414270   1.868   4.500  16.083 -0.3865  0.6560  0.2802
    3TCq2    C514271   1.914   4.402  16.168 -0.1829 -0.3110 -0.4281
    3TCq2    C614272   1.971   4.445  16.290 -0.4439 -1.1935 -1.0961
    3TCq2    C714273   1.962   4.577  16.328  0.5142  0.9346  0.2720
    3TCq2    C814274   1.983   4.346  16.391 -0.0679  0.0941 -0.4730
    3TCq2    O414275   1.934   4.238  16.369  0.2283 -0.0417 -0.3295
    3TCq2    C914276   1.806   4.465  15.955 -0.1471  0.0105  0.0469
    3TCq2    O514277   1.699   4.529  15.917  0.1439 -0.0409 -0.0596
    3TCq2    O614278   1.815   4.342  15.925 -0.0425  0.4790  0.0402
    3TCq2    H214279   1.829   4.708  16.049  2.2549  1.2083  0.2858
    3TCq2    H314280   1.914   4.299  16.135 -0.2025 -1.4011  2.9722
    3TCq2    H414281   1.976   4.615  16.428  0.3364  0.1528  0.5965
    1TCq1    O114282   0.045   2.838  12.928 -0.2166  0.3739 -0.0733
    1TCq1    C114283   0.094   2.961  12.945 -0.0014 -0.1262  0.3194
    1TCq1    O214284   0.058   3.061  12.881 -0.3903 -0.0919 -0.0597
    1TCq1    C214285   0.117   2.971  13.090  0.5510  0.0125  0.5358
    1TCq1    C314286   0.026   2.914  13.179 -0.5086 -0.6630  1.1610
    1TCq1    C414287   0.045   2.912  13.319 -0.3438 -0.4272 -0.0416
    1TCq1    C514288   0.160   2.978  13.370  0.7986 -0.1728 -0.5291
    1TCq1    C614289   0.255   3.018  13.279 -0.6589  0.0565  0.3269
    1TCq1    C714290   0.234   3.031  13.142 -0.3567  0.3657 -0.2707
    1TCq1    C814291   0.398   3.030  13.304  0.0471  0.5991 -0.2964
    1TCq1    O414292   0.473   3.099  13.233  0.2779 -0.0183 -0.5687
    1TCq1    C914293   4.679   2.837  13.405 -0.9919 -0.1654  0.3366
    1TCq1    O514294   4.597   2.766  13.346 -0.1903  0.1827  0.6448
    1TCq1    O614295   4.686   2.857  13.530  0.2054  0.4321  0.4440
    1TCq1    H114296   0.088   2.781  12.994 -1.1893 -0.4308 -0.1306
    1TCq1    H214297   4.658   2.882  13.133  0.5540  0.1612 -1.5627
    1TCq1    H314298   0.179   2.977  13.476 -0.1746  1.0336 -0.3458
    1TCq1    H414299   0.319   3.052  13.078  1.3370  1.7930  2.4485
    2MPD2     C14300   0.677   2.936  13.367 -0.0829 -0.4331 -0.4061
    2MPD2    C114301   0.571   2.930  13.453 -0.2142 -0.2580 -0.1415
    2MPD2    C214302   0.594   2.891  13.582 -0.0879  0.4731 -0.1627
    2MPD2    C314303   0.718   2.848  13.618 -0.7487 -0.0327 -0.0021
    2MPD2    C414304   0.823   2.851  13.528 -0.5765 -0.8139 -0.3027
    2MPD2    C514305   0.802   2.889  13.399  0.5427 -0.0314  0.3124
    2MPD2     H14306   0.512   2.887  13.653  1.8950  0.3425  2.1289
    2MPD2    H114307   0.923   2.823  13.557  0.1190  2.4098  0.3647
    2MPD2    H214308   0.663   2.968  13.264  0.4508 -0.3944 -0.4672
    2MPD2    H314309   0.878   2.887  13.322  1.7387  1.2754  1.4547
    2MPD2     N14310   0.734   2.812  13.756  0.4763 -0.3640 -0.4446
    2MPD2    H514311   0.666   2.842  13.826  1.3122  1.2348 -0.3111
    2MPD2    N114312   0.439   2.964  13.418  0.1347  0.0101 -1.0488
    2MPD2    H714313   0.373   2.927  13.485  1.4262 -1.3720 -0.5291
    3TCq1    O114314   0.874   2.959  14.341 -0.2684  0.6839 -0.2232
    3TCq1    C114315   0.937   2.945  14.226 -0.2940  0.7349 -0.0965
    3TCq1    O214316   1.030   3.016  14.179  0.3028 -0.2736  0.4649
    3TCq1    C214317   0.872   2.833  14.160  0.5877 -0.0961 -0.0534
    3TCq1    C314318   0.867   2.705  14.218  0.4896  0.4528 -0.3770
    3TCq1    C414319   0.838   2.596  14.137 -0.5002 -0.1823 -0.5651
    3TCq1    C514320   0.829   2.614  14.000 -0.0530 -0.7063 -0.3728
    3TCq1    C614321   0.831   2.741  13.951 -0.0692 -0.5992 -0.1687
    3TCq1    C714322   0.852   2.853  14.029  0.0879 -0.9831  0.2173
    3TCq1    C814323   0.850   2.760  13.804  0.5805  0.0526  0.5448
    3TCq1    O414324   0.920   2.674  13.752 -0.4876  0.5047  0.0543
    3TCq1    C914325   0.822   2.463  14.192 -0.2439  1.0102 -0.5618
    3TCq1    O514326   0.857   2.377  14.108 -0.3164  0.2985 -0.3774
    3TCq1    O614327   0.776   2.453  14.307 -0.0773 -0.5084 -0.5262
    3TCq1    H114328   0.798   2.898  14.353  1.7623 -1.2269  2.8205
    3TCq1    H214329   0.889   2.683  14.322  0.2573  3.0737  0.2232
    3TCq1    H314330   0.819   2.531  13.931 -1.2213 -0.3524 -0.6371
    3TCq1    H414331   0.877   2.946  13.978 -1.7481  0.2749  1.6310
    1MPD2     C14332   3.461   3.807  15.067 -0.0944  0.5499 -0.6079
    1MPD2    C114333   3.423   3.917  15.143 -0.6566 -0.7648  0.5820
    1MPD2    C214334   3.467   3.921  15.275  0.1172  0.4201  0.0526
    1MPD2    C314335   3.549   3.834  15.337 -0.4089  0.1804  0.1118
    1MPD2    C414336   3.596   3.732  15.256 -0.4298 -0.3966 -0.2827
    1MPD2    C514337   3.549   3.722  15.124  0.1223 -0.1243 -0.3758
    1MPD2     H14338   3.442   4.014  15.323  0.4925  0.2959  0.4839
    1MPD2    H114339   3.650   3.647  15.296 -0.2852 -0.1066  0.1363
    1MPD2    H214340   3.431   3.793  14.964 -3.1499 -1.0751  0.5019
    1MPD2    H314341   3.580   3.638  15.063 -1.5577 -0.4115 -0.8447
    1MPD2     N14342   3.599   3.844  15.466  1.0665  0.0348 -0.2522
    1MPD2    H514343   3.681   3.788  15.487  0.6728 -0.2488  0.5117
    1MPD2    N114344   3.347   4.016  15.072  0.0210  0.1619 -0.7706
    1MPD2    H714345   3.325   4.002  14.974 -1.5170 -0.5155 -0.3268
    2TMC3    C114346   3.238   4.226  15.028 -0.7013 -0.0734  1.0053
    2TMC3    C214347   3.231   4.340  15.100  0.9283  0.1331  0.3213
    2TMC3    C314348   3.310   4.454  15.073 -0.2085 -0.9503 -0.0068
    2TMC3    C414349   3.318   4.230  14.913 -0.2451 -0.3135  0.2777
    2TMC3    C514350   3.400   4.337  14.893 -0.6657  0.3384  0.1337
    2TMC3    C614351   3.393   4.453  14.966 -0.2218 -0.9069 -0.4449
    2TMC3     C14352   3.282   4.124  15.129  0.4030  0.2024  0.2669
    2TMC3     O14353   3.282   4.160  15.251 -0.6551  0.4490  0.1727
    2TMC3     H14354   3.175   4.346  15.193  0.2103  0.8502 -0.1521
    2TMC3    H114355   3.315   4.148  14.843  2.1596  0.1288 -0.3526
    2TMC3    H214356   3.454   4.540  14.945  0.2323 -0.4286  2.8890
    2TMC3    C714357   3.519   4.310  14.809 -0.4025 -0.4307 -0.2904
    2TMC3    C814358   3.378   4.500  15.184 -0.0989 -0.2619 -0.4273
    2TMC3    O114359   3.530   4.201  14.747  0.3392  0.5971  0.1574
    2TMC3    O214360   3.463   4.587  15.171  0.2102  0.1805 -0.2692
    3TCq1    O114361   4.480   0.343  14.677  0.3587 -0.5259  1.1005
    3TCq1    C114362   4.363   0.399  14.635 -0.1385 -0.3065  0.3742
    3TCq1    O214363   4.350   0.498  14.567  0.1563  0.1143  0.0158
    3TCq1    C214364   4.251   0.307  14.650  0.4493 -0.3237 -0.5931
    3TCq1    C314365   4.138   0.383  14.678  0.3132  0.2751 -0.1922
    3TCq1    C414366   4.041   0.323  14.745  0.3423 -0.0434 -0.0420
    3TCq1    C514367   4.050   0.191  14.775  0.7815  0.3393 -0.5143
    3TCq1    C614368   4.160   0.116  14.741 -0.5983  0.0447  0.1596
    3TCq1    C714369   4.270   0.181  14.690  0.3324  0.3633  0.5898
    3TCq1    C814370   4.132   4.699  14.708 -0.4872  0.2073 -0.6195
    3TCq1    O414371   4.222   4.639  14.653 -0.2846 -0.1540 -0.1093
    3TCq1    C914372   3.921   0.398  14.776 -0.1101  0.2849 -0.0172
    3TCq1    O514373   3.922   0.517  14.741 -0.1351  0.3387 -0.0085
    3TCq1    O614374   3.836   0.343  14.855  0.6302 -0.5076  0.0610
    3TCq1    H114375   4.464   0.277  14.747 -1.0457 -0.6112  0.6884
    3TCq1    H214376   4.122   0.485  14.644  1.1911  1.1391  1.9402
    3TCq1    H314377   3.958   0.158  14.823  2.4553  0.6088  2.7823
    3TCq1    H414378   4.349   0.120  14.647  0.8618  0.6449  1.1505
    4MPD2     C14379   4.014   4.406  14.712 -0.0826  0.0533 -0.3448
    4MPD2    C114380   3.954   4.522  14.754  0.6193 -0.0101 -0.2152
    4MPD2    C214381   3.820   4.522  14.794  0.5352 -0.5579  0.9350
    4MPD2    C314382   3.749   4.406  14.781  0.1543 -0.4076  0.6799
    4MPD2    C414383   3.809   4.285  14.739 -0.1893 -0.4292 -0.5531
    4MPD2    C514384   3.938   4.292  14.697 -0.0306 -0.5104 -0.5791
    4MPD2     H14385   3.767   4.607  14.834  0.2368 -0.7421  0.9335
    4MPD2    H114386   3.760   4.188  14.732 -1.0538  0.0405 -1.0279
    4MPD2    H214387   4.116   4.409  14.675 -0.1812 -1.2564 -0.7452
    4MPD2    H314388   3.987   4.204  14.655  1.5825  0.4016 -0.6394
    4MPD2     N14389   3.612   4.410  14.822 -0.2687 -0.4928  0.3935
    4MPD2    H514390   3.587   4.490  14.881  0.0808  1.6130 -2.3032
    4MPD2    N114391   4.015   4.652  14.766  0.3490  0.0128 -0.2640
    4MPD2    H714392   3.957   4.714  14.821  2.5434  0.6455  1.3177
    5TMC2    C114393   3.694   4.123  15.826  0.5163  0.2819  0.3339
    5TMC2    C214394   3.827   4.095  15.822  0.0791  0.0171  0.0452
    5TMC2    C314395   3.864   3.992  15.746  0.4681 -0.2079 -0.3564
    5TMC2    C414396   3.600   4.032  15.777  0.3329  0.9644  0.0322
    5TMC2    C514397   3.632   3.935  15.689 -1.1533  0.2487  0.5246
    5TMC2    C614398   3.769   3.918  15.677  0.7166 -0.0968 -0.5945
    5TMC2     C14399   3.658   4.260  15.801  0.8675 -0.7336  0.3557
    5TMC2     O14400   3.739   4.349  15.834  0.1976 -0.1362 -0.2476
    5TMC2     H14401   3.894   4.171  15.861  2.5569 -1.1354 -1.9816
    5TMC2    H114402   3.494   4.039  15.801  0.3285  0.0975  0.2415
    5TMC2    H214403   3.809   3.855  15.599  0.4172 -3.5256  2.0022
    5TMC2    C714404   3.549   3.929  15.570  0.0896 -0.2087  0.2580
    5TMC2    C814405   4.002   3.962  15.727  0.6233 -0.1228  0.0547
    5TMC2    O114406   3.468   4.023  15.560 -0.1566 -0.1400 -0.9871
    5TMC2    O214407   4.065   3.941  15.830  0.1760  0.0732  0.1069
    5TMC2    O514408   4.046   4.024  15.616 -0.1273  0.6618  0.7977
    5TMC2    H514409   3.974   4.056  15.559  1.7138  0.5733 -1.5697
    6MPD2     C14410   3.460   4.581  15.454  0.0218 -0.0517  0.3602
    6MPD2    C114411   3.418   4.451  15.422  0.2016  0.3754 -0.4030
    6MPD2    C214412   3.450   4.348  15.510  0.0014 -0.6823  0.2081
    6MPD2    C314413   3.520   4.371  15.628  0.1163  0.1437  0.6654
    6MPD2    C414414   3.550   4.501  15.664  0.2055  0.4606  0.4033
    6MPD2    C514415   3.519   4.604  15.578  0.4153  0.7121  0.8694
    6MPD2     H14416   3.419   4.246  15.491  0.1406 -0.4978 -1.0018
    6MPD2    H114417   3.604   4.518  15.756  0.1344 -0.9372  0.7044
    6MPD2    H214418   3.436   4.671  15.399  1.0794 -1.0753 -1.7686
    6MPD2    H314419   3.542   4.709  15.592 -3.3688  1.5405  0.9144
    6MPD2     N14420   3.560   4.262  15.702  0.1160  0.3959  0.2296
    6MPD2    H514421   3.522   4.173  15.672  0.5131  0.3714 -0.1985
    6MPD2    N114422   3.361   4.421  15.301 -0.3229 -0.2176 -0.3506
    6MPD2    H714423   3.328   4.326  15.292  0.0026 -0.2191 -1.4758
  945NH4     N114424   0.333   1.448  11.895  0.1918  0.0511 -0.2113
  945NH4     H214425   0.241   1.433  11.848 -0.0824  0.7584  0.0879
  945NH4     H314426   0.327   1.402  11.988 -0.2249  1.8521  0.6542
  945NH4     H414427   0.356   1.547  11.915 -3.9175  0.5015  2.3222
  945NH4     H514428   0.412   1.399  11.849 -0.5724 -2.5111  1.2002
  946SOD     NA14429   0.270   3.037  17.594  0.1418 -0.7017  0.0832
  947SOD     NA14430   2.981   1.966  15.418  0.0506  0.0234  0.2874
  948SOD     NA14431   0.146   4.375   8.978 -0.4889 -0.1278 -0.5150
  949SOD     NA14432   0.941   1.498  16.977 -0.4657 -0.1950  0.0010
  950SOD     NA14433   1.544   4.196   5.230 -0.1464 -0.2444 -0.1097
  951SOD     NA14434   4.226   2.517  11.400 -0.5633 -0.3674 -0.5598
  952SOD     NA14435   0.071   0.411  12.575  0.1229  0.5868 -0.4298
  953SOD     NA14436   3.140   3.561   4.897 -0.2032  0.2127 -0.2011
  954SOD     NA14437   2.304   1.393  12.625  0.2884 -0.2475 -0.0426
  955SOD     NA14438   3.098   0.001   5.006  0.2062 -0.3376 -0.0717
  956SOD     NA14439   4.240   2.519  13.500 -0.0482 -0.2580  0.8753
  957SOD     NA14440   1.112   4.086  11.712  0.7569  0.3741 -0.1456
  958SOD     NA14441   4.002   1.552  15.015 -0.0699 -0.0732  0.0776
  959SOD     NA14442   0.356   4.691  11.081  0.1041  0.6151 -0.1770
  960SOD     NA14443   1.828   4.626  13.852  0.5884  0.1179  0.4282
  961SOD     NA14444   3.595   0.920   1.236  0.0454  0.1958 -0.3255
  962SOD     NA14445   4.299   4.404  11.127  0.1641 -0.5322  0.1135
  963SOD     NA14446   1.367   3.145  11.670 -0.3892  0.1110  0.3302
  964SOD     NA14447   0.885   3.163  11.922  0.3008  0.2652  0.3346
  965SOD     NA14448   0.158   0.242  11.108 -0.1875  0.0718  0.0856
  966SOD     NA14449   2.523   0.250   4.818  0.1085  0.0922  0.1720
  967SOD     NA14450   0.596   1.687   6.248  0.3276 -0.1067 -0.5512
  968SOD     NA14451   1.516   4.665   8.996  0.2064  0.6726 -0.1019
  969SOD     NA14452   4.608   2.897  13.715  0.3764 -0.0507  0.1343
  970SOD     NA14453   4.666   0.624  11.497  0.1663  0.3049  0.1883
  971SOD     NA14454   0.614   2.647  11.960  0.0045  0.0658  0.1714
  972SOD     NA14455   2.085   4.137  15.279 -0.0501  0.1556  0.0221
  973SOD     NA14456   2.233   1.942   0.817 -0.1766  0.3570  0.3465
  974SOD     NA14457   3.485   0.263   7.628 -0.5511 -0.0374 -0.3415
  975SOD     NA14458   4.654   2.898  10.218 -0.5030 -0.0276 -0.1897
  976SOD     NA14459   2.764   2.298  13.495 -0.4211 -0.0093 -0.0197
  977SOD     NA14460   1.806   4.039  15.623 -0.6471  0.2142 -0.1012
  978SOD     NA14461   0.874   2.808  11.879  0.0276  0.3918 -0.3798
  979SOD     NA14462   1.806   3.508   1.856  0.1851  0.2539 -0.1819
  980SOD     NA14463   1.561   4.663  15.788  0.1656  0.3229 -0.3891
  981SOD     NA14464   0.093   0.332  11.382  0.5942  0.1631  0.3198
  982SOD     NA14465   3.421   2.477  11.553  0.0397 -0.4296 -0.4558
  983SOD     NA14466   1.621   4.397   8.592  0.0317 -0.2924 -0.3281
  984SOD     NA14467   2.970   3.821   0.779 -0.0681 -0.0381 -0.0246
  985SOD     NA14468   0.185   1.513  10.425 -0.1264 -0.6151  0.1415
  986SOD     NA14469   0.195   3.845  15.528  0.0253 -0.1089  0.5077
  987SOD     NA14470   0.673   2.275  14.372 -0.2387  0.0825  0.5931
  988SOD     NA14471   1.035   1.787  17.021 -0.3069  0.2900  0.0653
  989SOD     NA14472   4.021   2.279   1.997  0.2977 -0.5096  0.0251
  990SOD     NA14473   3.108   3.563   0.950 -0.0952  0.2094  0.3742
  991SOD     NA14474   4.417   4.020  15.263 -0.3110  0.1992  0.0005
  992SOD     NA14475   2.702   1.487  15.153  0.2491 -0.3583 -0.3152
  993SOD     NA14476   1.519   2.772  14.625 -0.6697  0.2286 -0.1403
  994SOD     NA14477   4.343   1.425  16.070  0.4753 -0.4147  0.2366
  995SOD     NA14478   2.368   2.786   4.558 -0.2580 -0.0464 -0.2127
  996SOD     NA14479   1.026   4.679   9.652 -0.3519  0.6334 -0.3771
  997SOD     NA14480   4.705   0.163   0.616  0.1415 -0.5661 -0.2345
  998SOD     NA14481   0.722   2.293  12.238  0.5597 -0.1657 -0.5203
  999SOD     NA14482   0.370   0.715   0.316 -0.7011 -0.3101  0.3048
 1000SOD     NA14483   4.627   3.130  10.448  0.5747 -0.0503 -0.1491
 1001SOD     NA14484   1.549   4.565  13.634  0.4491  0.5699 -0.4174
 1002SOD     NA14485   2.795   1.132   4.851  0.0335 -0.2722  0.3489
 1003SOD     NA14486   4.609   0.761   0.547  0.5833  0.4319  0.3440
 1004SOD     NA14487   1.966   3.847  15.389  0.2153 -0.1831 -0.2960
 1005SOD     NA14488   1.984   4.309  13.888  0.2786  0.2551 -0.3800
 1006SOD     NA14489   3.701   2.778  10.595 -0.6122  0.3707  0.6383
 1007SOD     NA14490   4.516   2.660  13.525 -0.0709  0.3058 -0.1202
 1008SOD     NA14491   3.572   2.574   1.977 -0.0606 -0.1318  0.0332
 1009SOD     NA14492   1.872   3.850  11.360 -0.3493 -0.3015  0.1104
 1010SOD     NA14493   4.401   1.435   9.955 -0.2882  0.4516 -0.4860
 1011SOL     OW14494   0.988   3.557   7.966  0.4157  0.0285  0.0606
 1011SOL    HW114495   1.031   3.487   7.918 -2.1388 -1.9599  0.7021
 1011SOL    HW214496   1.060   3.619   7.980 -0.1792  0.2139  2.3728
 1012SOL     OW14497   0.212   0.809   7.907 -0.4875  0.0495  0.1569
 1012SOL    HW114498   0.129   0.800   7.954 -2.2087  0.5216 -2.7837
 1012SOL    HW214499   0.191   0.880   7.846 -2.1337  0.3465  1.0686
 1013SOL     OW14500   3.165   2.418   7.592  0.3665 -0.3143 -0.0791
 1013SOL    HW114501   3.105   2.367   7.647  1.2340  1.0886  2.1800
 1013SOL    HW214502   3.112   2.497   7.592  0.2272 -0.3986  0.9596
 1014SOL     OW14503   0.592   2.721   7.410 -0.1930  0.1050 -0.6239
 1014SOL    HW114504   0.519   2.661   7.399  0.1769 -0.1319 -1.8112
 1014SOL    HW214505   0.611   2.709   7.503 -0.3985 -0.1911 -0.6200
 1015SOL     OW14506   2.782   1.617  15.334  0.3221  0.6785 -0.0032
 1015SOL    HW114507   2.798   1.565  15.412  0.8359 -2.6097 -2.2693
 1015SOL    HW214508   2.729   1.687  15.372  0.9452  1.2332 -0.1483
 1016SOL     OW14509   3.457   1.367   5.031  0.0841  0.4938 -0.1852
 1016SOL    HW114510   3.370   1.371   4.991 -0.7433 -1.4738  1.3701
 1016SOL    HW214511   3.478   1.460   5.040  0.0365  0.6397 -1.6566
 1017SOL     OW14512   3.106   0.115   4.360 -0.3409  0.0250  0.2462
 1017SOL    HW114513   3.154   0.144   4.282 -2.5515  1.2797 -0.6384
 1017SOL    HW214514   3.029   0.169   4.342 -0.2613 -0.2385 -0.9348
 1018SOL     OW14515   3.861   2.848  13.142  0.4158 -0.2208 -0.1286
 1018SOL    HW114516   3.844   2.860  13.235  0.8097  0.2030 -0.1074
 1018SOL    HW214517   3.954   2.827  13.156  0.6792  0.0692 -1.3657
 1019SOL     OW14518   4.251   2.442  11.180  0.3147  0.7996  0.6267
 1019SOL    HW114519   4.179   2.430  11.118  0.4919  0.0305  0.5684
 1019SOL    HW214520   4.320   2.458  11.116 -0.5745  0.5733 -0.4009
 1020SOL     OW14521   1.632   0.459   0.630 -0.5788 -0.1004 -0.1304
 1020SOL    HW114522   1.549   0.471   0.584 -0.8534 -0.9553  0.1536
 1020SOL    HW214523   1.688   0.524   0.588 -1.1968  1.2486  1.1411
 1021SOL     OW14524   2.146   0.395   7.157 -0.5451  0.5602  0.7217
 1021SOL    HW114525   2.211   0.449   7.113  1.1937 -0.8780  1.5259
 1021SOL    HW214526   2.085   0.458   7.196  0.2431  0.1718  2.5999
 1022SOL     OW14527   0.996   3.199   9.201 -0.4251 -0.2315 -0.4934
 1022SOL    HW114528   0.901   3.191   9.192 -0.4475  0.0454 -0.5007
 1022SOL    HW214529   1.013   3.285   9.238 -0.2259 -0.9449  1.0611
 1023SOL     OW14530   0.209   0.034   3.089 -0.1483 -0.1586  0.2137
 1023SOL    HW114531   0.168   4.674   3.068  2.4153 -1.0739 -1.0765
 1023SOL    HW214532   0.271   0.050   3.018 -0.6376 -1.1518 -0.4509
 1024SOL     OW14533   0.070   2.714   6.695 -0.9752  0.5674  0.1822
 1024SOL    HW114534   0.151   2.680   6.656 -2.4141 -1.2781 -1.1647
 1024SOL    HW214535   0.064   2.806   6.670  2.8241  0.7586 -0.0425
 1025SOL     OW14536   0.985   0.124   7.053 -0.1767 -0.2637 -0.1675
 1025SOL    HW114537   0.997   0.212   7.018  1.6776  0.5109  2.4248
 1025SOL    HW214538   1.044   0.070   6.999  0.0548 -3.2515  3.0773
 1026SOL     OW14539   2.559   1.443   8.085 -0.2092  0.8712  0.3080
 1026SOL    HW114540   2.553   1.361   8.134  0.3788  0.8639  0.3771
 1026SOL    HW214541   2.581   1.401   8.001 -1.5831  0.0919  0.3312
 1027SOL     OW14542   1.375   0.519  10.327  0.1681  0.2489 -0.2464
 1027SOL    HW114543   1.308   0.588  10.317 -1.1554 -1.0753 -0.4785
 1027SOL    HW214544   1.319   0.443  10.342  0.9922  0.0414  1.8845
 1028SOL     OW14545   4.077   2.868   0.540 -0.2485 -0.2330  1.0309
 1028SOL    HW114546   4.172   2.876   0.533 -0.2880 -1.7815 -1.4894
 1028SOL    HW214547   4.051   2.923   0.466 -0.8226  0.7100  1.9423
 1029SOL     OW14548   3.820   3.620   3.600 -0.5888 -0.5333 -0.2660
 1029SOL    HW114549   3.745   3.601   3.543 -0.1974  0.1043 -0.9965
 1029SOL    HW214550   3.863   3.683   3.542  0.0040  0.8615  1.7097
 1030SOL     OW14551   2.440   1.251   5.443  0.0670 -0.7584 -0.1066
 1030SOL    HW114552   2.516   1.307   5.428 -2.6058  3.2547  1.4566
 1030SOL    HW214553   2.485   1.183   5.495 -0.3185 -0.8846  0.0596
 1031SOL     OW14554   4.347   3.067  10.766  0.3835 -0.3568 -0.4523
 1031SOL    HW114555   4.339   3.161  10.748  0.8442 -0.6176 -2.0647
 1031SOL    HW214556   4.407   3.044  10.694  0.0570 -0.5099 -0.6752
 1032SOL     OW14557   4.000   4.349   2.457 -0.5732 -0.0975  0.4273
 1032SOL    HW114558   3.978   4.262   2.489 -0.2596  0.2533  1.5988
 1032SOL    HW214559   3.936   4.354   2.386 -0.5054 -0.7984  0.3144
 1033SOL     OW14560   2.156   1.362   9.256 -0.1265  0.2605 -0.1510
 1033SOL    HW114561   2.186   1.446   9.292 -1.4504  1.5229 -1.9833
 1033SOL    HW214562   2.189   1.355   9.166  1.1721  2.0568  0.1860
 1034SOL     OW14563   1.076   2.104   3.181 -0.1567  0.1635 -0.6614
 1034SOL    HW114564   1.132   2.034   3.213  0.8177  0.6626 -1.2922
 1034SOL    HW214565   1.133   2.145   3.115  1.1460  0.7011  0.8157
 1035SOL     OW14566   0.227   4.454   3.933 -0.1615  0.1674  0.0911
 1035SOL    HW114567   0.269   4.376   3.898  0.9310  0.8134 -0.0409
 1035SOL    HW214568   0.306   4.501   3.962  0.4569 -0.1846 -1.0476
 1036SOL     OW14569   4.264   2.291  11.499  0.0210 -0.2817 -0.0015
 1036SOL    HW114570   4.321   2.318  11.571 -1.2997  0.0194  0.9455
 1036SOL    HW214571   4.185   2.253  11.538 -0.3851  1.3680  0.8234
 1037SOL     OW14572   1.026   0.454   3.358 -0.0535 -0.7048  0.0842
 1037SOL    HW114573   0.981   0.526   3.313 -0.8163 -1.4785 -0.4024
 1037SOL    HW214574   1.109   0.448   3.311 -0.2469 -0.0379 -0.3356
 1038SOL     OW14575   1.801   3.934   9.905  0.3652  0.6250 -0.2145
 1038SOL    HW114576   1.714   3.950   9.867  0.1672 -0.2100 -0.1239
 1038SOL    HW214577   1.790   3.992   9.980  0.7798  0.0700  0.2757
 1039SOL     OW14578   4.407   4.174   7.680 -0.3546  0.0158  0.0724
 1039SOL    HW114579   4.452   4.094   7.707 -1.2478 -0.3081  0.5776
 1039SOL    HW214580   4.341   4.143   7.619 -0.6682 -0.1572  0.5025
 1040SOL     OW14581   2.422   4.103   9.039  0.0929  0.4991 -0.0502
 1040SOL    HW114582   2.408   4.102   8.944  3.4813  0.3004 -0.5467
 1040SOL    HW214583   2.334   4.123   9.072  0.1546 -0.9125  0.9703
 1041SOL     OW14584   3.630   1.267   7.883 -0.6349  0.4737 -0.4961
 1041SOL    HW114585   3.583   1.275   7.966 -0.3365  1.5076 -0.4302
 1041SOL    HW214586   3.571   1.324   7.834 -2.2223 -1.2655 -0.5968
 1042SOL     OW14587   0.834   2.114  14.431  0.6160  0.6107 -0.8277
 1042SOL    HW114588   0.861   2.029  14.466  2.6215  1.2898 -0.6863
 1042SOL    HW214589   0.915   2.138  14.385  1.8363 -0.8245  0.5384
 1043SOL     OW14590   1.350   4.202   5.112  0.1289 -0.5974 -0.3087
 1043SOL    HW114591   1.306   4.118   5.097 -1.5820  0.4479 -1.1767
 1043SOL    HW214592   1.287   4.240   5.174  1.1435  1.4228 -0.5227
 1044SOL     OW14593   0.249   0.345   4.039  0.8258  0.4393 -0.1816
 1044SOL    HW114594   0.210   0.311   3.959 -0.2127 -0.1197  0.5609
 1044SOL    HW214595   0.270   0.264   4.086 -1.9197  0.2899  0.7642
 1045SOL     OW14596   4.662   3.207   8.743  0.7613 -0.1996  0.4653
 1045SOL    HW114597   4.715   3.132   8.767  3.1191  1.3197 -0.0071
 1045SOL    HW214598   4.653   3.199   8.648  1.2882  0.9135  0.3224
 1046SOL     OW14599   0.332   4.191   7.596 -0.1886  0.6090 -0.1588
 1046SOL    HW114600   0.292   4.204   7.682  1.6948 -4.3938  1.4555
 1046SOL    HW214601   0.290   4.268   7.557  1.4079  0.7180 -1.6646
 1047SOL     OW14602   4.488   2.106   5.409  0.6019  0.3610 -0.3985
 1047SOL    HW114603   4.436   2.041   5.360  0.3468 -0.7904  1.3962
 1047SOL    HW214604   4.494   2.058   5.492 -0.1923 -2.6118 -2.0394
 1048SOL     OW14605   3.477   4.336   6.134  0.2245  0.1446  0.3980
 1048SOL    HW114606   3.423   4.342   6.213 -0.5357  2.1193 -0.2534
 1048SOL    HW214607   3.563   4.368   6.160  0.6849 -1.0096  0.2815
 1049SOL     OW14608   0.776   4.339   3.457 -0.4728 -0.8079  0.4860
 1049SOL    HW114609   0.811   4.421   3.422  0.0834 -0.4015  2.0223
 1049SOL    HW214610   0.855   4.284   3.451  0.2308  0.5245 -2.4040
 1050SOL     OW14611   1.472   0.663   4.211  0.3556 -0.2898 -0.4372
 1050SOL    HW114612   1.545   0.652   4.271 -0.0441 -0.3205  0.0442
 1050SOL    HW214613   1.502   0.735   4.155 -0.4514  0.1329 -0.3250
 1051SOL     OW14614   1.715   1.336   9.727 -0.6830  0.4564  0.0903
 1051SOL    HW114615   1.798   1.376   9.753  0.7780 -2.8652  0.5752
 1051SOL    HW214616   1.713   1.257   9.781  0.4296  0.4416  0.1063
 1052SOL     OW14617   3.075   4.349   1.014 -0.1774 -0.0861  0.2343
 1052SOL    HW114618   3.168   4.339   0.992 -0.1466 -1.4867  1.0371
 1052SOL    HW214619   3.086   4.437   1.053 -0.6168 -0.3164  0.8838
 1053SOL     OW14620   0.520   1.130   1.861  0.5309  0.3245 -0.3297
 1053SOL    HW114621   0.573   1.090   1.791  0.2205 -1.8917  0.6995
 1053SOL    HW214622   0.442   1.162   1.817 -0.7323  1.3217  2.6888
 1054SOL     OW14623   1.559   3.398   8.052 -0.6950 -0.5971  0.2729
 1054SOL    HW114624   1.511   3.315   8.052  2.1230 -2.2390 -0.2467
 1054SOL    HW214625   1.637   3.373   8.102 -1.2678 -0.2517  1.3324
 1055SOL     OW14626   1.537   0.820   2.801  0.5932  0.0430 -0.3634
 1055SOL    HW114627   1.551   0.780   2.887  0.1385 -0.4899 -0.5345
 1055SOL    HW214628   1.622   0.798   2.762  0.8326 -1.4882  1.0000
 1056SOL     OW14629   1.916   4.279   8.250  0.5299 -0.1893 -0.9525
 1056SOL    HW114630   1.829   4.309   8.224  0.2544  0.0122  0.1885
 1056SOL    HW214631   1.926   4.194   8.207 -0.6504  0.8108 -3.2307
 1057SOL     OW14632   4.643   0.905  12.088  0.2189 -0.4159 -0.3466
 1057SOL    HW114633   4.705   0.886  12.016  1.8015  0.5027  0.7694
 1057SOL    HW214634   4.567   0.935  12.039 -0.8102 -0.2738  1.3634
 1058SOL     OW14635   3.352   1.903  11.900  0.0151  0.1251 -0.1540
 1058SOL    HW114636   3.305   1.900  11.983 -0.9284  1.7249 -0.6216
 1058SOL    HW214637   3.278   1.946  11.857 -0.2294 -1.3908 -1.2218
 1059SOL     OW14638   3.921   3.014   3.516 -0.2957  0.1198  0.5545
 1059SOL    HW114639   3.922   3.109   3.504  1.4390 -0.0537 -0.7691
 1059SOL    HW214640   3.840   3.000   3.564 -0.1135  2.8995  1.7150
 1060SOL     OW14641   3.214   4.364   6.619  0.4213 -0.1693 -0.1507
 1060SOL    HW114642   3.280   4.431   6.637 -0.7489  0.9060  0.1238
 1060SOL    HW214643   3.166   4.382   6.700 -2.5939 -1.4924 -1.6355
 1061SOL     OW14644   1.288   4.280   3.077  0.1539 -0.4193 -0.2281
 1061SOL    HW114645   1.347   4.356   3.075  0.2366 -0.5049 -1.0277
 1061SOL    HW214646   1.256   4.266   2.988 -0.5400 -0.6072  0.0532
 1062SOL     OW14647   2.598   3.305  16.438 -0.0652  0.4856 -0.1588
 1062SOL    HW114648   2.506   3.303  16.466 -0.5014 -2.4674 -1.7814
 1062SOL    HW214649   2.617   3.389  16.480  0.1558 -1.2008  3.0671
 1063SOL     OW14650   3.620   4.119   2.213 -0.0194 -0.1440  0.1947
 1063SOL    HW114651   3.548   4.087   2.159 -0.2327  0.5440  0.0754
 1063SOL    HW214652   3.688   4.056   2.188 -1.2975 -1.8241  0.9126
 1064SOL     OW14653   2.663   1.518   6.909 -0.2537 -0.2585 -0.2086
 1064SOL    HW114654   2.638   1.494   6.999  1.8550  0.7349  0.6438
 1064SOL    HW214655   2.585   1.496   6.858 -2.2827 -0.4591  2.9821
 1065SOL     OW14656   0.315   4.059   8.630  0.4355 -0.5170 -0.3421
 1065SOL    HW114657   0.280   3.975   8.661 -1.1507 -0.4483 -1.9436
 1065SOL    HW214658   0.335   4.034   8.540 -1.7914 -2.6614 -0.2152
 1066SOL     OW14659   3.465   1.954   3.327 -0.2063 -0.1852 -0.2932
 1066SOL    HW114660   3.519   2.016   3.277 -0.5191 -0.8729 -1.4784
 1066SOL    HW214661   3.536   1.906   3.370 -1.1785 -0.6564  0.7778
 1067SOL     OW14662   3.001   2.177   8.607 -0.1472  0.0445  0.5634
 1067SOL    HW114663   2.927   2.129   8.570 -0.7883  1.4644  0.0100
 1067SOL    HW214664   3.065   2.110   8.632  1.5971  1.1745 -0.8739
 1068SOL     OW14665   0.196   3.837   9.339 -0.7309 -1.2391 -0.5100
 1068SOL    HW114666   0.110   3.797   9.327 -1.1322  0.1465 -2.1621
 1068SOL    HW214667   0.163   3.921   9.372 -1.9949 -1.4966 -1.0821
 1069SOL     OW14668   0.735   1.027   7.769  0.0081 -0.5373 -0.0125
 1069SOL    HW114669   0.702   1.035   7.859 -0.8797  0.3892 -0.4097
 1069SOL    HW214670   0.662   1.073   7.727  0.2206  0.5801  0.8297
 1070SOL     OW14671   2.990   2.906   2.508 -0.6177  0.1952  0.0108
 1070SOL    HW114672   2.964   2.963   2.436  2.5124  0.2191 -1.1027
 1070SOL    HW214673   3.024   2.964   2.576 -0.4973 -1.6751  1.5561
 1071SOL     OW14674   0.967   4.557   6.708  0.0522  0.0074 -0.2329
 1071SOL    HW114675   1.058   4.581   6.721  0.1297 -1.4514  1.9117
 1071SOL    HW214676   0.925   4.622   6.650  0.5732  1.1465  0.6857
 1072SOL     OW14677   3.303   0.416   5.999 -0.4341 -0.1993  0.4544
 1072SOL    HW114678   3.308   0.511   6.005  1.6725 -0.3260  0.5170
 1072SOL    HW214679   3.220   0.400   5.953 -1.0249  1.2426  1.0203
 1073SOL     OW14680   0.484   3.810   5.863  0.0917  0.2171  0.3587
 1073SOL    HW114681   0.547   3.758   5.912  1.0650 -0.8136 -1.9638
 1073SOL    HW214682   0.425   3.748   5.820  0.6814  0.4978 -0.8589
 1074SOL     OW14683   2.164   4.396   6.665 -0.0961 -0.4877  0.5809
 1074SOL    HW114684   2.198   4.413   6.577 -2.2207 -2.3849 -0.5847
 1074SOL    HW214685   2.131   4.306   6.662  2.1090 -1.2532 -1.2316
 1075SOL     OW14686   2.731   1.802   2.626  0.7080  0.1881  0.1718
 1075SOL    HW114687   2.671   1.823   2.554 -1.1776  1.5635  2.1457
 1075SOL    HW214688   2.795   1.767   2.564  0.6943  0.9630 -0.2816
 1076SOL     OW14689   1.857   3.234   9.198 -0.3395 -0.1799 -0.0127
 1076SOL    HW114690   1.930   3.174   9.214 -0.5573 -0.5963 -0.5848
 1076SOL    HW214691   1.831   3.241   9.290  1.4991  1.5986  0.3480
 1077SOL     OW14692   1.072   1.339  13.461 -0.3078 -0.7025  0.2310
 1077SOL    HW114693   1.146   1.304  13.511 -0.4221  0.3263  1.1233
 1077SOL    HW214694   1.107   1.329  13.373 -0.6853  2.5062 -0.2646
 1078SOL     OW14695   0.044   1.188   8.110  0.1474  0.0538  0.4822
 1078SOL    HW114696   0.059   1.200   8.203 -0.8006 -1.5938  0.8535
 1078SOL    HW214697   0.043   1.279   8.082 -0.0746  0.1206  0.7167
 1079SOL     OW14698   4.144   3.724   3.055 -0.3214 -0.4275  0.0309
 1079SOL    HW114699   4.188   3.806   3.030  1.9592 -0.7881  2.7382
 1079SOL    HW214700   4.066   3.726   3.000 -0.1573  0.0433 -0.1851
 1080SOL     OW14701   2.304   0.323   8.483  0.1512 -0.1617 -0.8153
 1080SOL    HW114702   2.241   0.318   8.411  0.6663  0.3780 -1.3019
 1080SOL    HW214703   2.340   0.410   8.466  2.0167 -0.6913  0.4507
 1081SOL     OW14704   0.149   2.907   4.645  0.0528 -0.2152  0.1639
 1081SOL    HW114705   0.057   2.930   4.649 -0.2564 -1.5851  1.0640
 1081SOL    HW214706   0.191   2.993   4.648  1.0860 -0.7757  1.9614
 1082SOL     OW14707   2.406   1.494  13.525 -0.7004 -0.3837 -0.4693
 1082SOL    HW114708   2.374   1.581  13.500  0.6738  0.9855  2.4702
 1082SOL    HW214709   2.377   1.483  13.616 -1.3318 -0.6465 -0.7016
 1083SOL     OW14710   4.630   2.572   5.460 -1.1142 -0.1263 -0.2134
 1083SOL    HW114711   4.636   2.665   5.482  0.1352 -0.0290 -0.9235
 1083SOL    HW214712   4.671   2.569   5.374  1.1369 -0.5887  0.8580
 1084SOL     OW14713   3.146   0.096   5.790 -0.7655 -1.2014 -0.0698
 1084SOL    HW114714   3.103   0.155   5.851 -2.0388 -0.0565 -2.0946
 1084SOL    HW214715   3.108   0.014   5.822  0.2047 -0.6724  2.4556
 1085SOL     OW14716   0.875   0.715   6.706  0.7305 -0.2269 -0.5351
 1085SOL    HW114717   0.822   0.642   6.739 -0.1357  0.3255 -0.7178
 1085SOL    HW214718   0.906   0.677   6.624 -0.2693  2.6696 -2.2385
 1086SOL     OW14719   1.599   0.711   7.870 -0.0841  0.0439  0.6179
 1086SOL    HW114720   1.694   0.710   7.866 -0.1088  0.4425 -0.2026
 1086SOL    HW214721   1.576   0.622   7.899 -1.0968  0.0236 -0.2432
 1087SOL     OW14722   3.903   4.463   0.811  0.0848 -0.1464  0.2281
 1087SOL    HW114723   3.932   4.457   0.719  0.3912 -1.4521  0.4086
 1087SOL    HW214724   3.849   4.541   0.805 -1.1079 -0.9221  1.0099
 1088SOL     OW14725   3.737   4.540   1.018 -0.4714 -0.0146 -0.3085
 1088SOL    HW114726   3.798   4.493   0.961  1.1832  0.7854  0.8144
 1088SOL    HW214727   3.757   4.630   0.992  2.5574 -1.0051 -1.4688
 1089SOL     OW14728   0.783   3.663  13.524 -0.2155 -0.6976  0.1637
 1089SOL    HW114729   0.801   3.729  13.592 -1.6203 -1.2130  1.0402
 1089SOL    HW214730   0.712   3.610  13.561 -1.2171  0.9967  0.6702
 1090SOL     OW14731   2.541   2.195   8.786 -0.0342  0.3983 -0.1208
 1090SOL    HW114732   2.592   2.115   8.789  0.4664  0.6806 -0.9627
 1090SOL    HW214733   2.519   2.215   8.877  0.9569 -0.8793  0.3846
 1091SOL     OW14734   1.145   0.107   5.648  0.2029 -0.2964 -0.6461
 1091SOL    HW114735   1.190   0.160   5.714  1.7585 -0.5766 -1.4679
 1091SOL    HW214736   1.193   0.134   5.569  0.7571  0.0341 -0.1902
 1092SOL     OW14737   4.278   2.847   9.854  0.0899 -0.2788  0.5842
 1092SOL    HW114738   4.368   2.824   9.876 -0.1018 -1.2755  0.3084
 1092SOL    HW214739   4.288   2.885   9.766 -1.2679 -2.2956 -0.4286
 1093SOL     OW14740   0.807   4.101   3.256 -0.8617 -0.3591  0.0059
 1093SOL    HW114741   0.844   4.013   3.244  0.4244 -0.0556  1.8008
 1093SOL    HW214742   0.872   4.158   3.215 -1.0043 -0.2863 -0.1211
 1094SOL     OW14743   4.241   2.511  13.076 -0.2193 -0.0286  0.1001
 1094SOL    HW114744   4.284   2.447  13.019  2.2134 -0.9886  3.0257
 1094SOL    HW214745   4.225   2.451  13.148  1.8908 -0.8871 -0.1525
 1095SOL     OW14746   4.221   1.494   8.655 -0.0827 -0.3874 -0.0261
 1095SOL    HW114747   4.302   1.509   8.606 -0.5083  0.7494 -0.3815
 1095SOL    HW214748   4.250   1.539   8.735  1.0017  0.0854 -0.6797
 1096SOL     OW14749   2.431   2.428   6.430 -0.1397  0.6773  0.0826
 1096SOL    HW114750   2.346   2.448   6.390  1.6885  0.6767 -3.7744
 1096SOL    HW214751   2.434   2.334   6.416 -0.4983  0.7586 -0.5568
 1097SOL     OW14752   2.128   1.254  10.502 -0.1233  0.3720  0.2527
 1097SOL    HW114753   2.100   1.185  10.562 -2.5166  0.3345 -0.8669
 1097SOL    HW214754   2.052   1.262  10.444  0.7771  0.0058 -1.0043
 1098SOL     OW14755   0.119   4.427  17.178 -0.1733  0.3286  0.0524
 1098SOL    HW114756   0.125   4.520  17.196 -0.4300  0.7714 -2.1574
 1098SOL    HW214757   0.058   4.425  17.105  1.1564 -2.2761 -0.9948
 1099SOL     OW14758   0.685   3.924  10.911  0.3605 -0.2242 -0.4286
 1099SOL    HW114759   0.704   3.835  10.881 -1.5826 -0.4832 -0.8983
 1099SOL    HW214760   0.771   3.923  10.954  1.1485  1.0702 -1.9783
 1100SOL     OW14761   4.192   1.736   5.592 -1.0543 -0.5524 -0.2656
 1100SOL    HW114762   4.130   1.664   5.602  3.0204 -4.1780 -1.3706
 1100SOL    HW214763   4.139   1.807   5.631  1.1615  0.4255  0.9544
 1101SOL     OW14764   3.172   2.837   3.349 -0.1268  0.2777 -0.0309
 1101SOL    HW114765   3.177   2.799   3.261  3.2497  1.0060 -0.1578
 1101SOL    HW214766   3.264   2.862   3.358 -0.4352  1.7842 -0.9371
 1102SOL     OW14767   4.246   0.979   1.531 -0.1216  0.0504  0.3011
 1102SOL    HW114768   4.248   0.950   1.622  1.1403  1.4944  0.7430
 1102SOL    HW214769   4.310   1.050   1.529  1.6297 -1.5591 -0.0696
 1103SOL     OW14770   4.133   2.152   8.076 -0.3777 -0.5904  0.3065
 1103SOL    HW114771   4.082   2.193   8.146  1.8950  0.1280  1.5438
 1103SOL    HW214772   4.209   2.211   8.075 -0.1283 -0.9021  0.7048
 1104SOL     OW14773   0.087   4.067   9.444  0.0480  0.2288  0.0570
 1104SOL    HW114774   4.718   4.047   9.450  0.4308 -1.3551  0.7605
 1104SOL    HW214775   0.110   4.106   9.528 -0.9611  1.6262 -0.3211
 1105SOL     OW14776   3.822   4.588   3.036 -1.0652 -0.3383 -0.6077
 1105SOL    HW114777   3.778   4.538   2.968 -1.3782 -0.1306 -0.5573
 1105SOL    HW214778   3.913   4.572   3.012 -0.6385  2.0185 -0.5245
 1106SOL     OW14779   3.231   3.502   3.537  1.1304 -0.7067 -0.4209
 1106SOL    HW114780   3.181   3.450   3.474  1.5505  0.6389 -1.8597
 1106SOL    HW214781   3.273   3.564   3.478  0.2742  0.5981  0.3602
 1107SOL     OW14782   3.217   4.321  10.743  0.1739 -0.3110  0.5733
 1107SOL    HW114783   3.294   4.312  10.799  0.9647  0.8526 -0.3329
 1107SOL    HW214784   3.225   4.253  10.676  0.7933  0.7317 -0.4146
 1108SOL     OW14785   2.981   1.756   8.592 -0.5206  0.5876 -0.3892
 1108SOL    HW114786   2.929   1.687   8.632  2.3704 -0.9592  0.7062
 1108SOL    HW214787   3.076   1.742   8.598 -0.4977  0.7029 -0.4626
 1109SOL     OW14788   1.173   1.359   4.872  0.0795 -0.0203  0.6337
 1109SOL    HW114789   1.265   1.340   4.892 -0.1323 -0.7428  0.9232
 1109SOL    HW214790   1.130   1.277   4.897  2.2759 -1.2956  0.2205
 1110SOL     OW14791   1.661   3.401   1.111 -0.2053  0.3543 -0.6298
 1110SOL    HW114792   1.599   3.330   1.122  0.2378 -0.0704 -0.8741
 1110SOL    HW214793   1.727   3.371   1.174 -1.1006 -0.9918 -0.3420
 1111SOL     OW14794   2.116   1.003   3.812  0.1833  0.7639  0.1069
 1111SOL    HW114795   2.058   1.051   3.753 -0.2664  1.7902  1.3913
 1111SOL    HW214796   2.193   0.997   3.755  0.4372 -1.4934  0.6587
 1112SOL     OW14797   0.491   1.313   4.497  0.3474 -0.6863  0.5258
 1112SOL    HW114798   0.473   1.393   4.448 -1.4078 -0.3443  1.7031
 1112SOL    HW214799   0.398   1.304   4.518  0.3564  0.8014  1.2213
 1113SOL     OW14800   3.886   1.476   7.637  1.0599  0.2344  0.7379
 1113SOL    HW114801   3.866   1.466   7.730  0.3700  2.2481  0.8191
 1113SOL    HW214802   3.797   1.471   7.601  1.1127  0.9976  0.4923
 1114SOL     OW14803   0.192   1.455   3.637  0.0040 -0.2156  0.0124
 1114SOL    HW114804   0.177   1.406   3.557  0.6085 -1.0226  0.3984
 1114SOL    HW214805   0.174   1.381   3.696 -0.8227  0.6153  0.8212
 1115SOL     OW14806   4.360   1.009  15.252  0.3523 -0.0983  0.5189
 1115SOL    HW114807   4.402   0.924  15.268 -1.4093 -0.7480  1.6049
 1115SOL    HW214808   4.403   1.021  15.167 -1.0756  0.4808 -0.1141
 1116SOL     OW14809   3.163   3.286  14.841 -0.3211 -0.0925 -0.3289
 1116SOL    HW114810   3.205   3.344  14.905  0.6447  0.8928 -1.8615
 1116SOL    HW214811   3.216   3.298  14.762  0.4781  0.2126  0.2427
 1117SOL     OW14812   2.186   1.285   9.977 -0.0033  0.2506  0.0076
 1117SOL    HW114813   2.202   1.300   9.884  0.8946  0.8562  0.2668
 1117SOL    HW214814   2.269   1.243   9.999 -0.3349 -0.0627  0.6576
 1118SOL     OW14815   0.718   3.118   6.425 -0.4217  0.2404  0.0180
 1118SOL    HW114816   0.651   3.163   6.373 -1.0536  1.4589  1.8937
 1118SOL    HW214817   0.804   3.158   6.411 -0.4353  0.6825  1.2566
 1119SOL     OW14818   3.232   4.130   4.674  0.6985 -0.3826  0.4400
 1119SOL    HW114819   3.263   4.207   4.626  1.5335 -1.5536 -0.9142
 1119SOL    HW214820   3.296   4.120   4.745  1.4687  2.3108  0.1559
 1120SOL     OW14821   0.035   0.559   1.560  0.2326  0.1714  0.4312
 1120SOL    HW114822   0.110   0.617   1.576  0.4401  0.4340 -1.4716
 1120SOL    HW214823   0.027   0.561   1.465  0.3216 -0.4605  0.4108
 1121SOL     OW14824   2.509   3.303   2.107 -0.1666  0.0856  0.3758
 1121SOL    HW114825   2.453   3.378   2.086  0.8582  1.0438  1.0144
 1121SOL    HW214826   2.562   3.351   2.171  0.0353 -1.2749  1.2369
 1122SOL     OW14827   0.016   2.958   9.968  0.0778 -0.3867 -0.5367
 1122SOL    HW114828   0.095   2.963  10.022 -0.4395 -0.1222  0.1983
 1122SOL    HW214829   4.707   2.872   9.992  0.9829 -0.7256 -0.5005
 1123SOL     OW14830   4.514   1.053   6.200 -0.1270  0.2210 -0.8443
 1123SOL    HW114831   4.577   1.022   6.134  0.6071 -0.4863  0.1972
 1123SOL    HW214832   4.501   1.140   6.161  0.0877  1.5888  2.1039
 1124SOL     OW14833   4.443   1.579   1.301  0.2564  0.3610 -0.2730
 1124SOL    HW114834   4.449   1.634   1.223 -1.1197  1.7479  0.6002
 1124SOL    HW214835   4.358   1.539   1.284 -1.0572  1.6265  3.3704
 1125SOL     OW14836   0.045   4.484   6.985  0.0314 -0.0595 -0.4758
 1125SOL    HW114837   0.065   4.391   6.990 -0.8971 -0.3130 -1.3115
 1125SOL    HW214838   0.061   4.495   6.891 -2.2302  0.7304 -0.7816
 1126SOL     OW14839   2.231   2.257   2.038  0.2828 -0.3744  0.4059
 1126SOL    HW114840   2.158   2.317   2.053  1.0108  0.6226 -0.0039
 1126SOL    HW214841   2.220   2.252   1.943 -0.2784 -0.0903  0.4563
 1127SOL     OW14842   4.589   4.464   2.852 -0.3031  0.5153 -0.1800
 1127SOL    HW114843   4.636   4.484   2.771  3.1810 -0.9167  1.4932
 1127SOL    HW214844   4.541   4.382   2.844  3.3347 -1.8227  2.1678
 1128SOL     OW14845   3.572   4.072   3.542 -0.5434 -0.0029  0.7118
 1128SOL    HW114846   3.667   4.063   3.552 -0.6258 -1.7968 -0.2339
 1128SOL    HW214847   3.560   4.109   3.455 -2.5733 -2.0453  0.1001
 1129SOL     OW14848   1.930   3.857   8.413 -0.3744  0.2555 -0.1092
 1129SOL    HW114849   1.919   3.762   8.402  0.6365 -0.0464  1.6013
 1129SOL    HW214850   1.838   3.882   8.410 -0.2484  0.7366 -0.0329
 1130SOL     OW14851   0.068   0.231  17.580  0.3663  0.7174 -0.3961
 1130SOL    HW114852   4.708   0.244  17.536 -1.1914  1.8767  3.0016
 1130SOL    HW214853   0.131   0.221  17.508 -0.2123 -2.9142 -0.4309
 1131SOL     OW14854   2.567   0.687   1.828  0.1289  0.3998 -0.4141
 1131SOL    HW114855   2.501   0.646   1.773 -0.7389 -0.0914  0.9880
 1131SOL    HW214856   2.577   0.769   1.780 -0.9342  0.4633 -0.5088
 1132SOL     OW14857   3.464   4.245  17.122 -0.1884  0.2128 -0.5807
 1132SOL    HW114858   3.398   4.266  17.188  2.1551 -0.6917  2.0733
 1132SOL    HW214859   3.417   4.281  17.047 -0.7001 -0.9243 -0.7996
 1133SOL     OW14860   1.390   1.658   9.408  0.1702  0.4015 -0.2650
 1133SOL    HW114861   1.311   1.634   9.360  0.7396  0.6054 -1.3126
 1133SOL    HW214862   1.440   1.702   9.339 -0.3081  0.8989 -0.2908
 1134SOL     OW14863   1.104   1.148   2.904  0.1090  0.1984  0.0283
 1134SOL    HW114864   1.085   1.064   2.947  1.2191 -0.3066 -0.4622
 1134SOL    HW214865   1.090   1.119   2.814 -2.5124  2.3791 -0.2796
 1135SOL     OW14866   3.198   1.800  10.088 -0.3209 -0.1501  0.3353
 1135SOL    HW114867   3.277   1.753  10.061  0.5959 -0.0590  2.8868
 1135SOL    HW214868   3.230   1.847  10.165  0.1363  2.2318 -1.3098
 1136SOL     OW14869   3.795   2.669   5.973 -0.4730  0.2121 -0.2557
 1136SOL    HW114870   3.778   2.606   6.043  2.1679  0.4681  0.6228
 1136SOL    HW214871   3.709   2.682   5.934 -0.5202  3.8847  1.0418
 1137SOL     OW14872   0.871   0.451   8.429 -0.6203 -0.0275  0.4749
 1137SOL    HW114873   0.789   0.486   8.394 -0.7329 -2.0534 -1.3030
 1137SOL    HW214874   0.918   0.523   8.388  1.7539 -2.1617 -0.5725
 1138SOL     OW14875   3.579   0.835  12.078 -0.3511  0.5204  0.0757
 1138SOL    HW114876   3.531   0.862  11.999  0.3217 -2.5473 -1.3772
 1138SOL    HW214877   3.502   0.849  12.133 -0.9835 -1.2025 -0.3982
 1139SOL     OW14878   2.753   4.133  17.156 -0.1481  0.1125  0.3040
 1139SOL    HW114879   2.773   4.042  17.134  1.8679  0.2001  1.8116
 1139SOL    HW214880   2.836   4.173  17.183  0.1162  1.2194 -2.1452
 1140SOL     OW14881   4.188   1.776   4.325 -0.2604  0.8062  0.0108
 1140SOL    HW114882   4.193   1.854   4.270  3.7936  1.0373  0.6960
 1140SOL    HW214883   4.113   1.730   4.285 -0.7842  0.3868  1.4882
 1141SOL     OW14884   0.087   0.991  15.663  0.8324 -0.4173  0.2172
 1141SOL    HW114885   0.073   0.909  15.711  1.4713 -1.3621 -1.1852
 1141SOL    HW214886   0.179   0.982  15.638  0.4726 -0.3511 -1.1239
 1142SOL     OW14887   2.188   3.076   5.307 -0.2390 -0.1679  0.0570
 1142SOL    HW114888   2.277   3.102   5.331 -0.9776  3.1147 -0.7247
 1142SOL    HW214889   2.196   2.981   5.299 -3.4691 -0.3688 -0.7298
 1143SOL     OW14890   3.100   3.777  16.919 -0.2624 -0.3168 -0.3501
 1143SOL    HW114891   3.151   3.726  16.857 -0.3989  0.0155 -0.7365
 1143SOL    HW214892   3.132   3.735  16.998  2.5009  0.0344 -1.2694
 1144SOL     OW14893   4.532   2.848   7.202  0.3157  0.1471  0.5529
 1144SOL    HW114894   4.484   2.766   7.210  0.5971 -0.1366 -0.6295
 1144SOL    HW214895   4.587   2.836   7.125  0.7618  0.7662  0.7727
 1145SOL     OW14896   4.226   2.715   6.379  0.4343 -0.5676 -0.4228
 1145SOL    HW114897   4.138   2.688   6.405 -0.2083  1.5727 -0.3620
 1145SOL    HW214898   4.277   2.639   6.408  2.6983  1.6957  1.4788
 1146SOL     OW14899   0.936   2.291  12.300 -0.0355 -0.5438 -0.2626
 1146SOL    HW114900   1.015   2.252  12.338 -0.2450 -1.2780 -0.5809
 1146SOL    HW214901   0.963   2.382  12.313  0.9225 -0.4393 -3.1469
 1147SOL     OW14902   3.562   3.900   9.352  0.0308  0.8423 -0.2859
 1147SOL    HW114903   3.587   3.875   9.441  0.3631 -1.5760 -1.0547
 1147SOL    HW214904   3.501   3.971   9.370  1.4595  1.4722  2.0121
 1148SOL     OW14905   0.079   1.900   8.129 -0.6746  0.6863  0.3342
 1148SOL    HW114906   4.721   1.925   8.088 -1.5148 -0.1498  1.4903
 1148SOL    HW214907   0.061   1.945   8.212 -3.1539 -0.8741  0.6548
 1149SOL     OW14908   1.093   4.432   6.441  0.2226  0.8937  0.5369
 1149SOL    HW114909   1.003   4.447   6.469  0.4000  0.1909  1.4609
 1149SOL    HW214910   1.111   4.344   6.473 -0.7623 -0.0743 -1.5689
 1150SOL     OW14911   3.419   1.822   4.833 -0.5519 -0.3609  0.2078
 1150SOL    HW114912   3.503   1.865   4.847  0.3466 -1.6285 -1.3043
 1150SOL    HW214913   3.401   1.856   4.745 -0.9855  0.8638  0.7811
 1151SOL     OW14914   3.755   1.703   7.199 -0.0422 -0.2427  0.3790
 1151SOL    HW114915   3.848   1.699   7.221  0.4798  2.6500 -1.2634
 1151SOL    HW214916   3.718   1.733   7.282  0.3384  0.2938  0.3577
 1152SOL     OW14917   0.571   0.648   8.580  0.4796  0.6762  0.1478
 1152SOL    HW114918   0.489   0.600   8.592  0.0012  1.2836 -0.6889
 1152SOL    HW214919   0.603   0.607   8.500 -0.7151  2.1123 -1.0557
 1153SOL     OW14920   0.038   1.016   6.028 -0.0115 -0.4205  0.1406
 1153SOL    HW114921   0.036   0.957   5.952  1.6870 -1.8626  1.2191
 1153SOL    HW214922   0.064   1.097   5.984  1.6083 -0.8290  0.3212
 1154SOL     OW14923   3.086   4.563   9.374 -0.2944  0.1622 -0.1755
 1154SOL    HW114924   3.016   4.628   9.371  0.4880  0.9676 -1.1292
 1154SOL    HW214925   3.112   4.548   9.283  0.5001 -0.7815  0.2042
 1155SOL     OW14926   0.559   2.412   6.081  0.2691  0.1841 -0.1984
 1155SOL    HW114927   0.570   2.458   6.164  1.5502 -1.1096  0.3523
 1155SOL    HW214928   0.471   2.439   6.056  0.3138  0.2575 -0.2751
 1156SOL     OW14929   3.377   0.639   9.909 -0.5240  0.5472  0.1033
 1156SOL    HW114930   3.428   0.589   9.845 -2.0403  0.8326 -1.3062
 1156SOL    HW214931   3.337   0.713   9.864 -2.7109 -1.3415 -1.0596
 1157SOL     OW14932   4.386   3.168   5.904 -0.0955  0.1778  0.0486
 1157SOL    HW114933   4.479   3.154   5.886 -0.1211 -1.5121  1.1934
 1157SOL    HW214934   4.373   3.137   5.994 -1.4866  1.5661  0.3144
 1158SOL     OW14935   4.224   4.412  10.894  0.8912  0.0790 -0.0428
 1158SOL    HW114936   4.149   4.375  10.848 -0.6011  0.8136  1.7706
 1158SOL    HW214937   4.231   4.497  10.849  1.8530  0.0813  0.1111
 1159SOL     OW14938   0.001   1.874   1.050 -0.5194 -0.0066  0.2161
 1159SOL    HW114939   4.712   1.956   1.098  1.7424 -0.1824  1.1917
 1159SOL    HW214940   0.082   1.900   1.005 -2.4880  0.9479 -2.7538
 1160SOL     OW14941   1.337   3.751   0.920 -0.2768  0.1484  0.2189
 1160SOL    HW114942   1.406   3.815   0.901  1.5668 -1.7403  0.5028
 1160SOL    HW214943   1.347   3.754   1.015  2.6026  2.0656 -0.1341
 1161SOL     OW14944   3.680   1.415   3.354  0.4690  0.0384  0.0275
 1161SOL    HW114945   3.753   1.477   3.352  0.8988 -0.4863 -0.4113
 1161SOL    HW214946   3.706   1.370   3.274 -1.3434  0.8998 -1.0447
 1162SOL     OW14947   3.800   4.130   7.686 -0.4840 -0.5567  0.2482
 1162SOL    HW114948   3.807   4.036   7.698  0.6555 -0.8768 -3.1174
 1162SOL    HW214949   3.884   4.147   7.643 -0.7885  1.4413  0.4070
 1163SOL     OW14950   1.004   0.538   6.526  0.3966  0.3189 -0.3607
 1163SOL    HW114951   1.097   0.541   6.502  0.2775 -0.3850 -0.9148
 1163SOL    HW214952   0.959   0.530   6.442 -1.9314 -0.2877  0.9703
 1164SOL     OW14953   0.188   2.648  16.185 -0.0104 -0.1011 -0.1059
 1164SOL    HW114954   0.242   2.588  16.133 -0.3222  0.7546 -1.4251
 1164SOL    HW214955   0.119   2.584  16.201 -0.3907  0.1076 -0.9071
 1165SOL     OW14956   1.464   0.377   9.766 -0.1487  0.3857 -0.1024
 1165SOL    HW114957   1.429   0.466   9.757 -0.6077  0.1372 -0.7465
 1165SOL    HW214958   1.545   0.392   9.718 -0.1223  0.3040 -0.0835
 1166SOL     OW14959   0.487   0.860   7.323  0.1165  0.2204  0.5254
 1166SOL    HW114960   0.528   0.885   7.241  0.7043 -0.9485  0.4614
 1166SOL    HW214961   0.455   0.774   7.296  0.2714  0.0677  0.8304
 1167SOL     OW14962   0.569   2.542   9.763  0.4213 -0.3111 -0.3196
 1167SOL    HW114963   0.510   2.547   9.838  1.6457  0.4052  0.6073
 1167SOL    HW214964   0.645   2.512   9.812  1.3089  2.4291  0.0207
 1168SOL     OW14965   2.477   3.346   7.855 -0.2786  0.4419  0.2954
 1168SOL    HW114966   2.501   3.439   7.857 -0.8538  0.5577  2.6161
 1168SOL    HW214967   2.432   3.350   7.771  1.7325 -1.0722 -0.8334
 1169SOL     OW14968   2.356   2.673   5.496  0.3218  0.3383 -0.1833
 1169SOL    HW114969   2.347   2.752   5.549 -1.2157 -0.4671  0.7644
 1169SOL    HW214970   2.449   2.656   5.508  0.6110  2.6748  0.9172
 1170SOL     OW14971   2.374   3.655   3.634 -0.0822 -0.2104  0.2931
 1170SOL    HW114972   2.340   3.743   3.652  0.3276 -0.2603  1.3155
 1170SOL    HW214973   2.466   3.661   3.659 -0.3234  1.6828  0.7436
 1171SOL     OW14974   0.447   0.630   1.317  0.4098 -0.7261 -0.7269
 1171SOL    HW114975   0.540   0.646   1.299  0.3538  2.1520  1.4328
 1171SOL    HW214976   0.421   0.558   1.260 -0.8154  1.0048 -2.3677
 1172SOL     OW14977   1.671   3.038  12.308 -0.1639 -0.0646 -1.1589
 1172SOL    HW114978   1.662   3.130  12.282  0.6242  0.2154 -0.4618
 1172SOL    HW214979   1.583   3.004  12.294  0.9605 -3.6168  0.3624
 1173SOL     OW14980   3.322   3.276   1.187 -0.1348 -0.2888 -0.3018
 1173SOL    HW114981   3.362   3.299   1.271 -1.1882  2.8432 -0.6562
 1173SOL    HW214982   3.294   3.185   1.192  1.6644 -0.8412 -0.2712
 1174SOL     OW14983   4.086   3.701  14.022  0.2421 -0.2329 -0.9294
 1174SOL    HW114984   3.997   3.726  14.048  0.1330 -1.5751 -0.0146
 1174SOL    HW214985   4.063   3.671  13.934 -3.3523  1.1516 -0.4403
 1175SOL     OW14986   2.745   3.844   8.869 -0.2453 -0.6581 -0.3809
 1175SOL    HW114987   2.803   3.885   8.805  2.5075 -4.3232 -0.2192
 1175SOL    HW214988   2.802   3.817   8.942  0.2789 -0.9876 -0.9139
 1176SOL     OW14989   0.404   1.851  10.789 -0.6823 -0.1568  0.1443
 1176SOL    HW114990   0.319   1.872  10.750 -1.4820 -0.8936  1.5075
 1176SOL    HW214991   0.457   1.842  10.710  0.4999  1.8197  0.7040
 1177SOL     OW14992   0.823   0.918   2.173  0.5918 -0.5724  0.0543
 1177SOL    HW114993   0.751   0.859   2.198 -1.6303  2.1329  0.0225
 1177SOL    HW214994   0.876   0.857   2.121  1.3438 -0.2854  0.4894
 1178SOL     OW14995   3.857   4.525  17.282 -0.5229  0.3889  0.3858
 1178SOL    HW114996   3.791   4.457  17.296  0.3083 -1.1808 -3.3609
 1178SOL    HW214997   3.863   4.530  17.187  0.8058  1.4295  0.5342
 1179SOL     OW14998   1.962   0.040  16.658 -0.0729  0.4121  0.4428
 1179SOL    HW114999   1.929   0.120  16.698 -1.1875  0.2133 -0.0949
 1179SOL    HW215000   1.928   0.046  16.568  1.2866 -1.7699 -0.2114
 1180SOL     OW15001   3.411   4.332  12.113  0.2057  0.1288 -0.3365
 1180SOL    HW115002   3.381   4.309  12.201 -1.7387  0.0916 -1.0220
 1180SOL    HW215003   3.400   4.427  12.122 -0.2908  0.2725 -2.5985
 1181SOL     OW15004   1.794   4.194   3.036 -0.4766  0.5775  0.1736
 1181SOL    HW115005   1.719   4.136   3.023  0.0702  0.3275 -1.8171
 1181SOL    HW215006   1.751   4.278   3.056 -1.7745 -0.3035  1.1041
 1182SOL     OW15007   0.497   3.012   7.232 -0.4477 -0.1102 -0.6545
 1182SOL    HW115008   0.538   3.056   7.157 -1.0507  1.6039  0.0184
 1182SOL    HW215009   0.560   2.944   7.257 -0.6266 -1.7907 -4.7945
 1183SOL     OW15010   1.233   1.608   3.926 -0.2561  0.0470  0.4135
 1183SOL    HW115011   1.231   1.687   3.981  0.5543  1.3208 -1.4218
 1183SOL    HW215012   1.139   1.593   3.915 -0.4505  2.2192 -0.7155
 1184SOL     OW15013   2.549   3.472  15.675 -0.4257 -0.0667  0.0371
 1184SOL    HW115014   2.461   3.492  15.707  0.4042  0.5918  1.8837
 1184SOL    HW215015   2.557   3.535  15.603 -1.1281  1.0669  0.9519
 1185SOL     OW15016   4.547   1.084   5.150  0.3428 -0.2626  0.3902
 1185SOL    HW115017   4.543   1.027   5.074 -1.3490 -2.0236  1.8021
 1185SOL    HW215018   4.635   1.066   5.185  1.0755 -0.0649 -1.3462
 1186SOL     OW15019   2.243   1.972  15.434 -0.0919  0.5965  0.4279
 1186SOL    HW115020   2.243   2.011  15.346 -0.2520  2.3208  1.2075
 1186SOL    HW215021   2.151   1.982  15.456  0.1604  0.9287  1.3138
 1187SOL     OW15022   3.835   4.399   1.230  0.5390 -0.1042 -0.3494
 1187SOL    HW115023   3.801   4.412   1.318  0.0904  0.1646 -0.5602
 1187SOL    HW215024   3.798   4.467   1.173  0.2719 -0.3861 -0.5104
 1188SOL     OW15025   3.426   4.382  13.227 -0.3933  0.4763 -0.1443
 1188SOL    HW115026   3.398   4.301  13.184  0.8011  1.6450 -3.0799
 1188SOL    HW215027   3.489   4.421  13.167 -0.2863  0.2645 -0.1663
 1189SOL     OW15028   3.020   3.243  10.894 -0.1310 -0.0275  0.1125
 1189SOL    HW115029   3.032   3.195  10.975 -1.9462  0.6970  0.8050
 1189SOL    HW215030   3.109   3.247  10.858 -0.4152  0.8481 -0.5042
 1190SOL     OW15031   3.542   2.350   3.098 -0.8283  0.5045  0.3451
 1190SOL    HW115032   3.500   2.288   3.039  0.8973  1.1240 -1.5699
 1190SOL    HW215033   3.598   2.291   3.149 -0.0418  1.2150  0.3203
 1191SOL     OW15034   0.072   1.062   1.764  0.0342  0.3604  0.3895
 1191SOL    HW115035   4.703   1.043   1.760 -0.8238  4.0882  2.4516
 1191SOL    HW215036   0.092   1.062   1.670  1.7974  1.5541  0.7678
 1192SOL     OW15037   2.471   0.791   9.272  0.2738 -0.2520 -0.0508
 1192SOL    HW115038   2.432   0.763   9.355 -0.3663  0.1713 -0.2063
 1192SOL    HW215039   2.519   0.717   9.238  0.5357  0.7684 -1.8751
 1193SOL     OW15040   1.727   4.710   8.018  0.1352  0.0452  0.4304
 1193SOL    HW115041   1.686   0.010   8.101 -1.4067 -0.3639 -0.2256
 1193SOL    HW215042   1.817   4.718   8.050  1.5908 -1.5773 -3.3085
 1194SOL     OW15043   3.801   0.803  11.916 -0.1818 -0.2782 -0.2331
 1194SOL    HW115044   3.808   0.870  11.848 -0.3009  0.3426  0.3683
 1194SOL    HW215045   3.721   0.813  11.967  0.7786  0.7127  1.0725
 1195SOL     OW15046   2.655   0.529   6.512 -0.2909  0.0118 -0.4287
 1195SOL    HW115047   2.610   0.554   6.431 -0.5308  3.3131  0.7345
 1195SOL    HW215048   2.699   0.610   6.538 -1.2872  1.1651 -2.3218
 1196SOL     OW15049   3.619   0.874   4.177  0.5216 -0.0393 -0.0813
 1196SOL    HW115050   3.533   0.835   4.164  0.4619 -0.1929  0.8089
 1196SOL    HW215051   3.591   0.966   4.170 -0.8384 -0.4418  0.1136
 1197SOL     OW15052   2.365   2.473   8.314 -0.1961 -0.6851  0.0789
 1197SOL    HW115053   2.293   2.502   8.370  0.3236  0.1119  0.3518
 1197SOL    HW215054   2.337   2.390   8.277 -3.5394 -0.1444  1.4342
 1198SOL     OW15055   1.804   1.477   2.524  0.5966 -0.3662 -0.3322
 1198SOL    HW115056   1.813   1.568   2.497  0.3350  0.6727  3.0792
 1198SOL    HW215057   1.843   1.476   2.611  2.0477  0.6544 -0.9747
 1199SOL     OW15058   2.855   3.919  16.868  0.0979 -0.1019 -0.1818
 1199SOL    HW115059   2.935   3.868  16.883 -0.7985 -1.2250  0.6780
 1199SOL    HW215060   2.806   3.893  16.945 -0.8463 -0.2987 -0.8454
 1200SOL     OW15061   4.183   2.514   4.500 -0.0186 -0.1179 -1.1317
 1200SOL    HW115062   4.243   2.563   4.444  0.3857  0.0850 -0.5206
 1200SOL    HW215063   4.125   2.589   4.513  1.4335  1.0019 -1.1217
 1201SOL     OW15064   1.227   0.519   5.694  0.4302 -0.6296  0.0134
 1201SOL    HW115065   1.239   0.429   5.725 -0.5312  0.2495  2.9680
 1201SOL    HW215066   1.168   0.541   5.767 -0.8855  3.6178 -2.3210
 1202SOL     OW15067   2.737   3.662   3.211  1.0810  0.1263  0.0657
 1202SOL    HW115068   2.760   3.713   3.133 -1.0646  0.8930 -0.0785
 1202SOL    HW215069   2.712   3.730   3.273 -2.0964 -0.4752 -0.5653
 1203SOL     OW15070   2.011   2.100  15.038 -0.3367  0.2665 -0.3669
 1203SOL    HW115071   1.955   2.023  15.034  1.1783 -0.8004 -0.6934
 1203SOL    HW215072   1.943   2.160  15.071  0.0918 -0.4662  1.8559
 1204SOL     OW15073   2.982   3.550  10.423 -0.2278 -0.2375  0.2370
 1204SOL    HW115074   2.965   3.475  10.481  1.7904 -1.0847 -0.2850
 1204SOL    HW215075   2.939   3.624  10.467 -0.6034 -0.2900 -0.0393
 1205SOL     OW15076   3.987   2.079  14.604  0.4192 -0.1344  0.3897
 1205SOL    HW115077   3.956   2.008  14.659  1.0706 -0.7102  0.0045
 1205SOL    HW215078   3.926   2.068  14.531  1.1497  1.7020 -0.4999
 1206SOL     OW15079   4.536   1.758   7.263  0.0397  0.5665  0.0785
 1206SOL    HW115080   4.485   1.691   7.308 -1.0705  0.4438 -1.3714
 1206SOL    HW215081   4.517   1.823   7.332 -0.7204 -1.2341  1.5681
 1207SOL     OW15082   2.894   0.157   6.746 -0.3209 -0.6969 -0.4793
 1207SOL    HW115083   2.952   0.192   6.812  1.3064 -1.2716 -1.6035
 1207SOL    HW215084   2.902   0.233   6.689 -1.0769 -0.0934  0.2205
 1208SOL     OW15085   4.383   4.103   2.084 -0.5747 -0.6843  0.6506
 1208SOL    HW115086   4.377   4.198   2.072 -0.8534 -0.8813 -0.7690
 1208SOL    HW215087   4.288   4.096   2.091 -0.6197  0.5132  1.2800
 1209SOL     OW15088   3.173   1.322   4.787 -0.2300 -0.1825 -0.3381
 1209SOL    HW115089   3.184   1.268   4.709 -1.4465  0.5410 -1.0247
 1209SOL    HW215090   3.203   1.402   4.743 -2.5544  1.7156  1.5507
 1210SOL     OW15091   1.027   2.796  15.767 -0.0827  0.1084  0.7864
 1210SOL    HW115092   0.986   2.865  15.715 -1.7715 -0.1978  1.7087
 1210SOL    HW215093   1.097   2.838  15.817  0.2265 -0.7858  1.1035
 1211SOL     OW15094   0.867   3.018  15.685 -0.3697 -0.0854 -0.1249
 1211SOL    HW115095   0.882   3.081  15.614 -0.2892 -1.2289 -1.1309
 1211SOL    HW215096   0.797   3.058  15.737 -0.2479 -0.8073  0.5839
 1212SOL     OW15097   2.996   0.692  10.539 -0.4956  0.2051  0.0776
 1212SOL    HW115098   2.985   0.787  10.543 -1.1585  0.1766 -1.0223
 1212SOL    HW215099   2.921   0.679  10.481  0.6739  1.8640 -1.8023
 1213SOL     OW15100   1.763   0.404   8.756  0.0027 -0.1086  0.3298
 1213SOL    HW115101   1.771   0.495   8.726  0.1521  0.3401  1.7196
 1213SOL    HW215102   1.682   0.413   8.806  0.5103  0.5062  1.0361
 1214SOL     OW15103   0.982   3.433   5.243  0.3677  0.4936 -0.3306
 1214SOL    HW115104   0.964   3.341   5.263  2.2062  0.2646  0.2721
 1214SOL    HW215105   0.945   3.437   5.154  0.7401  2.3429 -0.4091
 1215SOL     OW15106   2.129   3.110  16.147  0.1233 -0.1263 -0.0720
 1215SOL    HW115107   2.218   3.131  16.176  0.1519 -0.7790  0.3099
 1215SOL    HW215108   2.081   3.098  16.229  1.5356 -0.4486  0.7202
 1216SOL     OW15109   0.266   4.047   8.302  0.1781  0.8262 -0.3769
 1216SOL    HW115110   0.269   4.115   8.234 -0.3254  1.7905  0.5548
 1216SOL    HW215111   0.170   4.046   8.310  0.1408  2.8699 -0.5980
 1217SOL     OW15112   2.561   1.677   0.703 -0.2504 -0.0719  0.1338
 1217SOL    HW115113   2.567   1.630   0.620 -1.7291 -1.4641  0.7952
 1217SOL    HW215114   2.468   1.657   0.717 -0.5719  2.8601  2.1769
 1218SOL     OW15115   0.764   2.331   4.131  0.2560 -0.3029 -0.2443
 1218SOL    HW115116   0.825   2.335   4.058  0.4854 -2.3797 -0.1589
 1218SOL    HW215117   0.716   2.414   4.123 -0.7351 -1.2513 -3.8708
 1219SOL     OW15118   4.551   0.160   8.350  0.0131 -0.2647  0.3053
 1219SOL    HW115119   4.629   0.209   8.324 -0.8200  0.8504 -0.0999
 1219SOL    HW215120   4.518   0.146   8.261 -0.2581  0.2652  0.3204
 1220SOL     OW15121   0.196   3.352  10.702  0.4179  0.0001 -0.5790
 1220SOL    HW115122   0.265   3.348  10.636  2.4758  0.9826  1.5081
 1220SOL    HW215123   0.123   3.333  10.644 -0.8265 -0.5092  1.1591
 1221SOL     OW15124   2.709   2.306  14.583  0.7012 -0.5838 -0.4320
 1221SOL    HW115125   2.725   2.237  14.647  0.3429  1.2441  1.6162
 1221SOL    HW215126   2.735   2.385  14.630  0.0976 -1.0253  0.6430
 1222SOL     OW15127   0.184   1.000   4.788  0.3789 -0.1882 -0.0330
 1222SOL    HW115128   0.135   1.031   4.712 -2.6189 -2.3484  0.9962
 1222SOL    HW215129   0.236   0.931   4.747  2.0482  0.4612  0.9819
 1223SOL     OW15130   2.221   1.729   2.068 -0.5397 -0.0658 -0.3242
 1223SOL    HW115131   2.309   1.764   2.072  0.0635 -1.7867  1.0795
 1223SOL    HW215132   2.173   1.788   2.009 -0.8129  1.6170  1.5777
 1224SOL     OW15133   0.158   3.307   5.471 -0.3072 -0.2457 -0.2513
 1224SOL    HW115134   0.214   3.329   5.397  1.5329 -3.8585  0.0896
 1224SOL    HW215135   0.228   3.316   5.536 -0.2429  1.6988 -0.5805
 1225SOL     OW15136   1.987   2.625   7.026 -0.3100  0.6393  0.2681
 1225SOL    HW115137   1.938   2.563   6.972 -0.7384  0.2581  1.1012
 1225SOL    HW215138   2.075   2.615   6.989 -0.2451  2.8879 -0.2111
 1226SOL     OW15139   0.577   3.839   3.780 -0.3660 -0.6776 -0.1842
 1226SOL    HW115140   0.570   3.791   3.863 -2.7091  0.2429  0.1748
 1226SOL    HW215141   0.558   3.767   3.719  2.1435 -1.2443 -0.2719
 1227SOL     OW15142   1.235   1.413   8.160 -0.7969 -0.1464  0.4335
 1227SOL    HW115143   1.283   1.362   8.225  0.2900 -1.1766 -1.1622
 1227SOL    HW215144   1.160   1.368   8.121 -1.8196  1.1532  0.9094
 1228SOL     OW15145   1.419   3.976   8.436 -0.3648  0.0823  0.8422
 1228SOL    HW115146   1.388   3.967   8.346 -0.3873  0.2828  0.8313
 1228SOL    HW215147   1.341   3.948   8.483 -0.5734  0.9938  1.0174
 1229SOL     OW15148   1.677   2.348   5.115  0.2741  0.0584  0.0411
 1229SOL    HW115149   1.664   2.334   5.209 -1.6614  0.6933 -0.1426
 1229SOL    HW215150   1.592   2.334   5.072  0.1922 -0.6093  0.4099
 1230SOL     OW15151   4.090   4.426   1.108 -0.4181 -0.6861 -0.1196
 1230SOL    HW115152   4.145   4.440   1.185  1.2743 -1.1458 -1.2525
 1230SOL    HW215153   4.001   4.418   1.143 -1.3473  1.2351 -2.0517
 1231SOL     OW15154   2.164   0.698   8.271  0.3148  0.1192 -0.3040
 1231SOL    HW115155   2.084   0.647   8.283 -0.6266  1.5235 -0.6518
 1231SOL    HW215156   2.192   0.736   8.355 -0.4301  1.2003 -0.5458
 1232SOL     OW15157   3.137   1.027   3.411  0.4702 -0.0616 -0.3284
 1232SOL    HW115158   3.230   1.048   3.407 -0.0362  2.0407 -0.9358
 1232SOL    HW215159   3.111   1.050   3.322  0.7855  0.0980 -0.3787
 1233SOL     OW15160   4.710   0.804   4.051 -0.4300  0.4069 -0.0577
 1233SOL    HW115161   4.623   0.763   4.061 -0.3728  0.3644  0.2755
 1233SOL    HW215162   0.038   0.740   4.099 -2.2473 -0.5209  0.7264
 1234SOL     OW15163   1.095   3.312   3.665 -0.3093 -0.1367 -0.1383
 1234SOL    HW115164   1.126   3.327   3.576  0.2846  1.5322  0.3467
 1234SOL    HW215165   1.004   3.288   3.651 -0.3055 -0.1557 -0.1300
 1235SOL     OW15166   1.280   4.593  17.037  0.0274 -0.1127  0.0209
 1235SOL    HW115167   1.284   4.624  16.946  2.5264 -0.8713 -0.1409
 1235SOL    HW215168   1.374   4.594  17.056  0.0006 -0.2375  0.1600
 1236SOL     OW15169   1.417   0.811   3.148 -0.3977  0.4981  0.0031
 1236SOL    HW115170   1.394   0.756   3.223 -1.2282  0.2313 -0.4538
 1236SOL    HW215171   1.507   0.788   3.123 -0.9863 -0.4936 -1.2123
 1237SOL     OW15172   3.170   1.535   2.143 -0.6551 -0.3030 -0.4740
 1237SOL    HW115173   3.107   1.514   2.074  1.4226  0.9592 -2.7316
 1237SOL    HW215174   3.166   1.631   2.146  0.4679 -0.3140  1.5784
 1238SOL     OW15175   0.725   2.485   3.054  0.1977 -0.5417  0.1763
 1238SOL    HW115176   0.753   2.397   3.078 -0.2407 -1.0640 -1.2688
 1238SOL    HW215177   0.806   2.519   3.016  1.4307 -1.6135  1.8409
 1239SOL     OW15178   4.666   3.281  10.623 -0.5923 -0.2106  0.6037
 1239SOL    HW115179   4.630   3.367  10.644 -0.9386 -0.3394  0.5457
 1239SOL    HW215180   4.638   3.221  10.692 -0.5992 -0.1198  0.6801
 1240SOL     OW15181   0.132   1.258  15.856 -0.3070  0.0159  0.4238
 1240SOL    HW115182   0.087   1.343  15.857 -0.3489 -0.0192  1.4637
 1240SOL    HW215183   0.118   1.230  15.765 -0.3645 -0.7731  0.6794
 1241SOL     OW15184   4.496   4.380   3.476  0.2328  0.3141  0.7321
 1241SOL    HW115185   4.545   4.367   3.394  1.5912 -1.4884  1.8170
 1241SOL    HW215186   4.565   4.419   3.529 -1.4264  0.8938  2.4214
 1242SOL     OW15187   0.936   1.925   5.613 -0.1569 -0.0835 -0.3628
 1242SOL    HW115188   1.007   1.984   5.590 -1.7290  1.8492 -0.3175
 1242SOL    HW215189   0.984   1.853   5.653 -2.1505 -0.2607  1.7293
 1243SOL     OW15190   1.288   0.784   9.390 -0.3313  0.0231  0.2562
 1243SOL    HW115191   1.361   0.835   9.354  0.7432  1.4515  4.4965
 1243SOL    HW215192   1.232   0.781   9.312  0.9648 -0.6737 -0.6519
 1244SOL     OW15193   0.792   0.974   2.755  0.2602  0.4838  0.1422
 1244SOL    HW115194   0.730   1.023   2.700  0.9721 -0.3004 -1.3574
 1244SOL    HW215195   0.780   0.886   2.720  0.8201 -0.3177  1.9542
 1245SOL     OW15196   0.239   1.093   6.790 -0.0361 -0.1621  0.4409
 1245SOL    HW115197   0.304   1.114   6.858 -1.9545  0.9753  1.9035
 1245SOL    HW215198   0.163   1.141   6.823  0.7331  0.5679  1.1508
 1246SOL     OW15199   3.384   4.607  16.896  0.3005 -0.0875  0.2973
 1246SOL    HW115200   3.355   4.516  16.902  3.1376 -0.9115  1.5791
 1246SOL    HW215201   3.304   4.658  16.889  2.0220  2.4815 -0.9317
 1247SOL     OW15202   0.179   2.069   7.467  0.1451 -0.3184 -0.1981
 1247SOL    HW115203   0.149   2.155   7.498 -0.6061 -0.6570  0.0246
 1247SOL    HW215204   0.268   2.074   7.501  0.2261  0.4349 -0.5087
 1248SOL     OW15205   2.093   3.656  17.426  0.5528 -0.0528 -0.2850
 1248SOL    HW115206   2.174   3.688  17.465  0.6313 -0.0987 -0.4110
 1248SOL    HW215207   2.029   3.725  17.445 -0.2235 -0.9521  0.3730
 1249SOL     OW15208   4.560   0.430   2.208  0.0067  0.5744 -0.2153
 1249SOL    HW115209   4.582   0.451   2.117 -3.1002 -1.6256 -1.4893
 1249SOL    HW215210   4.473   0.391   2.198 -0.4910  1.4748  0.5477
 1250SOL     OW15211   4.410   0.084   7.757  0.0556  0.4809 -0.0012
 1250SOL    HW115212   4.416   0.119   7.846 -0.4368 -4.8767  2.1736
 1250SOL    HW215213   4.432   0.164   7.709  0.0099 -0.0166 -0.8527
 1251SOL     OW15214   2.964   3.945  15.722 -0.2024  0.3506 -0.9619
 1251SOL    HW115215   3.044   3.935  15.670 -1.1438 -2.9939 -1.7986
 1251SOL    HW215216   2.928   3.856  15.728 -0.4090  0.5840  1.1809
 1252SOL     OW15217   3.192   3.239   7.658 -1.0383 -0.1399 -0.1988
 1252SOL    HW115218   3.101   3.208   7.648 -1.2264  0.5288 -0.5251
 1252SOL    HW215219   3.228   3.158   7.695  0.2646  0.3645 -0.3723
 1253SOL     OW15220   2.377   1.161   3.888  0.0038 -0.6537  0.2434
 1253SOL    HW115221   2.323   1.132   3.961 -0.3127 -2.1067 -0.5594
 1253SOL    HW215222   2.349   1.100   3.820 -1.1402  0.2039 -0.0518
 1254SOL     OW15223   4.195   0.645  11.657  0.1121 -0.2163  0.0841
 1254SOL    HW115224   4.108   0.638  11.619  0.2508  2.2811 -0.6599
 1254SOL    HW215225   4.196   0.562  11.705  0.3429 -1.5383 -2.1657
 1255SOL     OW15226   0.654   3.507   3.820 -0.2516 -0.3798  0.2929
 1255SOL    HW115227   0.623   3.514   3.729 -2.1619 -2.2175  0.8075
 1255SOL    HW215228   0.581   3.553   3.861 -0.6611 -0.1938 -0.6240
 1256SOL     OW15229   2.794   1.966   6.994  0.8211  0.3733  0.3586
 1256SOL    HW115230   2.880   1.937   7.024  1.5379 -0.6764 -2.7454
 1256SOL    HW215231   2.743   1.960   7.075 -0.7149 -0.5745 -0.6740
 1257SOL     OW15232   0.634   0.917   1.365  0.0844  0.4153 -0.1023
 1257SOL    HW115233   0.640   1.012   1.370 -1.3084  0.4228  1.6272
 1257SOL    HW215234   0.668   0.888   1.451 -0.0683 -1.4705 -0.6673
 1258SOL     OW15235   0.896   3.869   8.493 -0.0153  0.2874  0.2499
 1258SOL    HW115236   0.866   3.917   8.415  0.9296 -2.0121 -1.5265
 1258SOL    HW215237   0.909   3.775   8.478  0.5339  0.3771  0.1443
 1259SOL     OW15238   0.128   3.910   3.526  0.5307  0.2993  0.0342
 1259SOL    HW115239   0.172   3.873   3.449  0.8572  0.2959  0.2226
 1259SOL    HW215240   0.048   3.941   3.483  1.4971  2.0861 -0.4592
 1260SOL     OW15241   4.179   2.741   0.840  0.1611  0.0967  0.4265
 1260SOL    HW115242   4.122   2.818   0.837 -1.5350 -1.1467  0.3948
 1260SOL    HW215243   4.204   2.744   0.932 -0.2580 -0.7469  0.5692
 1261SOL     OW15244   3.449   2.596   9.973  0.2326 -0.2554 -0.6316
 1261SOL    HW115245   3.523   2.544  10.003 -0.5310 -0.9548  0.0736
 1261SOL    HW215246   3.486   2.679  10.002 -2.5347  1.9910 -3.4903
 1262SOL     OW15247   3.778   0.888   9.238  0.3936  0.3587  0.7560
 1262SOL    HW115248   3.697   0.862   9.193 -0.2527 -0.9201  2.6436
 1262SOL    HW215249   3.737   0.964   9.280  3.4099  2.3356  0.1287
 1263SOL     OW15250   3.910   2.923   7.010 -0.8876 -0.6027  0.4300
 1263SOL    HW115251   3.898   2.997   7.070 -1.0263  1.0833 -1.6887
 1263SOL    HW215252   3.857   2.962   6.941  1.5574  0.5687 -0.8239
 1264SOL     OW15253   1.754   3.582   7.623 -0.0205  0.6795 -0.1168
 1264SOL    HW115254   1.693   3.639   7.671 -0.8461  0.1171 -0.5068
 1264SOL    HW215255   1.711   3.497   7.625  0.7134  0.3094 -0.1379
 1265SOL     OW15256   3.798   4.162   9.408 -0.0105  0.2478  0.6371
 1265SOL    HW115257   3.892   4.150   9.403  0.0428  1.8802 -2.0131
 1265SOL    HW215258   3.772   4.070   9.414 -0.6527  0.5886  3.1789
 1266SOL     OW15259   3.926   2.891   4.893 -0.0017  0.2279  0.1040
 1266SOL    HW115260   3.867   2.943   4.947  0.7609  0.5205  0.6464
 1266SOL    HW215261   3.979   2.951   4.841 -0.1100  0.2767  0.0507
 1267SOL     OW15262   2.355   3.037  11.922  0.0416  0.0924  0.5903
 1267SOL    HW115263   2.333   3.063  11.832 -0.9102  2.0981  1.3971
 1267SOL    HW215264   2.448   3.059  11.934 -0.6143  2.0305  2.0561
 1268SOL     OW15265   4.013   0.422   7.015 -0.4910  0.3262  0.2642
 1268SOL    HW115266   4.025   0.410   6.921 -2.1967 -0.8028  0.1796
 1268SOL    HW215267   4.068   0.347   7.037 -0.1222  0.1716 -1.2003
 1269SOL     OW15268   2.229   2.459   7.715  0.2297  0.2373  0.3259
 1269SOL    HW115269   2.297   2.489   7.774 -0.7293 -0.7757  1.9637
 1269SOL    HW215270   2.167   2.532   7.711  1.4267  1.1434 -1.3262
 1270SOL     OW15271   4.072   1.931  15.958 -0.3986 -0.3101  0.1258
 1270SOL    HW115272   4.076   1.909  16.051 -0.4766 -3.2017 -0.5603
 1270SOL    HW215273   4.032   1.850  15.925 -0.2408 -0.6147  0.6766
 1271SOL     OW15274   2.170   3.092   7.862 -0.2265 -0.6545 -0.0181
 1271SOL    HW115275   2.257   3.054   7.874 -0.4329 -0.9974  0.3767
 1271SOL    HW215276   2.166   3.090   7.766  2.7819 -0.3304 -0.1669
 1272SOL     OW15277   0.206   2.782  16.448 -0.6274  0.5777  0.1324
 1272SOL    HW115278   0.238   2.702  16.407  0.6075  0.0761  2.0712
 1272SOL    HW215279   0.170   2.824  16.370 -0.0663 -1.3613 -1.1835
 1273SOL     OW15280   3.535   0.259   9.055  0.2649 -0.5105  0.4219
 1273SOL    HW115281   3.447   0.227   9.075 -0.2859  0.6502 -0.1074
 1273SOL    HW215282   3.575   0.281   9.139  0.2212 -1.2001  0.6210
 1274SOL     OW15283   0.645   3.525   3.221 -0.3365 -0.1299 -0.4557
 1274SOL    HW115284   0.729   3.487   3.195 -0.7031 -0.1590 -1.6181
 1274SOL    HW215285   0.610   3.536   3.132  2.6104  1.6071 -1.3813
 1275SOL     OW15286   0.208   0.719   7.584  0.4222 -0.5050  0.5022
 1275SOL    HW115287   0.123   0.719   7.628 -1.0162 -0.2080 -2.2694
 1275SOL    HW215288   0.254   0.656   7.640  3.5514  0.6790 -0.7368
 1276SOL     OW15289   3.466   0.480   7.733  0.1372 -0.3156  0.2087
 1276SOL    HW115290   3.388   0.518   7.773  1.6200  1.6365  1.2225
 1276SOL    HW215291   3.526   0.552   7.752  0.4392 -0.3449 -0.5962
 1277SOL     OW15292   1.060   3.682   9.619 -0.6495 -0.3933 -0.7222
 1277SOL    HW115293   1.052   3.704   9.712 -0.7077 -0.3711 -0.7325
 1277SOL    HW215294   0.986   3.732   9.585 -1.5527 -1.0663  0.2478
 1278SOL     OW15295   4.589   3.131   5.015 -0.3244 -0.1705  0.1612
 1278SOL    HW115296   4.499   3.153   4.990 -0.3117 -0.9818 -0.5778
 1278SOL    HW215297   4.602   3.191   5.089 -1.3361  1.2061 -0.7866
 1279SOL     OW15298   1.127   2.302   8.977  0.6243 -0.1897  0.6264
 1279SOL    HW115299   1.169   2.369   9.031  2.1798 -1.4924  1.0549
 1279SOL    HW215300   1.189   2.295   8.904  0.7990  1.2087  0.6410
 1280SOL     OW15301   2.160   3.900   7.009 -0.2586  1.0763  0.3546
 1280SOL    HW115302   2.202   3.975   6.964  1.2095 -1.3584 -2.3392
 1280SOL    HW215303   2.158   3.831   6.943 -1.9477 -0.9213  2.5286
 1281SOL     OW15304   0.235   4.552  10.273 -0.2579 -0.8882 -0.0469
 1281SOL    HW115305   0.228   4.503  10.355  1.3395 -2.2464 -0.7091
 1281SOL    HW215306   0.299   4.497  10.228 -0.7802 -1.0916 -0.5382
 1282SOL     OW15307   4.214   2.383   1.942  0.0087 -0.3669  0.5347
 1282SOL    HW115308   4.279   2.445   1.972  1.8520 -2.5198  0.9757
 1282SOL    HW215309   4.258   2.361   1.860  0.8776  1.4200  0.5336
 1283SOL     OW15310   2.234   4.252   9.866  0.2337  0.5023 -0.2177
 1283SOL    HW115311   2.172   4.324   9.881 -0.5134 -0.0505 -0.6732
 1283SOL    HW215312   2.176   4.177   9.869  1.5490 -0.4771  1.0079
 1284SOL     OW15313   0.047   0.110   0.835  0.4600  0.4204 -0.3943
 1284SOL    HW115314   0.062   0.044   0.903  0.7054  1.3531  0.4677
 1284SOL    HW215315   0.141   0.121   0.821  0.0743  1.3133 -2.1963
 1285SOL     OW15316   3.465   2.837   3.308  0.1881 -0.1322  0.3280
 1285SOL    HW115317   3.508   2.752   3.302 -0.3428 -0.3148 -0.9083
 1285SOL    HW215318   3.531   2.886   3.358 -0.6421 -1.0815  2.3268
 1286SOL     OW15319   0.545   4.102   7.212  0.2881 -0.2533 -0.1342
 1286SOL    HW115320   0.620   4.082   7.157  1.3567  0.5362  1.0412
 1286SOL    HW215321   0.528   4.014   7.248  1.3257  0.0314  1.0409
 1287SOL     OW15322   4.027   2.177  14.989  0.1791 -0.2593 -0.0891
 1287SOL    HW115323   4.039   2.223  14.905 -3.2167  0.4172 -0.2039
 1287SOL    HW215324   4.111   2.196  15.029  0.9904 -1.9028 -1.0168
 1288SOL     OW15325   4.528   3.902  15.123  0.3625 -0.4028  0.0577
 1288SOL    HW115326   4.515   3.888  15.029 -0.4954 -0.3185  0.1656
 1288SOL    HW215327   4.623   3.900  15.129  0.3417  0.1022  0.5192
 1289SOL     OW15328   0.182   0.416   2.904 -0.3350  0.2666 -0.1746
 1289SOL    HW115329   0.166   0.474   2.830 -0.7677 -1.6674 -1.5933
 1289SOL    HW215330   0.094   0.412   2.941 -1.0579 -0.7151 -1.9936
 1290SOL     OW15331   2.973   0.266   4.670 -0.3637  0.2886  0.0232
 1290SOL    HW115332   2.967   0.227   4.583 -3.5469 -2.2460  1.4009
 1290SOL    HW215333   3.008   0.351   4.644 -0.5329  0.1931 -0.5161
 1291SOL     OW15334   4.229   3.324   8.307 -0.2627  0.5703 -0.3053
 1291SOL    HW115335   4.134   3.319   8.296  0.0036 -2.2000 -1.2927
 1291SOL    HW215336   4.258   3.238   8.276  0.5749  0.6359  0.2981
 1292SOL     OW15337   2.904   3.416  11.552 -0.0259 -0.4633 -0.0597
 1292SOL    HW115338   2.939   3.400  11.640  0.7153 -0.6853 -0.3969
 1292SOL    HW215339   2.852   3.495  11.570  1.8301  1.2374 -2.1817
 1293SOL     OW15340   0.008   1.711   4.221 -0.2067  0.3416  0.0577
 1293SOL    HW115341   0.012   1.716   4.316 -0.1306 -0.1691  0.0796
 1293SOL    HW215342   0.099   1.715   4.191  0.0130  0.7035  0.7641
 1294SOL     OW15343   2.559   3.189   1.860 -0.1658 -0.4727  0.4318
 1294SOL    HW115344   2.530   3.246   1.931 -0.1816  1.1521 -0.8825
 1294SOL    HW215345   2.531   3.103   1.892 -1.1435  0.0585  0.9678
 1295SOL     OW15346   0.409   0.674   5.926  0.3763  0.5406 -0.2553
 1295SOL    HW115347   0.330   0.672   5.871 -0.8346 -1.0447  1.5394
 1295SOL    HW215348   0.412   0.584   5.959  1.8761  1.3314  1.7934
 1296SOL     OW15349   4.033   4.455   4.251  0.1365 -0.2050  0.2313
 1296SOL    HW115350   4.085   4.515   4.198 -0.1384  0.0539  0.2553
 1296SOL    HW215351   3.970   4.508   4.301  0.8642 -0.4209  1.3785
 1297SOL     OW15352   3.810   3.215   6.327  0.0804 -0.5996  0.6675
 1297SOL    HW115353   3.854   3.254   6.403 -3.7161  1.0980  1.9967
 1297SOL    HW215354   3.722   3.199   6.363  0.6388  1.5759  2.9888
 1298SOL     OW15355   3.322   1.718  15.377  0.1964 -0.8756  0.1751
 1298SOL    HW115356   3.363   1.678  15.301 -0.2478  0.0589 -0.5586
 1298SOL    HW215357   3.247   1.756  15.331  0.3964 -1.4518 -0.6142
 1299SOL     OW15358   2.493   2.850   7.523 -0.3046 -0.1544  0.0167
 1299SOL    HW115359   2.516   2.771   7.475  0.5742 -0.3450  0.7375
 1299SOL    HW215360   2.400   2.846   7.502 -0.1202 -1.2296 -0.5675
 1300SOL     OW15361   1.800   1.075  12.768 -0.2960 -0.4639  0.3281
 1300SOL    HW115362   1.855   1.007  12.729 -0.6898 -0.8031  0.3715
 1300SOL    HW215363   1.862   1.138  12.805  0.2222 -1.9293  1.9188
 1301SOL     OW15364   4.418   1.195   4.214  0.1208  0.5351 -0.0731
 1301SOL    HW115365   4.438   1.287   4.232  0.6288  0.4070 -0.0021
 1301SOL    HW215366   4.397   1.170   4.304 -0.3425 -1.0707 -0.6338
 1302SOL     OW15367   4.658   2.576   7.169 -0.2117 -0.2822  0.2267
 1302SOL    HW115368   4.572   2.544   7.194  0.1683 -0.6382  1.1022
 1302SOL    HW215369   4.628   2.617   7.088 -0.3624  1.4976  1.1728
 1303SOL     OW15370   3.318   2.078  13.815  0.3833 -0.2551  0.5876
 1303SOL    HW115371   3.362   2.035  13.742 -3.0995 -2.4730 -0.2204
 1303SOL    HW215372   3.269   2.156  13.785  0.4815  0.3396  1.9675
 1304SOL     OW15373   2.556   4.201  13.087  0.2604 -0.1819  0.0695
 1304SOL    HW115374   2.554   4.226  13.180  2.5452 -0.0280  0.0912
 1304SOL    HW215375   2.528   4.283  13.046  0.6324 -1.2350 -2.2766
 1305SOL     OW15376   4.570   0.892   4.940  0.0179  0.3643  0.6749
 1305SOL    HW115377   4.599   0.922   4.854 -3.1510  0.3929 -0.3655
 1305SOL    HW215378   4.510   0.824   4.911  2.2999  0.4666 -4.1991
 1306SOL     OW15379   1.592   1.708   4.999 -0.3835  0.2028  0.1418
 1306SOL    HW115380   1.678   1.732   4.965  0.9428 -0.2861  3.1498
 1306SOL    HW215381   1.534   1.754   4.938  0.0117 -0.1634 -0.5055
 1307SOL     OW15382   0.657   3.721   8.309  0.2661 -0.4251  0.4750
 1307SOL    HW115383   0.610   3.640   8.292 -0.6147  0.1786  0.0319
 1307SOL    HW215384   0.721   3.687   8.371  3.3795  0.8510 -2.0214
 1308SOL     OW15385   0.272   0.723   2.557  0.0307  0.1243  0.4145
 1308SOL    HW115386   0.365   0.699   2.561 -0.2993 -1.0198  1.1816
 1308SOL    HW215387   0.236   0.693   2.641  1.5784  2.0326  1.7449
 1309SOL     OW15388   2.235   0.427  15.907  0.7291  0.4112 -0.1408
 1309SOL    HW115389   2.140   0.439  15.915  0.8896  0.8709  1.0082
 1309SOL    HW215390   2.259   0.500  15.964  0.0583  0.0684  0.5850
 1310SOL     OW15391   1.247   1.740  11.722  0.3460 -0.0964 -0.7480
 1310SOL    HW115392   1.299   1.790  11.660  0.0050 -0.4044 -1.2780
 1310SOL    HW215393   1.302   1.667  11.750 -2.1237 -1.8010 -0.3030
 1311SOL     OW15394   2.473   1.384  15.709  0.3378 -0.0181  0.0732
 1311SOL    HW115395   2.544   1.429  15.754 -1.9259  5.2144 -1.6065
 1311SOL    HW215396   2.411   1.379  15.781  0.3711 -0.2121  0.0871
 1312SOL     OW15397   4.220   2.369   8.459 -0.8432 -0.4466  0.8888
 1312SOL    HW115398   4.297   2.386   8.405 -2.1890 -0.4361 -1.0353
 1312SOL    HW215399   4.175   2.295   8.418 -0.4655 -0.4812  0.5326
 1313SOL     OW15400   2.693   1.812   6.785  0.3509 -0.0154 -0.7947
 1313SOL    HW115401   2.729   1.740   6.837 -0.2806 -0.0592 -0.4142
 1313SOL    HW215402   2.724   1.890   6.831 -0.5125  0.4961 -1.0790
 1314SOL     OW15403   2.976   1.405  10.485 -0.4866 -0.1017  0.4171
 1314SOL    HW115404   2.948   1.375  10.571 -0.8209  0.4455  0.4961
 1314SOL    HW215405   3.043   1.468  10.507 -0.8084 -0.0804  1.3202
 1315SOL     OW15406   1.352   2.041  13.936  0.2958  0.2142  0.4469
 1315SOL    HW115407   1.315   1.962  13.897 -2.7372  1.5620  0.6066
 1315SOL    HW215408   1.417   2.064  13.870  0.9492  0.9958  1.3527
 1316SOL     OW15409   2.314   2.772   4.792 -0.4484 -0.2762 -0.6373
 1316SOL    HW115410   2.366   2.705   4.835 -1.3220 -0.3041  0.3791
 1316SOL    HW215411   2.224   2.739   4.796 -0.3318 -0.7187 -1.6409
 1317SOL     OW15412   4.716   1.189   7.438  0.6198 -0.3306  0.1807
 1317SOL    HW115413   4.702   1.130   7.513 -1.1510 -2.8498 -2.1150
 1317SOL    HW215414   4.687   1.275   7.469 -0.9350 -1.0465  0.7313
 1318SOL     OW15415   2.133   0.993   1.717 -0.4080  0.5028 -0.3164
 1318SOL    HW115416   2.189   1.037   1.780  1.7142  0.0348 -1.8934
 1318SOL    HW215417   2.048   1.025   1.747  0.3013  2.2644 -0.2067
 1319SOL     OW15418   3.534   0.854   4.781 -0.6846  0.2365 -0.2393
 1319SOL    HW115419   3.566   0.905   4.707 -1.5691 -0.5461 -1.1480
 1319SOL    HW215420   3.586   0.889   4.854 -0.1377 -1.2332  0.0797
 1320SOL     OW15421   4.664   0.331   1.687 -0.2977  0.2851  0.4441
 1320SOL    HW115422   4.582   0.300   1.648  0.2713 -0.3190 -0.2459
 1320SOL    HW215423   4.674   0.422   1.657  0.0463 -0.5867 -2.0061
 1321SOL     OW15424   0.190   0.307   5.541  0.1246  0.2562  0.2152
 1321SOL    HW115425   0.215   0.305   5.449 -1.3384 -2.3591 -0.1263
 1321SOL    HW215426   0.200   0.399   5.565 -1.6349 -0.0209  2.0285
 1322SOL     OW15427   4.360   2.294  12.958 -0.0431  0.0580  0.5204
 1322SOL    HW115428   4.313   2.270  12.878  3.3826 -0.7890 -1.1993
 1322SOL    HW215429   4.442   2.317  12.915  0.0972  2.7232  2.2204
 1323SOL     OW15430   2.241   3.833   7.931  0.1498 -0.4082  0.0767
 1323SOL    HW115431   2.268   3.856   8.020 -2.0487 -1.9302  1.1226
 1323SOL    HW215432   2.208   3.914   7.890  0.1999 -1.0706 -1.2876
 1324SOL     OW15433   0.828   0.958  11.126  0.4459 -0.4010  0.8754
 1324SOL    HW115434   0.807   1.036  11.176  1.6572 -0.3628  1.3304
 1324SOL    HW215435   0.923   0.958  11.134  0.3684 -0.9693  1.8113
 1325SOL     OW15436   2.772   4.204   1.619 -0.4777 -0.3818 -0.3461
 1325SOL    HW115437   2.785   4.113   1.645  0.5195 -0.2561 -0.4075
 1325SOL    HW215438   2.756   4.205   1.525 -1.9345  1.0712 -0.0727
 1326SOL     OW15439   0.549   0.138   1.675  0.3944 -0.1285 -0.1073
 1326SOL    HW115440   0.456   0.125   1.692  0.0637  0.2101 -1.6280
 1326SOL    HW215441   0.590   0.056   1.704 -1.2491 -1.3668 -1.2687
 1327SOL     OW15442   4.388   3.920   5.538  0.4043  0.1047 -0.7203
 1327SOL    HW115443   4.431   3.850   5.588  0.3509 -0.8354 -2.0026
 1327SOL    HW215444   4.349   3.866   5.470  2.9234 -0.7001 -1.5172
 1328SOL     OW15445   4.579   0.596   1.981  0.0890 -0.1740  0.0737
 1328SOL    HW115446   4.538   0.674   2.018  0.6080  0.4402 -0.6583
 1328SOL    HW215447   4.584   0.615   1.888  1.0676 -0.8303 -0.0026
 1329SOL     OW15448   2.817   0.727   1.983  0.4669  0.2392  0.3431
 1329SOL    HW115449   2.884   0.661   1.968 -0.2235 -0.3944  0.0382
 1329SOL    HW215450   2.749   0.703   1.920 -1.3762  0.7189  2.1219
 1330SOL     OW15451   4.349   2.033   1.830 -0.0105  0.0845 -0.5012
 1330SOL    HW115452   4.261   2.069   1.844  0.3481  0.3607  1.0782
 1330SOL    HW215453   4.331   1.962   1.768 -2.7086  0.9130 -0.6876
 1331SOL     OW15454   1.464   0.845  10.993  0.0514 -0.7150 -0.2188
 1331SOL    HW115455   1.438   0.937  10.993 -1.4353 -1.1376 -1.0041
 1331SOL    HW215456   1.530   0.856  11.062 -1.2218 -0.8267  1.0401
 1332SOL     OW15457   0.271   0.588   3.541 -1.0589 -0.0464 -0.3799
 1332SOL    HW115458   0.177   0.572   3.545 -1.0397 -0.3343 -1.2838
 1332SOL    HW215459   0.281   0.644   3.464  0.7172  0.1748  0.0027
 1333SOL     OW15460   0.790   3.952   8.743 -0.7911  0.2603 -0.2169
 1333SOL    HW115461   0.812   3.883   8.806  1.3664  1.7925  0.7085
 1333SOL    HW215462   0.805   3.907   8.659 -0.7593  0.2213 -0.1905
 1334SOL     OW15463   1.077   3.408  17.670  0.4380 -0.1160  0.1969
 1334SOL    HW115464   1.120   3.459   0.039  2.9627 -1.9996  0.0096
 1334SOL    HW215465   1.007   3.465  17.637  0.1784 -0.0370  0.8943
 1335SOL     OW15466   0.222   4.158  17.122  0.3025 -0.6802 -0.2409
 1335SOL    HW115467   0.288   4.226  17.137 -0.5865  0.1524 -0.0995
 1335SOL    HW215468   0.142   4.210  17.127  0.8560  0.1997 -0.4673
 1336SOL     OW15469   3.898   2.905  17.170 -0.2347  0.1544 -0.0693
 1336SOL    HW115470   3.844   2.977  17.136 -0.6575  0.2066  0.7324
 1336SOL    HW215471   3.982   2.911  17.124  0.3185  0.2797  0.9765
 1337SOL     OW15472   4.332   1.268  15.319 -0.3439  0.0076  0.8342
 1337SOL    HW115473   4.335   1.172  15.320 -2.2048 -0.0401  1.1236
 1337SOL    HW215474   4.250   1.289  15.274 -0.0830  0.5970  0.6298
 1338SOL     OW15475   3.302   1.010   3.824  0.0297  0.8566 -0.3172
 1338SOL    HW115476   3.394   1.001   3.800  0.5123  0.0800  1.7972
 1338SOL    HW215477   3.260   1.043   3.745  0.9791 -1.0301 -1.6000
 1339SOL     OW15478   2.613   0.897   7.161 -0.5805  0.3627 -0.4636
 1339SOL    HW115479   2.604   0.954   7.238 -0.7914  0.2089 -0.3758
 1339SOL    HW215480   2.572   0.817   7.193  0.4957  0.3944  1.0091
 1340SOL     OW15481   0.347   1.367  16.022 -0.0281  0.3303  0.1643
 1340SOL    HW115482   0.270   1.385  16.076  0.2577  1.3331  0.2288
 1340SOL    HW215483   0.303   1.308  15.961  1.5939  0.8877 -1.5211
 1341SOL     OW15484   3.201   2.856   2.076 -0.3821  0.4446  0.3311
 1341SOL    HW115485   3.182   2.847   2.169  1.1605  0.5591  0.6508
 1341SOL    HW215486   3.116   2.832   2.037 -0.6394  1.8429  0.0171
 1342SOL     OW15487   3.194   0.909   5.397 -0.3483  0.0825 -0.3359
 1342SOL    HW115488   3.191   0.959   5.479  0.8829 -2.8551  1.4976
 1342SOL    HW215489   3.203   0.820   5.432 -0.9182 -0.4583 -1.5730
 1343SOL     OW15490   4.479   2.288   4.678 -0.4565 -0.0970 -0.0790
 1343SOL    HW115491   4.560   2.314   4.634  0.3292 -2.6084 -0.1413
 1343SOL    HW215492   4.521   2.250   4.755  0.8360 -0.6806 -1.0614
 1344SOL     OW15493   1.042   4.107   8.666 -0.2627  0.1523 -0.3251
 1344SOL    HW115494   0.991   4.039   8.623 -2.2448  0.3894  1.6529
 1344SOL    HW215495   0.975   4.175   8.682 -1.1772 -1.4730  2.8055
 1345SOL     OW15496   1.340   4.083   9.079  0.9496  0.2145  0.5929
 1345SOL    HW115497   1.306   3.994   9.091  1.3732 -0.3698 -2.4481
 1345SOL    HW215498   1.260   4.116   9.036  1.0793 -0.2317  0.0060
 1346SOL     OW15499   0.127   4.179  10.638 -0.4492 -0.5053  0.3538
 1346SOL    HW115500   0.114   4.158  10.731  1.2460  1.0799  0.9460
 1346SOL    HW215501   0.186   4.105  10.623  1.1963  0.7289  0.7672
 1347SOL     OW15502   0.015   4.403   4.464 -0.6037 -1.1376  0.7142
 1347SOL    HW115503   0.080   4.473   4.473 -2.4127  0.8467 -1.8715
 1347SOL    HW215504   0.029   4.373   4.374 -0.2495 -2.0744  1.0852
 1348SOL     OW15505   0.301   3.833   0.898 -0.3503 -0.3910 -0.2111
 1348SOL    HW115506   0.267   3.920   0.875 -0.3328 -1.1052 -2.8942
 1348SOL    HW215507   0.385   3.828   0.853 -0.5958 -0.9539 -0.6036
 1349SOL     OW15508   3.483   4.218   8.447  0.2411  0.7603 -0.0964
 1349SOL    HW115509   3.498   4.188   8.358  0.2757  1.3864 -0.2998
 1349SOL    HW215510   3.446   4.305   8.432  0.1883  0.3176 -2.4380
 1350SOL     OW15511   2.561   2.930   2.710 -0.1537  0.2512  0.2908
 1350SOL    HW115512   2.473   2.966   2.711 -1.1933 -2.3072  0.3773
 1350SOL    HW215513   2.553   2.880   2.791 -0.3230  2.3578  1.5903
 1351SOL     OW15514   2.325   0.672   1.674  0.3529  0.0782 -0.1125
 1351SOL    HW115515   2.319   0.603   1.608  2.2172 -1.2419  1.1201
 1351SOL    HW215516   2.330   0.752   1.622 -2.0713 -0.6623 -1.4998
 1352SOL     OW15517   3.236   0.102   7.141  0.6175 -0.5546 -0.4245
 1352SOL    HW115518   3.305   0.156   7.102  0.4417  0.1658  0.2632
 1352SOL    HW215519   3.162   0.160   7.120  0.7750 -0.8441 -1.7494
 1353SOL     OW15520   1.449   3.287   3.102 -0.2334  0.3789 -0.2518
 1353SOL    HW115521   1.517   3.302   3.167  1.3093 -1.2103 -1.4947
 1353SOL    HW215522   1.503   3.233   3.044  1.1651  1.9552 -0.4192
 1354SOL     OW15523   0.368   2.548   4.177 -0.1701 -0.7615  0.2782
 1354SOL    HW115524   0.428   2.535   4.250 -0.4603 -0.0903  0.6313
 1354SOL    HW215525   0.323   2.465   4.194  0.9089 -0.9992  1.9345
 1355SOL     OW15526   4.291   4.205   9.729  0.6432  0.2493  0.2754
 1355SOL    HW115527   4.215   4.235   9.678  0.5596  3.0515  2.0108
 1355SOL    HW215528   4.258   4.199   9.818  3.0787 -0.8142  1.0801
 1356SOL     OW15529   4.470   4.463  15.285 -0.2214 -0.2014  0.2693
 1356SOL    HW115530   4.556   4.434  15.255 -0.8073 -0.8586 -0.7734
 1356SOL    HW215531   4.467   4.553  15.253 -1.1149 -1.4336 -3.0568
 1357SOL     OW15532   0.364   1.233   9.076  0.0308 -0.0310  0.2852
 1357SOL    HW115533   0.379   1.311   9.129  0.5876  0.7542 -1.0404
 1357SOL    HW215534   0.419   1.167   9.118 -0.3601 -0.9906 -0.7162
 1358SOL     OW15535   2.281   1.443   0.118 -0.4480 -0.2370  0.1542
 1358SOL    HW115536   2.348   1.376   0.135  0.4426  0.7176  0.3803
 1358SOL    HW215537   2.213   1.428   0.184 -0.7889 -1.0823 -0.3974
 1359SOL     OW15538   1.810   4.102  16.029  0.8376 -0.3375 -0.0886
 1359SOL    HW115539   1.754   4.152  16.089  2.2587  0.7812  0.2980
 1359SOL    HW215540   1.843   4.172  15.974  0.7667  0.4373  0.8522
 1360SOL     OW15541   0.493   0.032  11.244  0.1081 -0.2006 -0.7343
 1360SOL    HW115542   0.559   4.695  11.275 -0.8020 -1.2608 -0.9115
 1360SOL    HW215543   0.477   0.070  11.331 -1.5967  0.4218 -1.3115
 1361SOL     OW15544   4.242   2.338   5.200 -0.4721 -0.3821 -0.2765
 1361SOL    HW115545   4.238   2.403   5.130 -2.0389 -1.7960 -1.5002
 1361SOL    HW215546   4.327   2.358   5.238 -1.1790 -0.8509  1.5858
 1362SOL     OW15547   1.367   1.511   7.811 -0.0104  0.4447  0.1452
 1362SOL    HW115548   1.370   1.445   7.880 -2.1469  0.5981  0.3789
 1362SOL    HW215549   1.382   1.453   7.736  0.8136  1.3526 -0.3822
 1363SOL     OW15550   0.126   2.433   4.924 -0.3353 -0.0553  0.7931
 1363SOL    HW115551   0.031   2.434   4.915 -0.1490  0.1308 -1.2866
 1363SOL    HW215552   0.139   2.380   5.003  0.9649 -1.6797 -0.5068
 1364SOL     OW15553   3.500   4.423   2.629 -0.0612  0.3513 -0.2438
 1364SOL    HW115554   3.526   4.330   2.626 -0.2242  0.3168 -0.5523
 1364SOL    HW215555   3.526   4.434   2.721  0.2387 -0.9447 -0.1695
 1365SOL     OW15556   0.643   4.392   2.410  0.0685  0.3207  0.0867
 1365SOL    HW115557   0.685   4.321   2.458  0.6248 -0.7224 -1.9491
 1365SOL    HW215558   0.615   4.338   2.336 -3.5769 -1.6607  2.9151
 1366SOL     OW15559   3.631   2.078  14.148 -0.0944 -0.7273  0.3927
 1366SOL    HW115560   3.668   2.165  14.162 -4.8152  0.8304  2.9290
 1366SOL    HW215561   3.604   2.058  14.238 -0.0100  0.2106  0.6208
 1367SOL     OW15562   3.609   4.216  16.170  0.1825 -0.4220 -0.1760
 1367SOL    HW115563   3.660   4.139  16.146 -0.8148 -0.6813 -1.4605
 1367SOL    HW215564   3.537   4.199  16.110 -1.9494  2.3022  1.6124
 1368SOL     OW15565   3.996   2.453  12.432  0.1913 -0.3514  0.0828
 1368SOL    HW115566   3.977   2.390  12.501 -2.5142 -0.8648 -1.1491
 1368SOL    HW215567   4.084   2.424  12.410 -0.9651 -0.5925 -4.3543
 1369SOL     OW15568   1.214   3.903   3.402  0.1371 -0.6015  0.2283
 1369SOL    HW115569   1.229   3.950   3.320 -3.8906  3.0099  1.6034
 1369SOL    HW215570   1.140   3.846   3.379  1.0507 -1.4474 -0.6487
 1370SOL     OW15571   3.404   3.504  17.158 -0.0927 -0.0091 -0.0158
 1370SOL    HW115572   3.357   3.577  17.117 -1.0824 -1.6298 -1.7374
 1370SOL    HW215573   3.335   3.470  17.215 -0.0456  3.1299  1.9602
 1371SOL     OW15574   1.861   0.903   7.322 -0.2447  0.0530  0.3982
 1371SOL    HW115575   1.915   0.971   7.362 -0.5849  0.2715  0.4883
 1371SOL    HW215576   1.912   0.882   7.243 -1.6079  0.8356 -0.6939
 1372SOL     OW15577   3.271   3.148   6.773  0.1247  0.0444  0.5024
 1372SOL    HW115578   3.199   3.191   6.727  1.0285  0.8504 -0.1609
 1372SOL    HW215579   3.311   3.100   6.701  1.9699  1.2305  0.7522
 1373SOL     OW15580   4.150   3.281   0.837  0.7731 -0.5577  0.2885
 1373SOL    HW115581   4.145   3.313   0.746 -1.5614  1.6588  1.1944
 1373SOL    HW215582   4.148   3.366   0.880 -2.3529 -0.1057 -0.7000
 1374SOL     OW15583   4.420   2.686   4.437  0.6772 -0.2838 -0.3869
 1374SOL    HW115584   4.436   2.668   4.345  0.1223  0.0136 -0.5394
 1374SOL    HW215585   4.380   2.773   4.435  0.4130 -0.3569  1.7413
 1375SOL     OW15586   3.259   0.982   9.537 -0.0333  0.0911 -0.0883
 1375SOL    HW115587   3.193   1.048   9.517 -1.2637 -1.3636 -0.8850
 1375SOL    HW215588   3.309   0.983   9.455  1.6315  0.6884  0.9322
 1376SOL     OW15589   4.624   2.963  16.011  0.3681  0.1211  0.0827
 1376SOL    HW115590   4.607   2.966  16.105  0.2167 -0.1676  0.0642
 1376SOL    HW215591   4.552   2.911  15.975 -0.5762  0.0416  2.1229
 1377SOL     OW15592   1.784   1.270   0.827 -0.2135 -0.0504  0.5681
 1377SOL    HW115593   1.734   1.290   0.907 -1.0607  0.9909 -0.2279
 1377SOL    HW215594   1.839   1.348   0.822  1.0685 -1.0709 -1.0157
 1378SOL     OW15595   0.298   1.459   6.873 -0.6420  0.0794  0.0138
 1378SOL    HW115596   0.378   1.506   6.852 -0.2666 -0.7816 -0.4769
 1378SOL    HW215597   0.335   1.374   6.898 -0.8446 -0.0380 -0.0816
 1379SOL     OW15598   3.982   0.859  13.889  0.6740  0.8824 -0.1660
 1379SOL    HW115599   3.996   0.847  13.796  0.0396  0.1522 -0.1668
 1379SOL    HW215600   4.008   0.771  13.916  1.6342  1.3043  0.2801
 1380SOL     OW15601   1.029   3.242   2.948 -0.8440 -0.1843 -0.4295
 1380SOL    HW115602   1.004   3.153   2.924 -2.3328  0.5677 -1.6736
 1380SOL    HW215603   1.042   3.276   2.860  0.4234  0.8088  0.1502
 1381SOL     OW15604   3.167   1.864   9.775 -0.1266 -0.7397 -0.4518
 1381SOL    HW115605   3.140   1.815   9.853 -1.0344  0.7924  0.1990
 1381SOL    HW215606   3.154   1.955   9.803  0.1291 -0.9915  0.4716
 1382SOL     OW15607   2.486   2.734   2.898  0.2990  0.1562  0.2558
 1382SOL    HW115608   2.495   2.653   2.847  0.8912 -0.7952  1.8777
 1382SOL    HW215609   2.391   2.739   2.901  0.3797 -0.2316  3.4140
 1383SOL     OW15610   3.677   1.731   6.355 -0.1040  0.0840 -0.2531
 1383SOL    HW115611   3.751   1.754   6.412 -0.5029 -2.1213  1.1430
 1383SOL    HW215612   3.602   1.764   6.403  0.8898 -1.6406  2.5125
 1384SOL     OW15613   2.213   0.449   2.106 -0.0436  0.2557  0.8049
 1384SOL    HW115614   2.225   0.524   2.049 -2.6424  1.0291  1.3014
 1384SOL    HW215615   2.220   0.486   2.194  0.5197  3.0772 -0.4338
 1385SOL     OW15616   3.313   3.088   6.343  0.6260 -0.6304 -0.0931
 1385SOL    HW115617   3.232   3.105   6.295 -0.5069 -0.9972  1.6542
 1385SOL    HW215618   3.326   3.175   6.382  0.9577 -1.5005  1.7147
 1386SOL     OW15619   2.347   4.004   2.985 -0.2010  0.8057  0.1503
 1386SOL    HW115620   2.254   3.987   2.993  0.3370 -2.6354 -0.8925
 1386SOL    HW215621   2.383   3.928   3.032  1.3731  0.6525 -1.2914
 1387SOL     OW15622   0.405   2.989   6.364  0.0454 -0.2607  0.0733
 1387SOL    HW115623   0.440   2.956   6.446 -0.2296  1.1559  0.7610
 1387SOL    HW215624   0.445   3.076   6.363 -1.6467  0.5238 -0.4905
 1388SOL     OW15625   1.012   1.682  11.559 -0.1715 -0.0610 -0.0535
 1388SOL    HW115626   1.051   1.740  11.623  2.1433  0.9726 -2.3857
 1388SOL    HW215627   0.989   1.603  11.609  1.0948 -0.7392 -0.5441
 1389SOL     OW15628   3.404   3.324  16.498  0.2830  0.1914  0.1072
 1389SOL    HW115629   3.489   3.342  16.537  0.6169 -1.5985  0.1688
 1389SOL    HW215630   3.360   3.409  16.500  0.6509  0.5244 -4.2458
 1390SOL     OW15631   3.868   1.216  14.648 -0.2025  0.2821 -0.5273
 1390SOL    HW115632   3.837   1.150  14.585  0.8124  0.3235 -1.0728
 1390SOL    HW215633   3.793   1.206  14.706 -2.0846 -0.6292 -3.0901
 1391SOL     OW15634   4.130   3.854   9.238  0.0587  0.0267  0.0533
 1391SOL    HW115635   4.160   3.815   9.320  1.1972  0.2100 -0.2739
 1391SOL    HW215636   4.190   3.927   9.224  0.8856 -0.9005 -1.2921
 1392SOL     OW15637   4.132   1.231   9.323  0.1405 -0.5314  0.5154
 1392SOL    HW115638   4.051   1.186   9.299 -0.3314 -0.1898  1.4759
 1392SOL    HW215639   4.187   1.203   9.249  1.1316  2.6863  0.0090
 1393SOL     OW15640   4.121   0.891   4.261  0.0474  0.0558 -0.0881
 1393SOL    HW115641   4.031   0.860   4.269  1.4510 -4.4451 -1.3882
 1393SOL    HW215642   4.151   0.829   4.193  1.8733  0.5258  0.2759
 1394SOL     OW15643   2.239   3.956   9.401 -0.6195  0.3244 -0.9531
 1394SOL    HW115644   2.210   4.016   9.469  0.3311 -0.1943 -0.0967
 1394SOL    HW215645   2.199   3.994   9.323  0.5077  1.5034 -0.9440
 1395SOL     OW15646   0.412   4.579   9.339 -0.6421 -0.1396  0.5650
 1395SOL    HW115647   0.347   4.566   9.270  0.2902  1.4175 -0.6058
 1395SOL    HW215648   0.387   4.502   9.390 -0.3321  0.4823  1.6552
 1396SOL     OW15649   0.794   2.099  12.148  0.3413  0.1217  0.7289
 1396SOL    HW115650   0.886   2.085  12.125  0.3439  1.9501 -0.3785
 1396SOL    HW215651   0.764   2.019  12.104  0.0254  1.1172 -0.8870
 1397SOL     OW15652   1.853   3.496   8.871  0.5732 -0.5600  0.0364
 1397SOL    HW115653   1.876   3.419   8.924  2.0534 -0.2179 -0.1071
 1397SOL    HW215654   1.758   3.492   8.872  0.4031  3.2278 -0.1348
 1398SOL     OW15655   3.169   0.808  12.679  0.0003  0.1932 -0.1383
 1398SOL    HW115656   3.239   0.867  12.707  1.9655 -1.2583 -1.9736
 1398SOL    HW215657   3.195   0.725  12.720 -1.1005  0.3941  0.9808
 1399SOL     OW15658   4.552   2.468   0.276 -0.0867 -0.3911 -0.3018
 1399SOL    HW115659   4.632   2.520   0.288  0.5102 -1.3902  0.0732
 1399SOL    HW215660   4.534   2.418   0.355  3.0546 -2.5792 -0.9493
 1400SOL     OW15661   2.100   3.372   7.800 -0.2501 -0.2578 -0.0198
 1400SOL    HW115662   2.138   3.291   7.834 -1.4754 -0.0718  1.7958
 1400SOL    HW215663   2.141   3.437   7.857 -1.7618  0.8394 -0.1646
 1401SOL     OW15664   4.667   0.484   9.156  0.0034 -0.5186  0.6849
 1401SOL    HW115665   4.677   0.572   9.191  0.3249 -0.0127 -0.6913
 1401SOL    HW215666   4.586   0.460   9.201 -0.5277  0.3848  0.2126
 1402SOL     OW15667   0.981   3.866   8.975  0.4433 -0.4270  0.0834
 1402SOL    HW115668   0.944   3.786   8.938  0.2833 -0.1332 -0.3842
 1402SOL    HW215669   0.963   3.851   9.068 -1.0619  2.8859  0.3425
 1403SOL     OW15670   3.629   2.374   5.502 -0.0864  1.2609  0.3901
 1403SOL    HW115671   3.714   2.417   5.492 -0.7881  2.5088 -0.1788
 1403SOL    HW215672   3.614   2.347   5.411  1.9849  0.4066  0.2867
 1404SOL     OW15673   2.892   3.888   6.640 -0.2239  0.3449 -0.2545
 1404SOL    HW115674   2.938   3.932   6.710 -0.3045  1.1418 -0.7065
 1404SOL    HW215675   2.909   3.796   6.662 -1.2651  0.5861  1.5167
 1405SOL     OW15676   2.403   4.220  14.341 -0.3924 -0.7347  0.3403
 1405SOL    HW115677   2.403   4.202  14.435  1.6840 -2.1278  0.0776
 1405SOL    HW215678   2.479   4.168  14.316 -1.5887 -1.6302 -1.3888
 1406SOL     OW15679   0.559   0.663  12.172 -0.2951  0.2273 -0.6765
 1406SOL    HW115680   0.516   0.609  12.238 -0.7351  0.7644 -0.5186
 1406SOL    HW215681   0.621   0.704  12.232  1.1929 -2.3675 -0.4494
 1407SOL     OW15682   2.012   3.229   5.122 -0.6344  0.0722  0.3316
 1407SOL    HW115683   2.087   3.175   5.147  0.2036  0.7154 -0.8255
 1407SOL    HW215684   1.935   3.172   5.130 -0.4426 -0.0562  1.2733
 1408SOL     OW15685   2.621   4.069  14.269 -0.3182  0.0517 -0.2601
 1408SOL    HW115686   2.611   3.977  14.244  1.6029 -0.5268  1.1006
 1408SOL    HW215687   2.675   4.064  14.347 -1.1206  0.9257  0.3375
 1409SOL     OW15688   3.168   0.250   9.677  0.3209  0.0518  0.2126
 1409SOL    HW115689   3.223   0.264   9.600  0.5934 -1.4421  0.1220
 1409SOL    HW215690   3.234   0.271   9.744  1.3436  0.4467 -0.9234
 1410SOL     OW15691   0.448   0.420  14.917 -0.1518  0.5043  0.2328
 1410SOL    HW115692   0.381   0.353  14.932 -0.3496 -0.1845 -3.6173
 1410SOL    HW215693   0.527   0.369  14.938  0.4365  2.1211  1.8895
 1411SOL     OW15694   1.233   2.595  17.502  0.1758  0.3924  0.0602
 1411SOL    HW115695   1.277   2.680  17.500  1.1578 -0.1089  0.4083
 1411SOL    HW215696   1.261   2.562  17.417 -2.2804 -0.4380 -0.4177
 1412SOL     OW15697   0.896   2.591   5.293  0.4630  0.2192  0.8753
 1412SOL    HW115698   0.923   2.544   5.372 -2.5265 -2.8569  0.0465
 1412SOL    HW215699   0.803   2.567   5.291  0.3011  1.2443 -4.2944
 1413SOL     OW15700   3.488   3.632  16.793 -0.2290  0.0138  0.3209
 1413SOL    HW115701   3.481   3.552  16.844  1.0127 -0.7204 -0.6830
 1413SOL    HW215702   3.580   3.637  16.769 -0.4334  2.3014 -0.0243
 1414SOL     OW15703   0.424   3.971   2.191 -0.0481 -0.5172  0.1636
 1414SOL    HW115704   0.405   3.940   2.102 -1.5624  0.5582  0.1115
 1414SOL    HW215705   0.442   3.886   2.232  3.3028  0.3690  0.4749
 1415SOL     OW15706   1.439   4.653   2.407  0.0698  0.5823 -0.4009
 1415SOL    HW115707   1.466   4.720   2.471  0.8294 -0.2040  0.1025
 1415SOL    HW215708   1.356   4.689   2.376 -1.1061 -1.1614  0.7330
 1416SOL     OW15709   2.042   3.527   7.572  0.2419 -0.1844  0.0675
 1416SOL    HW115710   1.953   3.561   7.571 -0.4670 -2.0428  0.0285
 1416SOL    HW215711   2.045   3.471   7.650  2.5710 -0.4402 -0.1836
 1417SOL     OW15712   0.486   1.855   4.777 -0.2767 -0.0523  0.1306
 1417SOL    HW115713   0.523   1.768   4.768 -0.7913 -0.1011 -1.4017
 1417SOL    HW215714   0.413   1.864   4.715  0.0357  0.7524 -0.1185
 1418SOL     OW15715   2.701   2.035   8.306 -0.2015 -0.4785  0.3149
 1418SOL    HW115716   2.740   1.995   8.383 -2.5297  1.3884  2.4622
 1418SOL    HW215717   2.619   2.071   8.341 -0.0793  1.4099 -1.3164
 1419SOL     OW15718   0.067   3.455  11.461  0.4453 -0.1189 -0.1636
 1419SOL    HW115719   0.084   3.547  11.483 -0.2441 -0.7991  3.3037
 1419SOL    HW215720   0.153   3.416  11.446  0.5876  0.9766 -2.1623
 1420SOL     OW15721   1.199   1.662  13.624  0.1603  0.3142  0.3186
 1420SOL    HW115722   1.248   1.601  13.569 -0.8713  0.8611 -1.1914
 1420SOL    HW215723   1.126   1.681  13.565  0.6887  2.9527  0.5363
 1421SOL     OW15724   0.537   0.815   8.956  0.0404 -0.1165  0.2310
 1421SOL    HW115725   0.496   0.770   9.029 -0.6140  2.1424  1.2691
 1421SOL    HW215726   0.549   0.903   8.992 -0.0760 -0.1685  0.3929
 1422SOL     OW15727   1.890   3.311   1.220  0.1709  0.2519 -0.5783
 1422SOL    HW115728   1.915   3.223   1.249 -1.3909  0.1226  0.4078
 1422SOL    HW215729   1.965   3.324   1.162  0.7134 -2.5258 -0.4976
 1423SOL     OW15730   3.602   0.120   7.286 -0.5203 -0.0936 -0.3439
 1423SOL    HW115731   3.584   0.039   7.239  2.1078  0.8835 -3.0441
 1423SOL    HW215732   3.668   0.161   7.230 -1.0271  0.8820 -0.2386
 1424SOL     OW15733   0.912   2.214   5.618 -0.7925  0.4954 -0.1596
 1424SOL    HW115734   0.922   2.122   5.596 -2.8856  0.0134  0.9227
 1424SOL    HW215735   0.832   2.208   5.670 -0.2813  1.5568  0.7600
 1425SOL     OW15736   3.491   0.164   2.060 -0.2683 -0.1276 -0.5250
 1425SOL    HW115737   3.493   0.206   1.974  1.0385  1.5117  0.2908
 1425SOL    HW215738   3.402   0.188   2.083 -0.9995 -0.9251 -2.4988
 1426SOL     OW15739   4.357   1.350   7.391 -0.1573  0.1025  0.1715
 1426SOL    HW115740   4.354   1.321   7.300 -0.1837  0.7359 -0.0316
 1426SOL    HW215741   4.420   1.422   7.397 -0.9985  0.6720  2.2664
 1427SOL     OW15742   1.619   4.192   6.340  0.1535  0.4333 -0.5339
 1427SOL    HW115743   1.561   4.265   6.321 -0.6297 -1.2142 -4.4273
 1427SOL    HW215744   1.563   4.114   6.339  0.6882  0.0206  1.2920
 1428SOL     OW15745   1.503   4.635  14.756  0.2474  0.7497  0.0555
 1428SOL    HW115746   1.591   4.638  14.792 -0.1439  1.6323  0.9573
 1428SOL    HW215747   1.513   4.611  14.664  0.5323  0.9354  0.0391
 1429SOL     OW15748   1.759   3.136  14.039 -0.0632 -0.2082 -0.8053
 1429SOL    HW115749   1.812   3.166  14.113  1.4628 -1.1200 -1.5275
 1429SOL    HW215750   1.673   3.176  14.056  1.2017  1.6682  1.1165
 1430SOL     OW15751   3.740   3.978  16.090  0.2153 -0.1413 -0.0908
 1430SOL    HW115752   3.679   3.918  16.131  3.0268 -0.7120  3.2791
 1430SOL    HW215753   3.821   3.927  16.094 -0.2213 -0.8807 -0.7655
 1431SOL     OW15754   3.147   1.390   9.633  0.3005  0.1226  0.0097
 1431SOL    HW115755   3.071   1.435   9.670 -0.1098  1.4913 -2.4734
 1431SOL    HW215756   3.213   1.460   9.629  0.9864 -0.4664  1.0059
 1432SOL     OW15757   3.995   3.033   7.877  0.2371  0.3554 -0.2505
 1432SOL    HW115758   4.022   2.942   7.895  0.5138 -0.0713 -2.7549
 1432SOL    HW215759   3.903   3.044   7.900  0.2952 -0.3598  0.3220
 1433SOL     OW15760   2.007   4.232   9.278 -0.2183  0.2642  0.2255
 1433SOL    HW115761   2.034   4.313   9.235  2.0449 -1.2269 -1.1921
 1433SOL    HW215762   2.061   4.170   9.229 -1.1147 -1.1937  1.0583
 1434SOL     OW15763   3.570   2.355   1.455  0.4608  0.4459  0.3869
 1434SOL    HW115764   3.593   2.304   1.533 -0.5438 -1.1625 -0.3617
 1434SOL    HW215765   3.645   2.345   1.396 -0.3139  0.1594 -0.5464
 1435SOL     OW15766   0.637   1.906   3.300  0.1685  0.2828 -0.3503
 1435SOL    HW115767   0.680   1.986   3.331  0.6511  0.4692 -1.5079
 1435SOL    HW215768   0.603   1.926   3.213 -0.0332  2.1151  0.1499
 1436SOL     OW15769   0.024   2.539   2.073 -0.3256  0.4604 -0.5810
 1436SOL    HW115770   4.721   2.498   2.155  0.2073 -0.0415 -0.6525
 1436SOL    HW215771   0.103   2.580   2.108 -0.0394 -0.2087 -0.4538
 1437SOL     OW15772   0.581   2.567   9.493 -0.2835  0.9186  0.3292
 1437SOL    HW115773   0.561   2.565   9.586 -0.7704  1.8609  0.2479
 1437SOL    HW215774   0.676   2.565   9.489  0.0037  3.0557  5.4185
 1438SOL     OW15775   2.186   2.825  13.324 -0.8505  0.6923  0.0820
 1438SOL    HW115776   2.205   2.731  13.323 -1.2248  0.6122  1.1178
 1438SOL    HW215777   2.123   2.833  13.395 -1.0479  0.2134 -0.0378
 1439SOL     OW15778   2.603   0.344   9.491 -0.3237 -0.2994  0.5011
 1439SOL    HW115779   2.695   0.359   9.512 -0.5426  0.2724  1.0528
 1439SOL    HW215780   2.571   0.318   9.578 -0.0558 -0.6013  0.5095
 1440SOL     OW15781   1.059   0.408   8.019 -0.1880 -0.3365  0.1702
 1440SOL    HW115782   0.972   0.448   8.022 -0.2712 -0.5579  0.6996
 1440SOL    HW215783   1.109   0.481   7.982 -0.3567 -0.1197  0.3727
 1441SOL     OW15784   2.797   0.523  15.604 -0.1986 -0.1117  0.3421
 1441SOL    HW115785   2.818   0.465  15.531 -0.9320 -0.2638  0.2575
 1441SOL    HW215786   2.866   0.505  15.669 -0.0479 -1.0400 -0.0697
 1442SOL     OW15787   0.947   2.338   6.048  0.7178  0.1680  0.5864
 1442SOL    HW115788   1.000   2.403   6.095  0.6722 -0.1695  1.1019
 1442SOL    HW215789   0.938   2.261   6.104 -0.9761  0.1003  0.2112
 1443SOL     OW15790   2.078   3.337  16.545 -0.5658  0.2732 -0.1540
 1443SOL    HW115791   2.165   3.300  16.534 -0.3006  0.3817  1.5017
 1443SOL    HW215792   2.030   3.265  16.505  0.5089  0.7073 -2.2198
 1444SOL     OW15793   0.090   4.299  10.108  0.2748 -0.2049 -1.1985
 1444SOL    HW115794   0.185   4.295  10.097  0.3920 -0.0766 -0.2479
 1444SOL    HW215795   0.068   4.206  10.103  0.8207 -0.1858 -3.8414
 1445SOL     OW15796   4.175   0.561   3.113 -0.8875  0.2212 -0.1198
 1445SOL    HW115797   4.190   0.482   3.165 -2.1107  0.0832  0.0095
 1445SOL    HW215798   4.181   0.532   3.022  1.9253 -1.0111  0.4354
 1446SOL     OW15799   3.478   4.293   9.099  0.0822  0.2401 -0.1502
 1446SOL    HW115800   3.511   4.317   9.012 -0.8619  1.9799 -0.0302
 1446SOL    HW215801   3.542   4.330   9.160  1.3193 -3.3505  0.7298
 1447SOL     OW15802   0.789   3.086   5.781 -0.6013 -0.4627 -0.4622
 1447SOL    HW115803   0.779   3.020   5.711 -1.3724 -0.1390 -0.6602
 1447SOL    HW215804   0.812   3.151   5.715  2.7900 -2.1275 -0.9296
 1448SOL     OW15805   2.634   2.991   7.131 -0.0480  0.5168 -0.3455
 1448SOL    HW115806   2.674   2.961   7.050 -0.6193 -0.2008 -0.3621
 1448SOL    HW215807   2.540   2.994   7.112 -0.0035 -0.9598 -0.8006
 1449SOL     OW15808   4.685   1.037  10.379  0.1410  0.1280  0.1098
 1449SOL    HW115809   4.718   0.947  10.377  1.2931  0.5799 -1.1257
 1449SOL    HW215810   4.595   1.030  10.348  0.6184 -1.9993 -0.8232
 1450SOL     OW15811   1.156   2.361  11.074  0.2273 -0.3199 -0.2552
 1450SOL    HW115812   1.171   2.451  11.046 -1.3874 -0.8080 -2.6422
 1450SOL    HW215813   1.063   2.352  11.053 -0.3938 -0.2755  2.4375
 1451SOL     OW15814   0.825   0.011   1.488  0.1463 -0.0142 -0.1493
 1451SOL    HW115815   0.795   4.648   1.462 -1.1805  0.7851 -1.3147
 1451SOL    HW215816   0.793   0.017   1.578 -0.4298  1.3272 -0.4396
 1452SOL     OW15817   3.312   3.524   0.852 -0.4208 -0.9147 -0.3846
 1452SOL    HW115818   3.371   3.568   0.791  1.5626  2.0671  3.7071
 1452SOL    HW215819   3.381   3.484   0.904  0.9671  1.8367 -0.0890
 1453SOL     OW15820   3.508   2.714   5.286  0.1851  0.5077 -0.3938
 1453SOL    HW115821   3.499   2.689   5.378  2.2065 -0.7906 -0.5436
 1453SOL    HW215822   3.601   2.696   5.273 -0.1732 -1.4379 -0.1702
 1454SOL     OW15823   2.466   1.353   4.291  0.3427  0.0949  0.3288
 1454SOL    HW115824   2.514   1.390   4.218  1.1539  0.3261  0.9845
 1454SOL    HW215825   2.381   1.396   4.281  0.3235  0.0883  0.4584
 1455SOL     OW15826   2.672   3.448   9.085 -0.0419  0.4831 -0.0095
 1455SOL    HW115827   2.594   3.427   9.034 -1.4145 -0.1147  2.3214
 1455SOL    HW215828   2.653   3.524   9.140  1.5122  1.0799 -0.2924
 1456SOL     OW15829   0.282   2.745   5.450  0.7008 -0.3745  0.5007
 1456SOL    HW115830   0.243   2.740   5.537 -0.8909  0.6286 -0.1567
 1456SOL    HW215831   0.250   2.824   5.407 -0.1259 -1.4319 -0.8235
 1457SOL     OW15832   3.499   3.311  11.389  0.4325 -0.1534  0.1178
 1457SOL    HW115833   3.452   3.256  11.327  0.5140 -0.2113  0.1060
 1457SOL    HW215834   3.587   3.310  11.352 -0.0179  2.0221 -0.9951
 1458SOL     OW15835   1.515   2.850   4.238 -0.0389  0.0791  0.1765
 1458SOL    HW115836   1.449   2.783   4.257  0.0436  0.3463  1.4334
 1458SOL    HW215837   1.592   2.797   4.217  0.4069 -0.5022  3.2052
 1459SOL     OW15838   0.714   4.498   5.487 -0.3213 -0.0651 -0.0017
 1459SOL    HW115839   0.667   4.541   5.416 -0.4084  2.3481  1.5245
 1459SOL    HW215840   0.704   4.403   5.476  0.2767 -0.4430  2.6006
 1460SOL     OW15841   0.803   1.316   6.469  0.1416  0.7815 -0.1243
 1460SOL    HW115842   0.792   1.288   6.561  0.0417 -2.6291 -1.1625
 1460SOL    HW215843   0.878   1.374   6.479 -0.2269  1.2566 -0.1625
 1461SOL     OW15844   2.589   1.509  12.595 -0.4298 -0.3641 -0.2098
 1461SOL    HW115845   2.635   1.593  12.592 -0.6410 -0.2462 -0.1643
 1461SOL    HW215846   2.504   1.530  12.555  0.1699 -0.7646 -1.6802
 1462SOL     OW15847   3.737   3.282  11.239 -0.6249 -0.2690  0.1501
 1462SOL    HW115848   3.828   3.256  11.221 -1.5542 -2.4681 -1.2991
 1462SOL    HW215849   3.697   3.197  11.224  0.7348 -0.8458 -0.2096
 1463SOL     OW15850   3.868   2.431  17.387 -0.3573 -0.0229 -0.2960
 1463SOL    HW115851   3.872   2.526  17.397  3.4058 -0.2711  0.7142
 1463SOL    HW215852   3.942   2.406  17.442 -0.7026  2.1081  1.1332
 1464SOL     OW15853   2.188   2.783   2.899 -0.3867 -0.0163 -0.3051
 1464SOL    HW115854   2.167   2.799   2.807 -0.6107  0.9311 -0.0938
 1464SOL    HW215855   2.125   2.839   2.945  0.5454 -0.6702  1.8084
 1465SOL     OW15856   0.288   4.283   2.019 -0.3938 -0.0964 -0.2609
 1465SOL    HW115857   0.316   4.323   2.101  1.6398 -0.7200 -0.6561
 1465SOL    HW215858   0.203   4.246   2.045 -0.2685 -1.4833 -1.8595
 1466SOL     OW15859   0.585   2.970   5.626  0.5394 -0.2878 -0.0480
 1466SOL    HW115860   0.593   3.047   5.570  1.1430 -2.8029 -3.4749
 1466SOL    HW215861   0.586   2.906   5.554 -0.6954  0.3053 -0.6059
 1467SOL     OW15862   1.897   4.136   3.436 -0.1727  0.0283 -0.3175
 1467SOL    HW115863   1.825   4.165   3.492  1.3903  3.0001  0.1589
 1467SOL    HW215864   1.915   4.050   3.473  0.3622  0.4558  0.3991
 1468SOL     OW15865   1.620   1.946  12.702 -0.5216  0.0277 -0.9204
 1468SOL    HW115866   1.529   1.968  12.682 -1.4426 -1.0037  2.1589
 1468SOL    HW215867   1.604   1.869  12.757  2.9585 -1.3886 -1.8706
 1469SOL     OW15868   4.513   1.088   5.580 -0.0401  0.1032  0.1364
 1469SOL    HW115869   4.447   1.080   5.649 -0.2342 -1.2399 -0.2107
 1469SOL    HW215870   4.593   1.089   5.634 -0.5708 -1.6014  0.9353
 1470SOL     OW15871   3.449   2.713   7.618  0.7848 -0.2505 -0.0629
 1470SOL    HW115872   3.353   2.714   7.617  0.7550 -0.5695  1.5767
 1470SOL    HW215873   3.470   2.791   7.567 -1.9519  1.5212  1.5606
 1471SOL     OW15874   4.513   2.998   0.304  0.4180  0.4668 -0.2155
 1471SOL    HW115875   4.475   3.083   0.328 -0.1963 -0.4027  1.9114
 1471SOL    HW215876   4.443   2.946   0.344 -1.0477  1.9496 -0.8491
 1472SOL     OW15877   4.593   4.680  14.638 -0.7474 -0.4794  0.0021
 1472SOL    HW115878   4.653   0.031  14.631 -0.8850 -0.3423  0.3063
 1472SOL    HW215879   4.586   4.662  14.544 -0.8233 -0.0571 -0.0748
 1473SOL     OW15880   0.768   0.568   6.964  0.4076  0.2203 -0.5022
 1473SOL    HW115881   0.801   0.629   7.031 -4.1345  0.5777  1.4075
 1473SOL    HW215882   0.814   0.487   6.987 -0.1764  0.4912  1.6620
 1474SOL     OW15883   0.118   3.454   6.370 -0.2500 -0.0980 -0.5756
 1474SOL    HW115884   0.205   3.436   6.334  0.0469 -1.0007  0.5880
 1474SOL    HW215885   0.089   3.366   6.395  1.1815 -1.3014 -3.2197
 1475SOL     OW15886   2.312   3.500   2.023 -0.6718 -0.4148 -0.1409
 1475SOL    HW115887   2.279   3.551   1.949  1.2239  1.4525  0.3065
 1475SOL    HW215888   2.265   3.549   2.091 -2.1683  0.4428 -1.8051
 1476SOL     OW15889   3.532   0.026   7.552 -0.5283 -0.2010  0.8680
 1476SOL    HW115890   3.611   4.722   7.506 -1.3015  0.9537 -1.2161
 1476SOL    HW215891   3.483   0.052   7.474  2.3160  2.1057 -0.1538
 1477SOL     OW15892   0.612   1.422   2.240 -0.2068  0.1844  0.0632
 1477SOL    HW115893   0.636   1.376   2.159 -1.2486 -1.2834  0.5848
 1477SOL    HW215894   0.522   1.451   2.225  1.7121  5.2070 -1.4799
 1478SOL     OW15895   3.325   3.602   3.249  0.5953 -0.5546 -0.7623
 1478SOL    HW115896   3.257   3.552   3.204 -0.9766  1.0471 -0.1848
 1478SOL    HW215897   3.344   3.653   3.169 -0.9921 -0.4328 -1.0583
 1479SOL     OW15898   3.295   2.724  13.217 -0.1076 -0.4743  0.6015
 1479SOL    HW115899   3.238   2.800  13.232 -0.8757 -1.1489  1.0476
 1479SOL    HW215900   3.342   2.742  13.135 -0.0715 -2.0306  0.2947
 1480SOL     OW15901   3.643   4.453   4.497 -0.0180 -0.7559  0.4609
 1480SOL    HW115902   3.593   4.467   4.417  2.4163  0.7672 -0.7829
 1480SOL    HW215903   3.588   4.497   4.562  0.9469 -1.6553  1.9072
 1481SOL     OW15904   0.858   4.016   1.956 -0.3409 -0.3988  0.0114
 1481SOL    HW115905   0.782   3.957   1.950  0.6362 -1.6542 -0.0849
 1481SOL    HW215906   0.887   4.022   1.865 -1.6150  2.2724 -0.2248
 1482SOL     OW15907   0.862   3.803  12.937 -0.0253 -0.1100  0.7810
 1482SOL    HW115908   0.839   3.827  13.027 -1.4188 -0.5256  0.5354
 1482SOL    HW215909   0.831   3.712  12.941  1.0358 -0.6325 -3.7025
 1483SOL     OW15910   3.617   2.858   2.270 -0.5022  0.5133 -0.3330
 1483SOL    HW115911   3.710   2.834   2.270 -1.0746 -1.6275  1.3289
 1483SOL    HW215912   3.597   2.922   2.337 -2.3296 -1.2059  0.7797
 1484SOL     OW15913   2.459   2.885  10.434 -0.7051  0.5477 -0.1533
 1484SOL    HW115914   2.396   2.818  10.409  0.9359 -1.6701  1.6012
 1484SOL    HW215915   2.503   2.852  10.513  1.6034  1.9248 -0.8706
 1485SOL     OW15916   0.934   1.399   3.526 -0.0470 -0.0476 -0.4155
 1485SOL    HW115917   0.868   1.366   3.587  1.5632 -1.8533  0.3623
 1485SOL    HW215918   0.878   1.461   3.480  0.3276 -0.0529 -0.8881
 1486SOL     OW15919   3.916   1.340  17.528  0.4078  0.0751  0.5942
 1486SOL    HW115920   3.935   1.353  17.621  0.8012  2.8005  0.1086
 1486SOL    HW215921   3.992   1.384  17.491 -2.0422  2.5770 -1.4195
 1487SOL     OW15922   0.180   2.202   2.919  0.2955  0.2590 -0.8223
 1487SOL    HW115923   0.229   2.200   3.001  0.8735  0.3481 -1.1686
 1487SOL    HW215924   0.251   2.237   2.865  0.6701 -1.5120 -1.4787
 1488SOL     OW15925   1.367   3.463  14.753 -0.1548  0.5933  0.6976
 1488SOL    HW115926   1.328   3.545  14.784  2.2748  2.1499 -0.4335
 1488SOL    HW215927   1.360   3.481  14.660 -2.6998  0.3629  0.8391
 1489SOL     OW15928   4.098   4.605   2.340 -0.1736  0.2550  0.5157
 1489SOL    HW115929   4.188   4.571   2.338  0.2531  1.2847  2.1364
 1489SOL    HW215930   4.060   4.529   2.384  1.2282  0.5632  2.2824
 1490SOL     OW15931   2.830   4.305  14.857 -0.2420 -0.5142  0.0604
 1490SOL    HW115932   2.781   4.285  14.778  0.1377 -2.5651  0.3492
 1490SOL    HW215933   2.907   4.341  14.812 -1.7532  1.7906 -0.7019
 1491SOL     OW15934   2.142   0.439   5.578 -0.3240 -0.5064  0.1205
 1491SOL    HW115935   2.074   0.403   5.522  0.0922 -2.1826  0.6676
 1491SOL    HW215936   2.210   0.444   5.511  0.8832 -0.5364  1.3360
 1492SOL     OW15937   2.150   3.991   5.897 -0.3538 -0.1896  0.2319
 1492SOL    HW115938   2.108   3.987   5.811 -0.9489 -0.2418  0.5265
 1492SOL    HW215939   2.077   3.967   5.954 -0.4914  2.3174  1.1308
 1493SOL     OW15940   3.525   1.404   3.095  0.2397  0.4209 -0.0105
 1493SOL    HW115941   3.609   1.365   3.071 -0.7235 -0.9339 -1.1419
 1493SOL    HW215942   3.546   1.493   3.124  1.9498  0.2678 -0.7979
 1494SOL     OW15943   4.722   3.355  15.957  0.3661  0.1591 -0.3466
 1494SOL    HW115944   4.683   3.424  15.903  0.0472  0.1875 -0.0782
 1494SOL    HW215945   0.001   3.403  16.039  1.7389  0.8357 -0.7897
 1495SOL     OW15946   3.791   0.856   1.145  0.1426 -0.5054  0.2134
 1495SOL    HW115947   3.825   0.786   1.088  1.7328 -2.1019  3.1433
 1495SOL    HW215948   3.876   0.889   1.173 -0.7737  1.5116  0.6277
 1496SOL     OW15949   0.103   1.418  16.182  0.0743  0.1629  0.3644
 1496SOL    HW115950   0.030   1.385  16.130 -0.0948  0.0901  0.6440
 1496SOL    HW215951   0.070   1.502  16.213 -0.3388 -0.1872  0.8753
 1497SOL     OW15952   4.353   2.093   3.117 -0.2851  0.1156  0.0512
 1497SOL    HW115953   4.432   2.139   3.088  0.5763 -0.6479  1.2174
 1497SOL    HW215954   4.340   2.046   3.034  2.6695  0.0436 -0.3729
 1498SOL     OW15955   3.723   4.189   1.481  0.1954 -0.0996  0.5143
 1498SOL    HW115956   3.792   4.154   1.537 -0.7906 -0.3518  1.5843
 1498SOL    HW215957   3.652   4.127   1.501  0.1132 -0.3873 -0.6769
 1499SOL     OW15958   2.276   0.034   6.193 -0.1392  0.5209 -0.2027
 1499SOL    HW115959   2.236   4.680   6.155 -1.5771  1.4610 -0.6548
 1499SOL    HW215960   2.237   0.025   6.280 -2.4791 -2.3930 -1.5289
 1500SOL     OW15961   3.862   2.560  15.573  0.0317  0.0868 -0.1497
 1500SOL    HW115962   3.811   2.501  15.517 -1.0190  0.5163  0.3659
 1500SOL    HW215963   3.863   2.501  15.649 -0.2721 -1.6463 -1.4901
 1501SOL     OW15964   2.569   4.216  17.346  0.5049 -0.2680  0.0388
 1501SOL    HW115965   2.641   4.199  17.407  1.0900  1.7459 -0.0890
 1501SOL    HW215966   2.609   4.209  17.259  0.6857 -0.0261  0.1007
 1502SOL     OW15967   2.489   3.013   5.147 -0.4167  0.4222 -0.4833
 1502SOL    HW115968   2.581   3.001   5.171 -0.7959 -0.3406  0.5832
 1502SOL    HW215969   2.435   2.960   5.206  3.2112 -2.2803  0.4024
 1503SOL     OW15970   0.300   3.316   3.766 -0.1292  0.1143  0.0763
 1503SOL    HW115971   0.373   3.257   3.786  0.7773  0.9187 -0.8924
 1503SOL    HW215972   0.252   3.249   3.717 -1.0930  0.0208  1.1447
 1504SOL     OW15973   4.045   1.951   2.865 -0.0161 -0.5011  0.5204
 1504SOL    HW115974   4.126   1.917   2.904  0.6235 -0.1008 -0.4554
 1504SOL    HW215975   4.043   1.928   2.772 -0.6994  1.0853  0.1438
 1505SOL     OW15976   2.314   0.873   2.867  0.3073  0.0399 -0.7433
 1505SOL    HW115977   2.334   0.784   2.840 -0.0719  0.0265 -0.9697
 1505SOL    HW215978   2.240   0.895   2.811 -0.8891  1.7136  1.5100
 1506SOL     OW15979   0.786   2.013   4.067  0.1111  0.1316  0.3311
 1506SOL    HW115980   0.709   1.955   4.066 -0.7484  1.2694 -0.3212
 1506SOL    HW215981   0.774   2.053   4.153  0.3750  1.0947 -0.0833
 1507SOL     OW15982   1.137   0.020   6.430  0.5656 -0.4483 -0.0760
 1507SOL    HW115983   1.183   4.661   6.429 -0.4945 -1.0403  2.1613
 1507SOL    HW215984   1.045   4.718   6.432  1.0772 -2.0957  1.2076
 1508SOL     OW15985   4.117   3.080   4.701  0.0036  0.2567 -0.4006
 1508SOL    HW115986   4.081   3.084   4.613 -1.9654  0.9518  0.4162
 1508SOL    HW215987   4.143   3.171   4.715  0.4675  0.5992 -3.5320
 1509SOL     OW15988   4.720   1.437   7.635 -0.2187 -0.2596  0.3260
 1509SOL    HW115989   4.712   1.518   7.686 -1.0296 -0.2955  0.2535
 1509SOL    HW215990   4.629   1.408   7.630  0.2804 -1.3157 -2.6660
 1510SOL     OW15991   2.664   0.934   8.158 -0.0059 -0.0157 -0.0505
 1510SOL    HW115992   2.631   0.965   8.242  0.0728 -0.9972  0.3370
 1510SOL    HW215993   2.755   0.931   8.186  0.2255 -0.1649 -0.8234
 1511SOL     OW15994   3.588   0.544   6.546  0.0864  0.6254  0.2038
 1511SOL    HW115995   3.656   0.574   6.486  0.3360 -3.0294 -1.3529
 1511SOL    HW215996   3.507   0.560   6.496  0.6262 -0.0664 -0.8951
 1512SOL     OW15997   0.728   4.683   5.674 -0.7614 -0.2938 -0.1096
 1512SOL    HW115998   0.730   0.034   5.615 -0.5391  1.4561  2.1178
 1512SOL    HW215999   0.716   4.610   5.613 -1.0993 -0.1806 -0.1813
 1513SOL     OW16000   3.720   3.939   8.822 -0.1531  0.1807  0.0664
 1513SOL    HW116001   3.716   3.965   8.914  1.9977  1.4729 -0.2098
 1513SOL    HW216002   3.743   4.023   8.782  0.4539 -0.1945 -0.3682
 1514SOL     OW16003   1.279   2.565   5.819 -0.3316 -0.1814 -0.1324
 1514SOL    HW116004   1.345   2.527   5.761  0.2404 -0.0361  0.4156
 1514SOL    HW216005   1.223   2.488   5.831  1.1612 -1.1712  0.5141
 1515SOL     OW16006   4.089   2.115   2.130 -0.0471  0.3188 -0.6388
 1515SOL    HW116007   4.045   2.034   2.107  1.4818 -0.3896 -1.0858
 1515SOL    HW216008   4.160   2.098   2.192 -2.1127 -0.3874  1.5513
 1516SOL     OW16009   2.312   0.878   6.496  0.0039  0.1545 -0.3550
 1516SOL    HW116010   2.222   0.893   6.525 -1.1534 -1.9529 -2.8645
 1516SOL    HW216011   2.358   0.941   6.552  1.7735  0.1469 -1.7983
 1517SOL     OW16012   4.255   3.500   5.787  0.4763  0.1008  0.2868
 1517SOL    HW116013   4.254   3.404   5.787  0.3151  0.1145  2.4260
 1517SOL    HW216014   4.241   3.519   5.879 -1.7203 -0.6033  0.0979
 1518SOL     OW16015   3.947   1.031   1.428  0.1912  0.0522 -0.5374
 1518SOL    HW116016   4.042   1.041   1.440  0.2573  1.0143 -1.8972
 1518SOL    HW216017   3.955   0.984   1.345 -1.1989 -0.3849 -0.4206
 1519SOL     OW16018   2.511   3.751   8.735  0.1434 -0.0423 -0.2494
 1519SOL    HW116019   2.464   3.712   8.809  1.0718 -0.7363 -0.0335
 1519SOL    HW216020   2.598   3.766   8.772  0.8648  0.9560 -2.3054
 1520SOL     OW16021   1.383   1.208   2.868  0.2483 -0.3862 -0.1115
 1520SOL    HW116022   1.292   1.178   2.863  0.4938 -0.9446 -1.1364
 1520SOL    HW216023   1.386   1.269   2.794 -1.3071 -1.3177 -0.9541
 1521SOL     OW16024   3.652   2.965   0.756  0.1247 -0.4169  0.0752
 1521SOL    HW116025   3.742   2.934   0.747  0.0726 -1.1734  2.3445
 1521SOL    HW216026   3.643   2.942   0.848 -0.1666  2.0275  0.6735
 1522SOL     OW16027   0.468   2.633   4.927 -0.2842 -0.0789  0.3131
 1522SOL    HW116028   0.447   2.555   4.978  0.9674  0.3766  1.5478
 1522SOL    HW216029   0.379   2.662   4.909  0.4091  2.5426  1.0646
 1523SOL     OW16030   2.963   0.443   6.674  0.3330 -0.1676  0.2319
 1523SOL    HW116031   2.938   0.488   6.593 -0.5780  0.2418  0.7419
 1523SOL    HW216032   2.909   0.479   6.744  1.6029  0.4962  0.8763
 1524SOL     OW16033   2.567   3.347   7.007  0.1927 -0.3012  0.3823
 1524SOL    HW116034   2.525   3.263   7.027 -1.3359  0.7341  1.5984
 1524SOL    HW216035   2.634   3.333   7.075 -1.9031 -0.5289  2.4115
 1525SOL     OW16036   0.785   0.011  15.359  0.3167 -0.8786  0.5721
 1525SOL    HW116037   0.798   0.106  15.364 -2.3544 -0.4547 -0.6771
 1525SOL    HW216038   0.851   4.711  15.295  0.1664  0.4447 -0.1020
 1526SOL     OW16039   3.808   1.039   6.835  0.9181 -0.3430 -0.1923
 1526SOL    HW116040   3.819   1.072   6.746  0.7208 -0.0975 -0.1270
 1526SOL    HW216041   3.760   1.108   6.880  2.9839  0.0615  1.3625
 1527SOL     OW16042   1.152   3.971   2.933 -0.0733  0.8281 -0.4362
 1527SOL    HW116043   1.127   3.900   2.874 -1.9502  0.6605  0.5461
 1527SOL    HW216044   1.115   4.044   2.884 -1.6350  0.0767 -0.3895
 1528SOL     OW16045   0.435   3.607  13.298  0.3474  0.0220  0.1795
 1528SOL    HW116046   0.459   3.520  13.266 -0.3272  0.0384 -0.3687
 1528SOL    HW216047   0.480   3.603  13.382  0.8896 -1.0026 -0.1612
 1529SOL     OW16048   1.674   0.787   3.063 -0.5015  0.5708 -0.1620
 1529SOL    HW116049   1.736   0.771   2.992  1.0351  0.3234  1.2295
 1529SOL    HW216050   1.735   0.814   3.131 -2.0899 -0.5661  1.7243
 1530SOL     OW16051   3.140   2.115   4.966  0.3112  0.4037 -0.5203
 1530SOL    HW116052   3.127   2.165   4.886  0.9849  1.6118  0.1132
 1530SOL    HW216053   3.235   2.104   4.959  0.2306 -0.6689  0.0298
 1531SOL     OW16054   0.875   3.645  16.644 -0.1703 -0.4457 -0.3262
 1531SOL    HW116055   0.810   3.643  16.574 -2.0089  2.7886  1.3214
 1531SOL    HW216056   0.863   3.736  16.671  0.8181 -0.5809  0.5648
 1532SOL     OW16057   3.715   3.917   8.007  0.3799 -0.2860 -0.5483
 1532SOL    HW116058   3.671   3.838   8.038  0.1018 -0.3097 -1.0142
 1532SOL    HW216059   3.723   3.884   7.918 -0.3730 -1.5289 -0.1575
 1533SOL     OW16060   3.232   0.669   5.575  0.6521 -0.6363  0.0534
 1533SOL    HW116061   3.281   0.649   5.495  1.8302  1.3256  0.2911
 1533SOL    HW216062   3.272   0.605   5.633  0.0008  0.4174  1.6562
 1534SOL     OW16063   4.357   1.558   5.321 -0.0435 -0.0564 -0.3031
 1534SOL    HW116064   4.360   1.579   5.228  2.3261 -0.2145 -0.2635
 1534SOL    HW216065   4.374   1.464   5.326  0.5396 -0.0631 -2.4988
 1535SOL     OW16066   0.648   4.165   6.446 -0.0860 -0.4372  0.3786
 1535SOL    HW116067   0.717   4.201   6.502 -0.5834 -0.6061  1.1076
 1535SOL    HW216068   0.618   4.252   6.419  0.6995 -0.6142 -1.0543
 1536SOL     OW16069   2.393   0.734  11.783 -0.2401 -0.3530 -0.4758
 1536SOL    HW116070   2.431   0.694  11.705  0.3453  2.1562 -1.4647
 1536SOL    HW216071   2.370   0.659  11.839 -0.7893  0.7450  0.7694
 1537SOL     OW16072   3.370   2.364   9.124  0.5467  0.2065 -0.3231
 1537SOL    HW116073   3.307   2.366   9.197 -0.3999  1.1598 -1.1753
 1537SOL    HW216074   3.417   2.282   9.141 -2.6099 -0.9945  2.7116
 1538SOL     OW16075   3.148   3.533  10.791  0.7116 -0.3217  0.3202
 1538SOL    HW116076   3.078   3.577  10.839 -0.4905 -0.5847 -1.1837
 1538SOL    HW216077   3.229   3.582  10.805  0.8160  0.1224 -1.8829
 1539SOL     OW16078   3.595   2.308   5.250  0.1695  0.3004  0.4939
 1539SOL    HW116079   3.680   2.262   5.248 -0.3362 -0.6664  0.9490
 1539SOL    HW216080   3.609   2.373   5.181  0.4776 -1.4594 -1.1190
 1540SOL     OW16081   4.038   3.793   8.296  0.4366 -0.4814 -0.2728
 1540SOL    HW116082   4.075   3.735   8.230  2.0765  1.9671 -1.5060
 1540SOL    HW216083   4.098   3.781   8.370 -2.8841 -0.5785  2.4367
 1541SOL     OW16084   2.177   2.574   3.767 -0.2036  0.2203 -0.0379
 1541SOL    HW116085   2.155   2.499   3.711 -0.2900  1.5000 -1.7265
 1541SOL    HW216086   2.088   2.588   3.799 -0.2408  1.4566 -0.6716
 1542SOL     OW16087   1.939   1.146   4.151  0.0508 -0.2608  0.5734
 1542SOL    HW116088   1.861   1.200   4.165 -0.8892 -0.8533 -2.2399
 1542SOL    HW216089   1.910   1.090   4.079 -0.3833 -0.6610  1.0534
 1543SOL     OW16090   2.344   1.423   8.477 -0.6029  0.0472  0.1320
 1543SOL    HW116091   2.439   1.424   8.477 -0.5840 -1.6818 -0.1846
 1543SOL    HW216092   2.329   1.405   8.570 -2.3611 -0.4715 -0.2479
 1544SOL     OW16093   2.331   2.909   5.629  0.0194 -0.6622  0.2918
 1544SOL    HW116094   2.336   2.963   5.707 -1.8130  0.1542 -0.1620
 1544SOL    HW216095   2.338   2.969   5.555 -2.1406  1.1279  1.5620
 1545SOL     OW16096   2.357   2.969   7.025  0.3032 -0.6917 -0.7561
 1545SOL    HW116097   2.311   2.896   6.982  2.7261 -2.1636 -0.8433
 1545SOL    HW216098   2.307   3.040   6.986 -0.7646 -0.6413  0.6844
 1546SOL     OW16099   4.042   1.879   5.757 -0.1938 -0.1754 -0.2023
 1546SOL    HW116100   3.961   1.840   5.788 -1.0258  0.5104 -1.5321
 1546SOL    HW216101   4.028   1.968   5.726 -0.1209 -0.3806 -0.8174
 1547SOL     OW16102   0.040   0.180   2.818 -0.0349  0.4205 -0.1313
 1547SOL    HW116103   0.127   0.140   2.811 -0.9598 -2.2504  3.6160
 1547SOL    HW216104   4.712   0.110   2.780  1.1295 -1.2567  1.3115
 1548SOL     OW16105   1.381   3.103   5.661  0.5498  0.0020  0.4447
 1548SOL    HW116106   1.349   3.085   5.572  2.6895  0.1542 -0.3617
 1548SOL    HW216107   1.302   3.073   5.706  2.0066 -1.3675  2.0813
 1549SOL     OW16108   0.552   3.650   1.076  0.1260 -0.3976  0.3464
 1549SOL    HW116109   0.606   3.728   1.093 -0.4111 -0.0065  0.2688
 1549SOL    HW216110   0.607   3.573   1.086 -0.3500 -0.4713  2.2819
 1550SOL     OW16111   3.440   1.239  12.160 -0.4419 -0.1430 -0.3094
 1550SOL    HW116112   3.449   1.240  12.065  2.6204  0.8174 -0.0106
 1550SOL    HW216113   3.397   1.324  12.170 -1.2883 -0.9423  2.8567
 1551SOL     OW16114   0.946   1.919   5.983 -0.0722  0.3094  0.2220
 1551SOL    HW116115   1.011   1.985   5.961 -0.7365  0.8325 -0.1854
 1551SOL    HW216116   0.908   1.891   5.900  2.6279 -1.4114 -0.4230
 1552SOL     OW16117   3.847   4.143   9.730  0.1183  0.0904 -0.7284
 1552SOL    HW116118   3.842   4.060   9.778 -1.8113 -0.5924 -2.1217
 1552SOL    HW216119   3.757   4.159   9.702 -0.5668  0.0097  1.4592
 1553SOL     OW16120   4.580   0.015   4.625  0.1506  0.0171  0.6028
 1553SOL    HW116121   4.571   0.105   4.656 -0.4219  0.5699 -1.1583
 1553SOL    HW216122   4.560   0.014   4.531 -1.7089 -1.6174  1.0153
 1554SOL     OW16123   3.396   4.290   5.520 -0.0179 -0.1829 -0.1350
 1554SOL    HW116124   3.422   4.342   5.445 -1.8983 -0.7733 -1.1938
 1554SOL    HW216125   3.456   4.320   5.589  0.2236  1.0527 -0.8918
 1555SOL     OW16126   0.841   3.083   6.056  0.6394  0.4052 -0.2715
 1555SOL    HW116127   0.841   3.072   5.960  0.2739  0.7122 -0.3094
 1555SOL    HW216128   0.803   2.999   6.080  1.0701  0.5006  0.7121
 1556SOL     OW16129   0.963   2.674   3.992 -0.5436  0.1486  0.6953
 1556SOL    HW116130   0.885   2.639   4.034 -0.1992 -1.0465  0.3460
 1556SOL    HW216131   0.965   2.762   4.030  0.3134 -0.0276  1.0506
 1557SOL     OW16132   2.844   1.604   3.106  0.5354 -0.0238  0.0095
 1557SOL    HW116133   2.876   1.694   3.118  2.4019 -0.6482 -0.2230
 1557SOL    HW216134   2.924   1.566   3.071 -0.2109  0.3548 -2.1231
 1558SOL     OW16135   0.360   4.066   3.616 -0.4755  0.4174  0.0865
 1558SOL    HW116136   0.347   3.986   3.566  2.0391  0.7381 -1.1072
 1558SOL    HW216137   0.456   4.073   3.608 -0.6432  1.2943 -1.2166
 1559SOL     OW16138   3.537   4.339   4.220 -0.1455  0.1099 -0.2666
 1559SOL    HW116139   3.629   4.330   4.194 -0.1903 -0.8969 -0.0649
 1559SOL    HW216140   3.497   4.335   4.133  0.6705  0.2678 -0.6557
 1560SOL     OW16141   3.657   1.119   7.249 -0.1521 -0.2664 -0.4851
 1560SOL    HW116142   3.589   1.071   7.201 -0.6602  1.3235 -1.3640
 1560SOL    HW216143   3.610   1.189   7.296 -0.8852 -1.6142  0.7970
 1561SOL     OW16144   4.107   0.399  12.453 -0.1776 -0.1112 -0.1175
 1561SOL    HW116145   4.063   0.466  12.400  0.9658 -0.1648 -1.1327
 1561SOL    HW216146   4.199   0.393  12.427 -0.2278 -1.7038  0.0684
 1562SOL     OW16147   0.917   3.813   0.498  0.1583 -0.4347 -0.0622
 1562SOL    HW116148   0.919   3.773   0.585 -2.1640 -0.3426  0.0453
 1562SOL    HW216149   0.823   3.805   0.483  0.3063 -1.6406 -0.3448
 1563SOL     OW16150   2.596   1.147   9.618 -0.4262  0.1169 -0.2844
 1563SOL    HW116151   2.570   1.177   9.531 -0.9495  2.9832  0.8612
 1563SOL    HW216152   2.660   1.217   9.632  0.4313 -0.5156 -1.1721
 1564SOL     OW16153   0.028   3.798   7.925  0.1993  0.4561 -0.4381
 1564SOL    HW116154   0.117   3.819   7.951  0.0302  0.4274  0.1566
 1564SOL    HW216155   0.023   3.706   7.950  0.2528  0.6960  0.4375
 1565SOL     OW16156   0.711   1.428  10.689  0.0096  0.3613  0.0411
 1565SOL    HW116157   0.797   1.395  10.666 -0.2313  0.6359 -1.2319
 1565SOL    HW216158   0.674   1.448  10.603 -0.2942 -0.3063  0.0191
 1566SOL     OW16159   0.787   1.917   9.471  0.2923  0.3634 -0.5162
 1566SOL    HW116160   0.863   1.970   9.448  0.0254  1.0837  0.2802
 1566SOL    HW216161   0.740   1.972   9.533 -1.1746 -0.3110 -1.0076
 1567SOL     OW16162   0.155   0.308   2.030  0.0951  0.5749  0.0004
 1567SOL    HW116163   0.171   0.378   1.966  0.0331  0.8978  0.3421
 1567SOL    HW216164   0.126   0.358   2.106  2.1456  1.6051  0.0884
 1568SOL     OW16165   0.369   1.562   2.154  0.7504 -0.2922  0.1541
 1568SOL    HW116166   0.357   1.650   2.189  0.8761  0.0086 -0.5775
 1568SOL    HW216167   0.345   1.572   2.062  0.3936  0.4060  0.3263
 1569SOL     OW16168   1.756   0.679   5.223  0.1932  0.3740  0.4740
 1569SOL    HW116169   1.756   0.583   5.226  0.5028  0.3943  1.2479
 1569SOL    HW216170   1.796   0.703   5.307  0.6105  1.1494  0.0568
 1570SOL     OW16171   2.715   0.988   8.800 -0.3562  0.7945 -0.3061
 1570SOL    HW116172   2.675   0.919   8.853  0.9865 -0.8823 -1.4698
 1570SOL    HW216173   2.643   1.012   8.741 -0.9060 -0.7427 -0.2624
 1571SOL     OW16174   4.105   3.507  10.413  0.1107  0.1438  0.3210
 1571SOL    HW116175   4.051   3.482  10.488  0.2622 -0.6182  0.1800
 1571SOL    HW216176   4.173   3.442  10.432 -0.0160  0.0744  0.5414
 1572SOL     OW16177   2.087   1.970   3.354  0.0621 -0.4701  0.5613
 1572SOL    HW116178   2.031   1.909   3.401 -3.1853  2.2460  0.2681
 1572SOL    HW216179   2.026   2.043   3.341  2.4303  1.9885  3.3709
 1573SOL     OW16180   2.918   1.208  11.479  0.4722  0.1475 -0.1405
 1573SOL    HW116181   2.928   1.159  11.398  1.2345  1.4733 -0.8516
 1573SOL    HW216182   2.822   1.215  11.478  0.5438  1.0262 -0.9589
 1574SOL     OW16183   0.133   3.554   6.667  0.2145 -0.0782  0.0432
 1574SOL    HW116184   0.136   3.623   6.601 -0.6317 -0.4891 -0.4125
 1574SOL    HW216185   0.092   3.478   6.627  3.2226 -1.2603 -0.8073
 1575SOL     OW16186   4.704   2.528  15.594 -0.4066  0.4172  0.2573
 1575SOL    HW116187   4.635   2.527  15.661 -0.3670 -3.6519  0.2347
 1575SOL    HW216188   4.711   2.619  15.565 -0.6723  0.3244 -0.1036
 1576SOL     OW16189   0.687   3.233  15.726  0.6604 -0.1979 -0.5869
 1576SOL    HW116190   0.679   3.240  15.631  2.6559  0.4939 -0.7130
 1576SOL    HW216191   0.601   3.213  15.761  0.4584 -1.5389 -1.8619
 1577SOL     OW16192   2.542   4.089   9.277 -0.1167 -0.0493  0.4564
 1577SOL    HW116193   2.485   4.083   9.200 -0.0929 -0.2954  0.4578
 1577SOL    HW216194   2.626   4.056   9.246  0.0609  0.8177  0.0139
 1578SOL     OW16195   1.353   2.961   6.395  0.0014 -0.3203  0.5354
 1578SOL    HW116196   1.318   2.899   6.459  1.8702 -0.6352  1.2359
 1578SOL    HW216197   1.370   2.907   6.319  1.4850  1.9796 -0.7762
 1579SOL     OW16198   4.640   2.795  11.500 -0.1112  0.1475 -0.2290
 1579SOL    HW116199   0.003   2.756  11.494 -0.0225  0.0520  1.4552
 1579SOL    HW216200   4.663   2.888  11.507 -1.0683  0.3943 -0.4980
 1580SOL     OW16201   3.182   1.875  13.468  0.1698  0.3206  0.3563
 1580SOL    HW116202   3.111   1.847  13.525  0.0061 -2.1849 -1.0353
 1580SOL    HW216203   3.171   1.969  13.482  1.3072  0.2251  1.9240
 1581SOL     OW16204   0.264   0.039  16.403 -0.0821 -0.1483 -0.0402
 1581SOL    HW116205   0.330   4.696  16.384  0.9725  0.6865  0.6521
 1581SOL    HW216206   0.315   0.108  16.361 -2.7780  1.4322 -0.6748
 1582SOL     OW16207   4.340   2.227  14.931  0.6897  0.5346 -0.3881
 1582SOL    HW116208   4.407   2.169  14.896 -0.6170 -0.5425 -1.1184
 1582SOL    HW216209   4.275   2.237  14.861  0.2095 -0.1786 -0.0524
 1583SOL     OW16210   4.225   2.572   1.435  0.4090  0.1811 -0.4857
 1583SOL    HW116211   4.201   2.594   1.525  0.8194  0.9942 -0.5823
 1583SOL    HW216212   4.143   2.542   1.396  0.3034 -0.6959  0.4167
 1584SOL     OW16213   1.610   0.227  16.481  0.0776 -0.4408  0.4421
 1584SOL    HW116214   1.695   0.207  16.442  0.3587 -0.3805  1.0233
 1584SOL    HW216215   1.603   0.155  16.543  1.1742  1.4006  2.7274
 1585SOL     OW16216   1.973   3.503  11.151 -0.3729  0.2254 -0.1041
 1585SOL    HW116217   1.934   3.547  11.226  2.1750 -0.8482  1.8484
 1585SOL    HW216218   2.028   3.576  11.122 -0.3546 -0.2460 -1.2621
 1586SOL     OW16219   2.927   3.929   5.153 -0.2781  0.8642  0.2429
 1586SOL    HW116220   2.904   3.842   5.119  0.0150  1.1653 -0.7317
 1586SOL    HW216221   2.987   3.897   5.220  0.2621 -0.1395 -0.7137
 1587SOL     OW16222   0.091   4.388   8.282 -0.4571  0.2252 -0.2472
 1587SOL    HW116223   0.099   4.443   8.360  1.7803  0.5222 -0.6729
 1587SOL    HW216224   0.133   4.436   8.210 -0.4551  0.1213 -0.3145
 1588SOL     OW16225   3.605   0.022  17.541 -0.2385 -0.2187 -0.0906
 1588SOL    HW116226   3.631   4.695  17.618  1.2194  0.3109 -0.2301
 1588SOL    HW216227   3.539   0.077  17.581  2.4387  2.1872  1.0244
 1589SOL     OW16228   0.117   1.687   4.783  0.1915 -0.5301 -0.6013
 1589SOL    HW116229   0.073   1.656   4.863 -0.1195 -0.5575 -0.7830
 1589SOL    HW216230   0.198   1.636   4.788  0.2495 -0.3232  0.5987
 1590SOL     OW16231   2.716   1.818   9.021  0.0232  0.2808  0.1014
 1590SOL    HW116232   2.675   1.734   9.041  1.4633 -0.2986  0.6470
 1590SOL    HW216233   2.804   1.796   9.052 -0.0315 -0.2010 -0.0819
 1591SOL     OW16234   0.453   1.283  11.636  1.4865 -0.1698  0.3774
 1591SOL    HW116235   0.458   1.294  11.541 -1.2471 -3.2441 -0.1095
 1591SOL    HW216236   0.545   1.288  11.663  1.1826 -0.3550  1.4316
 1592SOL     OW16237   3.852   1.336   1.688  0.1205 -0.0443  0.3967
 1592SOL    HW116238   3.934   1.341   1.639 -0.4978  1.1292 -0.5311
 1592SOL    HW216239   3.868   1.258   1.741 -1.7886 -1.3083 -0.8813
 1593SOL     OW16240   4.553   1.955  17.100  0.1347  0.3764  0.2919
 1593SOL    HW116241   4.481   1.980  17.042  0.9775  1.3423 -0.3412
 1593SOL    HW216242   4.559   2.036  17.151  2.0072 -0.7856  1.9086
 1594SOL     OW16243   2.783   4.327   8.556  0.0588 -0.0580  0.1098
 1594SOL    HW116244   2.870   4.330   8.516  0.0144  0.6395  0.0510
 1594SOL    HW216245   2.796   4.293   8.644 -0.4256  0.1121  0.2458
 1595SOL     OW16246   1.849   1.175   5.192 -0.0166 -0.2071 -0.1655
 1595SOL    HW116247   1.876   1.253   5.145 -0.3446  1.2150  2.0247
 1595SOL    HW216248   1.790   1.204   5.262 -0.0364 -1.5110  0.3568
 1596SOL     OW16249   3.988   0.888   6.646 -0.0044 -0.3441  0.1915
 1596SOL    HW116250   3.916   0.902   6.707 -0.2988 -2.9321  0.4655
 1596SOL    HW216251   3.978   0.954   6.577 -1.6254 -1.6211 -0.8052
 1597SOL     OW16252   2.192   2.907   9.053  0.5730  0.2011 -0.0362
 1597SOL    HW116253   2.225   2.887   8.965 -0.2431 -1.6102  0.0665
 1597SOL    HW216254   2.273   2.919   9.102  0.4505 -1.3229  0.5267
 1598SOL     OW16255   1.331   4.367   3.676 -0.2107  0.1345  0.6311
 1598SOL    HW116256   1.370   4.434   3.731 -0.7637  0.8273  0.1685
 1598SOL    HW216257   1.328   4.416   3.594 -0.4167 -0.5870  0.2064
 1599SOL     OW16258   1.559   2.483  15.810  0.4112 -0.4268  0.2253
 1599SOL    HW116259   1.505   2.481  15.889  1.0910  0.1088  0.7042
 1599SOL    HW216260   1.492   2.522  15.753  0.0728  0.1382  1.0150
 1600SOL     OW16261   0.342   0.313   3.537 -0.0911  0.3125 -0.1269
 1600SOL    HW116262   0.309   0.401   3.518 -1.4509 -0.0885  0.3623
 1600SOL    HW216263   0.372   0.330   3.626  1.8074 -1.9011 -0.3658
 1601SOL     OW16264   4.284   4.084   9.100 -0.2160  0.0069  0.1815
 1601SOL    HW116265   4.303   4.154   9.162  0.2812 -1.4333  1.6820
 1601SOL    HW216266   4.334   4.112   9.024 -0.4138 -0.0432  0.0343
 1602SOL     OW16267   2.906   4.164   4.407 -0.1616  0.3302 -0.0980
 1602SOL    HW116268   2.937   4.220   4.478 -2.7989 -1.4661  2.4827
 1602SOL    HW216269   2.872   4.234   4.351  1.0243  0.1676 -0.9976
 1603SOL     OW16270   0.897   0.327   7.649  0.5404  0.0644 -0.2677
 1603SOL    HW116271   0.945   0.394   7.697 -1.0455  1.2176 -0.3157
 1603SOL    HW216272   0.804   0.346   7.641  0.6837  0.8792  0.0521
 1604SOL     OW16273   1.352   0.126  16.716 -0.1873 -0.0511  0.2910
 1604SOL    HW116274   1.388   0.206  16.752 -1.7347  0.4268  0.7776
 1604SOL    HW216275   1.428   0.092  16.669 -0.1246  2.1337 -1.2041
 1605SOL     OW16276   0.730   2.157  12.449 -0.4170  0.4170 -0.0194
 1605SOL    HW116277   0.775   2.184  12.529 -0.5454 -1.4134  0.6621
 1605SOL    HW216278   0.805   2.134  12.393  0.2427 -0.5611  1.2630
 1606SOL     OW16279   4.649   1.086   6.523 -0.5813 -0.1872  0.3937
 1606SOL    HW116280   4.569   1.053   6.564 -1.3219  0.6768 -0.3321
 1606SOL    HW216281   4.700   1.009   6.497  0.3222  0.8878 -1.0932
 1607SOL     OW16282   2.239   1.978  10.182  0.1082  0.0880 -0.0752
 1607SOL    HW116283   2.205   1.903  10.231  0.1631  0.1420  0.0443
 1607SOL    HW216284   2.332   1.960  10.195 -0.0488 -0.8539 -0.2173
 1608SOL     OW16285   3.054   3.117  11.133 -0.0814  0.1936  0.1386
 1608SOL    HW116286   2.970   3.082  11.162 -0.2141  2.1441  2.1018
 1608SOL    HW216287   3.061   3.195  11.187  0.2527  0.4035 -0.2081
 1609SOL     OW16288   1.474   3.947   5.745  0.0043 -0.0149 -0.1152
 1609SOL    HW116289   1.547   3.950   5.807  0.4340  0.1869 -0.6319
 1609SOL    HW216290   1.442   4.037   5.741 -0.3637 -0.2055 -1.5500
 1610SOL     OW16291   4.585   3.095   7.696  0.3866  0.2032 -0.5648
 1610SOL    HW116292   4.559   3.018   7.746 -0.1687  0.8047  0.0759
 1610SOL    HW216293   4.570   3.068   7.605  0.7983 -1.2341 -0.2104
 1611SOL     OW16294   1.003   0.409   2.302  0.1590 -0.4623 -0.0580
 1611SOL    HW116295   1.033   0.466   2.232 -0.6415 -0.5294 -0.4513
 1611SOL    HW216296   1.058   0.334   2.281  0.5268 -0.5267  1.1031
 1612SOL     OW16297   3.858   1.412   5.026 -0.2090 -0.7647 -0.0241
 1612SOL    HW116298   3.840   1.383   5.116 -1.2350 -1.1111 -0.3365
 1612SOL    HW216299   3.953   1.420   5.027 -0.3445  1.1523 -2.3610
 1613SOL     OW16300   0.975   4.433   6.946  0.1099 -0.6029  0.5765
 1613SOL    HW116301   1.035   4.390   6.884 -2.6539  0.0617 -2.5331
 1613SOL    HW216302   0.933   4.488   6.880 -1.8493 -0.4892  1.9390
 1614SOL     OW16303   3.094   0.899  14.045 -0.1798 -0.3466 -0.0462
 1614SOL    HW116304   3.178   0.943  14.029 -0.3120 -0.0928 -0.0387
 1614SOL    HW216305   3.048   0.919  13.964  1.4454 -1.4843 -1.2547
 1615SOL     OW16306   0.971   4.628  14.346  0.0642  0.4199  0.3663
 1615SOL    HW116307   0.902   4.569  14.373  1.0155 -1.2856 -0.9085
 1615SOL    HW216308   0.960   4.650  14.253  1.0953 -1.8602 -0.2957
 1616SOL     OW16309   3.963   1.874   6.963  0.3012  0.0118  0.6601
 1616SOL    HW116310   3.960   1.889   7.057 -1.7095 -2.1187  0.9435
 1616SOL    HW216311   3.928   1.959   6.936  1.0553  0.6611  1.7171
 1617SOL     OW16312   4.228   3.240   3.557 -0.1414 -0.2451  0.2092
 1617SOL    HW116313   4.297   3.242   3.623  0.4655  0.9644 -0.4472
 1617SOL    HW216314   4.233   3.151   3.522 -0.0379 -0.9480  2.0442
 1618SOL     OW16315   0.074   1.058   5.309  0.0780 -0.1776 -0.0335
 1618SOL    HW116316   0.108   1.034   5.223  2.9935 -1.3884  1.4229
 1618SOL    HW216317   0.115   1.144   5.320  1.9034 -0.9633 -0.6471
 1619SOL     OW16318   2.739   0.981  17.295 -0.9091 -0.1330  0.2142
 1619SOL    HW116319   2.658   0.997  17.345 -0.1375 -1.0365  1.7390
 1619SOL    HW216320   2.788   0.931  17.360  2.1823  0.2887 -1.8117
 1620SOL     OW16321   4.384   0.016   7.373  0.1264  0.0804 -0.1135
 1620SOL    HW116322   4.321   4.668   7.373 -0.3207  0.4663 -2.6353
 1620SOL    HW216323   4.462   4.701   7.414  0.0058 -0.3839 -0.3353
 1621SOL     OW16324   0.273   4.257   9.683  0.0137 -0.3725 -0.1248
 1621SOL    HW116325   0.270   4.248   9.778  1.1755  0.4293 -0.0089
 1621SOL    HW216326   0.251   4.349   9.671  1.5084  0.2023  1.6055
 1622SOL     OW16327   1.518   0.030   6.169  0.6060 -0.1865 -0.3425
 1622SOL    HW116328   1.435   0.063   6.203  1.1071 -1.3716  2.0445
 1622SOL    HW216329   1.495   0.003   6.081  0.7791  0.1933 -0.5055
 1623SOL     OW16330   3.746   3.435  12.176  0.5629 -0.3027 -0.1636
 1623SOL    HW116331   3.776   3.520  12.143 -1.0263  0.0050 -0.7656
 1623SOL    HW216332   3.815   3.381  12.138 -0.8601 -0.9864 -1.7593
 1624SOL     OW16333   1.051   2.854   5.093 -0.0684  0.0794  0.3762
 1624SOL    HW116334   1.127   2.893   5.049  1.2590 -1.5725  1.2122
 1624SOL    HW216335   0.999   2.822   5.019  0.4254 -0.6004  0.3203
 1625SOL     OW16336   4.665   0.633   0.346 -0.3766  0.0702 -0.0481
 1625SOL    HW116337   4.720   0.555   0.334 -0.4559  0.1234 -0.7072
 1625SOL    HW216338   4.600   0.610   0.280 -0.9125  0.9841  0.1726
 1626SOL     OW16339   2.741   3.010  17.228 -0.6329  0.1424  0.2994
 1626SOL    HW116340   2.827   2.971  17.211 -1.1418 -0.8174 -0.0488
 1626SOL    HW216341   2.723   2.998  17.321  0.4272  4.2438  1.0163
 1627SOL     OW16342   1.887   4.533   5.214  0.0985 -0.2611 -0.3553
 1627SOL    HW116343   1.798   4.551   5.184 -0.5388 -1.0288  1.0732
 1627SOL    HW216344   1.937   4.603   5.171 -2.6261  2.1698  0.4614
 1628SOL     OW16345   3.471   4.286   5.154  0.0137  0.1149  0.4095
 1628SOL    HW116346   3.512   4.372   5.144  1.0498 -0.7171 -2.5267
 1628SOL    HW216347   3.545   4.227   5.168 -2.1967 -2.8277 -0.3471
 1629SOL     OW16348   4.387   2.586   7.205 -0.5767 -0.5734 -0.0267
 1629SOL    HW116349   4.387   2.553   7.295 -0.0063  2.8988  1.2318
 1629SOL    HW216350   4.298   2.621   7.198 -0.8514 -1.0737  0.8954
 1630SOL     OW16351   2.130   3.394   2.657  0.1835  0.1607 -0.1361
 1630SOL    HW116352   2.124   3.347   2.741  0.3752  2.6860  1.3003
 1630SOL    HW216353   2.114   3.325   2.593  2.7851 -0.5106 -0.0588
 1631SOL     OW16354   1.998   4.116   9.811 -0.4825 -0.0902 -0.4970
 1631SOL    HW116355   1.928   4.180   9.795 -1.7556 -1.1487  0.8274
 1631SOL    HW216356   1.940   4.041   9.820  0.0022 -0.4083 -0.0656
 1632SOL     OW16357   0.065   3.780  10.238  0.2976 -0.1967  0.9353
 1632SOL    HW116358   4.717   3.807  10.296 -1.0071  0.3105 -0.9199
 1632SOL    HW216359   0.080   3.689  10.263 -0.2391 -0.6450 -0.3662
 1633SOL     OW16360   1.579   2.849   8.849 -0.2268  0.1181 -0.0512
 1633SOL    HW116361   1.612   2.920   8.904  0.0851  0.0455 -0.1446
 1633SOL    HW216362   1.486   2.870   8.849  0.0990  1.5741 -0.8738
 1634SOL     OW16363   2.980   1.816   9.143  0.0186  0.2580  0.3833
 1634SOL    HW116364   2.946   1.819   9.232  0.8043 -0.7495  0.7126
 1634SOL    HW216365   3.036   1.893   9.147 -1.2015  1.1647  0.1803
 1635SOL     OW16366   2.633   2.426  13.101  0.3460 -0.0783 -0.2314
 1635SOL    HW116367   2.685   2.351  13.130  1.8717  1.4213  0.9669
 1635SOL    HW216368   2.680   2.497  13.146 -0.3289 -0.3641  0.9417
 1636SOL     OW16369   4.245   0.075  11.285 -0.1215 -0.0488 -0.0549
 1636SOL    HW116370   4.309   0.146  11.285 -0.4354  0.2330  1.1314
 1636SOL    HW216371   4.223   0.059  11.377 -2.6589  1.8397 -0.3329
 1637SOL     OW16372   0.448   1.122  14.571  0.0522  0.1042 -0.1886
 1637SOL    HW116373   0.444   1.078  14.486  0.0280  0.4394 -0.3592
 1637SOL    HW216374   0.533   1.165  14.566  0.1986 -0.2989 -1.1100
 1638SOL     OW16375   4.392   1.640   3.816 -0.3924  0.4564  0.0640
 1638SOL    HW116376   4.455   1.697   3.771 -1.7396  2.2656  0.4749
 1638SOL    HW216377   4.426   1.652   3.905  1.7110  1.6492 -0.9045
 1639SOL     OW16378   3.925   0.451   3.412  0.2803 -0.4858  0.3948
 1639SOL    HW116379   4.000   0.409   3.370 -1.1229 -1.7385 -0.8112
 1639SOL    HW216380   3.858   0.446   3.345  2.5628  0.1718 -1.9377
 1640SOL     OW16381   0.305   2.222   8.927 -0.2666  0.2133  0.0589
 1640SOL    HW116382   0.298   2.310   8.890  0.1900  0.4257  0.4716
 1640SOL    HW216383   0.222   2.179   8.908 -0.5712  1.2123 -0.8812
 1641SOL     OW16384   1.859   0.724   7.843 -0.1694 -0.0906 -0.1495
 1641SOL    HW116385   1.883   0.732   7.936  1.2028  0.5589 -0.5731
 1641SOL    HW216386   1.926   0.783   7.809  0.3839 -0.0611  0.9936
 1642SOL     OW16387   4.329   0.617   2.838  0.3535  0.7016 -0.2531
 1642SOL    HW116388   4.418   0.641   2.809  2.1311 -3.2634  1.9002
 1642SOL    HW216389   4.276   0.616   2.758  0.3111 -3.4279 -0.1661
 1643SOL     OW16390   0.896   3.680   4.098  0.1655  0.0110 -0.2165
 1643SOL    HW116391   0.928   3.704   4.011 -1.8106  0.1397 -0.8951
 1643SOL    HW216392   0.882   3.765   4.139 -0.2435  0.5509 -1.4787
 1644SOL     OW16393   1.774   0.580   2.290 -0.2381 -0.1747  0.3591
 1644SOL    HW116394   1.825   0.660   2.297 -1.3782  0.5319  0.6310
 1644SOL    HW216395   1.843   0.514   2.284 -1.9388 -1.7713 -1.4965
 1645SOL     OW16396   0.409   1.629   5.791  0.6349 -0.0791 -0.2424
 1645SOL    HW116397   0.485   1.648   5.736  0.6285 -3.4296 -1.4015
 1645SOL    HW216398   0.379   1.719   5.804 -1.4322 -0.8216  0.1318
 1646SOL     OW16399   2.893   2.502  15.105 -0.3799 -0.1504 -0.0368
 1646SOL    HW116400   2.972   2.517  15.054 -0.1626  0.8704  0.6047
 1646SOL    HW216401   2.862   2.590  15.123  0.5241  0.0143  0.6947
 1647SOL     OW16402   3.396   3.260   5.543  0.1006  0.5106  0.1249
 1647SOL    HW116403   3.481   3.255   5.499  0.0724  0.8363  0.0300
 1647SOL    HW216404   3.411   3.199   5.615 -2.2949  0.9251  0.9692
 1648SOL     OW16405   2.994   1.042  11.742  0.0832 -0.5820  0.0037
 1648SOL    HW116406   2.960   1.082  11.661 -1.5114 -2.5638 -0.2948
 1648SOL    HW216407   2.937   0.966  11.750  0.1192 -0.4757  1.1628
 1649SOL     OW16408   2.381   0.272   5.853  0.1907 -0.6784 -0.6782
 1649SOL    HW116409   2.381   0.235   5.765  1.0773  0.4398 -1.1483
 1649SOL    HW216410   2.346   0.360   5.835  2.0701  0.5258  1.5942
 1650SOL     OW16411   0.569   1.157   3.421  0.1496 -0.6377 -0.4679
 1650SOL    HW116412   0.568   1.197   3.508 -0.3339 -1.3229 -0.1559
 1650SOL    HW216413   0.509   1.217   3.376  1.0402  1.4873  1.1850
 1651SOL     OW16414   1.474   1.816   4.778  0.0436  0.0938 -0.5820
 1651SOL    HW116415   1.404   1.757   4.748 -1.4635  0.3998  2.2417
 1651SOL    HW216416   1.422   1.894   4.798  3.1025  1.8017  0.6438
 1652SOL     OW16417   0.587   0.492   2.246 -0.2884 -0.0790  0.7692
 1652SOL    HW116418   0.650   0.559   2.222 -2.5608  2.4419  1.8675
 1652SOL    HW216419   0.548   0.476   2.160  1.1075  0.0709  0.1166
 1653SOL     OW16420   0.776   3.367   2.246 -0.3135  0.6130 -0.0601
 1653SOL    HW116421   0.809   3.402   2.164  2.0902 -1.5732 -0.0401
 1653SOL    HW216422   0.853   3.353   2.301 -0.3349 -0.2016 -0.2324
 1654SOL     OW16423   0.789   0.261   2.376 -0.3545 -0.7079  0.2215
 1654SOL    HW116424   0.734   0.303   2.310  0.3676 -0.6544 -0.3316
 1654SOL    HW216425   0.863   0.320   2.365 -2.7375  1.7287 -2.6565
 1655SOL     OW16426   1.050   2.665   4.757  0.2342  0.1774  0.0263
 1655SOL    HW116427   0.979   2.620   4.712  2.1310 -2.2904 -0.5188
 1655SOL    HW216428   1.030   2.759   4.755 -0.4972  0.0391  0.8816
 1656SOL     OW16429   3.994   3.160   3.063 -0.1540 -0.0137  0.0201
 1656SOL    HW116430   3.911   3.165   3.110 -1.3664 -0.5702 -2.1116
 1656SOL    HW216431   3.961   3.111   2.988 -1.1075 -0.9311  1.0182
 1657SOL     OW16432   0.094   4.533   5.437  0.9180  0.0400 -0.0699
 1657SOL    HW116433   0.116   4.555   5.346  1.3056 -0.2553 -0.0470
 1657SOL    HW216434   0.183   4.522   5.471  0.6119 -1.6013  0.1741
 1658SOL     OW16435   1.341   4.715  14.984 -0.5501 -0.1572  0.1364
 1658SOL    HW116436   1.386   4.668  14.914 -1.9046 -0.9305 -0.2103
 1658SOL    HW216437   1.373   4.667  15.060 -0.4933  0.7267  0.6750
 1659SOL     OW16438   4.723   2.127   3.842  0.1955  0.7765 -0.5949
 1659SOL    HW116439   4.643   2.179   3.853 -1.1379 -1.1746 -0.9640
 1659SOL    HW216440   4.723   2.084   3.756  1.9219  1.4106 -0.9168
 1660SOL     OW16441   4.582   4.693   4.357  0.2054 -0.0427 -0.1086
 1660SOL    HW116442   4.591   0.035   4.289 -1.4804  1.1858  0.8670
 1660SOL    HW216443   4.589   4.606   4.317 -0.0570 -0.4122  0.6438
 1661SOL     OW16444   1.254   0.434   9.211  0.0336 -0.2677 -0.2121
 1661SOL    HW116445   1.204   0.366   9.256 -0.7517  0.6090  0.2445
 1661SOL    HW216446   1.253   0.505   9.274 -0.6025 -1.0904  0.6998
 1662SOL     OW16447   3.771   1.411   5.282 -0.3032  0.0024 -0.0780
 1662SOL    HW116448   3.712   1.407   5.357 -1.4676 -0.3011 -1.0198
 1662SOL    HW216449   3.851   1.441   5.325 -0.9450  0.6575  0.6686
 1663SOL     OW16450   3.740   3.599  16.959  0.1855  0.5648  0.3364
 1663SOL    HW116451   3.784   3.613  16.875  0.3562 -2.3164 -0.0520
 1663SOL    HW216452   3.726   3.505  16.968  0.3111  0.6119  1.0373
 1664SOL     OW16453   4.337   2.074   2.505 -0.3683  0.2459 -0.5280
 1664SOL    HW116454   4.285   2.063   2.425  1.1586 -4.0359 -0.9428
 1664SOL    HW216455   4.417   2.113   2.469 -0.4360 -0.9244 -1.9521
 1665SOL     OW16456   2.392   0.750   3.284 -0.6952  0.3176  0.4073
 1665SOL    HW116457   2.341   0.760   3.204 -1.7568 -2.2096  0.7886
 1665SOL    HW216458   2.422   0.659   3.290 -0.9212  0.2473  0.4422
 1666SOL     OW16459   0.683   1.985   9.857 -0.4826  0.1529  0.3082
 1666SOL    HW116460   0.638   1.914   9.810  0.7544 -0.0209 -0.6241
 1666SOL    HW216461   0.764   1.935   9.868 -1.2231 -0.9978  0.5489
 1667SOL     OW16462   3.444   3.030  12.843  0.4249 -0.3152 -0.5573
 1667SOL    HW116463   3.444   3.081  12.762 -0.4809 -0.5758 -0.7206
 1667SOL    HW216464   3.430   3.101  12.905  1.0101  1.6245 -2.6022
 1668SOL     OW16465   4.195   3.548  16.410  0.0454  0.0292 -0.2644
 1668SOL    HW116466   4.161   3.616  16.468  0.1733  1.0428 -1.3779
 1668SOL    HW216467   4.165   3.568  16.321  1.6583 -1.2796 -1.1203
 1669SOL     OW16468   3.793   0.505   1.313  0.1079 -0.1640 -0.4379
 1669SOL    HW116469   3.825   0.497   1.223 -1.0330 -1.7064 -0.7000
 1669SOL    HW216470   3.700   0.483   1.308  0.1273 -0.4675  0.5591
 1670SOL     OW16471   2.757   1.940   5.071  0.4241  0.2296 -0.0403
 1670SOL    HW116472   2.792   1.956   4.984  1.2793 -1.0961  0.0711
 1670SOL    HW216473   2.671   1.906   5.045 -0.6975  2.4622  0.6940
 1671SOL     OW16474   3.893   2.275   6.406  0.7097  0.6861 -0.0482
 1671SOL    HW116475   3.915   2.222   6.483 -1.1921  1.3861  1.0021
 1671SOL    HW216476   3.801   2.254   6.388  0.9281 -1.9174  1.9179
 1672SOL     OW16477   3.174   2.347  16.206 -0.4359 -0.4198  0.3882
 1672SOL    HW116478   3.176   2.434  16.248  0.5417 -0.5594  0.6324
 1672SOL    HW216479   3.264   2.326  16.180  0.0943  0.2648  1.6150
 1673SOL     OW16480   3.637   2.715   8.462 -0.2170  0.2026  0.0550
 1673SOL    HW116481   3.648   2.803   8.427  3.3309  0.7993  2.6503
 1673SOL    HW216482   3.698   2.705   8.535 -0.6395  0.0496  0.3908
 1674SOL     OW16483   3.531   0.021   1.611 -0.1269 -0.9211 -0.5672
 1674SOL    HW116484   3.504   0.097   1.664  0.2039 -0.5524 -0.9203
 1674SOL    HW216485   3.610   4.704   1.645 -0.8629 -2.1460 -0.3479
 1675SOL     OW16486   0.071   1.637  13.937  0.0889 -0.1241 -0.4280
 1675SOL    HW116487   0.048   1.560  13.989 -0.9366  1.1316  0.9770
 1675SOL    HW216488   4.708   1.674  13.928 -0.7893 -2.0833  0.0123
 1676SOL     OW16489   0.607   0.053   2.432  0.0550  0.1521  0.0857
 1676SOL    HW116490   0.584   0.078   2.343  0.7700  2.1908  0.4728
 1676SOL    HW216491   0.689   0.103   2.436  0.3958 -0.2306 -1.9006
 1677SOL     OW16492   2.807   0.795   4.666 -0.0075 -0.2677  0.1785
 1677SOL    HW116493   2.897   0.827   4.678  0.0061 -0.4468  0.5846
 1677SOL    HW216494   2.749   0.865   4.697  0.4700 -0.9580  2.6420
 1678SOL     OW16495   3.091   4.004   8.474  0.7848  0.5258  1.0176
 1678SOL    HW116496   3.116   3.935   8.413 -2.5964  0.7817 -0.6456
 1678SOL    HW216497   3.123   3.964   8.555 -0.0483 -0.0518  1.0552
 1679SOL     OW16498   1.914   0.100   2.607 -0.4919 -0.0399 -0.3532
 1679SOL    HW116499   1.986   0.155   2.638 -0.6867  0.2493 -0.4124
 1679SOL    HW216500   1.949   0.083   2.519  2.0344 -0.7553  0.8008
 1680SOL     OW16501   0.948   1.566   4.166  0.8754 -0.1636 -0.2023
 1680SOL    HW116502   0.887   1.504   4.208  2.4629 -1.6210 -0.0319
 1680SOL    HW216503   0.980   1.609   4.245 -1.1176 -0.0023  0.5279
 1681SOL     OW16504   1.439   1.861   8.225 -0.5226 -0.1248  0.6864
 1681SOL    HW116505   1.465   1.807   8.150  1.1106  2.4464 -0.5827
 1681SOL    HW216506   1.384   1.927   8.185 -0.8796  0.9340  2.9066
 1682SOL     OW16507   3.870   3.209   5.160 -0.6353  0.1065  0.6481
 1682SOL    HW116508   3.900   3.298   5.177 -0.2135 -0.8302  4.6861
 1682SOL    HW216509   3.895   3.163   5.240  1.3476 -0.0044 -0.0330
 1683SOL     OW16510   1.876   1.891   6.318 -0.4064 -0.5144 -0.8659
 1683SOL    HW116511   1.813   1.962   6.320  0.0954 -0.1030  0.3692
 1683SOL    HW216512   1.819   1.816   6.301 -0.3065 -0.6863 -0.4567
 1684SOL     OW16513   1.679   4.488   5.538 -0.1458  0.5123 -0.0011
 1684SOL    HW116514   1.736   4.562   5.521  1.9780 -0.3338  3.4717
 1684SOL    HW216515   1.697   4.427   5.466 -1.8792  1.5866 -1.3472
 1685SOL     OW16516   4.148   1.326   5.518  0.5619 -0.2917  0.2094
 1685SOL    HW116517   4.103   1.400   5.559  0.1790  0.8991 -2.3627
 1685SOL    HW216518   4.222   1.305   5.576 -0.3327 -0.3415  1.3373
 1686SOL     OW16519   1.246   2.791   6.963 -0.2683 -0.2735  0.0414
 1686SOL    HW116520   1.286   2.791   7.050  0.2521  0.7816 -0.1912
 1686SOL    HW216521   1.262   2.703   6.931  0.3736 -0.2202  0.2290
 1687SOL     OW16522   0.844   3.159   0.747  0.2298  0.3386  0.7318
 1687SOL    HW116523   0.762   3.148   0.796 -1.1880 -2.4847 -2.2949
 1687SOL    HW216524   0.844   3.093   0.679  0.6022 -0.9400  1.9656
 1688SOL     OW16525   0.686   2.745  17.229 -0.2887  0.5446 -0.2309
 1688SOL    HW116526   0.753   2.768  17.294 -1.8363  0.0915  1.4966
 1688SOL    HW216527   0.625   2.816  17.246  0.2188  1.0036 -0.3142
 1689SOL     OW16528   1.507   2.512  13.352 -0.4038  0.4546  0.1503
 1689SOL    HW116529   1.450   2.437  13.334  0.8884 -0.4197 -0.2246
 1689SOL    HW216530   1.555   2.468  13.422  1.2804  0.0333 -1.2844
 1690SOL     OW16531   2.078   2.370   2.924 -0.3079 -0.2543  0.1061
 1690SOL    HW116532   2.080   2.351   2.830  1.3275  0.6603 -0.0559
 1690SOL    HW216533   2.026   2.450   2.931  0.1796  0.0516  0.2893
 1691SOL     OW16534   0.619   0.146  16.302  0.3224  0.4230 -0.1416
 1691SOL    HW116535   0.548   0.191  16.256  0.4447  0.6664 -0.0939
 1691SOL    HW216536   0.685   0.135  16.233 -0.2611  2.7470 -1.0764
 1692SOL     OW16537   1.845   2.532   0.615  0.2621  0.4517 -0.3287
 1692SOL    HW116538   1.848   2.556   0.522 -1.6277 -2.6304 -1.1831
 1692SOL    HW216539   1.779   2.463   0.610  0.0395  0.6016  0.5535
 1693SOL     OW16540   4.020   2.128   8.402 -0.5436 -0.0977 -0.2031
 1693SOL    HW116541   3.959   2.142   8.474  0.9798 -0.3889  1.1369
 1693SOL    HW216542   3.961   2.111   8.328 -0.1947  0.0840 -0.5243
 1694SOL     OW16543   3.687   3.489   0.925 -0.1164 -0.4619  0.1116
 1694SOL    HW116544   3.740   3.440   0.862  0.2031  1.4975 -1.1292
 1694SOL    HW216545   3.619   3.423   0.912 -0.1665 -0.4826  0.4649
 1695SOL     OW16546   0.678   1.160   7.000  0.2764 -0.0551  0.2554
 1695SOL    HW116547   0.731   1.138   6.924 -0.0774  2.1316 -0.6133
 1695SOL    HW216548   0.716   1.115   7.076 -0.1450 -2.8181 -1.1472
 1696SOL     OW16549   0.888   1.173  14.024  0.2066  0.3694  0.3852
 1696SOL    HW116550   0.894   1.242  14.090 -1.2635  1.6832 -0.8611
 1696SOL    HW216551   0.944   1.103  14.056  0.7802  0.4401 -0.4794
 1697SOL     OW16552   1.845   0.867   0.317  0.2012  0.1720  0.2884
 1697SOL    HW116553   1.815   0.897   0.231  0.2728  1.1537  0.6030
 1697SOL    HW216554   1.822   0.938   0.377 -2.0649 -1.7006  1.6350
 1698SOL     OW16555   2.723   2.029   3.200 -0.2320 -0.4294  0.4618
 1698SOL    HW116556   2.769   2.099   3.248 -0.4050  0.4679 -0.6896
 1698SOL    HW216557   2.665   2.088   3.152  0.7285 -1.0401 -1.4382
 1699SOL     OW16558   0.368   4.368  14.377 -0.2048 -0.0242 -0.0162
 1699SOL    HW116559   0.314   4.406  14.308  2.2554  1.8367 -0.9008
 1699SOL    HW216560   0.429   4.441  14.379 -2.2183  1.6897 -0.8701
 1700SOL     OW16561   3.738   0.298   2.677  0.1421 -0.2119 -0.5546
 1700SOL    HW116562   3.734   0.203   2.684  0.2700 -0.0183  1.9381
 1700SOL    HW216563   3.821   0.321   2.718 -0.0259  1.0231 -0.8845
 1701SOL     OW16564   4.217   4.012   8.545 -0.7494  0.4271  0.3056
 1701SOL    HW116565   4.269   3.974   8.615  0.3260  1.7270  0.2139
 1701SOL    HW216566   4.245   3.970   8.464 -0.9686 -0.7392  0.8324
 1702SOL     OW16567   0.858   1.735  15.749  0.1104 -0.6400  0.2300
 1702SOL    HW116568   0.845   1.658  15.804 -0.2890 -0.2326  0.7012
 1702SOL    HW216569   0.930   1.703  15.695 -0.3250 -2.0069  0.4507
 1703SOL     OW16570   4.610   0.300   7.512 -0.5869  0.5599  0.0504
 1703SOL    HW116571   4.574   0.224   7.468  1.7743 -1.2037  1.1927
 1703SOL    HW216572   4.580   0.372   7.456 -2.3866  1.1381  1.7473
 1704SOL     OW16573   0.188   1.461   9.465 -0.5311  0.6206  0.2518
 1704SOL    HW116574   0.109   1.446   9.413  0.7023 -0.8717 -1.1934
 1704SOL    HW216575   0.170   1.550   9.494  1.0596  0.9512  0.2354
 1705SOL     OW16576   3.401   0.980   3.288 -0.8868 -0.3335 -0.0808
 1705SOL    HW116577   3.428   0.889   3.297  1.2952  0.2581 -0.5250
 1705SOL    HW216578   3.388   0.986   3.194  3.1179  1.2740 -0.5269
 1706SOL     OW16579   4.531   2.505   6.855  0.3372 -0.1849  0.1325
 1706SOL    HW116580   4.482   2.505   6.773 -1.3301 -0.2339  1.1284
 1706SOL    HW216581   4.548   2.598   6.873  1.5448 -0.7475  1.8930
 1707SOL     OW16582   3.688   4.429   9.344  0.6608 -0.5242 -0.0271
 1707SOL    HW116583   3.752   4.357   9.342  1.5350  0.1318  3.5610
 1707SOL    HW216584   3.621   4.389   9.400  0.9967  1.1260  1.5151
 1708SOL     OW16585   2.838   1.990   3.737 -0.3147  0.4350  0.4650
 1708SOL    HW116586   2.817   2.071   3.690  0.6925  0.7807  0.6004
 1708SOL    HW216587   2.908   1.954   3.683 -1.6726 -1.9338  0.2948
 1709SOL     OW16588   0.876   2.296   3.169  0.5226 -0.1849 -0.4976
 1709SOL    HW116589   0.943   2.363   3.183  0.6004 -0.8447  2.3274
 1709SOL    HW216590   0.927   2.216   3.180 -0.9843 -1.6862 -4.1778
 1710SOL     OW16591   1.234   3.633   5.953 -0.1114  0.2661  0.2502
 1710SOL    HW116592   1.264   3.581   6.027  0.7197 -1.1037 -1.0449
 1710SOL    HW216593   1.223   3.718   5.995 -1.2131 -0.3414  1.1939
 1711SOL     OW16594   2.329   3.402   5.443 -0.0749 -0.3924  0.4341
 1711SOL    HW116595   2.296   3.427   5.357 -1.0643 -1.1740  0.5771
 1711SOL    HW216596   2.264   3.337   5.471 -1.5002  0.2469 -1.3958
 1712SOL     OW16597   1.064   2.784   8.529 -0.3143 -0.2233  0.6957
 1712SOL    HW116598   1.033   2.704   8.486 -0.1943  0.5432 -0.8123
 1712SOL    HW216599   1.003   2.794   8.601 -0.4520 -1.1100  0.7071
 1713SOL     OW16600   2.967   2.604   7.575  0.0384  0.7867  0.4690
 1713SOL    HW116601   2.882   2.563   7.562  1.5420 -1.5566 -1.8874
 1713SOL    HW216602   2.940   2.691   7.604 -1.4476  0.5176 -0.1072
 1714SOL     OW16603   2.639   0.219   5.855 -0.3814 -0.0829  0.5767
 1714SOL    HW116604   2.673   0.205   5.943 -2.6538 -0.5112  1.3906
 1714SOL    HW216605   2.546   0.236   5.870 -0.4393  0.5179 -0.4368
 1715SOL     OW16606   0.578   0.375   1.978 -0.0200 -0.3242 -0.1957
 1715SOL    HW116607   0.506   0.312   1.983  0.7847 -1.4486 -2.7923
 1715SOL    HW216608   0.657   0.335   2.016 -1.0754 -1.1841  1.1210
 1716SOL     OW16609   2.152   2.590  15.181 -0.1521  0.0651 -0.2705
 1716SOL    HW116610   2.167   2.682  15.201 -0.7927 -0.0424  0.7372
 1716SOL    HW216611   2.084   2.591  15.113  0.4401 -0.4165 -0.8737
 1717SOL     OW16612   3.911   1.861   1.515 -0.0177  0.3484 -0.2930
 1717SOL    HW116613   3.908   1.775   1.557 -1.2030  1.2091  1.3449
 1717SOL    HW216614   4.002   1.887   1.528 -0.3200  2.0264 -1.5715
 1718SOL     OW16615   0.098   3.220   6.916 -0.5484  0.1892  0.2737
 1718SOL    HW116616   0.151   3.159   6.967  1.2983  1.8366  0.3338
 1718SOL    HW216617   0.116   3.207   6.823  1.8356 -2.1827  1.0874
 1719SOL     OW16618   3.116   1.804   2.139 -0.1579  0.1239  0.5902
 1719SOL    HW116619   3.045   1.860   2.171 -1.4696 -1.9380  1.2836
 1719SOL    HW216620   3.167   1.853   2.075 -2.7694 -0.4920 -1.9516
 1720SOL     OW16621   3.656   0.882  14.799  0.2653 -0.1395  0.1140
 1720SOL    HW116622   3.747   0.850  14.804 -0.4678 -1.6740  3.3809
 1720SOL    HW216623   3.638   0.833  14.879  0.1464  2.6411  1.7720
 1721SOL     OW16624   4.312   4.079   3.804  0.5173  0.1165  1.0901
 1721SOL    HW116625   4.252   4.013   3.769 -1.2611  0.9975  2.4980
 1721SOL    HW216626   4.314   4.054   3.896 -0.4394  1.4518  1.4645
 1722SOL     OW16627   4.275   3.197   4.205 -0.2089 -0.2733  0.0871
 1722SOL    HW116628   4.249   3.198   4.298  3.8087 -0.5390  1.2252
 1722SOL    HW216629   4.236   3.282   4.189  0.0166  0.0355  1.1520
 1723SOL     OW16630   1.529   0.395   5.707  0.0629 -0.5735  0.0333
 1723SOL    HW116631   1.565   0.365   5.791  0.7200  0.6571  0.1910
 1723SOL    HW216632   1.594   0.461   5.683  0.3691 -0.2591  1.6706
 1724SOL     OW16633   3.783   3.406   3.205 -0.9119 -0.0408  0.6618
 1724SOL    HW116634   3.734   3.486   3.186 -0.5506  0.3635  1.4307
 1724SOL    HW216635   3.872   3.438   3.221 -1.0254  0.6892 -0.1349
 1725SOL     OW16636   4.630   4.381   9.000 -0.4915  0.0183 -0.2606
 1725SOL    HW116637   4.616   4.445   9.070  1.2099 -1.8861  1.8253
 1725SOL    HW216638   4.539   4.362   8.975 -0.9015  0.5937  0.7641
 1726SOL     OW16639   2.923   3.163   7.635 -0.4174 -1.3215  0.1397
 1726SOL    HW116640   2.872   3.124   7.706 -2.0410  0.5743  0.0171
 1726SOL    HW216641   2.862   3.221   7.588  0.1222 -1.6721 -0.9878
 1727SOL     OW16642   3.231   3.617   4.696  0.1035  0.1508 -0.0707
 1727SOL    HW116643   3.306   3.677   4.695  0.5006 -0.3783 -1.0973
 1727SOL    HW216644   3.244   3.582   4.608 -0.6991  0.4027 -0.2830
 1728SOL     OW16645   1.939   0.935   9.202  0.6399 -0.3889  0.1606
 1728SOL    HW116646   2.007   0.984   9.249  1.0603  0.0912 -0.9649
 1728SOL    HW216647   1.959   0.856   9.253 -0.5106 -0.5997  0.2737
 1729SOL     OW16648   2.170   1.263  17.097  0.1680  0.4708  0.0004
 1729SOL    HW116649   2.117   1.342  17.103  0.3449  0.6066 -0.2532
 1729SOL    HW216650   2.229   1.277  17.171 -1.4536 -0.4564  1.4653
 1730SOL     OW16651   2.200   3.709   6.605  0.8494  0.0003  0.0938
 1730SOL    HW116652   2.113   3.691   6.571  2.0223  0.2192 -2.9877
 1730SOL    HW216653   2.255   3.703   6.527  0.2696  2.5882 -0.4919
 1731SOL     OW16654   0.286   3.514   2.338  0.0580 -0.2166 -0.0726
 1731SOL    HW116655   0.228   3.590   2.330 -0.1624 -0.4465 -0.6635
 1731SOL    HW216656   0.276   3.467   2.256  0.3206 -0.9911  0.3386
 1732SOL     OW16657   2.363   2.151   9.548  0.1508  0.4141 -0.0915
 1732SOL    HW116658   2.424   2.083   9.520 -0.2807  0.2908 -0.7346
 1732SOL    HW216659   2.411   2.228   9.519  4.0868 -2.9616 -2.5544
 1733SOL     OW16660   3.588   3.281   3.513 -0.5338  0.9131  0.1540
 1733SOL    HW116661   3.512   3.296   3.569 -0.1142  1.0007  0.7022
 1733SOL    HW216662   3.593   3.360   3.459  0.1164  0.0990 -0.9660
 1734SOL     OW16663   3.609   0.734   1.368 -0.0895  0.0773  0.6233
 1734SOL    HW116664   3.555   0.695   1.437 -1.4164  0.0874 -0.3991
 1734SOL    HW216665   3.685   0.677   1.358 -0.6006 -0.4266 -0.3696
 1735SOL     OW16666   0.323   3.128  10.817  0.6547  0.2442  0.4166
 1735SOL    HW116667   0.279   3.191  10.761  0.3330 -0.2700  0.0989
 1735SOL    HW216668   0.392   3.180  10.858  1.0765  0.2497 -0.3037
 1736SOL     OW16669   2.331   3.259   3.669 -0.5235 -0.0372  0.0659
 1736SOL    HW116670   2.388   3.220   3.603  0.1099 -1.3576  1.3905
 1736SOL    HW216671   2.294   3.333   3.621  2.0782  1.0889 -0.2054
 1737SOL     OW16672   0.814   1.616   6.738  0.3344  0.5418  0.1759
 1737SOL    HW116673   0.831   1.619   6.644 -0.1775  0.5850  0.0869
 1737SOL    HW216674   0.906   1.624   6.765  1.2309 -0.5586 -2.5997
 1738SOL     OW16675   4.149   1.123   8.933 -1.0076 -0.4286 -0.3358
 1738SOL    HW116676   4.168   1.089   9.020  0.6618  0.8657 -0.1925
 1738SOL    HW216677   4.222   1.181   8.912 -1.5552  0.2183 -0.4510
 1739SOL     OW16678   1.785   2.588   0.365  0.7152 -0.0948  0.2255
 1739SOL    HW116679   1.741   2.668   0.391 -1.2018 -0.9361 -0.4056
 1739SOL    HW216680   1.837   2.615   0.290 -1.7196  1.2911 -0.9786
 1740SOL     OW16681   3.144   3.633   2.645 -0.8901  0.4143 -0.0706
 1740SOL    HW116682   3.073   3.583   2.604 -0.6068 -0.0610  0.0233
 1740SOL    HW216683   3.089   3.703   2.679 -2.5896 -1.3116  0.7441
 1741SOL     OW16684   4.553   3.419  10.294 -0.2192 -0.0721 -0.4332
 1741SOL    HW116685   4.518   3.330  10.302  0.1982 -0.1178  0.8881
 1741SOL    HW216686   4.537   3.468  10.374 -1.1557  0.0582 -0.7048
 1742SOL     OW16687   1.978   1.009   8.313 -0.2731  0.2921 -0.1680
 1742SOL    HW116688   1.997   1.051   8.397  0.8383 -2.2237  0.8307
 1742SOL    HW216689   2.055   0.956   8.294 -0.8172 -0.7441  0.5118
 1743SOL     OW16690   1.900   1.946   8.374 -0.4702 -0.0278 -0.0084
 1743SOL    HW116691   1.865   1.917   8.459 -2.1827  0.6990 -0.4693
 1743SOL    HW216692   1.987   1.977   8.398 -1.1916  1.7003  0.3126
 1744SOL     OW16693   0.609   3.959   0.853 -0.0597  0.2960 -0.7328
 1744SOL    HW116694   0.601   4.052   0.874 -3.0767  0.3729 -2.2714
 1744SOL    HW216695   0.627   3.927   0.941 -1.8104 -1.2411 -0.9347
 1745SOL     OW16696   1.381   0.528  16.247  0.1570 -0.2476  0.2114
 1745SOL    HW116697   1.469   0.518  16.210 -0.3480  0.0728 -1.0762
 1745SOL    HW216698   1.346   0.603  16.199 -0.5614 -0.1131  0.9567
 1746SOL     OW16699   0.387   0.566   9.416  0.5696  0.1960  0.2519
 1746SOL    HW116700   0.446   0.491   9.423  1.2695  0.6176 -0.9547
 1746SOL    HW216701   0.358   0.585   9.505  0.0376  0.1470  0.0909
 1747SOL     OW16702   1.263   2.948   4.961 -0.3799 -0.2980  0.1549
 1747SOL    HW116703   1.280   2.989   4.876  0.1602  2.3965  1.5729
 1747SOL    HW216704   1.349   2.969   4.999 -0.4567  1.9107 -0.9081
 1748SOL     OW16705   4.333   4.245   6.997  0.1533  0.3467 -0.0693
 1748SOL    HW116706   4.355   4.227   6.906  1.1005 -0.0965  0.2451
 1748SOL    HW216707   4.304   4.336   6.989 -0.8965 -0.0301 -0.4613
 1749SOL     OW16708   3.057   3.576   5.438 -0.8628  0.7616 -0.0189
 1749SOL    HW116709   3.092   3.514   5.502 -1.6736  1.3356  0.9768
 1749SOL    HW216710   2.968   3.591   5.470 -0.6170  1.4778  0.3282
 1750SOL     OW16711   2.178   0.324   1.738 -0.2728 -0.1495  0.2296
 1750SOL    HW116712   2.127   0.344   1.816  0.6587  0.6095  0.6321
 1750SOL    HW216713   2.268   0.342   1.764 -0.4110 -2.0177  1.9970
 1751SOL     OW16714   1.258   3.857   6.772  0.5834 -0.4059  0.2192
 1751SOL    HW116715   1.283   3.793   6.705  0.0166  1.8199 -2.1184
 1751SOL    HW216716   1.189   3.813   6.822 -0.1205 -1.1320 -1.4134
 1752SOL     OW16717   1.615   2.966  13.543  0.4740 -0.3914 -0.7807
 1752SOL    HW116718   1.687   2.991  13.485  0.4502  2.9501  0.6508
 1752SOL    HW216719   1.629   3.018  13.622 -0.2888  2.2727 -2.4104
 1753SOL     OW16720   3.038   4.185   7.195  0.0322 -0.1155 -0.2326
 1753SOL    HW116721   3.026   4.131   7.273  0.6605  0.1090  0.0224
 1753SOL    HW216722   3.076   4.262   7.238 -0.7240  0.7722 -1.1387
 1754SOL     OW16723   1.693   2.660   4.144 -0.4891  0.1502 -0.1813
 1754SOL    HW116724   1.641   2.616   4.077 -1.5376 -2.4298  2.2961
 1754SOL    HW216725   1.681   2.618   4.229 -2.3553  4.3187  1.5937
 1755SOL     OW16726   2.289   0.538  14.670  0.0352  0.1571  0.7651
 1755SOL    HW116727   2.383   0.527  14.661 -0.3553 -1.9776 -0.7019
 1755SOL    HW216728   2.276   0.633  14.663  1.6613  0.3674  0.7056
 1756SOL     OW16729   4.657   2.501   3.701  0.5602 -0.5418 -0.3922
 1756SOL    HW116730   4.585   2.470   3.645 -1.5170 -0.3809  2.1504
 1756SOL    HW216731   4.616   2.496   3.787  1.2235  0.8676 -0.0033
 1757SOL     OW16732   3.445   3.852  17.038 -0.1982 -0.2898  0.0854
 1757SOL    HW116733   3.359   3.838  17.078 -0.7886  1.3294 -0.6266
 1757SOL    HW216734   3.424   3.889  16.952 -0.0751 -0.2867  0.0570
 1758SOL     OW16735   2.831   1.266   2.957  0.1367  0.2313 -0.2953
 1758SOL    HW116736   2.908   1.290   2.905  0.7222 -0.2911  0.3167
 1758SOL    HW216737   2.814   1.177   2.929 -1.8910  0.6605 -0.4430
 1759SOL     OW16738   3.865   4.646   4.352 -0.3764  0.6006 -0.4795
 1759SOL    HW116739   3.832   4.679   4.268 -0.9599  0.5653 -0.2656
 1759SOL    HW216740   3.804   4.576   4.377  0.9012 -0.8953 -1.5387
 1760SOL     OW16741   1.333   2.893  14.335  0.1577 -0.1513  0.0940
 1760SOL    HW116742   1.413   2.886  14.387 -0.3580  2.8955  1.2913
 1760SOL    HW216743   1.347   2.978  14.293 -1.6608  0.7936  1.4137
 1761SOL     OW16744   4.465   0.066   6.975 -0.4014 -0.4751 -0.3018
 1761SOL    HW116745   4.510   0.026   7.049 -1.8017  1.7423  1.7426
 1761SOL    HW216746   4.540   0.078   6.916 -0.4600 -1.5848 -0.5872
 1762SOL     OW16747   1.396   2.213   3.950 -0.5852 -0.1801  0.2878
 1762SOL    HW116748   1.436   2.196   4.035 -2.3356 -0.3718  1.0795
 1762SOL    HW216749   1.304   2.202   3.974 -0.2738 -0.3831  1.3811
 1763SOL     OW16750   0.263   0.870   6.646  0.4160 -0.1463  0.2089
 1763SOL    HW116751   0.356   0.847   6.653  0.1595 -1.0713  0.6627
 1763SOL    HW216752   0.249   0.952   6.694  1.2927 -0.3305  0.7702
 1764SOL     OW16753   0.245   0.245  14.970 -0.4079 -0.3918 -0.0707
 1764SOL    HW116754   0.184   0.185  15.012 -1.4201  1.8414  1.6647
 1764SOL    HW216755   0.228   0.235  14.876 -0.0529  0.3141 -0.2164
 1765SOL     OW16756   1.682   4.709   4.165 -0.6292 -0.2627  0.3885
 1765SOL    HW116757   1.693   0.080   4.163 -1.4745 -0.1480  1.5312
 1765SOL    HW216758   1.599   4.690   4.123 -1.6825  1.6185  1.6421
 1766SOL     OW16759   2.276   0.194   5.612  0.3728 -0.0142  0.0366
 1766SOL    HW116760   2.229   0.111   5.601  0.9521 -0.2824 -0.3843
 1766SOL    HW216761   2.204   0.257   5.605 -0.6944 -1.3434 -0.9929
 1767SOL     OW16762   3.783   1.526  14.933  0.0493  0.1547 -0.5132
 1767SOL    HW116763   3.738   1.501  14.852  0.5098 -0.5058 -0.5714
 1767SOL    HW216764   3.708   1.557  14.984  0.4494  1.4245 -0.7005
 1768SOL     OW16765   1.266   3.503   3.962  0.7887 -0.1270  0.3607
 1768SOL    HW116766   1.234   3.559   3.891  0.9278 -0.5951 -0.0693
 1768SOL    HW216767   1.241   3.558   4.036  1.6015 -0.7851  1.1147
 1769SOL     OW16768   2.637   2.596  11.261 -0.5224  0.3626 -0.3001
 1769SOL    HW116769   2.625   2.505  11.233  1.5676  0.5131 -1.7145
 1769SOL    HW216770   2.732   2.604  11.258 -0.3227 -1.7953  0.4937
 1770SOL     OW16771   0.474   3.505   7.450  0.1096  0.1577  0.2243
 1770SOL    HW116772   0.423   3.441   7.400  2.6253 -1.2446 -0.5320
 1770SOL    HW216773   0.490   3.574   7.386 -0.8475 -0.3677 -0.5730
 1771SOL     OW16774   0.123   0.937   5.039  0.0968  0.9960  0.2156
 1771SOL    HW116775   0.034   0.929   5.004  0.9728 -1.2371 -1.5550
 1771SOL    HW216776   0.160   0.962   4.954  0.9119  4.0148  1.4925
 1772SOL     OW16777   1.974   1.698   7.217  0.4229  0.5793 -0.1784
 1772SOL    HW116778   1.967   1.703   7.121  3.1778  1.5776 -0.3432
 1772SOL    HW216779   1.948   1.787   7.241 -0.8789  0.4406 -1.0682
 1773SOL     OW16780   1.268   2.516   8.147  0.5432  0.5808  0.5616
 1773SOL    HW116781   1.186   2.535   8.193 -0.3881  0.0082 -0.8442
 1773SOL    HW216782   1.331   2.542   8.215  1.3779 -2.0436  0.7611
 1774SOL     OW16783   4.161   4.280   0.889 -0.4387 -0.0383  0.5444
 1774SOL    HW116784   4.214   4.335   0.831  0.0654  0.5108  1.5216
 1774SOL    HW216785   4.141   4.340   0.960 -1.4480  0.0734  0.1648
 1775SOL     OW16786   4.399   2.499   6.397  0.3697  0.0865  0.2124
 1775SOL    HW116787   4.461   2.557   6.441  1.0720 -2.5519  2.6984
 1775SOL    HW216788   4.376   2.448   6.475  1.6359 -2.0061 -0.7764
 1776SOL     OW16789   1.790   0.343   3.541 -0.0727  0.1652 -0.2594
 1776SOL    HW116790   1.824   0.253   3.543 -0.4596  0.0194 -0.1471
 1776SOL    HW216791   1.821   0.353   3.451 -1.5778 -2.7579 -1.1204
 1777SOL     OW16792   3.248   1.995   3.773  0.5058 -0.1438  0.3535
 1777SOL    HW116793   3.324   1.943   3.748 -0.7267 -1.4527 -0.6504
 1777SOL    HW216794   3.186   1.927   3.799  0.9069 -1.7199 -2.8133
 1778SOL     OW16795   1.889   0.392   6.349  0.3984 -0.2314 -0.0846
 1778SOL    HW116796   1.917   0.450   6.278 -1.4655 -0.9547 -1.4210
 1778SOL    HW216797   1.805   0.433   6.369 -1.1952 -2.3543 -2.3440
 1779SOL     OW16798   0.242   0.217  17.356 -0.6389 -0.7574 -0.1531
 1779SOL    HW116799   0.224   0.299  17.309 -0.1720  0.7093  2.2387
 1779SOL    HW216800   0.334   0.197  17.342  0.3522  3.2168  0.6675
 1780SOL     OW16801   4.281   0.568   9.420  0.0844 -0.0257 -0.5909
 1780SOL    HW116802   4.327   0.596   9.341  1.6889  2.0273  1.0880
 1780SOL    HW216803   4.214   0.507   9.387 -0.4137 -0.2540  0.8313
 1781SOL     OW16804   2.726   4.356   5.605 -0.1289  0.4047 -0.8323
 1781SOL    HW116805   2.664   4.346   5.532 -0.2783  0.1786 -0.6720
 1781SOL    HW216806   2.765   4.269   5.606  0.4224  0.6335 -2.0538
 1782SOL     OW16807   0.316   1.500   6.017 -0.1794 -0.1588 -0.3596
 1782SOL    HW116808   0.259   1.573   6.040  2.3603  1.7144 -0.0481
 1782SOL    HW216809   0.363   1.529   5.938  1.7738  0.1251  0.9142
 1783SOL     OW16810   2.492   2.257   3.444  0.2303  0.1504 -0.2473
 1783SOL    HW116811   2.446   2.254   3.527  2.8525 -0.8481  1.1588
 1783SOL    HW216812   2.455   2.179   3.402  0.9932  0.3227 -1.2388
 1784SOL     OW16813   1.396   4.289  15.455 -0.1235  0.2090  0.0897
 1784SOL    HW116814   1.411   4.194  15.455  0.0048  0.2284 -2.2902
 1784SOL    HW216815   1.376   4.292  15.548  1.1885  2.0029  0.3028
 1785SOL     OW16816   4.549   3.922   0.495  0.0503  0.3906  0.3192
 1785SOL    HW116817   4.496   4.002   0.493 -0.0026  0.3154 -0.8588
 1785SOL    HW216818   4.483   3.853   0.502  2.0128 -1.3814  1.3175
 1786SOL     OW16819   4.569   0.697   1.702 -0.4723  0.1863  0.0765
 1786SOL    HW116820   4.598   0.638   1.633 -0.1229 -0.0031  0.3899
 1786SOL    HW216821   4.561   0.768   1.638  0.4716 -2.1522 -2.6330
 1787SOL     OW16822   4.013   0.868   3.285 -0.6524 -0.3330  0.1688
 1787SOL    HW116823   3.939   0.825   3.242  0.0862  0.7171 -2.1120
 1787SOL    HW216824   4.069   0.868   3.207  0.5431  0.9659  1.0165
 1788SOL     OW16825   1.005   0.563   3.971 -0.3389  0.4560  0.0458
 1788SOL    HW116826   0.925   0.616   3.971 -0.5390  0.1701 -1.4436
 1788SOL    HW216827   1.066   0.617   4.021  0.4822 -0.2247 -0.2299
 1789SOL     OW16828   2.049   4.680   9.162  0.2010 -0.1518  0.3011
 1789SOL    HW116829   1.997   0.026   9.124 -0.7693 -0.6362  0.7368
 1789SOL    HW216830   2.033   4.610   9.099  0.6579 -1.4353  1.6043
 1790SOL     OW16831   4.384   2.824  11.558 -0.7184  0.2152  0.1755
 1790SOL    HW116832   4.343   2.846  11.474  1.5613  2.8217 -0.2502
 1790SOL    HW216833   4.471   2.803  11.525 -1.2441 -3.2303  0.9564
 1791SOL     OW16834   0.915   4.091  12.909  0.6787  0.6012  0.2929
 1791SOL    HW116835   0.872   4.112  12.992 -1.9597 -0.4785 -0.7810
 1791SOL    HW216836   0.866   4.009  12.897  1.4242  0.0681  0.8817
 1792SOL     OW16837   4.409   0.187   8.063  0.2072  0.4009  0.3078
 1792SOL    HW116838   4.315   0.167   8.058  0.3460 -0.0881 -0.2480
 1792SOL    HW216839   4.398   0.280   8.086  3.9297  0.9306 -0.1597
 1793SOL     OW16840   2.745   2.218   3.617 -0.0808  0.1175  0.3222
 1793SOL    HW116841   2.675   2.224   3.552 -0.3045  0.3075  0.5776
 1793SOL    HW216842   2.730   2.307   3.650  1.0102  0.7956 -1.0083
 1794SOL     OW16843   2.091   2.339   6.579  0.4040  0.1163 -0.5234
 1794SOL    HW116844   2.016   2.316   6.523  0.8405  3.0014 -2.2841
 1794SOL    HW216845   2.131   2.252   6.571 -0.4153 -0.1833 -1.3821
 1795SOL     OW16846   0.908   1.141   4.742 -0.4673  0.2083  0.3340
 1795SOL    HW116847   0.829   1.195   4.740 -2.3651 -2.5342  0.7667
 1795SOL    HW216848   0.900   1.096   4.657  0.9750  0.0061  0.2995
 1796SOL     OW16849   2.134   4.476   7.369  0.0516 -0.0129  0.1939
 1796SOL    HW116850   2.096   4.502   7.286 -0.6605 -0.0942  0.4938
 1796SOL    HW216851   2.177   4.558   7.393  0.4529 -0.2418  0.2648
 1797SOL     OW16852   2.498   3.545   6.170 -0.5151 -0.0001 -0.2448
 1797SOL    HW116853   2.442   3.497   6.108  0.4117 -1.4283  0.0108
 1797SOL    HW216854   2.591   3.532   6.149 -0.3343 -0.9641  1.1538
 1798SOL     OW16855   4.690   0.549   6.074 -0.4485  0.7783 -0.9587
 1798SOL    HW116856   0.033   0.614   6.091  2.3601 -2.5243  0.5946
 1798SOL    HW216857   0.018   0.496   6.014 -0.4545 -0.7967  0.4142
 1799SOL     OW16858   2.048   4.072   2.008  0.7289  0.5884  0.2941
 1799SOL    HW116859   2.110   4.053   1.937 -1.3812  0.7513 -1.6058
 1799SOL    HW216860   1.992   4.141   1.972 -0.1912 -0.3428 -0.0553
 1800SOL     OW16861   0.666   0.229   6.362 -0.3786  0.5217  0.0934
 1800SOL    HW116862   0.606   0.297   6.394  2.0761  1.4521  2.6868
 1800SOL    HW216863   0.746   0.275   6.336  1.9432 -1.5339  3.6286
 1801SOL     OW16864   4.085   0.294  13.480 -0.0412 -0.2873  0.4857
 1801SOL    HW116865   4.085   0.327  13.570 -1.1419  2.2005 -0.4231
 1801SOL    HW216866   4.083   0.380  13.438 -2.9116 -0.7387 -0.3418
 1802SOL     OW16867   4.505   1.545   4.531  0.5018 -0.3797 -0.2102
 1802SOL    HW116868   4.468   1.571   4.447  1.1098  1.4069  0.0699
 1802SOL    HW216869   4.581   1.499   4.497 -0.6769 -0.8788 -2.1615
 1803SOL     OW16870   0.022   1.038   3.152 -0.0165 -0.4253 -0.5906
 1803SOL    HW116871   4.667   0.986   3.166 -1.1033  1.7186  1.1785
 1803SOL    HW216872   0.063   1.054   3.237 -0.4107  1.2253 -0.7147
 1804SOL     OW16873   1.298   2.670  11.079 -0.2912  0.0190 -0.3886
 1804SOL    HW116874   1.210   2.702  11.061 -0.3615 -1.6785 -3.0296
 1804SOL    HW216875   1.335   2.743  11.129  1.3501  0.0478 -1.6637
 1805SOL     OW16876   2.945   1.873   3.079 -0.2261 -0.0328 -0.0692
 1805SOL    HW116877   2.882   1.932   3.120 -1.2602 -0.7234 -0.6445
 1805SOL    HW216878   2.944   1.902   2.987 -2.1034 -2.5486 -0.8599
 1806SOL     OW16879   3.538   0.482   1.499 -0.1987 -0.8035 -0.3097
 1806SOL    HW116880   3.481   0.540   1.550 -1.9309 -1.8214 -1.0837
 1806SOL    HW216881   3.606   0.451   1.559 -0.7502  1.4024  1.4426
 1807SOL     OW16882   3.127   1.130   4.012  0.9164 -0.0655  0.4971
 1807SOL    HW116883   3.176   1.211   4.026  3.2942 -0.9048 -2.8985
 1807SOL    HW216884   3.177   1.090   3.941 -1.9383  0.0663 -1.5828
 1808SOL     OW16885   2.023   1.127   0.899  0.2291  0.2491  0.3067
 1808SOL    HW116886   2.046   1.187   0.828 -0.7443  0.7318  0.3925
 1808SOL    HW216887   1.929   1.145   0.900  0.8347  3.3985  0.6980
 1809SOL     OW16888   3.355   1.187  12.532 -0.1086  1.0246  0.5934
 1809SOL    HW116889   3.327   1.157  12.618  4.0656 -0.5118  1.4388
 1809SOL    HW216890   3.422   1.253  12.551  0.1564  0.6192  1.0748
 1810SOL     OW16891   3.211   0.671  13.092 -0.1620 -0.6616 -0.0417
 1810SOL    HW116892   3.212   0.664  12.996 -2.3977  2.4377 -0.2878
 1810SOL    HW216893   3.269   0.746  13.105 -1.1715 -0.0886  1.1833
 1811SOL     OW16894   3.285   0.504   8.516 -0.0624  0.8849 -0.2100
 1811SOL    HW116895   3.361   0.447   8.509  0.4395  1.6684 -1.2407
 1811SOL    HW216896   3.306   0.572   8.451  2.2088 -0.5269 -0.9476
 1812SOL     OW16897   4.624   4.657  16.830  0.8984 -0.0224 -0.2051
 1812SOL    HW116898   4.653   0.004  16.774  1.8036  0.4262  0.8381
 1812SOL    HW216899   4.531   4.677  16.842  0.6538 -0.6534 -1.0585
 1813SOL     OW16900   0.012   2.044   6.533 -0.5786  0.0959 -0.5081
 1813SOL    HW116901   4.675   2.060   6.604 -0.5267  0.1899 -0.4848
 1813SOL    HW216902   4.696   2.083   6.455 -0.6891  2.9575  0.9840
 1814SOL     OW16903   0.667   2.462  11.823  0.2791  0.3223 -0.0683
 1814SOL    HW116904   0.647   2.378  11.862 -0.8252  0.3467 -0.5941
 1814SOL    HW216905   0.728   2.448  11.750  0.2027  0.4274 -0.1531
 1815SOL     OW16906   0.496   3.494   2.113 -0.1585 -0.6169  0.0832
 1815SOL    HW116907   0.517   3.552   2.186 -1.9783  0.9648 -0.6552
 1815SOL    HW216908   0.547   3.518   2.035 -0.5037  1.5607  0.5258
 1816SOL     OW16909   0.635   3.103   5.369  0.4986  0.0911 -0.1436
 1816SOL    HW116910   0.580   3.180   5.380  1.0212  0.5178 -0.5131
 1816SOL    HW216911   0.583   3.047   5.312  4.0793 -5.0019  1.5952
 1817SOL     OW16912   1.345   0.872   4.497 -0.1080  0.0009  0.2738
 1817SOL    HW116913   1.386   0.919   4.424 -0.2307 -0.8065 -0.3145
 1817SOL    HW216914   1.395   0.895   4.575  1.7098  0.2026 -0.9361
 1818SOL     OW16915   3.436   3.606  12.666  0.1514 -0.4824  0.0916
 1818SOL    HW116916   3.439   3.571  12.577 -2.9086 -2.7152  0.8821
 1818SOL    HW216917   3.465   3.532  12.720  0.4333  1.0431  2.0150
 1819SOL     OW16918   1.618   1.353   1.042 -0.3326  0.4574 -0.3878
 1819SOL    HW116919   1.589   1.379   1.130 -0.1812  0.5057 -0.3526
 1819SOL    HW216920   1.555   1.403   0.990 -0.3021 -0.0834 -0.9424
 1820SOL     OW16921   0.813   1.721  16.891  0.6143 -0.0379  1.0802
 1820SOL    HW116922   0.775   1.806  16.915  1.4799  0.7717 -0.4259
 1820SOL    HW216923   0.791   1.734  16.799  2.2001  2.2533  1.0307
 1821SOL     OW16924   1.511   4.416   5.244  0.7717 -0.5720  0.8054
 1821SOL    HW116925   1.469   4.417   5.330  4.6761 -0.4109  2.6891
 1821SOL    HW216926   1.533   4.509   5.236 -1.0428 -0.1052  1.1922
 1822SOL     OW16927   3.832   0.704   2.153 -0.4754 -0.3345  0.1914
 1822SOL    HW116928   3.770   0.643   2.192  0.6124 -1.5062  0.0843
 1822SOL    HW216929   3.915   0.662   2.176 -0.6712 -0.5039  0.5879
 1823SOL     OW16930   0.962   1.546   7.869  0.3511 -0.9680  0.4717
 1823SOL    HW116931   0.914   1.478   7.822 -0.9404  0.3264 -0.0886
 1823SOL    HW216932   0.969   1.522   7.961 -1.7921 -1.6455  0.4486
 1824SOL     OW16933   2.804   3.648  12.761  0.2020  0.4109 -0.1850
 1824SOL    HW116934   2.775   3.559  12.782 -2.0375  0.3051 -3.6778
 1824SOL    HW216935   2.757   3.698  12.827  2.5209  1.6816  0.4889
 1825SOL     OW16936   3.939   0.228   5.114  0.1380 -0.1962  0.5397
 1825SOL    HW116937   4.034   0.217   5.102 -0.2777 -1.7272 -1.3734
 1825SOL    HW216938   3.940   0.293   5.184 -0.5465  1.2766 -0.8293
 1826SOL     OW16939   3.920   0.097   5.825 -0.8238  0.0702  0.5618
 1826SOL    HW116940   3.999   0.052   5.855  1.1540  2.5196 -0.9955
 1826SOL    HW216941   3.870   0.019   5.799  2.1972 -1.6342 -0.1387
 1827SOL     OW16942   1.015   1.790   7.074 -0.5579  0.3709  0.3591
 1827SOL    HW116943   1.075   1.807   7.001  0.4585  0.9224  1.3261
 1827SOL    HW216944   0.980   1.706   7.043  2.3419 -0.8292  0.4069
 1828SOL     OW16945   4.156   0.379  11.760  0.3616 -0.0736 -0.0135
 1828SOL    HW116946   4.090   0.347  11.822 -0.0162 -0.0893 -0.4262
 1828SOL    HW216947   4.230   0.319  11.767  0.9133  0.5994 -0.0429
 1829SOL     OW16948   0.298   0.315   7.561 -0.0113  0.3075  0.2408
 1829SOL    HW116949   0.332   0.230   7.534 -2.3100 -0.2125 -1.0263
 1829SOL    HW216950   0.363   0.341   7.627  0.7783 -1.8513  0.3294
 1830SOL     OW16951   1.855   1.515   4.347 -0.1005  0.5810 -0.2889
 1830SOL    HW116952   1.841   1.605   4.318  1.6501  0.7178 -0.7015
 1830SOL    HW216953   1.859   1.467   4.264 -0.5468  1.5031 -0.8369
 1831SOL     OW16954   0.265   4.302   2.972  0.6932 -0.7261  0.3028
 1831SOL    HW116955   0.353   4.270   2.952  0.9137  2.1879 -3.3350
 1831SOL    HW216956   0.219   4.230   2.927 -1.9124  0.8152  0.4842
 1832SOL     OW16957   2.932   0.998   5.332 -0.1333  0.4102  0.3074
 1832SOL    HW116958   3.024   0.982   5.354 -0.0575 -2.7823 -2.4089
 1832SOL    HW216959   2.932   0.971   5.241  4.0415  0.5485  0.2539
 1833SOL     OW16960   3.406   2.512   7.289 -0.4693  0.2361  0.0820
 1833SOL    HW116961   3.484   2.568   7.295 -0.6032  0.2103  2.1438
 1833SOL    HW216962   3.338   2.566   7.329  0.2993  1.6139 -0.4744
 1834SOL     OW16963   0.772   3.693  11.066 -0.0986  0.0760 -0.5324
 1834SOL    HW116964   0.746   3.621  11.124 -0.6361  1.9425  1.5318
 1834SOL    HW216965   0.788   3.640  10.989 -2.3880 -1.0732 -0.2390
 1835SOL     OW16966   2.481   0.041   4.939  0.3987 -0.3979  0.3059
 1835SOL    HW116967   2.567   0.001   4.926 -0.5246 -1.9071 -1.2478
 1835SOL    HW216968   2.430   4.722   5.006 -1.0321  1.8115  0.6757
 1836SOL     OW16969   2.292   4.407   1.812  0.0157  0.2340  0.3855
 1836SOL    HW116970   2.251   4.423   1.727 -0.8673 -0.3988  0.6948
 1836SOL    HW216971   2.370   4.355   1.792 -1.0995 -1.6003  0.9038
 1837SOL     OW16972   4.004   0.734   9.770  0.0562  0.3600  0.1222
 1837SOL    HW116973   3.920   0.761   9.733 -0.7734 -3.7282 -0.9802
 1837SOL    HW216974   3.985   0.665   9.833  2.5232 -0.8064 -0.3836
 1838SOL     OW16975   3.384   2.582   6.980  0.1696  0.3272  0.4187
 1838SOL    HW116976   3.390   2.578   7.076 -2.9817  1.1542  0.6649
 1838SOL    HW216977   3.446   2.654   6.971  0.1509  0.0918 -1.4732
 1839SOL     OW16978   3.016   4.620   4.501 -0.1725  0.3957 -0.2562
 1839SOL    HW116979   2.962   4.602   4.424  0.2344  1.6782 -0.8466
 1839SOL    HW216980   3.058   4.701   4.471  0.7778 -0.6355 -1.6504
 1840SOL     OW16981   2.956   0.689   9.113  0.3546  0.4083 -0.1179
 1840SOL    HW116982   3.041   0.684   9.157  0.1381  0.1298  0.2688
 1840SOL    HW216983   2.916   0.749   9.176  2.5484 -0.5546  2.1798
 1841SOL     OW16984   3.327   2.087   2.358  0.5493  0.0972 -1.0883
 1841SOL    HW116985   3.382   2.105   2.282  1.5932  0.4453 -0.2443
 1841SOL    HW216986   3.251   2.145   2.347  0.6080  0.6361  1.2723
 1842SOL     OW16987   0.996   2.991   2.922 -0.2952  0.1509 -0.2416
 1842SOL    HW116988   0.902   2.982   2.907 -0.1697 -1.2926 -0.1619
 1842SOL    HW216989   1.022   2.953   2.838  2.2912 -1.8915  1.4976
 1843SOL     OW16990   0.463   0.100   9.027 -0.0351  0.1656  1.2574
 1843SOL    HW116991   0.383   0.127   8.981  1.0856 -1.0702 -1.3794
 1843SOL    HW216992   0.435   0.133   9.113  1.6335  0.6672  1.5970
 1844SOL     OW16993   0.032   4.123   3.692 -0.5479  0.7214  0.3993
 1844SOL    HW116994   0.105   4.070   3.659  0.1087  1.8190  0.1009
 1844SOL    HW216995   4.686   4.059   3.694  1.8430 -1.9607 -0.7555
 1845SOL     OW16996   0.577   1.060   6.316 -0.1678 -0.2712  0.0561
 1845SOL    HW116997   0.550   1.146   6.282  0.0702 -0.4452 -0.5641
 1845SOL    HW216998   0.519   1.004   6.264  1.6915 -0.6477 -1.6069
 1846SOL     OW16999   3.249   2.799  14.871 -0.8560  0.1941 -0.5332
 1846SOL    HW117000   3.200   2.783  14.790  0.6940 -1.6101 -1.1136
 1846SOL    HW217001   3.200   2.873  14.907  0.5125  0.7906  0.0600
 1847SOL     OW17002   2.769   1.132   6.481 -0.1176  0.2638  0.1102
 1847SOL    HW117003   2.709   1.110   6.410  0.6189 -1.9405  0.1927
 1847SOL    HW217004   2.722   1.205   6.522  1.1714 -0.0939  2.2392
 1848SOL     OW17005   3.712   3.494  17.480 -0.1595 -0.5030 -0.4118
 1848SOL    HW117006   3.789   3.535  17.519  0.2584 -2.4128  0.7534
 1848SOL    HW217007   3.714   3.523  17.388 -0.4664 -1.0734 -0.5980
 1849SOL     OW17008   1.204   3.738   7.953  0.7727 -0.1572 -0.0382
 1849SOL    HW117009   1.234   3.827   7.970 -1.8578  0.5201  1.1268
 1849SOL    HW217010   1.280   3.690   7.984  1.2141  1.3116  1.1391
 1850SOL     OW17011   3.636   1.668   8.880 -0.2144 -0.0009 -0.0841
 1850SOL    HW117012   3.630   1.752   8.835  0.0755 -1.1480 -2.2606
 1850SOL    HW217013   3.554   1.619   8.876 -0.0587 -0.3255  0.6268
 1851SOL     OW17014   3.178   1.641   6.573  0.2119  0.1372 -0.2251
 1851SOL    HW117015   3.111   1.681   6.628  1.2174 -0.8839  1.7302
 1851SOL    HW217016   3.201   1.564   6.624 -1.3179  0.8700  1.5843
 1852SOL     OW17017   2.812   4.409  10.678 -0.7327  0.0502 -0.0222
 1852SOL    HW117018   2.764   4.374  10.753  0.9949 -1.1726  0.5306
 1852SOL    HW217019   2.900   4.440  10.700 -0.3252 -2.1893  1.5267
 1853SOL     OW17020   4.173   4.092   6.020 -0.0372  0.1976 -0.1335
 1853SOL    HW117021   4.194   4.052   5.936  2.4270  1.1245  0.0408
 1853SOL    HW217022   4.089   4.138   6.012  0.3317  1.0753  0.9554
 1854SOL     OW17023   3.589   1.553   7.515 -0.7414  0.2356 -0.0283
 1854SOL    HW117024   3.599   1.632   7.462  0.2608  0.7021  0.8409
 1854SOL    HW217025   3.568   1.597   7.598 -2.3023  0.0409 -0.3284
 1855SOL     OW17026   3.247   3.920   5.578  0.1351  0.5589 -0.6521
 1855SOL    HW117027   3.218   4.011   5.580 -0.4696  0.3582 -0.0363
 1855SOL    HW217028   3.338   3.919   5.606  0.0007 -0.9322 -0.2591
 1856SOL     OW17029   2.736   2.857   3.916  0.1533 -0.0188  0.7263
 1856SOL    HW117030   2.680   2.934   3.924  0.8641  0.8689 -2.9568
 1856SOL    HW217031   2.789   2.889   3.843  0.3901 -0.8563  0.5240
 1857SOL     OW17032   1.523   1.088   5.437 -0.2429  0.6343 -0.2931
 1857SOL    HW117033   1.534   0.996   5.461 -0.0425  0.9834  0.9486
 1857SOL    HW217034   1.598   1.128   5.482 -0.9802 -0.1317  1.6388
 1858SOL     OW17035   1.856   1.361   8.872 -0.4445  0.7923  0.0645
 1858SOL    HW117036   1.762   1.365   8.893 -0.3778  1.8555  0.1622
 1858SOL    HW217037   1.851   1.429   8.805  0.8162 -0.2821 -1.1119
 1859SOL     OW17038   0.720   2.490   7.891  0.4957  0.0468 -0.0518
 1859SOL    HW117039   0.628   2.492   7.917 -0.1749  0.4381 -2.4448
 1859SOL    HW217040   0.752   2.428   7.956 -1.3013 -0.8127  0.0200
 1860SOL     OW17041   4.311   4.162  17.563 -0.1463 -0.3806  0.7183
 1860SOL    HW117042   4.271   4.243  17.533  0.3930 -0.2732  0.2802
 1860SOL    HW217043   4.381   4.194  17.621 -0.0188  0.8138 -0.0904
 1861SOL     OW17044   0.944   3.690   3.030  0.7580  0.2306 -0.4311
 1861SOL    HW117045   0.886   3.614   3.035  1.8931 -0.7686 -2.8723
 1861SOL    HW217046   0.977   3.684   2.941  0.4001  1.2167 -0.6356
 1862SOL     OW17047   1.432   3.418  16.239  0.1109 -0.0339 -0.1543
 1862SOL    HW117048   1.409   3.338  16.285  3.4354 -1.2390 -0.5849
 1862SOL    HW217049   1.482   3.457  16.310  1.0150 -0.4167 -0.5806
 1863SOL     OW17050   4.533   4.084   6.210  0.4562 -0.3360 -0.1216
 1863SOL    HW117051   4.626   4.102   6.211  0.8369 -2.2585 -0.1019
 1863SOL    HW217052   4.525   4.060   6.117  1.4194 -0.8097 -0.0783
 1864SOL     OW17053   3.811   2.804   7.468  0.0415 -0.4997  0.2352
 1864SOL    HW117054   3.894   2.851   7.477  0.1006 -0.4384 -0.6578
 1864SOL    HW217055   3.760   2.865   7.521 -0.9082  0.1814 -1.4712
 1865SOL     OW17056   3.415   0.324   4.227 -0.3630  0.5484 -0.2457
 1865SOL    HW117057   3.404   0.246   4.172  1.9727 -0.1720  0.3159
 1865SOL    HW217058   3.362   0.389   4.181 -0.3114  0.1610 -0.8561
 1866SOL     OW17059   2.755   3.300  12.733  0.5555  0.1164 -0.8585
 1866SOL    HW117060   2.720   3.355  12.803 -0.1462  2.4999 -3.0931
 1866SOL    HW217061   2.724   3.213  12.761 -0.5362  0.4387 -1.0493
 1867SOL     OW17062   3.180   0.193  11.144  0.2717  0.3481 -0.0452
 1867SOL    HW117063   3.214   0.104  11.130 -0.6265 -0.0545  0.3700
 1867SOL    HW217064   3.200   0.232  11.058  0.8597 -0.0557 -0.0948
 1868SOL     OW17065   0.628   1.075   5.996  0.2766  0.3808  0.2702
 1868SOL    HW117066   0.616   1.080   5.901  1.2490 -2.5911 -0.0087
 1868SOL    HW217067   0.538   1.072   6.028  0.2560 -1.9561 -0.0320
 1869SOL     OW17068   2.893   0.394   3.525  0.1041  0.1097  0.6519
 1869SOL    HW117069   2.837   0.377   3.602  0.5798  0.5462  1.0914
 1869SOL    HW217070   2.861   0.475   3.486  0.5125 -0.7964 -1.5670
 1870SOL     OW17071   1.157   3.057   0.656  0.4011  0.7720  0.3146
 1870SOL    HW117072   1.087   3.110   0.618  1.0745  0.0945 -1.8893
 1870SOL    HW217073   1.219   3.126   0.678  1.2414  0.0366  0.2354
 1871SOL     OW17074   4.278   4.231  16.414 -0.2289 -0.1949  0.0414
 1871SOL    HW117075   4.315   4.157  16.462 -0.4126  0.3086  0.9598
 1871SOL    HW217076   4.229   4.265  16.488  1.6295 -0.3630  1.3373
 1872SOL     OW17077   2.057   3.890   4.187  0.4840  0.2003  0.4608
 1872SOL    HW117078   2.092   3.811   4.146 -0.6005 -0.3629  0.6106
 1872SOL    HW217079   1.979   3.854   4.230  0.2000  1.2417  0.8180
 1873SOL     OW17080   2.545   2.556   5.870  0.0066 -0.5452 -0.1423
 1873SOL    HW117081   2.619   2.548   5.930  1.3161 -0.6264 -1.7751
 1873SOL    HW217082   2.547   2.472   5.825 -0.1379 -0.3321 -0.5592
 1874SOL     OW17083   0.060   0.686   0.889  0.3446 -0.5455 -0.5548
 1874SOL    HW117084   0.015   0.620   0.941 -0.5244  0.0267 -0.5911
 1874SOL    HW217085   0.094   0.741   0.959  1.5429 -1.7717 -0.1559
 1875SOL     OW17086   2.276   2.598   6.998 -0.5198  0.4834 -0.2016
 1875SOL    HW117087   2.293   2.572   7.089  0.8787  1.1033 -0.2834
 1875SOL    HW217088   2.319   2.530   6.947 -0.8432  0.1099  0.0249
 1876SOL     OW17089   3.556   3.832  11.700  0.2397  0.7321 -0.4323
 1876SOL    HW117090   3.555   3.922  11.732  0.1086  1.0902 -1.4538
 1876SOL    HW217091   3.472   3.794  11.725 -1.2946  3.3584 -1.5617
 1877SOL     OW17092   3.914   3.714   4.121 -0.0375  0.2601 -0.4019
 1877SOL    HW117093   3.836   3.675   4.080  1.9579 -1.9354 -2.1058
 1877SOL    HW217094   3.980   3.648   4.100 -0.2043  0.0973 -0.4136
 1878SOL     OW17095   1.133   1.856  11.949 -0.2282 -0.0543 -0.9955
 1878SOL    HW117096   1.122   1.950  11.935  0.0700  0.0453 -0.5240
 1878SOL    HW217097   1.188   1.834  11.874 -0.7578 -1.1075 -1.0758
 1879SOL     OW17098   0.139   2.354   3.932  0.3101 -0.1432 -0.3294
 1879SOL    HW117099   0.208   2.336   3.869 -0.6432 -2.5762 -0.6872
 1879SOL    HW217100   0.068   2.294   3.910  0.1189  0.9593 -2.7502
 1880SOL     OW17101   3.970   0.152   6.343 -0.0056 -0.5777 -0.2789
 1880SOL    HW117102   3.940   0.149   6.434  2.9513  0.4653  0.7276
 1880SOL    HW217103   3.921   0.079   6.304 -1.4218 -0.4963  1.3590
 1881SOL     OW17104   0.311   1.490   6.590  0.2186  0.0205  0.6622
 1881SOL    HW117105   0.363   1.411   6.604 -0.3569 -0.3910  0.4350
 1881SOL    HW217106   0.222   1.467   6.617  0.7478 -1.4655  1.1298
 1882SOL     OW17107   2.767   4.135   6.585  0.0357 -0.4156 -0.3412
 1882SOL    HW117108   2.688   4.106   6.538 -0.5186 -0.2048  0.4555
 1882SOL    HW217109   2.806   4.055   6.622  0.7172  0.0422 -0.0771
 1883SOL     OW17110   3.073   2.914   8.193 -0.5276  0.1052  0.3663
 1883SOL    HW117111   3.076   2.942   8.284 -0.7167 -0.8903  0.6758
 1883SOL    HW217112   3.157   2.945   8.158 -0.9840  1.2279  0.2791
 1884SOL     OW17113   2.976   2.684   1.237 -0.2861  0.1137 -0.2453
 1884SOL    HW117114   2.993   2.681   1.331 -0.3604  1.1787 -0.1966
 1884SOL    HW217115   2.883   2.705   1.235  0.0892  1.5263 -2.4987
 1885SOL     OW17116   4.312   3.781  16.728 -0.2307  0.2319 -0.2327
 1885SOL    HW117117   4.249   3.838  16.773 -0.8493 -1.5279  1.1230
 1885SOL    HW217118   4.364   3.752  16.803 -1.6738 -0.2773  0.5767
 1886SOL     OW17119   3.080   4.104  17.408 -0.2380 -0.9710  0.5554
 1886SOL    HW117120   3.100   4.075  17.319  2.0487 -1.1960  1.1316
 1886SOL    HW217121   2.986   4.124  17.413 -0.0716  0.3271 -1.6512
 1887SOL     OW17122   4.407   4.030   7.143  0.0323  0.0906 -0.4029
 1887SOL    HW117123   4.365   4.114   7.127  0.4235  0.3487 -0.0917
 1887SOL    HW217124   4.476   4.031   7.076  1.8825  2.4180  1.4891
 1888SOL     OW17125   0.588   1.656  11.302  0.3774  0.0388 -0.3241
 1888SOL    HW117126   0.658   1.613  11.254  2.0814  0.7209  1.5563
 1888SOL    HW217127   0.517   1.640  11.240  0.6591 -1.7402 -0.1884
 1889SOL     OW17128   4.175   3.736  10.257  0.5885  0.0452 -0.5483
 1889SOL    HW117129   4.129   3.720  10.175  1.8252 -2.1761 -0.8096
 1889SOL    HW217130   4.160   3.665  10.320 -0.6769  0.0140 -0.8795
 1890SOL     OW17131   0.263   1.819   8.338  0.1990  0.8455  0.1690
 1890SOL    HW117132   0.253   1.914   8.336  0.2087  0.8547  0.5642
 1890SOL    HW217133   0.333   1.811   8.273 -0.1719  0.9914 -0.2406
 1891SOL     OW17134   0.146   2.438   3.550 -0.2778  0.6219 -0.7674
 1891SOL    HW117135   0.072   2.479   3.595 -0.4537  1.6720 -2.0188
 1891SOL    HW217136   0.208   2.430   3.623 -0.6142  3.0752 -0.2119
 1892SOL     OW17137   3.570   4.245  10.502  0.1919  0.2743 -0.2400
 1892SOL    HW117138   3.522   4.201  10.432  0.6508  1.4363 -1.2791
 1892SOL    HW217139   3.524   4.327  10.517  1.1303  0.9231 -0.9473
 1893SOL     OW17140   1.924   2.448   6.786 -0.2244 -0.6953  0.3706
 1893SOL    HW117141   1.876   2.366   6.772 -0.5028 -0.5697  0.5862
 1893SOL    HW217142   1.986   2.432   6.714 -0.3620 -2.0883  0.5588
 1894SOL     OW17143   1.634   2.689   6.869  0.5061  1.0432  0.4690
 1894SOL    HW117144   1.620   2.722   6.958 -3.7572  0.2237  0.0827
 1894SOL    HW217145   1.582   2.609   6.875 -0.7144  1.7264 -1.0763
 1895SOL     OW17146   1.861   4.395   3.305  0.7074 -0.3662  0.1966
 1895SOL    HW117147   1.853   4.308   3.344 -0.1502 -1.3462 -2.1783
 1895SOL    HW217148   1.886   4.440   3.386 -0.9823  1.3538 -0.2211
 1896SOL     OW17149   0.557   0.697   2.556 -0.4933  0.5090 -0.0833
 1896SOL    HW117150   0.556   0.793   2.556 -2.4011  0.4804  1.6672
 1896SOL    HW217151   0.584   0.676   2.645  1.6348  0.7164 -0.6700
 1897SOL     OW17152   0.823   4.616   1.049  0.2421 -0.1864  0.3880
 1897SOL    HW117153   0.871   4.540   1.015  1.0919  0.2211  0.6607
 1897SOL    HW217154   0.770   4.563   1.108 -1.7968  1.9832  0.4758
 1898SOL     OW17155   0.714   1.456   1.314 -0.2531 -0.1198  0.2580
 1898SOL    HW117156   0.700   1.499   1.230  1.8557  0.6087  0.2685
 1898SOL    HW217157   0.669   1.512   1.377 -2.5967 -0.7260 -0.9047
 1899SOL     OW17158   1.836   4.324   9.731 -0.7318 -0.1995  0.2547
 1899SOL    HW117159   1.861   4.334   9.640 -0.3256  1.1984  0.5350
 1899SOL    HW217160   1.743   4.303   9.720 -0.6214 -0.7626  0.3990
 1900SOL     OW17161   2.646   1.547  13.394  0.5028 -0.5467  0.0926
 1900SOL    HW117162   2.556   1.520  13.410  0.6408 -1.1801 -0.1965
 1900SOL    HW217163   2.682   1.459  13.397  0.1399 -0.6787  0.5034
 1901SOL     OW17164   0.089   0.088   9.315 -0.2467 -0.4080 -0.2147
 1901SOL    HW117165   0.072   4.724   9.347  2.6440 -1.1480 -0.8125
 1901SOL    HW217166   0.061   0.134   9.395 -2.2453 -3.3003  0.7668
 1902SOL     OW17167   2.696   0.368   8.823 -0.3045  0.0762  0.0097
 1902SOL    HW117168   2.644   0.319   8.886 -0.5989 -0.9328 -1.0152
 1902SOL    HW217169   2.750   0.299   8.783 -1.3456 -0.3425 -0.6654
 1903SOL     OW17170   3.860   3.310   5.845  0.4017  0.8918 -0.1343
 1903SOL    HW117171   3.948   3.276   5.861 -0.3380  0.0457  2.1359
 1903SOL    HW217172   3.810   3.245   5.894  0.0355  0.2070 -1.3956
 1904SOL     OW17173   0.041   3.640   4.071 -0.1176 -0.0977 -0.1558
 1904SOL    HW117174   0.098   3.570   4.042 -0.0123 -0.6489  1.3698
 1904SOL    HW217175   4.683   3.594   4.087  0.9148 -1.8937 -0.0771
 1905SOL     OW17176   1.860   3.047   8.752  0.2283 -0.1896 -0.5135
 1905SOL    HW117177   1.879   3.092   8.834 -2.1543  0.4189 -0.3018
 1905SOL    HW217178   1.826   3.123   8.704  1.5114 -0.2297 -1.4809
 1906SOL     OW17179   3.558   4.373   5.772  0.2882  0.6464 -0.1347
 1906SOL    HW117180   3.471   4.363   5.811 -0.1240 -1.3576 -1.5531
 1906SOL    HW217181   3.549   4.457   5.726 -0.9080  0.5272 -0.1164
 1907SOL     OW17182   4.192   2.444   4.904 -0.1059 -0.0965 -0.1979
 1907SOL    HW117183   4.184   2.402   4.818 -0.5742  2.9580 -1.6594
 1907SOL    HW217184   4.281   2.481   4.902 -0.6491  1.2028 -0.3558
 1908SOL     OW17185   4.507   3.001   0.650 -0.2530 -0.0539 -0.4225
 1908SOL    HW117186   4.538   2.929   0.594  0.6393  0.6545 -0.8357
 1908SOL    HW217187   4.532   3.076   0.596 -1.1353  1.8183  1.7556
 1909SOL     OW17188   2.869   3.203   5.429  0.7709  0.6829 -0.3358
 1909SOL    HW117189   2.801   3.137   5.443  0.2434  1.1363 -0.7578
 1909SOL    HW217190   2.936   3.150   5.471  0.9642  1.1488 -0.0627
 1910SOL     OW17191   2.206   3.152   9.934  0.0964 -0.3310  0.3897
 1910SOL    HW117192   2.131   3.092   9.930  1.1310 -1.5798 -0.5300
 1910SOL    HW217193   2.282   3.106   9.968 -0.2534 -0.5102  0.9216
 1911SOL     OW17194   2.261   0.139   6.645  0.1085  0.0327  0.4374
 1911SOL    HW117195   2.312   0.065   6.613 -0.7870  0.0818 -1.1029
 1911SOL    HW217196   2.228   0.189   6.570  0.5574 -2.1500 -1.1979
 1912SOL     OW17197   1.244   3.260   6.703  0.2201 -0.1087  0.4575
 1912SOL    HW117198   1.338   3.269   6.689  0.2234 -0.0433  0.5218
 1912SOL    HW217199   1.248   3.167   6.723  0.8670 -0.3694 -0.9197
 1913SOL     OW17200   2.596   3.717   9.186  0.4053  0.2254 -0.2696
 1913SOL    HW117201   2.668   3.773   9.158 -0.5092  2.4501  1.8740
 1913SOL    HW217202   2.562   3.758   9.265  0.5250 -0.9272  0.3727
 1914SOL     OW17203   1.464   0.392  10.764  0.3427  0.4741  0.5417
 1914SOL    HW117204   1.378   0.434  10.754  0.7463  0.5282 -2.6037
 1914SOL    HW217205   1.502   0.463  10.816 -2.8019  3.7647 -1.6472
 1915SOL     OW17206   4.216   2.299   4.688  0.3560 -0.1132 -0.7194
 1915SOL    HW117207   4.309   2.290   4.669 -0.1177  0.0857 -3.1299
 1915SOL    HW217208   4.198   2.370   4.626 -2.5886 -0.0295  0.2155
 1916SOL     OW17209   2.627   2.955   2.451 -0.3650  0.1506  0.3373
 1916SOL    HW117210   2.604   2.922   2.537 -0.7206  0.7779  0.4837
 1916SOL    HW217211   2.584   3.040   2.445 -0.8835  0.1871  4.7092
 1917SOL     OW17212   3.245   3.364  14.591 -0.9682  0.2161 -0.5276
 1917SOL    HW117213   3.178   3.425  14.562 -0.6708  0.9674  0.3457
 1917SOL    HW217214   3.332   3.403  14.579 -1.0575  0.6738  0.2810
 1918SOL     OW17215   1.928   3.994   0.976 -0.4579 -0.4494 -0.2195
 1918SOL    HW117216   1.955   3.905   0.955 -1.0630 -0.8811  0.8639
 1918SOL    HW217217   1.862   4.018   0.911  0.2042  0.5642 -0.5298
 1919SOL     OW17218   1.570   3.762  17.268 -0.2684 -0.4050 -0.5256
 1919SOL    HW117219   1.512   3.771  17.192 -0.4986  1.2610 -0.1362
 1919SOL    HW217220   1.509   3.764  17.342 -0.8276  0.1844 -1.0056
 1920SOL     OW17221   2.427   1.705   3.633 -0.8746 -0.4743  0.6736
 1920SOL    HW117222   2.480   1.752   3.568  0.0378 -0.4872  1.4202
 1920SOL    HW217223   2.478   1.725   3.711  0.2365  0.9046 -0.3968
 1921SOL     OW17224   3.573   1.991  16.038 -0.2152 -0.4907  0.5348
 1921SOL    HW117225   3.591   2.064  16.097  1.8293 -1.6845  1.3785
 1921SOL    HW217226   3.491   2.007  15.990  0.7291 -0.4029 -1.0493
 1922SOL     OW17227   2.813   3.648   4.506 -0.2943 -0.0749  0.1683
 1922SOL    HW117228   2.895   3.698   4.514  0.4780 -1.3992  0.5442
 1922SOL    HW217229   2.746   3.678   4.567 -1.9073 -0.9091 -1.2162
 1923SOL     OW17230   1.190   0.817  16.885 -0.3083 -0.3420 -0.5278
 1923SOL    HW117231   1.104   0.788  16.853 -1.0547  3.0785 -1.6189
 1923SOL    HW217232   1.254   0.759  16.844  0.4187  0.9480 -1.2319
 1924SOL     OW17233   1.183   2.033   5.581 -0.2893 -0.1844 -0.0268
 1924SOL    HW117234   1.269   1.996   5.602 -0.9680  0.1087  3.2514
 1924SOL    HW217235   1.206   2.123   5.557  0.2585 -0.6037 -1.1097
 1925SOL     OW17236   4.394   0.744   0.420 -0.0994 -0.1278  0.3929
 1925SOL    HW117237   4.342   0.678   0.467  0.3158 -0.3315  0.5663
 1925SOL    HW217238   4.329   0.775   0.357 -0.5248 -1.5115  0.1586
 1926SOL     OW17239   4.404   2.778   6.699 -0.1781  1.1562 -0.2411
 1926SOL    HW117240   4.395   2.870   6.675  1.6266  0.9584 -1.6354
 1926SOL    HW217241   4.312   2.752   6.692  0.1144  0.3871 -1.0496
 1927SOL     OW17242   2.070   3.511   8.206  0.6593  0.3874  0.4435
 1927SOL    HW117243   2.096   3.508   8.114 -1.5707 -0.8425 -0.1400
 1927SOL    HW217244   2.010   3.586   8.213 -1.5417 -1.3468  0.1560
 1928SOL     OW17245   3.369   1.797   8.958  0.6808 -0.6312 -0.7518
 1928SOL    HW117246   3.311   1.872   8.942 -0.7842 -1.6183 -0.0385
 1928SOL    HW217247   3.299   1.732   8.964 -0.3186  0.7972  2.8939
 1929SOL     OW17248   3.449   1.230  11.678 -0.3361 -0.1940 -0.1143
 1929SOL    HW117249   3.468   1.170  11.606 -1.0930  0.7071 -1.0508
 1929SOL    HW217250   3.365   1.262  11.646 -0.7448  0.7975  1.9135
 1930SOL     OW17251   4.397   1.114   5.824  0.3875 -0.5630 -0.4796
 1930SOL    HW117252   4.419   1.162   5.904  1.3652  1.5246 -1.9969
 1930SOL    HW217253   4.379   1.024   5.851  0.8972 -0.8845 -1.2021
 1931SOL     OW17254   0.290   3.757   8.961  0.0383  0.5513 -0.4335
 1931SOL    HW117255   0.341   3.704   9.023  0.6707  1.2795 -0.3273
 1931SOL    HW217256   0.261   3.823   9.024  0.1736 -0.0894  0.3032
 1932SOL     OW17257   1.882   4.164   7.017  0.4340 -0.4079 -0.2532
 1932SOL    HW117258   1.887   4.256   7.042  1.6882 -0.9216  1.3621
 1932SOL    HW217259   1.908   4.128   7.102  0.0831  0.4751  0.2335
 1933SOL     OW17260   3.627   1.826   3.907  0.2449 -0.2733 -0.6322
 1933SOL    HW117261   3.710   1.841   3.953  0.9523  0.7237 -2.2425
 1933SOL    HW217262   3.567   1.884   3.954 -0.8750  0.7609 -3.3063
 1934SOL     OW17263   2.118   1.118   3.310 -0.5732 -0.5647 -0.1112
 1934SOL    HW117264   2.162   1.058   3.250 -0.8729 -0.7291 -0.1684
 1934SOL    HW217265   2.155   1.201   3.280  0.5249 -0.8716  0.3698
 1935SOL     OW17266   0.853   2.744   2.315  0.0823  0.0577  0.7408
 1935SOL    HW117267   0.948   2.734   2.308  0.1654  1.0253  0.3990
 1935SOL    HW217268   0.857   2.840   2.315 -0.6986  0.0829 -2.9754
 1936SOL     OW17269   1.737   0.008   7.734 -0.5251 -0.0733 -0.0513
 1936SOL    HW117270   1.794   4.657   7.748 -0.9587 -0.6016 -1.1499
 1936SOL    HW217271   1.705   0.022   7.823  2.2150  1.3238  0.7046
 1937SOL     OW17272   2.583   0.529  14.681 -0.2098 -0.3230 -0.8964
 1937SOL    HW117273   2.600   0.504  14.772  3.2912  0.5364 -1.3206
 1937SOL    HW217274   2.608   0.446  14.641 -0.2035 -1.2409  1.0167
 1938SOL     OW17275   3.149   3.365   5.584  0.3636  0.1856 -0.1048
 1938SOL    HW117276   3.240   3.343   5.566  0.2050 -0.0630 -0.6193
 1938SOL    HW217277   3.111   3.277   5.582 -1.2453  0.8577  0.9611
 1939SOL     OW17278   4.405   0.443   8.243  0.2638 -0.2151 -0.1042
 1939SOL    HW117279   4.371   0.418   8.328  0.4816 -1.7346 -0.4655
 1939SOL    HW217280   4.337   0.492   8.196 -0.6244 -2.0824 -0.7944
 1940SOL     OW17281   3.035   3.024   8.464  0.0266 -0.1469  0.1660
 1940SOL    HW117282   2.976   3.071   8.405  0.4740  0.4670  0.1983
 1940SOL    HW217283   3.107   3.087   8.454  0.2282 -0.0796  2.0693
 1941SOL     OW17284   4.665   1.445   5.280 -0.2545  0.2902 -0.0299
 1941SOL    HW117285   4.693   1.535   5.269 -0.6089  0.2985 -0.9235
 1941SOL    HW217286   4.627   1.427   5.194 -0.7757 -0.4798  0.3638
 1942SOL     OW17287   0.025   1.950  12.391  0.2581  0.0157  0.6756
 1942SOL    HW117288   4.666   1.924  12.351 -1.3839  2.8453  2.2241
 1942SOL    HW217289   0.080   1.894  12.336  0.6015  0.1343  0.8997
 1943SOL     OW17290   2.753   0.855  10.706 -0.0852 -0.0914 -0.3518
 1943SOL    HW117291   2.812   0.887  10.638  1.9618 -1.3368  0.8269
 1943SOL    HW217292   2.695   0.811  10.644 -0.3629  1.5565 -1.2529
 1944SOL     OW17293   1.211   1.574   2.389 -0.2185  0.0088 -0.3007
 1944SOL    HW117294   1.217   1.484   2.420 -1.2809  0.2445  0.5761
 1944SOL    HW217295   1.186   1.621   2.468  0.3787  0.6110 -0.4731
 1945SOL     OW17296   3.492   1.245  15.005  0.1798  0.0252 -0.0568
 1945SOL    HW117297   3.442   1.222  14.927 -1.2308 -0.2699  0.9226
 1945SOL    HW217298   3.434   1.226  15.079 -0.4496 -1.4623 -0.9259
 1946SOL     OW17299   0.795   3.121   4.124 -0.2117 -0.4835 -0.6819
 1946SOL    HW117300   0.841   3.040   4.099 -0.2870 -1.0055  0.9133
 1946SOL    HW217301   0.825   3.183   4.058 -0.9183 -0.2257 -0.7659
 1947SOL     OW17302   4.702   1.650   3.380  0.1650 -0.0643 -0.3661
 1947SOL    HW117303   4.659   1.570   3.349 -0.7227 -0.4471  1.7996
 1947SOL    HW217304   0.052   1.663   3.322  1.0474 -0.7653  0.6141
 1948SOL     OW17305   2.824   3.786  15.391 -0.3406 -0.4255 -0.2121
 1948SOL    HW117306   2.744   3.832  15.369  0.6082 -0.2163 -3.2134
 1948SOL    HW217307   2.886   3.858  15.376 -2.1836  1.0796 -0.5646
 1949SOL     OW17308   0.151   3.727   3.253  0.8111 -0.0504 -0.0395
 1949SOL    HW117309   0.059   3.740   3.230  0.2923 -0.7033  1.6502
 1949SOL    HW217310   0.136   3.640   3.290 -4.3505  1.3931  1.3780
 1950SOL     OW17311   3.786   4.445   8.414 -0.2356  0.7138  0.4622
 1950SOL    HW117312   3.879   4.466   8.401  0.0079 -2.1191 -2.4971
 1950SOL    HW217313   3.792   4.350   8.418  0.4289  0.7115 -0.6776
 1951SOL     OW17314   1.514   2.723   4.558  0.2407 -0.2961  0.9592
 1951SOL    HW117315   1.477   2.745   4.473  0.7737  1.6340  1.2366
 1951SOL    HW217316   1.442   2.745   4.618  0.3063 -0.8430  1.2397
 1952SOL     OW17317   2.581   4.462   6.330  0.7837 -0.9390  0.0116
 1952SOL    HW117318   2.622   4.384   6.291 -3.5952 -2.9803 -0.4402
 1952SOL    HW217319   2.493   4.430   6.346  0.7507 -0.7039  0.3053
 1953SOL     OW17320   2.153   0.154  14.128  0.1134  0.2001 -0.7365
 1953SOL    HW117321   2.214   0.082  14.110  1.8552  1.4175  0.2212
 1953SOL    HW217322   2.087   0.139  14.061 -1.0566 -0.8053  0.6432
 1954SOL     OW17323   1.969   2.801   3.322 -0.5462 -0.4907 -0.0379
 1954SOL    HW117324   2.053   2.784   3.365  0.1148  0.0457 -1.1306
 1954SOL    HW217325   2.005   2.826   3.237 -0.3934  3.2059  1.1322
 1955SOL     OW17326   2.544   2.410   1.903  0.0187 -0.2246  0.0331
 1955SOL    HW117327   2.576   2.486   1.952  0.1003 -0.5979  0.5639
 1955SOL    HW217328   2.478   2.458   1.853  0.0393 -0.2878 -0.0550
 1956SOL     OW17329   3.378   2.740   4.539  0.0486  0.3333  0.0531
 1956SOL    HW117330   3.463   2.774   4.512 -0.9355  0.8765 -2.3369
 1956SOL    HW217331   3.410   2.657   4.575  0.2560  0.4875  0.2222
 1957SOL     OW17332   3.555   1.313  15.999 -0.4772  0.5443  0.4231
 1957SOL    HW117333   3.617   1.319  15.926 -3.1428  0.8632 -1.8148
 1957SOL    HW217334   3.507   1.394  15.985  0.2106  1.1471  1.5536
 1958SOL     OW17335   3.256   1.379   3.152  0.1777  0.3207  0.7523
 1958SOL    HW117336   3.297   1.359   3.237 -2.2304 -2.6184  1.2307
 1958SOL    HW217337   3.341   1.389   3.109  1.4539 -0.5498  3.0287
 1959SOL     OW17338   3.216   1.834   2.426 -0.3328  0.4128 -0.0941
 1959SOL    HW117339   3.311   1.843   2.425 -0.3879  1.0451  1.5456
 1959SOL    HW217340   3.197   1.928   2.421 -0.9613  0.2906 -0.0648
 1960SOL     OW17341   4.713   4.605  13.490  0.7924 -0.4093 -0.2571
 1960SOL    HW117342   4.675   4.570  13.410 -1.5495 -0.1648  0.7642
 1960SOL    HW217343   4.669   4.689  13.498  0.1478 -0.6906 -0.8469
 1961SOL     OW17344   1.927   4.582  14.218 -0.4155  0.2479  0.5442
 1961SOL    HW117345   1.906   4.489  14.208  2.2239 -0.4522  1.5197
 1961SOL    HW217346   1.896   4.596  14.307  1.7437  0.0486  1.3185
 1962SOL     OW17347   0.265   3.946   4.788 -0.2729 -0.1122  0.1901
 1962SOL    HW117348   0.193   4.006   4.771  2.2415  3.1402  1.0331
 1962SOL    HW217349   0.309   4.004   4.850  0.8582 -0.2018 -0.5318
 1963SOL     OW17350   0.906   0.714   7.163  0.0689 -0.3968  0.8061
 1963SOL    HW117351   0.990   0.722   7.209  0.9381 -1.3826 -0.5896
 1963SOL    HW217352   0.862   0.688   7.243 -1.9792  0.2897 -0.0961
 1964SOL     OW17353   2.690   3.262  11.470  0.4556 -0.5664 -0.5154
 1964SOL    HW117354   2.631   3.335  11.450  1.3251  0.4080  0.4576
 1964SOL    HW217355   2.763   3.311  11.507 -1.0442  0.7520  0.7077
 1965SOL     OW17356   1.656   3.599   5.421  0.2801 -0.4012  0.2975
 1965SOL    HW117357   1.601   3.659   5.471  1.8901 -0.0689  1.6728
 1965SOL    HW217358   1.742   3.640   5.424  0.4880 -0.8370  0.1658
 1966SOL     OW17359   3.469   0.540  13.121 -1.1138 -0.2092  0.3502
 1966SOL    HW117360   3.489   0.605  13.187 -2.0438 -1.4004  1.7994
 1966SOL    HW217361   3.387   0.572  13.084 -2.2105 -1.2028  1.9359
 1967SOL     OW17362   1.049   2.196  12.573  0.2766  0.0894  0.5081
 1967SOL    HW117363   1.116   2.245  12.620  1.3815 -0.2810 -0.6837
 1967SOL    HW217364   0.970   2.238  12.606  0.2648 -0.5735  1.3398
 1968SOL     OW17365   3.575   3.209   6.497 -0.1893 -0.2452 -0.3352
 1968SOL    HW117366   3.565   3.220   6.592  1.3906 -2.7281  0.1292
 1968SOL    HW217367   3.508   3.264   6.458 -0.5303 -1.5997 -1.6528
 1969SOL     OW17368   1.357   4.462   6.019 -0.3809  0.5133 -0.2320
 1969SOL    HW117369   1.382   4.501   5.935 -0.1681  3.0563  1.0001
 1969SOL    HW217370   1.304   4.536   6.048 -0.6074  1.3508 -2.7883
 1970SOL     OW17371   3.497   3.019   3.978 -0.0770 -0.2412 -0.0972
 1970SOL    HW117372   3.484   3.018   4.073 -0.4184  2.2871 -0.1076
 1970SOL    HW217373   3.407   3.000   3.953  0.1182  1.7059 -2.2681
 1971SOL     OW17374   2.325   0.865   0.365 -0.3019 -0.1776  0.0207
 1971SOL    HW117375   2.257   0.906   0.418 -1.0512  1.1535 -2.0113
 1971SOL    HW217376   2.273   0.849   0.287  2.0522 -0.0895 -1.5516
 1972SOL     OW17377   0.919   0.668   1.030  0.0939 -0.4310 -0.1700
 1972SOL    HW117378   0.997   0.649   0.977  0.2189 -1.2776  0.3089
 1972SOL    HW217379   0.921   0.580   1.070  1.7421  0.7864  2.4574
 1973SOL     OW17380   2.456   4.372   6.930 -0.1990 -0.6642  0.5649
 1973SOL    HW117381   2.524   4.414   6.982 -0.6374 -1.9858  2.1898
 1973SOL    HW217382   2.502   4.300   6.885  0.0444  0.4546 -0.9731
 1974SOL     OW17383   1.926   2.888   3.978 -0.1708 -0.3364  0.1646
 1974SOL    HW117384   1.980   2.809   3.977  2.6795  1.6059 -0.4366
 1974SOL    HW217385   1.847   2.856   3.934  0.2450 -2.6071  1.0435
 1975SOL     OW17386   0.362   0.232   7.846  0.4471  0.1681  0.2332
 1975SOL    HW117387   0.321   0.292   7.908 -1.2660 -1.0138  0.2152
 1975SOL    HW217388   0.288   0.183   7.812  0.0069  0.5165  0.6965
 1976SOL     OW17389   1.477   2.063   9.167  0.2540 -0.2421 -0.5936
 1976SOL    HW117390   1.423   2.069   9.088  1.6709  1.6446 -1.4304
 1976SOL    HW217391   1.538   2.137   9.158  1.4814 -1.1829  0.0202
 1977SOL     OW17392   3.419   2.479   2.384  0.4093  0.1294  0.0222
 1977SOL    HW117393   3.474   2.437   2.450 -0.7832 -1.6969 -0.1544
 1977SOL    HW217394   3.332   2.445   2.402  0.8180 -1.1806 -0.4942
 1978SOL     OW17395   3.551   4.097   5.949  0.0720 -0.0808 -0.5473
 1978SOL    HW117396   3.545   4.186   5.913 -0.3592  0.5663  1.1442
 1978SOL    HW217397   3.632   4.088   5.998 -1.3693  2.1513  2.2103
 1979SOL     OW17398   4.119   1.408   0.822  0.2906 -0.1387  0.0183
 1979SOL    HW117399   4.155   1.402   0.733  0.2375 -2.7319  0.1919
 1979SOL    HW217400   4.061   1.333   0.824  1.1814 -0.7459  2.2679
 1980SOL     OW17401   2.184   1.358   3.894 -0.3492 -0.0203  0.6950
 1980SOL    HW117402   2.155   1.339   3.805 -0.4881 -3.5507  1.4804
 1980SOL    HW217403   2.245   1.284   3.901  0.5872  0.4704 -2.3877
 1981SOL     OW17404   0.968   0.287   4.824  0.9812 -0.0855 -0.2614
 1981SOL    HW117405   0.987   0.203   4.867  1.1616  0.5499  0.9021
 1981SOL    HW217406   1.057   0.322   4.818  0.1792  1.6941 -1.6965
 1982SOL     OW17407   3.426   3.414  12.444  0.1319 -0.2622 -0.1813
 1982SOL    HW117408   3.483   3.380  12.513  1.0095  0.4312 -0.5739
 1982SOL    HW217409   3.351   3.354  12.442 -0.8409  0.9354 -0.1177
 1983SOL     OW17410   0.119   1.923  11.658  0.7365 -0.4899  0.7322
 1983SOL    HW117411   0.044   1.921  11.598  0.7287 -1.4633  0.7712
 1983SOL    HW217412   0.174   1.850  11.628  0.5440  0.1023 -1.0503
 1984SOL     OW17413   1.573   1.029   7.809  0.3865 -0.0419 -0.5586
 1984SOL    HW117414   1.576   1.044   7.715  0.2435  1.4022 -0.3280
 1984SOL    HW217415   1.668   1.017   7.814  0.1788 -1.9721 -1.0452
 1985SOL     OW17416   1.286   1.139   3.507  0.2850  0.7953  0.1444
 1985SOL    HW117417   1.354   1.150   3.441  0.9860  0.4986  0.8120
 1985SOL    HW217418   1.260   1.052   3.476  1.0159  0.5657  0.1598
 1986SOL     OW17419   1.244   3.278  16.567 -0.4124 -0.1066  0.3634
 1986SOL    HW117420   1.298   3.227  16.507 -1.7296 -0.8269 -0.2221
 1986SOL    HW217421   1.175   3.321  16.516 -0.8181 -0.6970  0.4133
 1987SOL     OW17422   3.652   0.716   5.676 -0.3508 -0.0790 -0.3581
 1987SOL    HW117423   3.727   0.713   5.617  0.8411  0.7265  1.1481
 1987SOL    HW217424   3.575   0.749   5.628 -0.6444  0.8564  0.7400
 1988SOL     OW17425   1.319   3.062   2.526 -0.2077  0.0291 -0.2925
 1988SOL    HW117426   1.252   3.096   2.466 -0.5899  0.0795  0.1555
 1988SOL    HW217427   1.379   3.136   2.533  0.9430 -0.9778  0.4059
 1989SOL     OW17428   0.850   0.128   0.381  0.1136 -0.2301  0.3550
 1989SOL    HW117429   0.774   0.151   0.433  0.2376  1.0883 -0.0433
 1989SOL    HW217430   0.851   0.033   0.389  1.5248 -0.3576 -1.3180
 1990SOL     OW17431   0.132   0.930   6.423 -0.1876 -0.0481  0.1736
 1990SOL    HW117432   0.174   0.879   6.492  1.4395  0.5210 -0.3878
 1990SOL    HW217433   0.190   1.003   6.401 -1.3971  0.5737 -0.9982
 1991SOL     OW17434   0.955   3.383   2.036 -0.2983  0.1042  0.0175
 1991SOL    HW117435   0.942   3.290   2.058  2.0178 -0.0293  0.8044
 1991SOL    HW217436   0.949   3.378   1.940 -2.2238 -0.9755  0.1805
 1992SOL     OW17437   2.234   3.169   8.771 -0.2079 -0.0119 -0.2185
 1992SOL    HW117438   2.299   3.229   8.806 -0.7094 -0.1145  0.8749
 1992SOL    HW217439   2.169   3.173   8.841  2.0183  1.1953  1.7630
 1993SOL     OW17440   3.247   0.566   2.213 -0.4888  0.2021  0.4732
 1993SOL    HW117441   3.276   0.534   2.128 -2.5291 -0.7658  0.1382
 1993SOL    HW217442   3.221   0.483   2.254  0.5545  0.1024  0.9269
 1994SOL     OW17443   2.052   3.348  10.810  0.2776 -0.1651  0.1943
 1994SOL    HW117444   2.093   3.276  10.761 -1.3331 -0.8998 -0.0689
 1994SOL    HW217445   2.059   3.308  10.897 -1.5555 -0.1707  0.3384
 1995SOL     OW17446   0.369   4.375   8.955  0.3017  0.2712  0.1156
 1995SOL    HW117447   0.427   4.393   9.029  0.7896 -1.5864  0.1888
 1995SOL    HW217448   0.401   4.292   8.919 -1.9892 -0.2624 -0.7190
 1996SOL     OW17449   1.190   1.788   2.905  0.3657  0.8674  0.4797
 1996SOL    HW117450   1.137   1.766   2.981  0.3623  2.3686  0.9152
 1996SOL    HW217451   1.275   1.745   2.917  0.0895  0.3777  0.6419
 1997SOL     OW17452   0.550   0.309   4.058 -0.6654  0.2550  0.4791
 1997SOL    HW117453   0.640   0.307   4.026 -1.3827  0.8028 -1.5803
 1997SOL    HW217454   0.503   0.243   4.007 -0.7390 -0.1170  1.0316
 1998SOL     OW17455   2.320   0.199  15.608  0.0172  0.3662 -0.3546
 1998SOL    HW117456   2.370   0.124  15.575  2.5122  1.2851  1.3720
 1998SOL    HW217457   2.234   0.172  15.577 -1.0674  2.4275  0.8639
 1999SOL     OW17458   0.629   3.712  12.702  0.5826  0.0714 -0.4167
 1999SOL    HW117459   0.605   3.771  12.774  1.0149 -2.2879  1.6635
 1999SOL    HW217460   0.698   3.771  12.670 -1.3594  2.6197  0.0601
 2000SOL     OW17461   1.689   4.509   7.363  0.3145 -0.0858  0.2872
 2000SOL    HW117462   1.763   4.506   7.304 -0.0413 -0.5691 -0.1276
 2000SOL    HW217463   1.727   4.462   7.437 -0.7554  0.8046  1.4058
 2001SOL     OW17464   3.306   1.033  13.953  0.0009  0.1696  0.5257
 2001SOL    HW117465   3.391   1.066  13.983  1.0025  0.6176 -2.8067
 2001SOL    HW217466   3.269   1.118  13.929 -0.5502 -0.3551 -0.4768
 2002SOL     OW17467   3.628   1.717   0.825 -0.9743  0.3642 -0.2073
 2002SOL    HW117468   3.680   1.764   0.889 -0.5253 -0.4631  0.0397
 2002SOL    HW217469   3.644   1.627   0.855 -0.6291  1.1655  1.9477
 2003SOL     OW17470   0.452   2.138   9.178 -0.0896 -0.4736  0.6839
 2003SOL    HW117471   0.406   2.190   9.112 -0.1836 -2.4132 -0.7839
 2003SOL    HW217472   0.522   2.197   9.205 -0.7180  1.6935 -2.5055
 2004SOL     OW17473   0.838   4.187   6.086  0.1562 -0.8756  0.4864
 2004SOL    HW117474   0.812   4.117   6.146  1.9053 -1.8560  0.1135
 2004SOL    HW217475   0.918   4.217   6.130 -0.0184  2.8547 -1.7137
 2005SOL     OW17476   0.616   2.705   5.813  0.2182  0.1843 -0.5836
 2005SOL    HW117477   0.588   2.790   5.779  1.6929  0.5447 -0.8628
 2005SOL    HW217478   0.669   2.725   5.890 -0.9479 -0.1812  0.3128
 2006SOL     OW17479   3.834   4.402  15.413 -0.7526 -0.2145  0.7286
 2006SOL    HW117480   3.787   4.486  15.412 -0.1088  0.1311  0.0563
 2006SOL    HW217481   3.867   4.410  15.502  0.7339  1.4567  0.0335
 2007SOL     OW17482   0.126   0.549   4.998 -0.1820 -0.5029  0.6393
 2007SOL    HW117483   0.205   0.553   4.944 -0.5080 -2.4621  0.0174
 2007SOL    HW217484   0.061   0.567   4.930  0.6977  1.6050  0.3366
 2008SOL     OW17485   1.188   2.285   5.915  0.2335 -0.3256  0.0643
 2008SOL    HW117486   1.156   2.195   5.913  1.9896 -0.9598  0.5906
 2008SOL    HW217487   1.101   2.324   5.914  0.9487  1.2830  0.6428
 2009SOL     OW17488   3.220   3.017   1.276  0.0682 -0.1856 -0.1496
 2009SOL    HW117489   3.222   2.928   1.239  0.2363 -1.1368  2.1441
 2009SOL    HW217490   3.134   3.003   1.316  0.3975 -0.0631  0.5917
 2010SOL     OW17491   1.439   2.741   8.579  0.2459 -0.5305 -0.0696
 2010SOL    HW117492   1.503   2.726   8.648  0.0335 -0.2809  0.1798
 2010SOL    HW217493   1.374   2.784   8.635  1.8608  1.4669  0.2722
 2011SOL     OW17494   1.920   0.621   3.373 -0.3741  0.7049  0.2180
 2011SOL    HW117495   1.909   0.679   3.298 -0.0513 -1.1347 -1.2357
 2011SOL    HW217496   1.901   0.538   3.330 -1.5691  0.1366  1.8242
 2012SOL     OW17497   2.030   1.415  16.855  0.0150  0.2909  0.4015
 2012SOL    HW117498   2.062   1.329  16.878  2.0403  0.7570 -0.7068
 2012SOL    HW217499   2.101   1.473  16.880 -0.7874  0.1462  2.9517
 2013SOL     OW17500   2.538   3.166   3.493  0.2294  0.2823  0.0755
 2013SOL    HW117501   2.606   3.188   3.557  1.6468 -1.7661 -0.7485
 2013SOL    HW217502   2.541   3.240   3.433 -0.5141 -0.1532 -0.4888
 2014SOL     OW17503   2.025   3.325  15.060 -0.4540  0.6503  0.2769
 2014SOL    HW117504   2.118   3.346  15.047 -0.0175 -0.4971  1.5052
 2014SOL    HW217505   1.984   3.409  15.079 -1.5393  1.1230 -4.0970
 2015SOL     OW17506   0.097   3.613   8.542  0.0394 -0.3070  0.1061
 2015SOL    HW117507   0.013   3.590   8.504 -1.1627 -0.0256  2.5871
 2015SOL    HW217508   0.143   3.652   8.467 -1.1115  0.6090 -0.1229
 2016SOL     OW17509   2.671   3.363   5.135  0.4955  0.5202  0.1693
 2016SOL    HW117510   2.750   3.317   5.163 -0.2394  0.2156  1.7032
 2016SOL    HW217511   2.704   3.418   5.063 -0.7465 -0.1317 -0.9066
 2017SOL     OW17512   4.170   2.954   4.014 -0.5156 -0.0213 -0.0342
 2017SOL    HW117513   4.192   3.030   4.069  0.2415  0.2190 -0.6679
 2017SOL    HW217514   4.249   2.963   3.961  0.2035  2.2429  1.4379
 2018SOL     OW17515   3.398   2.213   1.314  0.0476 -0.4919  0.5786
 2018SOL    HW117516   3.377   2.179   1.401  1.5409  0.7582  1.4308
 2018SOL    HW217517   3.459   2.282   1.341 -1.1833  2.2883 -3.6842
 2019SOL     OW17518   4.338   1.432  15.819 -0.4469  0.3142 -0.2668
 2019SOL    HW117519   4.404   1.368  15.794  0.0715  1.0525 -0.7687
 2019SOL    HW217520   4.276   1.423  15.747  1.7470 -1.8496 -1.8750
 2020SOL     OW17521   2.382   3.938   2.454 -0.2808  0.1144  0.1011
 2020SOL    HW117522   2.355   3.989   2.530 -0.2616 -0.3925  0.4437
 2020SOL    HW217523   2.308   3.929   2.393 -0.4540 -1.4007  0.5403
 2021SOL     OW17524   2.923   0.129   8.007 -0.2312  0.3332  0.2033
 2021SOL    HW117525   2.923   0.103   7.914  1.6015  1.2077 -0.0262
 2021SOL    HW217526   2.831   0.141   8.031 -0.2227  1.3025 -0.2518
 2022SOL     OW17527   1.685   2.020   9.939  0.5906 -0.2910 -0.0024
 2022SOL    HW117528   1.772   2.044   9.972  1.5578 -1.9005 -1.4144
 2022SOL    HW217529   1.679   2.066   9.855  0.0598  0.4809  0.4514
 2023SOL     OW17530   1.404   2.618   6.298  0.2680  0.2263 -0.2242
 2023SOL    HW117531   1.349   2.549   6.335 -1.0639 -0.2568 -3.0694
 2023SOL    HW217532   1.344   2.670   6.244 -1.4762 -2.3538 -0.7442
 2024SOL     OW17533   2.924   2.923   6.836 -0.1899  0.4308  0.3120
 2024SOL    HW117534   2.976   2.895   6.912  0.1322 -1.4474 -0.5816
 2024SOL    HW217535   2.918   3.015   6.861 -1.0338  0.5972 -0.5133
 2025SOL     OW17536   2.463   0.589   6.765  0.0916 -0.6247  0.1123
 2025SOL    HW117537   2.407   0.612   6.691  0.1566  0.9079  0.5539
 2025SOL    HW217538   2.518   0.665   6.747  1.0486 -1.0746  1.1799
 2026SOL     OW17539   1.468   1.079   0.316 -0.1272  0.5725 -0.6446
 2026SOL    HW117540   1.393   1.020   0.313 -0.3901  0.8608  0.1434
 2026SOL    HW217541   1.438   1.147   0.256  3.1156  1.0876 -1.6941
 2027SOL     OW17542   3.630   1.037   7.608 -0.2969 -0.4155  0.4762
 2027SOL    HW117543   3.704   1.068   7.556 -0.7180 -0.8181 -0.3591
 2027SOL    HW217544   3.608   0.970   7.543  0.6111  1.1474 -1.4532
 2028SOL     OW17545   3.543   1.705   8.563 -0.3406 -0.7122  0.6804
 2028SOL    HW117546   3.610   1.756   8.516  0.9780 -1.7891  1.3795
 2028SOL    HW217547   3.594   1.633   8.600  2.4395  1.3297  0.8166
 2029SOL     OW17548   3.267   0.590   6.829 -0.3596 -0.1668 -0.1460
 2029SOL    HW117549   3.200   0.629   6.771 -2.4276 -0.8387  1.7843
 2029SOL    HW217550   3.354   0.609   6.794 -1.3283  0.9577 -1.9715
 2030SOL     OW17551   1.772   0.541  14.586  0.0417  0.4521  0.3454
 2030SOL    HW117552   1.766   0.465  14.644 -0.4084 -0.7053 -1.1991
 2030SOL    HW217553   1.835   0.510  14.520 -1.3702  1.0780 -1.3012
 2031SOL     OW17554   3.938   0.973  17.264 -0.3960  0.2355  0.0021
 2031SOL    HW117555   3.920   0.914  17.337  0.8044 -0.1492 -0.0115
 2031SOL    HW217556   3.861   1.030  17.269 -1.0546 -0.8917  2.6857
 2032SOL     OW17557   1.550   4.249   9.049 -0.1672  0.9366  0.2227
 2032SOL    HW117558   1.487   4.178   9.062 -0.0625  0.7634 -0.1797
 2032SOL    HW217559   1.606   4.225   9.122 -0.5156 -1.6451 -0.3214
 2033SOL     OW17560   3.257   0.178   8.481 -0.8971  0.1661  0.6402
 2033SOL    HW117561   3.246   0.085   8.503 -1.4623  0.3811  1.2586
 2033SOL    HW217562   3.173   0.219   8.499 -0.0997  2.0650 -0.0520
 2034SOL     OW17563   4.720   0.603   3.555 -0.6872 -0.2982  0.0348
 2034SOL    HW117564   4.672   0.530   3.594 -0.7423  0.1372  0.7746
 2034SOL    HW217565   4.673   0.681   3.583 -0.4075  0.8618 -2.7043
 2035SOL     OW17566   0.071   3.601   9.594  0.6106  0.2894 -0.4923
 2035SOL    HW117567   0.119   3.554   9.525 -2.7969 -2.8537 -0.7065
 2035SOL    HW217568   4.709   3.564   9.577  0.1859  1.4198 -0.7664
 2036SOL     OW17569   3.438   0.980  11.530  0.4391  0.2265 -0.0488
 2036SOL    HW117570   3.383   0.916  11.576 -0.6606  1.3056  0.1389
 2036SOL    HW217571   3.492   0.922  11.476 -0.5068  1.2196 -2.0527
 2037SOL     OW17572   0.208   4.282   2.443 -0.1810  0.2101  0.4823
 2037SOL    HW117573   0.245   4.321   2.522  0.9215  0.5358 -0.2004
 2037SOL    HW217574   0.156   4.213   2.484 -0.4213  0.5404  0.7264
 2038SOL     OW17575   1.160   0.093   9.130 -1.0422 -0.0223 -0.1671
 2038SOL    HW117576   1.104   0.130   9.062 -2.0717  2.5095  2.0839
 2038SOL    HW217577   1.123   0.144   9.202  1.3262  0.5268  0.6817
 2039SOL     OW17578   1.015   2.542  12.372  0.0979 -0.2013 -0.0406
 2039SOL    HW117579   1.017   2.625  12.324 -0.7155  2.1260  3.9584
 2039SOL    HW217580   0.926   2.547  12.408  0.1539 -0.8294  0.1728
 2040SOL     OW17581   2.993   4.056   3.601  1.0702 -0.6083  0.1595
 2040SOL    HW117582   3.037   4.039   3.518 -0.7212  0.2511 -0.9562
 2040SOL    HW217583   3.064   4.042   3.664  0.6473 -1.9841  0.3363
 2041SOL     OW17584   3.125   2.033   1.980  0.1484  0.3644  0.2114
 2041SOL    HW117585   3.124   2.106   1.918 -2.5869  0.5528  0.5149
 2041SOL    HW217586   3.052   2.053   2.038 -0.4715  0.4241 -0.5907
 2042SOL     OW17587   1.102   1.644   9.322 -0.1332  0.5707  0.3326
 2042SOL    HW117588   1.112   1.739   9.330 -0.7834  0.8314 -1.9664
 2042SOL    HW217589   1.009   1.624   9.318 -0.2673  1.2834 -0.1037
 2043SOL     OW17590   1.736   2.849   7.771 -0.2751  0.2012 -0.3184
 2043SOL    HW117591   1.723   2.755   7.776  2.2880 -0.1118  0.4522
 2043SOL    HW217592   1.663   2.884   7.720  0.7362  3.7530  0.6771
 2044SOL     OW17593   2.541   1.954   0.524 -0.0279 -0.0665  0.3082
 2044SOL    HW117594   2.561   1.868   0.487  0.6108 -1.1413  3.1564
 2044SOL    HW217595   2.489   1.923   0.598 -1.6150  0.0129 -0.7759
 2045SOL     OW17596   1.689   2.115   6.286 -0.7342  0.4913 -0.2764
 2045SOL    HW117597   1.696   2.174   6.211 -2.1517  2.2456  0.9738
 2045SOL    HW217598   1.594   2.106   6.275 -0.9281  3.3766 -0.9802
 2046SOL     OW17599   0.804   3.817   5.641  0.2297 -0.4859  0.0601
 2046SOL    HW117600   0.846   3.783   5.721 -0.0521 -0.1813  0.3345
 2046SOL    HW217601   0.883   3.830   5.588  0.8515  1.4193  1.4191
 2047SOL     OW17602   1.724   3.838   9.237 -0.0693 -0.2171 -0.0259
 2047SOL    HW117603   1.791   3.770   9.235 -0.2365 -0.4071  0.7702
 2047SOL    HW217604   1.695   3.855   9.148 -1.3344 -1.4246  0.1760
 2048SOL     OW17605   0.125   2.136   9.335 -0.8409  0.0378  0.6344
 2048SOL    HW117606   0.116   2.168   9.425 -1.7734  1.1455  0.1401
 2048SOL    HW217607   0.125   2.213   9.279 -1.3720 -0.9891 -0.7837
 2049SOL     OW17608   1.800   4.534   5.973  0.3874  0.2842 -0.5350
 2049SOL    HW117609   1.796   4.551   6.067  0.0327  2.1234 -0.8878
 2049SOL    HW217610   1.716   4.491   5.957  0.4532 -1.0384  2.6753
 2050SOL     OW17611   4.426   1.938   4.698 -0.4442  0.1212 -0.4748
 2050SOL    HW117612   4.457   2.015   4.746  0.2819 -0.2536 -0.3492
 2050SOL    HW217613   4.483   1.936   4.622  0.0720  0.5324 -0.1003
 2051SOL     OW17614   2.325   3.916   3.630 -0.3613  0.4676  0.2132
 2051SOL    HW117615   2.347   3.927   3.538  1.8342 -0.1848  0.6738
 2051SOL    HW217616   2.356   3.995   3.674  1.4718 -0.5226  0.7028
 2052SOL     OW17617   2.685   4.577   8.178 -0.4669  0.2461 -0.0119
 2052SOL    HW117618   2.668   4.572   8.272  2.4539  0.8052  0.5647
 2052SOL    HW217619   2.763   4.633   8.174 -0.9413  0.8004 -1.3141
 2053SOL     OW17620   3.951   3.467   5.204  0.5804 -0.0925  0.0057
 2053SOL    HW117621   3.991   3.554   5.203  0.1813  0.0868 -0.2904
 2053SOL    HW217622   3.865   3.496   5.174  0.9182  0.6060 -0.2929
 2054SOL     OW17623   2.664   3.631  10.386  0.4040  0.0662  0.0325
 2054SOL    HW117624   2.727   3.699  10.411  1.1781 -0.5594 -0.2028
 2054SOL    HW217625   2.580   3.675  10.387  0.4641  0.1757  0.2566
 2055SOL     OW17626   1.849   3.689   7.126  0.6167  0.4109 -0.3671
 2055SOL    HW117627   1.763   3.653   7.104  1.0269 -0.0234 -1.2650
 2055SOL    HW217628   1.884   3.702   7.038  2.3354 -0.5630  0.1715
 2056SOL     OW17629   3.942   0.959   8.267 -0.0284 -0.1337  0.4991
 2056SOL    HW117630   3.918   0.990   8.180  0.5156  0.6828  0.6419
 2056SOL    HW217631   3.931   1.043   8.313  1.8638  1.4613 -1.9992
 2057SOL     OW17632   3.595   0.955   3.862  0.0333  0.7373  0.1974
 2057SOL    HW117633   3.679   0.937   3.820  1.0171  0.7040  2.1622
 2057SOL    HW217634   3.547   0.872   3.849  0.8803  0.6844 -2.6087
 2058SOL     OW17635   1.541   1.825   8.498  0.5195 -0.4808  0.0075
 2058SOL    HW117636   1.618   1.773   8.475  1.0233  1.6376 -3.0687
 2058SOL    HW217637   1.487   1.829   8.420 -0.9109  1.0599  1.0835
 2059SOL     OW17638   1.610   4.494  14.239  0.2066  0.1816 -0.0130
 2059SOL    HW117639   1.665   4.417  14.228 -1.0374 -0.7518  0.4642
 2059SOL    HW217640   1.583   4.482  14.330 -0.3077  1.0196 -0.0554
 2060SOL     OW17641   3.908   2.586   7.609  0.1979  0.2309 -0.3913
 2060SOL    HW117642   3.966   2.593   7.533  0.4947 -2.2110 -0.4123
 2060SOL    HW217643   3.854   2.661   7.586  0.5953  1.1913  1.8684
 2061SOL     OW17644   2.919   3.300   4.268  0.4408 -0.1415 -0.2778
 2061SOL    HW117645   2.939   3.314   4.361  0.8515  1.1154 -0.5544
 2061SOL    HW217646   2.824   3.294   4.279  0.2978 -0.0412 -1.4943
 2062SOL     OW17647   1.052   2.479   2.184  0.0189  0.3696  0.1916
 2062SOL    HW117648   1.068   2.501   2.092 -0.5472  0.8933  0.2165
 2062SOL    HW217649   1.060   2.564   2.227 -1.3862  2.2977 -3.3217
 2063SOL     OW17650   3.947   3.232  12.066  0.2469  0.0243  0.3006
 2063SOL    HW117651   4.001   3.281  12.004 -3.4738  2.7154 -0.7980
 2063SOL    HW217652   4.002   3.214  12.142  1.4835  0.8419 -0.4058
 2064SOL     OW17653   1.470   4.587   3.193  1.0480 -0.0555  0.3824
 2064SOL    HW117654   1.504   4.677   3.190 -0.8903  0.7599  3.0242
 2064SOL    HW217655   1.429   4.581   3.107  2.2049  0.0301 -0.1802
 2065SOL     OW17656   3.320   1.883   7.312  0.0205  0.0556 -0.1040
 2065SOL    HW117657   3.358   1.911   7.395  1.3499 -2.0788 -0.0095
 2065SOL    HW217658   3.229   1.906   7.329 -0.2089  0.1956 -1.4969
 2066SOL     OW17659   3.235   2.029   6.074  0.3995 -0.2734  0.1412
 2066SOL    HW117660   3.140   2.029   6.064  0.0898 -1.7166  2.8403
 2066SOL    HW217661   3.226   2.041   6.169  2.5334  0.3667  0.2664
 2067SOL     OW17662   0.574   1.058   4.431  0.3041  0.3283  0.2976
 2067SOL    HW117663   0.542   1.147   4.447 -1.5073 -0.0857 -1.0282
 2067SOL    HW217664   0.529   1.007   4.498  0.7043 -0.3732  0.0276
 2068SOL     OW17665   1.687   2.139   4.188  0.3182  0.3859  0.0140
 2068SOL    HW117666   1.710   2.205   4.122  0.0608 -2.1329 -2.6293
 2068SOL    HW217667   1.701   2.187   4.270  2.5124  3.3322 -2.0382
 2069SOL     OW17668   3.229   1.494   8.210 -0.0404 -0.0298  0.1955
 2069SOL    HW117669   3.258   1.438   8.139 -0.8371  1.1661 -1.0771
 2069SOL    HW217670   3.141   1.521   8.184 -0.0160 -1.2935 -1.1339
 2070SOL     OW17671   4.310   0.349   7.793  0.3148 -0.5714  0.3878
 2070SOL    HW117672   4.294   0.433   7.836  0.3823 -0.5525  0.3768
 2070SOL    HW217673   4.283   0.283   7.857 -1.4855  1.0088  1.2577
 2071SOL     OW17674   3.783   4.626   0.027 -0.5163  0.3073  0.4159
 2071SOL    HW117675   3.791   4.566   0.101 -0.8726  1.6557  1.5512
 2071SOL    HW217676   3.841   4.695   0.059  0.3952 -0.0040 -0.5741
 2072SOL     OW17677   4.720   2.840   5.902  0.2612 -0.2004  0.1208
 2072SOL    HW117678   0.002   2.762   5.958 -1.2062 -0.2445  0.2157
 2072SOL    HW217679   4.626   2.849   5.913  0.3964  1.4173  0.0078
 2073SOL     OW17680   0.077   2.966   9.571  1.0330 -0.0281 -0.2498
 2073SOL    HW117681   0.024   3.043   9.551  1.7708  0.7130  0.6309
 2073SOL    HW217682   0.122   2.951   9.488 -0.1262  1.9734 -1.2384
 2074SOL     OW17683   0.630   4.009   4.562 -0.0234 -0.0147  0.1884
 2074SOL    HW117684   0.605   3.990   4.472 -2.2748 -1.0022  1.0231
 2074SOL    HW217685   0.568   3.946   4.598  0.4248 -1.8780 -2.3337
 2075SOL     OW17686   3.533   1.605   4.145 -0.2033 -0.1241 -0.1094
 2075SOL    HW117687   3.545   1.549   4.068  0.5352  0.3770 -0.3574
 2075SOL    HW217688   3.622   1.640   4.144 -0.1886 -0.1558  0.1719
 2076SOL     OW17689   1.088   4.634   3.769 -0.7613 -0.1650  0.4156
 2076SOL    HW117690   1.031   4.558   3.757 -1.7605  0.8078 -0.9974
 2076SOL    HW217691   1.127   4.639   3.682 -1.2160 -1.6132  0.1278
 2077SOL     OW17692   0.246   2.763   1.899 -0.1438 -0.0741 -0.0576
 2077SOL    HW117693   0.251   2.856   1.921  0.0403  0.3042 -1.7177
 2077SOL    HW217694   0.281   2.719   1.976 -2.4952 -1.0797  0.4197
 2078SOL     OW17695   1.797   4.344   2.366 -0.7623  0.0176  0.8183
 2078SOL    HW117696   1.814   4.256   2.332 -0.3985 -0.2247  1.6168
 2078SOL    HW217697   1.791   4.340   2.462 -0.8905  0.2897  0.8222
 2079SOL     OW17698   4.565   4.471   1.131  0.2956  0.0879 -0.2065
 2079SOL    HW117699   4.642   4.478   1.075 -0.5214  1.7190 -1.1433
 2079SOL    HW217700   4.513   4.546   1.102 -1.2855 -0.7783  0.3598
 2080SOL     OW17701   0.266   3.560   3.609  0.3309  0.0569  0.4476
 2080SOL    HW117702   0.214   3.544   3.531 -2.9085 -1.0409  2.8310
 2080SOL    HW217703   0.273   3.472   3.648  1.6308  0.8224  1.9539
 2081SOL     OW17704   3.829   3.999   3.129 -0.0755  0.0099  0.7787
 2081SOL    HW117705   3.887   3.933   3.091  0.8393 -0.6037  3.2245
 2081SOL    HW217706   3.886   4.074   3.143  1.1284 -1.1670  2.3353
 2082SOL     OW17707   1.375   4.206   5.422 -0.2542  0.3128  0.4407
 2082SOL    HW117708   1.340   4.294   5.405 -1.8227 -0.2714  0.6664
 2082SOL    HW217709   1.350   4.199   5.514 -0.2125 -0.0064  0.4255
 2083SOL     OW17710   4.031   4.513  11.643  0.0881  0.0846  0.4039
 2083SOL    HW117711   4.057   4.498  11.734  1.5985 -0.2419 -0.0740
 2083SOL    HW217712   4.046   4.421  11.622 -0.6891  0.0559  0.0164
 2084SOL     OW17713   0.413   2.533   9.984 -0.1950  0.1208  0.0136
 2084SOL    HW117714   0.427   2.493  10.069 -2.4381 -1.3645 -0.3410
 2084SOL    HW217715   0.326   2.572   9.991 -1.0776 -1.9143  0.3568
 2085SOL     OW17716   2.100   2.063   5.335 -0.2371  0.5025  0.4218
 2085SOL    HW117717   2.092   2.092   5.244  0.3728 -1.4672 -0.2585
 2085SOL    HW217718   2.155   2.127   5.379 -0.0831  2.2556 -2.3725
 2086SOL     OW17719   4.501   0.789   1.373  0.2041 -0.4459 -0.6236
 2086SOL    HW117720   4.504   0.881   1.402  0.5969 -0.4153 -0.7775
 2086SOL    HW217721   4.592   0.765   1.356  0.6878 -0.5754  2.0693
 2087SOL     OW17722   1.746   2.077   4.696  0.3069  0.0129  0.4508
 2087SOL    HW117723   1.711   2.162   4.725 -1.2957 -0.3797 -0.3495
 2087SOL    HW217724   1.690   2.014   4.741 -1.0220  0.5717 -0.4379
 2088SOL     OW17725   0.709   4.407  15.948  0.6151  0.4731 -0.5966
 2088SOL    HW117726   0.708   4.479  15.885  0.6139  1.0350  0.0368
 2088SOL    HW217727   0.777   4.353  15.909  1.0012  1.9404 -1.9532
 2089SOL     OW17728   2.359   1.675   3.919 -0.0718  0.2951 -0.1329
 2089SOL    HW117729   2.376   1.581   3.922 -2.7480 -0.1653  1.4642
 2089SOL    HW217730   2.271   1.675   3.880  0.2577 -1.3278 -0.8689
 2090SOL     OW17731   2.505   0.607   5.409  0.5207  1.2798 -0.0338
 2090SOL    HW117732   2.568   0.660   5.360  0.8067  1.8811  0.9957
 2090SOL    HW217733   2.502   0.664   5.486 -0.1166 -1.3356  1.8528
 2091SOL     OW17734   4.368   1.823   6.189 -0.3776 -0.4565 -0.4203
 2091SOL    HW117735   4.367   1.730   6.211  2.7330 -0.2967  0.3823
 2091SOL    HW217736   4.345   1.833   6.096 -0.1984  2.1235 -0.1974
 2092SOL     OW17737   1.311   3.532  10.018 -0.3057 -0.1463  0.1485
 2092SOL    HW117738   1.401   3.502  10.006 -0.2252  0.3767 -0.5698
 2092SOL    HW217739   1.284   3.471  10.087 -1.1032 -1.6630 -1.5187
 2093SOL     OW17740   1.188   2.225   2.211  0.2387 -0.7831  0.4900
 2093SOL    HW117741   1.132   2.148   2.201  0.4153 -0.1904 -4.7981
 2093SOL    HW217742   1.122   2.294   2.205  0.5133 -0.8299 -2.9837
 2094SOL     OW17743   3.075   4.376   6.839  0.4291 -0.4332  0.3021
 2094SOL    HW117744   3.000   4.343   6.888 -0.9972 -0.3485 -1.8428
 2094SOL    HW217745   3.038   4.464   6.840  0.6156 -0.3694  1.8361
 2095SOL     OW17746   1.585   4.196  16.172 -0.3719 -0.3262  0.3876
 2095SOL    HW117747   1.594   4.101  16.182 -2.3178 -0.4177  1.1613
 2095SOL    HW217748   1.531   4.210  16.250  1.7883 -1.0132  2.0173
 2096SOL     OW17749   1.091   0.578   5.428  0.7783 -0.0541  0.1517
 2096SOL    HW117750   1.172   0.623   5.406 -0.9175  2.6843 -0.4169
 2096SOL    HW217751   1.109   0.574   5.522 -0.7271 -2.2541  0.3538
 2097SOL     OW17752   2.928   3.640   5.189  0.0971  0.2660  0.4015
 2097SOL    HW117753   2.989   3.634   5.263  0.5849 -0.0765 -0.0285
 2097SOL    HW217754   2.981   3.587   5.129  0.0585 -1.0452  1.5147
 2098SOL     OW17755   3.948   2.211   2.400 -0.3773  0.0673 -0.0838
 2098SOL    HW117756   3.985   2.223   2.312  3.0324  0.9195  1.4443
 2098SOL    HW217757   3.890   2.137   2.383 -0.1176  0.7476 -3.9075
 2099SOL     OW17758   2.841   4.305   0.243 -0.6214  0.4552  0.2213
 2099SOL    HW117759   2.794   4.225   0.268  1.3080 -0.4800  0.8844
 2099SOL    HW217760   2.861   4.345   0.327  0.6227  1.0614 -0.3657
 2100SOL     OW17761   4.186   3.477   7.439 -0.2987  0.6097 -0.1150
 2100SOL    HW117762   4.265   3.468   7.492  0.0373 -0.3244 -0.7768
 2100SOL    HW217763   4.183   3.573   7.436 -0.0999  0.5965 -0.9379
 2101SOL     OW17764   0.798   4.682   2.024  0.1399  0.2000  0.2021
 2101SOL    HW117765   0.787   4.670   2.119  1.1499 -0.6248  0.2159
 2101SOL    HW217766   0.893   4.670   2.026  0.0191 -0.5742  1.6366
 2102SOL     OW17767   2.717   1.975   8.812 -0.2245 -0.3707  0.0031
 2102SOL    HW117768   2.714   1.905   8.878  2.3471 -0.8014 -0.3260
 2102SOL    HW217769   2.770   2.038   8.861  0.3396  0.0097 -1.0941
 2103SOL     OW17770   2.241   1.392   7.109  0.0621  1.0280  0.6672
 2103SOL    HW117771   2.220   1.485   7.110  1.1436  1.2659  0.3529
 2103SOL    HW217772   2.332   1.406   7.135  0.6296  1.0343 -1.3213
 2104SOL     OW17773   0.208   2.228   5.145 -0.0505 -0.3316  0.3353
 2104SOL    HW117774   0.220   2.205   5.237 -1.8796 -0.7187  0.4637
 2104SOL    HW217775   0.169   2.144   5.120  0.4217  0.1290 -1.9907
 2105SOL     OW17776   4.497   0.822   2.459  0.0711 -0.1068  0.1120
 2105SOL    HW117777   4.421   0.780   2.417  0.0126  1.6247 -1.5240
 2105SOL    HW217778   4.562   0.762   2.423  0.8572 -1.1658  3.3628
 2106SOL     OW17779   2.474   4.382   4.216  0.3442 -0.2356  0.2623
 2106SOL    HW117780   2.521   4.309   4.255  0.1216 -1.1519 -1.2212
 2106SOL    HW217781   2.518   4.395   4.132  1.1114 -1.6430  0.4577
 2107SOL     OW17782   3.077   1.401  15.930 -0.2613 -0.3930  0.3384
 2107SOL    HW117783   3.019   1.358  15.867  2.7538 -1.7252 -1.4860
 2107SOL    HW217784   3.017   1.463  15.972 -1.2464 -0.7795 -0.4954
 2108SOL     OW17785   3.875   1.172   7.800  0.0848  0.1851 -0.9408
 2108SOL    HW117786   3.795   1.212   7.832  0.3331 -1.2792  1.4436
 2108SOL    HW217787   3.850   1.164   7.708  0.3458  1.2013 -1.1112
 2109SOL     OW17788   2.247   2.807   7.754 -0.1503 -0.0669 -0.2420
 2109SOL    HW117789   2.257   2.797   7.659  3.9489  1.4146  0.0399
 2109SOL    HW217790   2.319   2.749   7.778  0.3190 -0.2730 -2.1643
 2110SOL     OW17791   0.526   4.646   5.312 -0.5603 -0.2272 -0.4976
 2110SOL    HW117792   0.547   0.013   5.329  1.9190 -0.5757 -1.6413
 2110SOL    HW217793   0.536   4.649   5.217 -1.6004  0.3550 -0.5836
 2111SOL     OW17794   1.514   2.882   2.785 -0.3590  0.1018  0.8457
 2111SOL    HW117795   1.455   2.915   2.852 -0.0881  2.5662 -0.1171
 2111SOL    HW217796   1.577   2.823   2.826 -1.1985 -1.6283 -0.3241
 2112SOL     OW17797   1.453   1.818   4.225 -0.2393 -0.2967 -0.2862
 2112SOL    HW117798   1.533   1.856   4.189 -1.3042  0.5435 -1.7583
 2112SOL    HW217799   1.389   1.830   4.155 -2.1113 -0.7343  1.3264
 2113SOL     OW17800   0.385   3.649   9.236 -0.5132  0.0970  0.6969
 2113SOL    HW117801   0.330   3.710   9.285  2.1349  2.5769  0.5896
 2113SOL    HW217802   0.372   3.570   9.288 -1.6937 -0.5943 -0.6157
 2114SOL     OW17803   2.276   4.565   1.158  0.2542 -0.1405 -0.2375
 2114SOL    HW117804   2.270   4.626   1.232 -1.4991  0.2064 -0.6457
 2114SOL    HW217805   2.210   4.504   1.192 -0.9144  0.9856 -0.4765
 2115SOL     OW17806   4.182   0.286  12.697  0.3264 -0.2603  0.3511
 2115SOL    HW117807   4.270   0.259  12.672  1.3737  2.6470  0.9700
 2115SOL    HW217808   4.130   0.309  12.619 -0.3740 -1.7777  0.3649
 2116SOL     OW17809   1.454   0.862  11.538 -0.9273  0.0867  0.2699
 2116SOL    HW117810   1.490   0.773  11.547  0.6944  0.7054 -0.1655
 2116SOL    HW217811   1.470   0.901  11.624  2.3829  0.5769 -0.5896
 2117SOL     OW17812   2.627   3.777   6.496  0.6742 -0.0603 -0.5036
 2117SOL    HW117813   2.562   3.706   6.495  2.2783 -1.5050 -0.4615
 2117SOL    HW217814   2.708   3.736   6.466  2.0606  0.3746  2.6721
 2118SOL     OW17815   3.923   2.402  12.763  0.0933  0.1928 -0.5887
 2118SOL    HW117816   3.930   2.430  12.854 -0.9579 -1.3899 -0.0016
 2118SOL    HW217817   3.908   2.485  12.718 -0.9538  1.1485  1.5283
 2119SOL     OW17818   2.466   1.829   8.705 -0.5771 -0.0383 -0.2023
 2119SOL    HW117819   2.547   1.846   8.752 -0.2666  0.9330 -1.0881
 2119SOL    HW217820   2.452   1.895   8.638  0.7744 -0.6877 -1.1154
 2120SOL     OW17821   3.462   4.439   9.864  0.2809 -0.0712  0.1061
 2120SOL    HW117822   3.396   4.439   9.933  0.5137 -0.1315  0.3282
 2120SOL    HW217823   3.515   4.361   9.883  1.8362  0.8038 -0.6734
 2121SOL     OW17824   3.297   2.583   0.480  0.7550 -0.0276  0.2233
 2121SOL    HW117825   3.285   2.648   0.549 -0.2620  1.7210 -1.6061
 2121SOL    HW217826   3.210   2.589   0.442  0.4537 -0.4572  0.8373
 2122SOL     OW17827   0.234   1.194   7.221  0.0886  0.1765  0.5780
 2122SOL    HW117828   0.160   1.150   7.261 -0.0607  1.5283  1.8034
 2122SOL    HW217829   0.198   1.283   7.218  1.4253  0.8066  3.2319
 2123SOL     OW17830   4.147   3.401   4.601  0.0510  0.2265  0.4435
 2123SOL    HW117831   4.164   3.493   4.577  1.4753  0.3465  1.9335
 2123SOL    HW217832   4.143   3.405   4.696 -2.0609 -2.6023  0.4824
 2124SOL     OW17833   3.255   1.744   3.269  0.9428 -0.3149  0.2805
 2124SOL    HW117834   3.294   1.831   3.278  0.1891  0.1396 -0.8207
 2124SOL    HW217835   3.238   1.717   3.360 -1.1890 -0.8043 -0.2509
 2125SOL     OW17836   0.040   2.635   6.073  0.2413 -0.0140  0.8089
 2125SOL    HW117837   0.018   2.542   6.083 -0.2391  0.1149  0.9772
 2125SOL    HW217838   0.020   2.665   6.162  0.0730  1.6100  0.2187
 2126SOL     OW17839   1.007   4.589   4.273 -0.1593 -0.2375  0.1554
 2126SOL    HW117840   1.043   4.505   4.303 -0.6257 -0.1159  1.0589
 2126SOL    HW217841   1.022   4.572   4.180 -1.1456  0.1041 -0.0680
 2127SOL     OW17842   1.713   2.911   3.029 -0.4705  0.6101  0.2254
 2127SOL    HW117843   1.663   2.988   3.002 -0.7181  0.0119 -0.9907
 2127SOL    HW217844   1.777   2.907   2.959  2.0242  0.0391  2.5332
 2128SOL     OW17845   2.818   1.708  10.146 -0.0380  0.5437  0.3271
 2128SOL    HW117846   2.910   1.685  10.150 -0.2579  0.1629  3.1233
 2128SOL    HW217847   2.785   1.666  10.225  0.1750 -1.5609 -0.6970
 2129SOL     OW17848   3.190   0.672  11.184 -0.3738  0.3637 -0.5248
 2129SOL    HW117849   3.096   0.653  11.192 -0.1600  0.0634  1.2122
 2129SOL    HW217850   3.217   0.698  11.272  0.0801  1.1690 -0.8948
 2130SOL     OW17851   0.092   1.824  12.981  0.2737 -0.8369 -0.5537
 2130SOL    HW117852   0.002   1.829  12.950  0.3503 -0.2724 -0.6739
 2130SOL    HW217853   0.095   1.733  13.013  0.5645  0.0661  2.0090
 2131SOL     OW17854   3.223   1.685   4.974  0.3179  0.2924  0.3507
 2131SOL    HW117855   3.260   1.673   5.062 -1.0762 -0.7102  0.8131
 2131SOL    HW217856   3.273   1.756   4.936  0.9480 -0.2826  0.0981
 2132SOL     OW17857   1.241   2.910   0.864  0.1768 -0.4180  0.4059
 2132SOL    HW117858   1.156   2.891   0.904 -0.8550 -1.7649 -2.3891
 2132SOL    HW217859   1.214   2.961   0.788 -0.3402  0.1859  1.0030
 2133SOL     OW17860   1.090   3.989   1.076 -0.2845 -0.0600 -0.6480
 2133SOL    HW117861   1.038   3.978   0.996 -0.6669 -1.0430 -0.2704
 2133SOL    HW217862   1.066   3.912   1.128  2.2363 -0.0107  0.6234
 2134SOL     OW17863   1.671   3.851   5.085  0.3583 -0.4724 -0.0171
 2134SOL    HW117864   1.667   3.761   5.055 -0.5888 -0.5795  0.4281
 2134SOL    HW217865   1.582   3.855   5.119 -0.0152  1.1422 -1.1785
 2135SOL     OW17866   2.122   4.705  12.917  0.1252 -0.0339 -0.1044
 2135SOL    HW117867   2.147   4.613  12.918 -1.2041 -0.4187 -1.3678
 2135SOL    HW217868   2.210   0.018  12.921  0.2850 -0.2704 -1.2519
 2136SOL     OW17869   3.714   4.027   4.654  0.0675  0.3804  0.1080
 2136SOL    HW117870   3.675   3.941   4.639  0.1645  0.2397  0.6703
 2136SOL    HW217871   3.683   4.080   4.581  1.4561  1.4871  0.3369
 2137SOL     OW17872   0.843   3.956   3.604 -0.7723 -0.8464  0.1441
 2137SOL    HW117873   0.836   3.863   3.627  0.8908 -0.9928  0.1042
 2137SOL    HW217874   0.803   3.956   3.517 -2.9111 -1.5219  1.1214
 2138SOL     OW17875   1.181   2.590   7.900 -0.3010  0.4580  0.0016
 2138SOL    HW117876   1.105   2.642   7.926 -0.5116  0.3071 -0.3127
 2138SOL    HW217877   1.218   2.560   7.982  0.1116 -0.6138 -0.5743
 2139SOL     OW17878   0.936   1.327   8.346 -0.0411  0.8140  0.3811
 2139SOL    HW117879   0.895   1.247   8.379  1.1682 -0.4378 -1.1708
 2139SOL    HW217880   0.982   1.289   8.272  0.6319  0.3477  1.0350
 2140SOL     OW17881   0.363   3.506   0.382 -0.0385  0.2230  0.1537
 2140SOL    HW117882   0.337   3.594   0.355 -0.2759 -0.2629 -1.2339
 2140SOL    HW217883   0.430   3.523   0.448  0.3856 -1.9101  0.2789
 2141SOL     OW17884   0.640   2.644  10.784 -0.4059  0.6766  0.3936
 2141SOL    HW117885   0.589   2.605  10.712  0.6596 -0.1523  0.0718
 2141SOL    HW217886   0.625   2.738  10.787 -1.0845  0.7076 -3.5080
 2142SOL     OW17887   1.460   1.971  10.217 -0.2036  0.1125 -0.4666
 2142SOL    HW117888   1.480   1.924  10.136 -0.3842  0.7775 -0.8954
 2142SOL    HW217889   1.454   1.906  10.287 -0.6410  0.9875  0.3009
 2143SOL     OW17890   1.896   3.405   5.441 -0.0077 -0.0031 -0.3269
 2143SOL    HW117891   1.844   3.327   5.461  1.3525 -0.7741  0.1281
 2143SOL    HW217892   1.980   3.369   5.468 -0.2503 -0.5125 -0.2529
 2144SOL     OW17893   1.024   3.631  14.385 -0.3307 -0.2782  0.1668
 2144SOL    HW117894   0.945   3.615  14.437  0.8653 -2.5085  1.3019
 2144SOL    HW217895   1.016   3.722  14.354  0.8717 -0.5313 -0.8943
 2145SOL     OW17896   4.280   2.900   5.251  0.1202  0.2470  0.0782
 2145SOL    HW117897   4.259   2.821   5.299  1.9417  0.4029  1.1373
 2145SOL    HW217898   4.223   2.892   5.175  0.7496 -0.7644 -0.2897
 2146SOL     OW17899   3.261   0.802  14.737  0.1215 -0.8270  0.0573
 2146SOL    HW117900   3.240   0.854  14.814 -1.8034  1.1692 -1.8214
 2146SOL    HW217901   3.174   0.778  14.705 -0.0647  0.5565 -0.4937
 2147SOL     OW17902   4.010   1.790  16.717 -0.3233  0.3652 -0.6632
 2147SOL    HW117903   4.056   1.799  16.800 -0.7542 -0.2342 -0.3514
 2147SOL    HW217904   3.919   1.807  16.743 -0.8382 -1.0073 -1.5119
 2148SOL     OW17905   3.334   3.608  16.545  0.0177 -0.6816 -0.2122
 2148SOL    HW117906   3.391   3.629  16.619 -1.2247 -1.7083  1.0366
 2148SOL    HW217907   3.364   3.670  16.478  1.7032  3.0239  3.9705
 2149SOL     OW17908   0.247   0.080   6.149 -0.2766  0.1764 -0.0979
 2149SOL    HW117909   0.247   0.169   6.184 -0.1005  0.0051  0.3312
 2149SOL    HW217910   0.154   0.059   6.140  0.4064 -2.1472 -1.7700
 2150SOL     OW17911   1.330   0.411  13.278  0.1013 -0.0047 -0.3867
 2150SOL    HW117912   1.363   0.448  13.359 -0.3850 -2.8701  1.1405
 2150SOL    HW217913   1.277   0.478  13.234  1.9585  2.3060  0.9259
 2151SOL     OW17914   4.067   2.288  16.780  0.1884 -1.0454 -0.5860
 2151SOL    HW117915   4.069   2.302  16.875  0.5687 -3.3702 -0.2446
 2151SOL    HW217916   4.109   2.367  16.748 -1.0266  1.1371  3.1835
 2152SOL     OW17917   1.260   2.031   8.996  0.1188  0.0871 -0.0105
 2152SOL    HW117918   1.164   2.026   9.001  0.2736  0.4672  3.7653
 2152SOL    HW217919   1.268   2.091   8.922 -1.5128  1.3781  0.8462
 2153SOL     OW17920   2.316   1.940   5.189  0.3725 -0.3680  0.6970
 2153SOL    HW117921   2.236   1.968   5.233  2.3464  3.2294  2.0256
 2153SOL    HW217922   2.367   2.016   5.219 -1.5164  0.6201  1.4147
 2154SOL     OW17923   1.440   2.457   4.180  0.3615 -0.3999  0.3517
 2154SOL    HW117924   1.352   2.465   4.217 -0.1594  1.0934 -1.2126
 2154SOL    HW217925   1.500   2.474   4.253 -0.8841  0.8061  1.0993
 2155SOL     OW17926   3.132   1.029   4.325 -0.7983 -0.8837 -0.4483
 2155SOL    HW117927   3.060   1.047   4.265  0.6342 -0.2395 -1.9573
 2155SOL    HW217928   3.125   0.935   4.340  1.7102 -1.0005 -0.1412
 2156SOL     OW17929   1.812   1.782   4.786  0.1438  0.3765  0.1057
 2156SOL    HW117930   1.783   1.701   4.743 -0.5397 -0.1639  1.5964
 2156SOL    HW217931   1.888   1.800   4.730  1.1011 -0.7862  1.0271
 2157SOL     OW17932   2.463   3.974   8.631 -0.8632  0.0730 -0.3371
 2157SOL    HW117933   2.470   3.898   8.688 -1.2444 -0.0083 -0.3982
 2157SOL    HW217934   2.530   3.958   8.565 -2.6660  2.2403 -2.6882
 2158SOL     OW17935   4.376   4.274   5.262 -0.3772 -0.2200 -0.2501
 2158SOL    HW117936   4.437   4.224   5.315 -0.7802  0.9377  1.3019
 2158SOL    HW217937   4.439   4.328   5.214 -1.7181  1.3354 -0.2504
 2159SOL     OW17938   0.430   2.518   5.779 -0.5908 -0.4149 -0.5620
 2159SOL    HW117939   0.401   2.502   5.869  2.9737 -1.8948  0.2939
 2159SOL    HW217940   0.493   2.587   5.800 -1.6469  0.4390 -0.1352
 2160SOL     OW17941   0.263   0.279   2.444  0.1749 -0.5470 -0.4307
 2160SOL    HW117942   0.334   0.343   2.450  0.8117 -1.4415  1.4032
 2160SOL    HW217943   0.277   0.247   2.533 -0.6033 -1.6967 -0.7140
 2161SOL     OW17944   1.037   1.707   4.729 -0.2399  0.6788 -0.8676
 2161SOL    HW117945   1.036   1.765   4.652 -1.1602  0.5459 -0.9547
 2161SOL    HW217946   0.948   1.676   4.712  0.4510 -1.3169 -0.7543
 2162SOL     OW17947   1.692   4.083  16.429  0.1657 -0.0449 -0.4320
 2162SOL    HW117948   1.729   4.167  16.458  1.1329 -0.8449  0.5974
 2162SOL    HW217949   1.739   4.058  16.350 -1.0525  3.0933 -2.1828
 2163SOL     OW17950   3.743   1.464  13.825  0.2539  0.4130 -0.0587
 2163SOL    HW117951   3.784   1.382  13.799  1.7240  1.3072 -0.5767
 2163SOL    HW217952   3.678   1.478  13.756 -0.5185  1.6496  0.9161
 2164SOL     OW17953   1.364   3.293  11.471  0.5332 -0.2175 -0.3175
 2164SOL    HW117954   1.437   3.328  11.419 -1.7214  1.8576 -2.0860
 2164SOL    HW217955   1.294   3.356  11.455  1.6845  1.6330  1.9020
 2165SOL     OW17956   4.641   1.481   5.967 -0.3983  0.2411  0.1338
 2165SOL    HW117957   4.648   1.523   5.881 -2.3301  0.0431 -0.1192
 2165SOL    HW217958   4.615   1.552   6.025  0.8670 -0.3946  1.4608
 2166SOL     OW17959   4.090   2.772   7.959 -0.3237  0.0658  0.1026
 2166SOL    HW117960   4.028   2.702   7.976 -1.0842  0.4326 -1.2091
 2166SOL    HW217961   4.139   2.761   8.041  0.6213  1.4278 -0.2719
 2167SOL     OW17962   3.667   2.285   5.964 -0.2238  0.2404  0.1588
 2167SOL    HW117963   3.739   2.248   6.015  0.3722  0.4115 -0.5626
 2167SOL    HW217964   3.634   2.350   6.026  0.2689 -3.3362  4.2272
 2168SOL     OW17965   1.638   1.379   8.544  0.6023  0.7179  0.1920
 2168SOL    HW117966   1.657   1.455   8.489  0.7998 -0.4964 -1.4046
 2168SOL    HW217967   1.653   1.316   8.474  2.7246  4.1072 -2.3502
 2169SOL     OW17968   2.248   0.518  15.571  0.4897  0.1409 -0.1748
 2169SOL    HW117969   2.284   0.454  15.633 -1.6406  0.4780  1.4122
 2169SOL    HW217970   2.286   0.496  15.486  1.0869 -1.7410  0.5681
 2170SOL     OW17971   0.723   2.492  15.813  0.3998  0.5339 -0.0852
 2170SOL    HW117972   0.684   2.567  15.859  0.6589  0.5430  0.1170
 2170SOL    HW217973   0.816   2.507  15.828  0.4361 -0.9512  1.0795
 2171SOL     OW17974   2.687   1.574  15.892 -0.1964 -0.2877 -0.3456
 2171SOL    HW117975   2.650   1.656  15.861  3.3945  1.5660  0.3252
 2171SOL    HW217976   2.772   1.601  15.926 -0.8871 -0.0698  1.2415
 2172SOL     OW17977   2.927   3.976   9.581 -0.5074  0.0955 -0.3658
 2172SOL    HW117978   2.938   3.883   9.603 -0.2422  0.3265  0.4772
 2172SOL    HW217979   2.927   4.020   9.667  2.5761  2.0964 -1.4163
 2173SOL     OW17980   2.653   1.510  14.716  0.4866  0.0227  0.0491
 2173SOL    HW117981   2.595   1.443  14.752 -0.5451  0.0890 -1.5065
 2173SOL    HW217982   2.610   1.591  14.743  4.6504  1.8631  1.1642
 2174SOL     OW17983   3.187   0.274   6.332 -1.1370  0.2585  0.0719
 2174SOL    HW117984   3.180   0.293   6.426  1.4138  1.6085 -0.0245
 2174SOL    HW217985   3.097   0.284   6.302 -1.0713 -0.0824 -0.2320
 2175SOL     OW17986   3.736   2.416   8.048 -0.5179  0.1116 -0.1442
 2175SOL    HW117987   3.687   2.421   8.130  1.0478  1.3516  0.7154
 2175SOL    HW217988   3.712   2.502   8.011  2.1202 -0.5418 -3.3076
 2176SOL     OW17989   1.409   1.780   8.976  0.1971 -0.1634 -0.0828
 2176SOL    HW117990   1.489   1.793   8.924  0.8374 -0.4413  0.8308
 2176SOL    HW217991   1.365   1.865   8.972  0.0005 -0.2728 -0.2233
 2177SOL     OW17992   2.302   4.260   3.645 -0.2770 -0.4670 -0.0444
 2177SOL    HW117993   2.395   4.239   3.653  0.1208  1.9276  1.3760
 2177SOL    HW217994   2.263   4.207   3.715  1.5656 -1.4717  0.2219
 2178SOL     OW17995   1.324   0.120   6.696 -0.0839  0.1779 -0.0780
 2178SOL    HW117996   1.230   0.125   6.680 -0.3280 -1.2323  0.8948
 2178SOL    HW217997   1.332   0.135   6.790  0.4264 -2.2031  0.2741
 2179SOL     OW17998   0.321   0.104   4.189 -0.3489 -0.2555  0.2104
 2179SOL    HW117999   0.273   0.037   4.237 -0.7435  0.3052  0.6032
 2179SOL    HW218000   0.408   0.068   4.169 -0.4333  0.0374 -0.6968
 2180SOL     OW18001   0.359   2.398   9.468 -0.1997 -0.0407 -0.0704
 2180SOL    HW118002   0.318   2.468   9.519  2.9642  2.0513 -0.4040
 2180SOL    HW218003   0.445   2.438   9.457  0.4784 -1.5592 -0.4265
 2181SOL     OW18004   0.921   0.833   7.848 -0.0468  0.6050 -0.0976
 2181SOL    HW118005   0.838   0.787   7.858  1.0668 -1.0049  1.8773
 2181SOL    HW218006   0.894   0.908   7.795  0.1433  0.7978  0.0777
 2182SOL     OW18007   4.651   2.827   3.424 -0.0285  0.2474  0.1030
 2182SOL    HW118008   4.578   2.780   3.386  0.3051  0.7235 -1.1205
 2182SOL    HW218009   4.721   2.774   3.386  1.6580  2.1379  0.5289
 2183SOL     OW18010   4.074   2.811   2.999 -0.2573  0.1667  0.1706
 2183SOL    HW118011   4.066   2.719   2.975 -0.2845 -0.1223  1.3145
 2183SOL    HW218012   4.092   2.802   3.092  0.0042 -1.8453 -0.0881
 2184SOL     OW18013   2.541   4.309   1.409  0.9417 -0.8361 -0.2049
 2184SOL    HW118014   2.550   4.404   1.408 -0.6468 -0.6825  0.9151
 2184SOL    HW218015   2.601   4.278   1.341 -0.5998 -1.0366 -1.4513
 2185SOL     OW18016   2.436   0.160   4.628 -0.1743  0.2529 -0.5171
 2185SOL    HW118017   2.400   0.206   4.552 -0.9403  1.0597  0.3429
 2185SOL    HW218018   2.457   0.072   4.598 -0.8076 -0.3681  0.9186
 2186SOL     OW18019   3.381   2.237   5.381  0.3273 -0.2593  0.2369
 2186SOL    HW118020   3.454   2.278   5.335 -0.5987 -1.3580 -2.1731
 2186SOL    HW218021   3.344   2.310   5.430  1.5929 -2.2986  4.2387
 2187SOL     OW18022   1.522   2.172   2.918  0.4726  0.0435 -0.2327
 2187SOL    HW118023   1.482   2.127   2.992 -0.2876 -0.3136 -0.8616
 2187SOL    HW218024   1.481   2.259   2.920 -1.6752 -1.0267  2.8296
 2188SOL     OW18025   1.351   4.376   0.541  0.0732 -0.0107 -0.2146
 2188SOL    HW118026   1.261   4.352   0.564 -0.1571 -0.8256 -2.0544
 2188SOL    HW218027   1.334   4.467   0.514  2.4677  1.3547  2.8279
 2189SOL     OW18028   1.207   1.230  14.821 -0.0990 -0.1031 -0.3999
 2189SOL    HW118029   1.281   1.171  14.836 -2.6422 -2.8588  1.4742
 2189SOL    HW218030   1.235   1.266  14.737  1.6348 -2.3575 -0.8014
 2190SOL     OW18031   4.612   2.228   7.586  0.4361 -0.5018 -0.0058
 2190SOL    HW118032   4.577   2.191   7.667 -0.3479  0.9276  0.3070
 2190SOL    HW218033   4.699   2.263   7.605  1.7087 -2.3703 -2.4078
 2191SOL     OW18034   2.736   0.606   3.408 -0.8315  0.1516 -0.2747
 2191SOL    HW118035   2.686   0.624   3.487 -0.4422  0.7849 -0.1732
 2191SOL    HW218036   2.661   0.577   3.356 -0.5418  1.6904 -1.5519
 2192SOL     OW18037   2.334   3.239  16.577 -0.3489  0.0242  0.6877
 2192SOL    HW118038   2.303   3.168  16.521  1.7354 -0.6935  0.4291
 2192SOL    HW218039   2.377   3.195  16.651 -0.9965  0.6912  1.4594
 2193SOL     OW18040   0.006   4.542  10.686 -0.4336  0.0217  0.0802
 2193SOL    HW118041   0.052   4.492  10.618 -1.2787  0.8741 -1.1038
 2193SOL    HW218042   4.648   4.506  10.654  1.2568 -1.8559 -2.1101
 2194SOL     OW18043   4.066   4.715   4.515  0.5888  0.1191  0.2416
 2194SOL    HW118044   3.986   4.695   4.466  0.8877  0.7911 -0.5182
 2194SOL    HW218045   4.132   4.664   4.468 -0.1505 -1.5846  1.0421
 2195SOL     OW18046   1.375   2.742   6.566  0.3193  0.0691  0.2417
 2195SOL    HW118047   1.379   2.692   6.484  0.9294  0.8394 -0.1959
 2195SOL    HW218048   1.464   2.756   6.596  0.0280 -0.3964  1.3021
 2196SOL     OW18049   1.223   1.331   7.443  0.2937 -0.5461 -0.0223
 2196SOL    HW118050   1.140   1.308   7.485 -0.3732 -0.5658 -1.3563
 2196SOL    HW218051   1.225   1.426   7.458  2.6462 -0.1065 -3.3865
 2197SOL     OW18052   4.135   2.781  13.166 -0.4873  0.0387  0.2847
 2197SOL    HW118053   4.221   2.785  13.207  0.5162  0.3411 -1.8806
 2197SOL    HW218054   4.154   2.809  13.077 -2.4196  1.0032  0.1779
 2198SOL     OW18055   2.784   0.774   4.174 -0.0674  0.0768  0.4653
 2198SOL    HW118056   2.791   0.870   4.175  1.2837 -0.0183 -0.7589
 2198SOL    HW218057   2.690   0.762   4.159  0.0436 -1.8237  1.3048
 2199SOL     OW18058   2.728   1.346   4.432 -0.3027 -0.5095  0.3230
 2199SOL    HW118059   2.643   1.351   4.387 -0.1087  0.8115  0.0944
 2199SOL    HW218060   2.777   1.314   4.356 -0.7325  0.6378 -0.4510
 2200SOL     OW18061   4.170   1.575   1.616  0.5487 -0.0694  0.2121
 2200SOL    HW118062   4.156   1.616   1.531 -2.1366 -0.8658  0.2923
 2200SOL    HW218063   4.124   1.493   1.605  0.6553 -0.1854  0.6242
 2201SOL     OW18064   0.608   3.274   9.477 -0.1797 -0.5182  0.3366
 2201SOL    HW118065   0.681   3.296   9.534  0.1946 -1.1495  0.0989
 2201SOL    HW218066   0.539   3.250   9.539 -1.9674  1.4951 -0.8765
 2202SOL     OW18067   0.905   2.127   6.207  0.1182 -0.4174  0.1502
 2202SOL    HW118068   0.820   2.106   6.169  0.4753  0.2045 -1.0062
 2202SOL    HW218069   0.866   2.176   6.279  0.6146 -0.2284  0.2957
 2203SOL     OW18070   0.378   1.540   3.037 -0.1449  0.0591 -0.5046
 2203SOL    HW118071   0.348   1.571   2.952  1.7710 -1.2325 -1.6458
 2203SOL    HW218072   0.391   1.448   3.013 -0.0576  0.5783 -2.4250
 2204SOL     OW18073   4.506   0.087   8.609 -0.2130  0.4580 -0.5640
 2204SOL    HW118074   4.530   0.132   8.527  0.1718 -1.6472 -1.6077
 2204SOL    HW218075   4.452   0.021   8.566  1.3329  0.0633 -1.9017
 2205SOL     OW18076   4.248   0.324  11.504 -0.4448 -0.3058 -0.2027
 2205SOL    HW118077   4.231   0.374  11.583 -1.7681 -1.3726  0.1991
 2205SOL    HW218078   4.193   0.247  11.518  0.0220 -0.4056  1.0477
 2206SOL     OW18079   1.895   3.933   5.255 -0.0252 -0.4323 -0.5119
 2206SOL    HW118080   1.841   3.922   5.177  1.2120  1.2017 -1.5967
 2206SOL    HW218081   1.886   3.844   5.290  1.6564 -0.7281 -0.8367
 2207SOL     OW18082   4.404   2.098   3.538  0.7249 -0.3226  0.3544
 2207SOL    HW118083   4.464   2.058   3.475  2.1422  1.2620  0.6977
 2207SOL    HW218084   4.417   2.192   3.527 -1.2061 -0.1262 -0.2750
 2208SOL     OW18085   3.420   4.687  13.161 -0.0616 -0.4350  0.1499
 2208SOL    HW118086   3.462   4.658  13.242  0.0964 -3.9580 -1.2115
 2208SOL    HW218087   3.380   0.045  13.190  2.8722  1.9201 -2.4855
 2209SOL     OW18088   3.164   3.757   3.474  0.0705  0.3580 -0.1180
 2209SOL    HW118089   3.102   3.728   3.407  0.3899 -1.1903  0.2362
 2209SOL    HW218090   3.117   3.737   3.556  1.3699 -0.6100  0.3891
 2210SOL     OW18091   1.342   4.282   4.840  0.2736  0.1385 -0.4001
 2210SOL    HW118092   1.396   4.263   4.916 -2.5469 -0.1339  1.5385
 2210SOL    HW218093   1.258   4.294   4.885  0.3671  2.1313 -0.7482
 2211SOL     OW18094   1.228   3.125   5.365 -0.2892  0.3417 -0.0209
 2211SOL    HW118095   1.246   3.211   5.327  2.3656 -0.0478  0.3711
 2211SOL    HW218096   1.144   3.134   5.409 -0.3450  1.3232 -0.3335
 2212SOL     OW18097   4.219   2.655   5.349 -0.3894  0.2324 -0.1770
 2212SOL    HW118098   4.241   2.574   5.395 -0.0853  1.3196  1.5982
 2212SOL    HW218099   4.146   2.624   5.295  1.3564 -1.9973 -1.2421
 2213SOL     OW18100   0.420   3.195   1.708  0.0503  0.1532  0.4381
 2213SOL    HW118101   0.394   3.216   1.798  1.9357 -0.4142  1.1095
 2213SOL    HW218102   0.421   3.288   1.684 -1.2490 -0.2507 -1.1412
 2214SOL     OW18103   1.573   1.167   6.376  0.3420 -0.3134  0.7855
 2214SOL    HW118104   1.483   1.148   6.352 -0.1710  0.4616  2.0874
 2214SOL    HW218105   1.615   1.091   6.336 -1.1426 -0.7995  0.1809
 2215SOL     OW18106   4.410   2.392  15.129 -0.3927 -0.1884 -0.0239
 2215SOL    HW118107   4.344   2.398  15.199  1.7387 -0.3676  2.0065
 2215SOL    HW218108   4.378   2.340  15.055  1.4782 -0.9018 -0.3440
 2216SOL     OW18109   0.496   3.754   6.319  0.1202 -0.5429  0.3237
 2216SOL    HW118110   0.467   3.815   6.252  1.1744 -0.4159 -0.0135
 2216SOL    HW218111   0.504   3.808   6.397  1.8730  0.1179 -0.3328
 2217SOL     OW18112   1.472   3.728  14.331  0.6336 -0.6495 -0.1064
 2217SOL    HW118113   1.503   3.791  14.266  0.6766  0.7125  1.2440
 2217SOL    HW218114   1.384   3.765  14.322  1.6392  1.7003 -0.0909
 2218SOL     OW18115   0.536   0.304   1.458 -0.0592 -0.0925  0.1782
 2218SOL    HW118116   0.541   0.251   1.537 -1.0546 -0.7058 -0.1766
 2218SOL    HW218117   0.604   0.372   1.463  0.0823 -0.2307  0.1315
 2219SOL     OW18118   2.724   1.462  16.739  0.0004 -0.2503  0.2370
 2219SOL    HW118119   2.682   1.547  16.749 -3.3868 -1.9695  0.4826
 2219SOL    HW218120   2.808   1.486  16.699  0.6802 -0.9153  1.2443
 2220SOL     OW18121   2.144   0.929   9.404 -0.3585  0.3230  0.1890
 2220SOL    HW118122   2.176   1.019   9.407  0.3805  0.0417  0.5229
 2220SOL    HW218123   2.164   0.910   9.495  0.3234  0.8008  0.1367
 2221SOL     OW18124   4.226   1.251   8.108  0.0486 -0.4087  0.0976
 2221SOL    HW118125   4.289   1.322   8.123  0.0327 -0.7071  1.5660
 2221SOL    HW218126   4.218   1.258   8.012 -0.8290  0.0170  0.1966
 2222SOL     OW18127   1.539   3.628   4.076  0.7272 -0.2155 -0.0521
 2222SOL    HW118128   1.490   3.704   4.109  1.8151  1.2556 -1.7842
 2222SOL    HW218129   1.563   3.665   3.991  1.0467  1.0700  0.5957
 2223SOL     OW18130   0.258   0.476  16.273 -0.1437 -0.3117  0.2754
 2223SOL    HW118131   0.266   0.549  16.212 -0.7400  1.5273  2.4054
 2223SOL    HW218132   0.290   0.513  16.355 -0.8664 -1.1430  0.9406
 2224SOL     OW18133   0.821   2.984   0.548 -0.7060 -0.2035 -0.7799
 2224SOL    HW118134   0.884   2.919   0.516  2.0743  0.6321  3.0772
 2224SOL    HW218135   0.738   2.966   0.503  0.1132 -0.1695 -2.3240
 2225SOL     OW18136   4.150   0.018   2.685  0.0871 -0.1454 -0.1058
 2225SOL    HW118137   4.080   4.677   2.690 -1.5721  1.6543  0.2449
 2225SOL    HW218138   4.171   0.018   2.779 -0.7353  1.1240  0.0892
 2226SOL     OW18139   3.333   4.312   0.298  0.2809  0.4487 -0.3486
 2226SOL    HW118140   3.243   4.284   0.318 -0.4165  1.7989 -1.6585
 2226SOL    HW218141   3.364   4.238   0.246  0.4902 -0.6183  1.2918
 2227SOL     OW18142   1.142   4.398   5.003  0.3977  0.3327  0.4233
 2227SOL    HW118143   1.059   4.439   4.980  0.2918  1.1320  2.2546
 2227SOL    HW218144   1.123   4.360   5.089 -2.4094  1.4215  0.2815
 2228SOL     OW18145   0.497   0.165   2.655 -0.6115 -0.1689 -0.6193
 2228SOL    HW118146   0.494   0.105   2.581 -0.2332 -1.4201  0.3865
 2228SOL    HW218147   0.432   0.126   2.713  0.8642 -2.6443 -0.6546
 2229SOL     OW18148   3.818   3.410   8.830 -0.1484  0.1348 -0.3617
 2229SOL    HW118149   3.872   3.374   8.901 -1.8831 -0.8678  0.4323
 2229SOL    HW218150   3.753   3.453   8.885  0.4111  0.3784  0.1073
 2230SOL     OW18151   3.363   3.246  16.227 -0.3108  0.9944  0.0768
 2230SOL    HW118152   3.388   3.284  16.312 -0.2824 -0.6223  0.7896
 2230SOL    HW218153   3.373   3.322  16.169 -0.9810  1.5464  0.6822
 2231SOL     OW18154   3.194   2.618   6.510  0.3222 -0.5336 -0.3646
 2231SOL    HW118155   3.210   2.579   6.596  0.0589  0.5802  0.1900
 2231SOL    HW218156   3.113   2.670   6.517  0.6710 -0.2158  1.4616
 2232SOL     OW18157   3.550   2.040   1.188  0.2535  0.4725 -0.1355
 2232SOL    HW118158   3.641   2.045   1.217 -0.2004 -0.6752  1.4458
 2232SOL    HW218159   3.508   2.103   1.247 -1.6447  0.5915 -1.5747
 2233SOL     OW18160   4.353   1.030  14.107 -0.2029  0.0725  0.0293
 2233SOL    HW118161   4.445   1.055  14.095 -0.3318  0.5330  0.0032
 2233SOL    HW218162   4.313   1.116  14.109 -1.6863 -0.6214  0.4203
 2234SOL     OW18163   4.685   1.584   6.511 -0.1173  0.2748  0.3062
 2234SOL    HW118164   4.637   1.598   6.592  0.9201 -1.0212  1.1393
 2234SOL    HW218165   4.698   1.490   6.516 -1.7691 -0.0680 -1.7145
 2235SOL     OW18166   0.271   1.756  15.163  0.2387 -0.7814  0.1082
 2235SOL    HW118167   0.206   1.724  15.100 -1.6296  2.1844  0.5398
 2235SOL    HW218168   0.223   1.741  15.244  2.1844  2.8852  1.9605
 2236SOL     OW18169   1.746   2.424  11.662  0.2642 -0.5933 -0.4581
 2236SOL    HW118170   1.670   2.481  11.676 -0.4626 -1.3443 -1.3144
 2236SOL    HW218171   1.801   2.478  11.605 -0.2916  0.2387 -0.2003
 2237SOL     OW18172   2.513   3.538   5.795  0.1139  0.3690  0.3859
 2237SOL    HW118173   2.464   3.498   5.867  0.4362  2.2908  1.6671
 2237SOL    HW218174   2.597   3.566   5.831  0.4987 -1.3970  0.8489
 2238SOL     OW18175   1.874   4.517  10.111  0.1030 -0.1580  0.0589
 2238SOL    HW118176   1.861   4.519  10.206  0.7239  0.9301  0.1244
 2238SOL    HW218177   1.955   4.468  10.101  1.0971  1.1729  1.4641
 2239SOL     OW18178   0.314   0.863   1.400 -0.3083 -0.0567  0.7709
 2239SOL    HW118179   0.398   0.850   1.357  0.7030  2.4456  1.9951
 2239SOL    HW218180   0.295   0.772   1.424  1.4673 -1.2059 -2.2032
 2240SOL     OW18181   2.477   2.096   1.973 -0.4286  0.4482  0.0410
 2240SOL    HW118182   2.424   2.175   1.980  1.6776  1.8071  0.7030
 2240SOL    HW218183   2.547   2.119   1.911  0.2307  1.6742  1.2489
 2241SOL     OW18184   2.190   0.829  17.200  0.0645 -0.1161  0.1710
 2241SOL    HW118185   2.190   0.825  17.105  1.7045  1.7381  0.1070
 2241SOL    HW218186   2.099   0.804  17.220 -0.4367  4.6413  3.7402
 2242SOL     OW18187   0.131   0.210   4.445  0.1155 -0.0176 -0.0467
 2242SOL    HW118188   0.129   0.205   4.540 -0.4580  1.4214  0.0157
 2242SOL    HW218189   0.205   0.267   4.422 -0.9036  1.9272  1.4791
 2243SOL     OW18190   2.860   2.587  13.193  0.4432 -0.4915  0.1127
 2243SOL    HW118191   2.943   2.593  13.146  0.1036 -2.4830 -0.7014
 2243SOL    HW218192   2.819   2.674  13.193 -0.9524 -1.1572 -2.1479
 2244SOL     OW18193   2.513   3.799   6.133 -0.0790  0.4339  0.5100
 2244SOL    HW118194   2.491   3.709   6.158  0.8619  0.3380  0.9905
 2244SOL    HW218195   2.427   3.839   6.150  0.1955  0.8168  1.0137
 2245SOL     OW18196   3.168   4.222  13.605 -0.3655 -0.4080 -0.4224
 2245SOL    HW118197   3.096   4.198  13.547  0.1962 -1.3768 -0.7269
 2245SOL    HW218198   3.241   4.189  13.552  0.3918 -0.3817  0.6022
 2246SOL     OW18199   1.464   1.291   3.713  0.2788  0.4601  0.2678
 2246SOL    HW118200   1.415   1.283   3.631  0.5593  1.1747  0.0319
 2246SOL    HW218201   1.484   1.384   3.707 -0.0924  0.4379 -1.3606
 2247SOL     OW18202   3.713   0.221   9.455  0.0985 -0.2948 -0.8260
 2247SOL    HW118203   3.794   0.249   9.496 -0.0320 -2.4081  0.8831
 2247SOL    HW218204   3.730   0.129   9.433 -3.1377 -1.3150  0.8617
 2248SOL     OW18205   3.467   3.504  14.605 -0.6803  0.2948 -0.1911
 2248SOL    HW118206   3.489   3.582  14.655 -1.9796 -0.1903  1.1404
 2248SOL    HW218207   3.550   3.460  14.621 -1.2114 -0.8192 -0.4524
 2249SOL     OW18208   3.287   4.669   8.255 -0.0274 -0.4223 -0.4980
 2249SOL    HW118209   3.368   4.714   8.276 -1.2631  0.2845  2.7766
 2249SOL    HW218210   3.238   0.011   8.207 -0.6259  0.0407  0.7500
 2250SOL     OW18211   4.705   2.433   8.092  0.6674  0.1263 -0.0945
 2250SOL    HW118212   4.723   2.418   8.185 -0.8521  0.4236  0.2446
 2250SOL    HW218213   4.719   2.345   8.057  0.7991 -0.5712  1.7284
 2251SOL     OW18214   2.623   2.010   2.892  0.2155  0.7033  0.4964
 2251SOL    HW118215   2.653   1.919   2.901 -2.3577  0.1083  2.8030
 2251SOL    HW218216   2.580   2.013   2.977  0.4909  1.5216  0.6030
 2252SOL     OW18217   0.482   3.162   8.344  0.0994  0.0141  0.4004
 2252SOL    HW118218   0.574   3.184   8.328 -0.0289 -1.4172 -2.3023
 2252SOL    HW218219   0.487   3.161   8.440 -0.6725 -2.1916  0.4096
 2253SOL     OW18220   4.544   3.479   4.131 -0.7771 -0.3814  0.2905
 2253SOL    HW118221   4.465   3.517   4.171 -0.6654 -0.4642  0.5881
 2253SOL    HW218222   4.537   3.503   4.038 -1.5981 -1.9320 -0.0453
 2254SOL     OW18223   3.241   2.212   7.420  0.2312 -0.3803  0.1327
 2254SOL    HW118224   3.270   2.143   7.480  2.3166  0.7303  0.3716
 2254SOL    HW218225   3.220   2.285   7.478 -0.2237  1.5601 -2.5216
 2255SOL     OW18226   2.342   3.116  15.447  0.2754 -0.8304  0.4193
 2255SOL    HW118227   2.390   3.199  15.448  1.2678 -1.3936 -0.4282
 2255SOL    HW218228   2.281   3.123  15.374  1.1248 -1.5180 -0.3581
 2256SOL     OW18229   3.256   4.136  10.541  0.6259  0.1244  0.0164
 2256SOL    HW118230   3.246   4.041  10.532 -0.9542  0.4152 -1.3287
 2256SOL    HW218231   3.295   4.157  10.456  2.9032 -0.0833  1.0152
 2257SOL     OW18232   4.006   2.654   1.104 -0.1098 -0.0956  0.3249
 2257SOL    HW118233   4.060   2.718   1.150 -2.1628  1.5150  0.4706
 2257SOL    HW218234   3.977   2.605   1.180  0.7118 -1.4246 -0.2193
 2258SOL     OW18235   2.676   4.190  14.652 -0.4516 -0.0060 -0.4843
 2258SOL    HW118236   2.587   4.162  14.674 -0.6280  0.1243 -1.0369
 2258SOL    HW218237   2.706   4.131  14.583 -0.3362 -0.7373  0.1839
 2259SOL     OW18238   2.781   0.024   5.330  0.6316  0.4466  0.0831
 2259SOL    HW118239   2.825   0.009   5.414 -1.7154 -0.4722  1.1625
 2259SOL    HW218240   2.694   4.710   5.332  0.8024  0.0234 -0.6146
 2260SOL     OW18241   2.708   1.347   4.138  0.2617 -0.2802 -0.0769
 2260SOL    HW118242   2.759   1.285   4.086  1.4951  0.6015  0.1003
 2260SOL    HW218243   2.754   1.427   4.114  1.3919 -0.4156  1.6963
 2261SOL     OW18244   3.999   4.645  15.835 -0.3430  0.2840 -0.3493
 2261SOL    HW118245   4.014   0.003  15.881  0.6572 -0.8417  1.3348
 2261SOL    HW218246   3.925   4.670  15.780  0.7430  1.0406 -1.4743
 2262SOL     OW18247   0.049   0.839   3.766 -0.0184  0.6475 -1.1307
 2262SOL    HW118248   4.704   0.901   3.741  1.0510  2.0802 -0.5278
 2262SOL    HW218249   0.029   0.828   3.859 -2.2530  1.4052 -1.5295
 2263SOL     OW18250   2.760   1.279   8.583  0.5385 -0.0773 -0.3228
 2263SOL    HW118251   2.776   1.186   8.567 -0.0454  0.1155 -2.0388
 2263SOL    HW218252   2.849   1.310   8.570  0.2713  1.0936  0.7474
 2264SOL     OW18253   0.636   2.479   4.770 -0.1742 -0.0656 -0.2060
 2264SOL    HW118254   0.604   2.549   4.826  1.7600  0.9961 -0.4216
 2264SOL    HW218255   0.551   2.443   4.746  1.1965 -2.7380 -1.1638
 2265SOL     OW18256   0.725   4.650   2.749  0.0634  0.8098 -0.3710
 2265SOL    HW118257   0.646   4.672   2.797 -0.3580 -1.2992 -0.0727
 2265SOL    HW218258   0.721   4.680   2.658 -2.7859 -1.8172 -1.1268
 2266SOL     OW18259   2.851   3.354  11.081  0.4072  0.4923  0.2260
 2266SOL    HW118260   2.914   3.337  11.011 -1.8073  2.2024 -2.1679
 2266SOL    HW218261   2.912   3.376  11.151  1.9738  0.6074 -1.1767
 2267SOL     OW18262   4.519   2.131   2.708  0.0860  0.3305  0.0136
 2267SOL    HW118263   4.541   2.054   2.761  1.0029 -0.7486 -1.9396
 2267SOL    HW218264   4.436   2.106   2.668  0.8100 -1.8361 -0.1159
 2268SOL     OW18265   3.796   4.387  14.395  0.3964 -0.0447  0.6082
 2268SOL    HW118266   3.733   4.405  14.325  0.6575 -1.2872  0.0521
 2268SOL    HW218267   3.743   4.403  14.473  1.2962  1.1627  0.9703
 2269SOL     OW18268   0.069   0.938   5.559 -0.1175 -0.3724 -0.1773
 2269SOL    HW118269   0.051   0.989   5.480  0.8905  0.7119  0.2937
 2269SOL    HW218270   0.158   0.967   5.578 -0.0115 -0.0628 -1.1948
 2270SOL     OW18271   2.420   2.837   0.978 -0.0860 -0.0174 -0.4428
 2270SOL    HW118272   2.510   2.820   1.005 -0.2002  0.7868  0.4464
 2270SOL    HW218273   2.438   2.880   0.894  0.3932  0.5782 -0.0378
 2271SOL     OW18274   3.661   4.449   1.476 -0.1020  0.5902 -0.3022
 2271SOL    HW118275   3.685   4.482   1.563  1.3472  0.3493 -0.6122
 2271SOL    HW218276   3.670   4.355   1.495 -1.5199  0.4617 -0.2719
 2272SOL     OW18277   1.171   0.198   2.262  0.2295  0.0517 -0.2176
 2272SOL    HW118278   1.234   0.233   2.325  2.8741 -2.0394 -1.7158
 2272SOL    HW218279   1.165   0.110   2.298  3.7003 -0.0725  0.0917
 2273SOL     OW18280   3.264   2.030   5.530 -0.3984 -0.3637 -0.4406
 2273SOL    HW118281   3.190   2.050   5.473 -1.7092  0.4232  1.5249
 2273SOL    HW218282   3.315   2.109   5.512  0.0085 -0.7247 -0.8745
 2274SOL     OW18283   2.120   0.305   6.438 -0.7783 -0.1377  0.1472
 2274SOL    HW118284   2.035   0.348   6.449 -0.7944 -0.1956  0.2537
 2274SOL    HW218285   2.171   0.380   6.407 -0.2102 -0.7110 -0.2902
 2275SOL     OW18286   0.336   1.875   9.591  0.0305  0.2666 -0.0207
 2275SOL    HW118287   0.344   1.882   9.686 -0.3463  0.8424 -0.0286
 2275SOL    HW218288   0.316   1.962   9.558 -1.1902 -0.7006 -1.8625
 2276SOL     OW18289   0.737   3.071   8.948  0.9543  0.2080 -0.0384
 2276SOL    HW118290   0.661   3.025   8.912  0.4453  1.0637 -0.0524
 2276SOL    HW218291   0.719   3.083   9.041  1.3970 -1.5084  0.2706
 2277SOL     OW18292   0.797   3.611   7.014 -0.1951 -0.2918 -0.2658
 2277SOL    HW118293   0.702   3.600   7.010 -0.3246  1.0931 -0.8790
 2277SOL    HW218294   0.805   3.647   7.102 -1.0897 -0.1086 -0.2617
 2278SOL     OW18295   0.505   3.199   8.624 -0.0488 -0.0269  0.0720
 2278SOL    HW118296   0.499   3.292   8.601  2.2872 -0.3917 -1.9852
 2278SOL    HW218297   0.601   3.197   8.629 -0.0127 -0.5729 -0.8883
 2279SOL     OW18298   0.862   3.722  11.890  0.4042  0.0876  0.5471
 2279SOL    HW118299   0.926   3.697  11.956  0.3720 -1.1566  0.1218
 2279SOL    HW218300   0.881   3.653  11.827  0.1333 -0.0543  0.6176
 2280SOL     OW18301   1.123   0.195   3.695  0.2033 -0.3885 -0.3650
 2280SOL    HW118302   1.214   0.170   3.678  0.4037  1.7104 -2.2664
 2280SOL    HW218303   1.082   0.110   3.710  1.5161 -0.9676  0.0286
 2281SOL     OW18304   0.336   0.830   4.610 -0.5210 -0.4790  0.6632
 2281SOL    HW118305   0.264   0.841   4.548 -0.0747  0.1697  0.2716
 2281SOL    HW218306   0.394   0.761   4.579  0.7095  0.6661  0.4322
 2282SOL     OW18307   1.795   2.782   4.889 -0.8512  0.6601  0.3683
 2282SOL    HW118308   1.762   2.788   4.979 -0.3411 -2.9969  0.7920
 2282SOL    HW218309   1.732   2.844   4.852  0.9698  0.8923 -2.3194
 2283SOL     OW18310   2.424   1.162  10.021  0.3426 -0.3980  0.1589
 2283SOL    HW118311   2.416   1.082  10.073 -2.1383 -1.0334 -1.1939
 2283SOL    HW218312   2.481   1.131   9.951  1.2041 -0.3137  0.8269
 2284SOL     OW18313   0.571   3.942   6.825 -0.1481 -0.1900 -0.2429
 2284SOL    HW118314   0.480   3.920   6.845 -0.4107  0.5294 -0.6334
 2284SOL    HW218315   0.615   3.945   6.910 -0.2043  2.2913 -0.2839
 2285SOL     OW18316   0.077   0.285   6.462  0.2886  0.2237  0.0180
 2285SOL    HW118317   4.718   0.316   6.426  0.4101  0.6525  0.1057
 2285SOL    HW218318   0.142   0.305   6.394 -0.7704  0.1438 -1.0303
 2286SOL     OW18319   0.445   2.244  14.031 -0.1812  0.7200 -0.1962
 2286SOL    HW118320   0.443   2.217  14.123  0.3022 -0.3487 -0.4959
 2286SOL    HW218321   0.405   2.172  13.982  2.2007 -1.3713  0.8823
 2287SOL     OW18322   0.750   1.511   2.477 -0.3379  0.0884 -0.9763
 2287SOL    HW118323   0.704   1.476   2.401 -1.1191  0.4429 -0.6630
 2287SOL    HW218324   0.783   1.591   2.437 -0.5725  1.3922  1.4207
 2288SOL     OW18325   2.680   4.317   8.032  0.3718 -0.0636 -0.3759
 2288SOL    HW118326   2.597   4.274   8.051 -0.0805  0.6069 -0.8591
 2288SOL    HW218327   2.670   4.396   8.085  0.1189 -0.2760 -0.1096
 2289SOL     OW18328   0.304   1.304   1.412 -0.3990 -0.9966  0.2155
 2289SOL    HW118329   0.360   1.255   1.352 -1.8138 -3.3048  0.7848
 2289SOL    HW218330   0.278   1.364   1.343 -0.9529 -2.8561 -1.2115
 2290SOL     OW18331   0.312   3.943   0.581 -0.2256  0.5532 -0.1163
 2290SOL    HW118332   0.313   3.895   0.498  2.9435 -2.1804  1.5014
 2290SOL    HW218333   0.221   3.942   0.611  0.4746 -0.4566  1.9778
 2291SOL     OW18334   4.153   3.789   4.332  0.1355 -0.3023  0.0521
 2291SOL    HW118335   4.208   3.866   4.349 -3.7196  2.2518  0.9526
 2291SOL    HW218336   4.071   3.824   4.295  0.0979  0.5819  0.9806
 2292SOL     OW18337   1.386   1.158   6.722  0.3175 -0.1297  0.2327
 2292SOL    HW118338   1.366   1.149   6.816 -1.2928 -1.2105 -0.1913
 2292SOL    HW218339   1.321   1.098   6.685  0.1879 -1.6673  2.8995
 2293SOL     OW18340   4.563   1.344   5.036  0.4938  0.4788 -0.2321
 2293SOL    HW118341   4.583   1.308   4.950  0.5705  2.8224 -1.1990
 2293SOL    HW218342   4.540   1.261   5.078 -0.8639  0.9407 -0.0477
 2294SOL     OW18343   0.370   3.203  11.136 -0.1899 -0.6430 -0.2410
 2294SOL    HW118344   0.299   3.200  11.073 -0.4435  0.0243  0.0111
 2294SOL    HW218345   0.367   3.299  11.137 -0.3747 -0.6457 -1.0936
 2295SOL     OW18346   0.464   0.747   2.006 -0.4128 -0.9545 -0.3114
 2295SOL    HW118347   0.387   0.802   2.018 -1.6514 -2.6511 -0.4540
 2295SOL    HW218348   0.477   0.778   1.916  2.2933 -1.6198 -0.1610
 2296SOL     OW18349   1.148   3.585   5.491  0.0605 -0.2452  0.1385
 2296SOL    HW118350   1.193   3.515   5.539  0.9639 -0.1072 -0.5129
 2296SOL    HW218351   1.092   3.527   5.439  0.9110 -0.1495 -0.8723
 2297SOL     OW18352   0.896   4.354   2.686  0.0591 -0.7102  0.0834
 2297SOL    HW118353   0.842   4.414   2.738 -0.4959 -1.7369  0.6965
 2297SOL    HW218354   0.832   4.297   2.642  0.4127 -1.8449  1.0419
 2298SOL     OW18355   1.033   0.837   5.080 -0.0933  0.4398 -0.1321
 2298SOL    HW118356   1.115   0.870   5.118 -0.6321  1.3322  0.2643
 2298SOL    HW218357   1.065   0.777   5.012  0.0052  0.5617 -0.1941
 2299SOL     OW18358   0.496   4.298   3.359  0.1010  0.2960 -0.0490
 2299SOL    HW118359   0.451   4.350   3.426 -0.2503  0.5774 -0.5013
 2299SOL    HW218360   0.584   4.294   3.396 -1.0812 -3.4468  2.3061
 2300SOL     OW18361   3.704   2.913   5.552 -0.0652 -0.0434 -0.0828
 2300SOL    HW118362   3.724   2.938   5.642  3.4109  0.7099 -1.0929
 2300SOL    HW218363   3.645   2.838   5.568  0.9856 -0.7082  0.6305
 2301SOL     OW18364   1.862   3.149   0.014  0.0543  0.4487 -0.2161
 2301SOL    HW118365   1.893   3.149   0.104 -0.8299  0.0429  0.0953
 2301SOL    HW218366   1.925   3.211  17.676  0.7057 -0.1179 -0.0581
 2302SOL     OW18367   3.046   2.529   4.671 -1.2742 -0.1047  0.1427
 2302SOL    HW118368   3.078   2.457   4.617  0.5726  0.2684  0.7643
 2302SOL    HW218369   3.092   2.514   4.753 -1.3122 -1.1718 -0.0307
 2303SOL     OW18370   2.680   2.687   8.901 -0.2498 -0.1874  0.0120
 2303SOL    HW118371   2.656   2.595   8.900  0.3868 -0.3493 -0.6042
 2303SOL    HW218372   2.633   2.704   8.819 -0.2265  1.2014  0.2742
 2304SOL     OW18373   1.146   4.689   2.413  0.0958  0.2387  0.1555
 2304SOL    HW118374   1.149   4.595   2.433  1.4764 -0.4828 -3.2965
 2304SOL    HW218375   1.116   4.720   2.498  0.7035  3.9874 -1.0079
 2305SOL     OW18376   1.684   2.654   2.257  0.3051  0.2502 -0.2223
 2305SOL    HW118377   1.606   2.600   2.272  0.5727 -0.0708  0.0169
 2305SOL    HW218378   1.743   2.579   2.245  1.6594  1.2355  0.2617
 2306SOL     OW18379   2.501   0.487   3.998  0.3619  0.0869 -0.3296
 2306SOL    HW118380   2.501   0.576   4.031 -0.9053  0.6007 -1.6952
 2306SOL    HW218381   2.491   0.509   3.905 -2.3040  1.2849  0.2458
 2307SOL     OW18382   1.393   1.524   5.508  0.4462  0.0715  0.1372
 2307SOL    HW118383   1.482   1.558   5.519  1.2541 -1.5031 -1.6581
 2307SOL    HW218384   1.412   1.432   5.525  1.6424  0.2156 -0.3843
 2308SOL     OW18385   0.225   3.852   4.235 -1.0764  0.8219  0.2706
 2308SOL    HW118386   0.253   3.762   4.251 -0.7997  1.2411  2.1449
 2308SOL    HW218387   0.148   3.841   4.179 -1.7929  0.4850  1.3245
 2309SOL     OW18388   4.234   1.929  13.301 -0.4569 -0.4281  0.3729
 2309SOL    HW118389   4.313   1.932  13.247 -2.0250  0.6517 -1.8304
 2309SOL    HW218390   4.177   1.902  13.229 -1.4617  1.8754  0.2983
 2310SOL     OW18391   1.211   3.705   8.258  0.6219 -0.0558 -0.0014
 2310SOL    HW118392   1.237   3.667   8.174  1.0400 -0.6874  0.4127
 2310SOL    HW218393   1.238   3.796   8.246  1.5178 -0.2572  0.5109
 2311SOL     OW18394   3.713   3.861   8.338  0.2670 -0.7891  0.5077
 2311SOL    HW118395   3.702   3.766   8.330  0.6110 -0.5502 -2.5110
 2311SOL    HW218396   3.786   3.862   8.401  0.7579 -0.5705 -0.0641
 2312SOL     OW18397   1.643   1.560   8.157  0.0176 -0.0154 -0.3089
 2312SOL    HW118398   1.550   1.564   8.135  0.0354  2.1513  0.0474
 2312SOL    HW218399   1.678   1.593   8.075  2.2028 -1.3679  0.0937
 2313SOL     OW18400   2.823   1.969   8.550  0.3861  0.0695 -0.2953
 2313SOL    HW118401   2.781   1.968   8.637  1.2246 -0.4572  0.1063
 2313SOL    HW218402   2.870   1.886   8.561 -3.3160 -1.8061  1.6185
 2314SOL     OW18403   2.360   0.818   7.327  0.0890 -0.3522 -0.3780
 2314SOL    HW118404   2.321   0.749   7.381  0.4163  0.2839  0.6867
 2314SOL    HW218405   2.305   0.821   7.249 -0.6961 -0.9366  0.1518
 2315SOL     OW18406   1.345   2.904  14.950 -0.3837  0.5075  0.4656
 2315SOL    HW118407   1.317   2.995  14.946 -2.3587 -0.0701  1.4786
 2315SOL    HW218408   1.377   2.890  14.861 -2.4657 -0.0901 -0.1742
 2316SOL     OW18409   2.175   2.259  14.903  0.6149  0.2468 -0.0120
 2316SOL    HW118410   2.125   2.340  14.887 -1.4489 -0.9590  0.3546
 2316SOL    HW218411   2.119   2.197  14.948  0.6072 -1.4683 -2.3919
 2317SOL     OW18412   0.413   1.729   6.638  0.2542  0.5363  0.4597
 2317SOL    HW118413   0.381   1.639   6.626  2.4990 -0.2531  0.4035
 2317SOL    HW218414   0.339   1.760   6.585  1.1730 -1.3357 -1.9476
 2318SOL     OW18415   0.013   0.756  12.276  0.1622 -0.3476  0.1147
 2318SOL    HW118416   4.660   0.760  12.332 -0.3602  1.6452 -0.7590
 2318SOL    HW218417   4.707   0.801  12.197  0.9464 -0.8593 -0.4749
 2319SOL     OW18418   0.831   3.877   4.285 -0.1116  0.4648  0.6022
 2319SOL    HW118419   0.853   3.897   4.376 -0.8346  1.6357  0.5201
 2319SOL    HW218420   0.739   3.904   4.283  0.3883  2.0372 -1.1522
 2320SOL     OW18421   0.400   1.488  10.524 -0.6487  0.2159  0.0754
 2320SOL    HW118422   0.465   1.490  10.454 -0.2934  2.5099  0.4599
 2320SOL    HW218423   0.451   1.537  10.589 -0.5047  0.3835 -0.1650
 2321SOL     OW18424   1.219   2.795   7.477  0.3000 -0.0299  0.2437
 2321SOL    HW118425   1.310   2.765   7.468  0.0515  0.0997 -2.9793
 2321SOL    HW218426   1.179   2.722   7.523 -2.5006  2.4203  1.6573
 2322SOL     OW18427   2.733   1.985  10.887  0.3029 -0.7501  0.0817
 2322SOL    HW118428   2.814   1.994  10.938 -1.6671 -1.6635  3.3370
 2322SOL    HW218429   2.666   1.971  10.954  0.0532  0.9092  0.1798
 2323SOL     OW18430   2.014   2.991  12.718  0.4400 -0.3295  0.2267
 2323SOL    HW118431   1.990   2.901  12.742  2.0945 -1.0859 -0.9879
 2323SOL    HW218432   2.108   2.977  12.712  0.1568 -2.2104  0.1841
 2324SOL     OW18433   2.524   3.939  13.122 -0.2708 -0.0886 -0.5325
 2324SOL    HW118434   2.550   4.031  13.119 -1.9073  0.3917  0.0916
 2324SOL    HW218435   2.449   3.942  13.181  0.0264 -0.9513 -0.1177
 2325SOL     OW18436   4.210   0.428   5.926 -0.7388 -0.0975  0.6246
 2325SOL    HW118437   4.143   0.445   5.860 -0.5183 -1.3140  0.0980
 2325SOL    HW218438   4.290   0.471   5.893 -0.5669 -2.1461 -1.6121
 2326SOL     OW18439   3.448   3.568   4.938 -0.2855  0.2835 -0.3546
 2326SOL    HW118440   3.459   3.601   5.027  0.9217  1.2255 -0.8593
 2326SOL    HW218441   3.520   3.610   4.891  1.1540 -0.9868  0.6945
 2327SOL     OW18442   2.947   0.673  14.053 -0.0080  0.0281 -0.3194
 2327SOL    HW118443   2.858   0.671  14.087  0.8276  0.1780  1.8696
 2327SOL    HW218444   2.974   0.765  14.061  1.6913 -0.7552  2.6557
 2328SOL     OW18445   3.273   1.980   6.360  0.5934 -0.2336  0.3075
 2328SOL    HW118446   3.339   1.916   6.388 -1.0203 -1.8066  0.4896
 2328SOL    HW218447   3.195   1.974   6.415 -1.2898  0.5449 -2.2857
 2329SOL     OW18448   0.198   0.077   8.541  0.1709 -0.6100  0.0538
 2329SOL    HW118449   0.248   0.042   8.615  0.6742  0.6694  0.3291
 2329SOL    HW218450   0.248   0.152   8.507  0.7787 -0.2559  1.7102
 2330SOL     OW18451   3.345   4.218  11.873 -1.1366  0.1866 -0.0012
 2330SOL    HW118452   3.398   4.139  11.874 -1.2585  0.1264  1.8852
 2330SOL    HW218453   3.372   4.260  11.955 -0.7002 -1.4108  0.6754
 2331SOL     OW18454   4.712   4.600   8.531 -0.3126 -0.7033 -0.4829
 2331SOL    HW118455   0.052   4.671   8.523 -0.1838 -0.8820 -1.0626
 2331SOL    HW218456   4.643   4.647   8.484  0.8663  0.4435 -1.1184
 2332SOL     OW18457   3.544   0.989  17.414  1.6589 -0.7751  0.5035
 2332SOL    HW118458   3.603   1.061  17.389  0.3830 -0.7536 -2.4468
 2332SOL    HW218459   3.571   0.925  17.349 -0.5003 -0.9820 -0.1729
 2333SOL     OW18460   4.584   0.340   6.299  0.1974  0.3269 -0.1956
 2333SOL    HW118461   4.600   0.434   6.301 -0.7719  0.4784  0.5471
 2333SOL    HW218462   4.493   0.347   6.269 -0.4660  0.9172  1.9212
 2334SOL     OW18463   4.136   3.945   7.204 -0.7567  0.1100 -0.5300
 2334SOL    HW118464   4.222   3.977   7.177 -0.9143 -0.7971 -2.0418
 2334SOL    HW218465   4.084   3.998   7.144 -1.6809 -1.4463 -1.1071
 2335SOL     OW18466   1.409   4.540   3.466  0.2139  0.9026  0.0316
 2335SOL    HW118467   1.458   4.514   3.388  0.6172  0.3770  0.4626
 2335SOL    HW218468   1.477   4.591   3.510  2.8914 -2.7143  0.0967
 2336SOL     OW18469   1.171   1.962   6.891  0.2646  0.2482  0.0200
 2336SOL    HW118470   1.183   1.973   6.796  1.4324  4.2002  0.6609
 2336SOL    HW218471   1.096   2.020   6.902 -0.1332  0.4286 -3.6096
 2337SOL     OW18472   0.041   1.493   8.779  0.0848  0.0592  0.4942
 2337SOL    HW118473   0.112   1.461   8.723  1.6148 -0.5577  2.8008
 2337SOL    HW218474   0.072   1.583   8.787  1.3303 -0.4918  1.9270
 2338SOL     OW18475   1.553   1.672   2.646 -0.3941  0.1764 -0.0850
 2338SOL    HW118476   1.640   1.697   2.613 -0.2387  1.3443  1.1976
 2338SOL    HW218477   1.502   1.750   2.625 -0.8297 -0.8938 -2.9278
 2339SOL     OW18478   4.639   4.061   4.185  0.1269  0.0567  0.3596
 2339SOL    HW118479   4.707   4.128   4.187  0.8825 -0.7097  0.3684
 2339SOL    HW218480   4.687   4.001   4.127 -1.6967 -0.7562 -0.3307
 2340SOL     OW18481   0.605   1.600   4.755 -0.5005  0.0334 -0.1452
 2340SOL    HW118482   0.657   1.546   4.815 -1.4898  1.0818  1.6655
 2340SOL    HW218483   0.670   1.619   4.687  1.3923 -1.6890  1.1951
 2341SOL     OW18484   2.680   4.483  17.475 -0.2189  0.2132 -0.4465
 2341SOL    HW118485   2.623   4.495  17.551  0.7885  0.5790  0.2481
 2341SOL    HW218486   2.634   4.413  17.430  1.5295 -1.1386 -0.1163
 2342SOL     OW18487   0.911   2.726  15.022  0.4338  0.0365 -0.2160
 2342SOL    HW118488   0.867   2.801  14.982 -1.6317 -0.8258  0.4307
 2342SOL    HW218489   0.926   2.679  14.940 -2.0398 -1.4138  0.1615
 2343SOL     OW18490   3.778   3.953   6.680  0.3336  0.5210  0.1231
 2343SOL    HW118491   3.785   3.920   6.591 -1.6053  2.1150 -0.6295
 2343SOL    HW218492   3.781   4.044   6.651  0.8027  0.6647  0.6278
 2344SOL     OW18493   3.649   1.022  12.826  0.0257 -0.2073  0.7911
 2344SOL    HW118494   3.631   0.948  12.883 -2.1421 -0.9421 -0.8258
 2344SOL    HW218495   3.744   1.032  12.838 -0.1027  2.2588 -0.2426
 2345SOL     OW18496   1.074   0.051   8.779  0.2970 -0.2757 -0.1496
 2345SOL    HW118497   1.070   0.044   8.684 -0.6704 -1.2009 -0.0333
 2345SOL    HW218498   1.006   0.115   8.800 -0.0913 -1.0865  1.0425
 2346SOL     OW18499   0.222   4.616  10.927  0.7285  0.5536  0.1073
 2346SOL    HW118500   0.204   4.614  10.832 -3.4668  1.7658  0.8712
 2346SOL    HW218501   0.135   4.617  10.967  0.4641 -0.5330 -0.4554
 2347SOL     OW18502   3.686   0.920   4.540 -0.0827 -0.3934 -0.1103
 2347SOL    HW118503   3.643   0.981   4.481  1.9820  0.3619 -0.8476
 2347SOL    HW218504   3.688   0.851   4.474  0.0632 -1.2496  0.7815
 2348SOL     OW18505   4.620   1.876   9.432  0.5677  0.2967  0.3925
 2348SOL    HW118506   4.616   1.947   9.497 -3.1211 -0.0791  0.6030
 2348SOL    HW218507   4.693   1.821   9.458 -0.3055 -0.9352  0.2600
 2349SOL     OW18508   4.639   0.705   3.002  0.1035 -0.3363 -0.2222
 2349SOL    HW118509   4.628   0.610   3.008 -1.1752 -0.1466  0.4852
 2349SOL    HW218510   4.611   0.711   2.910 -1.4027 -2.2423  0.1051
 2350SOL     OW18511   4.155   0.216   7.248 -0.1670 -0.0620 -0.4256
 2350SOL    HW118512   4.230   0.166   7.281  0.8953  1.4212 -0.5828
 2350SOL    HW218513   4.206   0.277   7.195  0.2317  0.7777  0.9356
 2351SOL     OW18514   1.692   3.999   8.378 -0.5489  0.1882  0.3511
 2351SOL    HW118515   1.602   3.988   8.409 -0.4684 -2.5177 -0.3158
 2351SOL    HW218516   1.672   4.059   8.307  1.4070 -1.0816 -1.2949
 2352SOL     OW18517   1.624   2.940   7.443  0.1348  0.0693 -0.4679
 2352SOL    HW118518   1.641   2.966   7.353 -0.3526 -0.5731 -0.7374
 2352SOL    HW218519   1.569   3.011   7.477  1.4781  0.3975  1.0434
 2353SOL     OW18520   2.659   1.604   4.526 -0.0955 -0.0291 -0.6117
 2353SOL    HW118521   2.620   1.588   4.611  0.7811 -0.7767 -0.3504
 2353SOL    HW218522   2.736   1.547   4.528  1.2326  1.8257  1.1568
 2354SOL     OW18523   2.535   1.796   1.326 -0.8756 -0.2101  0.0672
 2354SOL    HW118524   2.500   1.774   1.412 -2.9036 -1.1024 -0.9847
 2354SOL    HW218525   2.628   1.774   1.331 -0.9780 -0.0600  2.5209
 2355SOL     OW18526   1.892   1.340   3.422  0.0558  0.6289 -0.6168
 2355SOL    HW118527   1.929   1.370   3.339 -2.1366  0.9394 -1.4733
 2355SOL    HW218528   1.809   1.387   3.431 -0.1230 -0.3589  2.7216
 2356SOL     OW18529   4.544   0.847   3.555 -0.3466  0.1778  0.2085
 2356SOL    HW118530   4.508   0.935   3.551 -1.2796 -0.2072  0.1486
 2356SOL    HW218531   4.550   0.840   3.460 -0.0040  0.1263  0.2320
 2357SOL     OW18532   3.051   1.950   8.315  0.7348 -0.2744  0.1142
 2357SOL    HW118533   3.121   1.888   8.335  2.0754  1.0907 -0.2788
 2357SOL    HW218534   2.983   1.923   8.376 -2.0289 -1.1414 -3.3650
 2358SOL     OW18535   4.361   3.100   2.418  0.4775  0.6260  0.2285
 2358SOL    HW118536   4.282   3.140   2.453 -0.0068  0.4140 -0.6179
 2358SOL    HW218537   4.415   3.179   2.405 -0.5334  1.7105  2.6195
 2359SOL     OW18538   0.496   0.077  17.634 -0.0715  0.2047 -0.4357
 2359SOL    HW118539   0.494   0.061  17.539 -1.7639  0.0369 -0.3676
 2359SOL    HW218540   0.405   0.050  17.649 -0.9343  1.8952 -2.7204
 2360SOL     OW18541   2.544   4.260   1.786 -0.6669 -0.0518 -0.3793
 2360SOL    HW118542   2.573   4.225   1.871  0.9238  1.2844 -0.4014
 2360SOL    HW218543   2.621   4.277   1.732 -0.4518  1.9387  0.5693
 2361SOL     OW18544   0.094   3.513  10.311 -0.2753  0.2504 -0.4210
 2361SOL    HW118545   0.029   3.445  10.329  1.5001 -1.1420  0.5757
 2361SOL    HW218546   0.173   3.472  10.276 -0.0382 -0.2759  0.7481
 2362SOL     OW18547   3.628   1.582   3.593  0.0828 -0.1291 -0.4547
 2362SOL    HW118548   3.664   1.545   3.512  0.4982 -1.9470  0.5643
 2362SOL    HW218549   3.676   1.528   3.655  2.0849  1.9476 -0.1947
 2363SOL     OW18550   3.835   3.340   0.740  0.5170 -0.4432  0.7033
 2363SOL    HW118551   3.895   3.268   0.724 -2.7514 -2.8321 -0.7542
 2363SOL    HW218552   3.771   3.314   0.674  0.2481  0.2622  0.6837
 2364SOL     OW18553   4.459   1.498   0.772 -0.2498 -0.3637  0.1586
 2364SOL    HW118554   4.443   1.490   0.866  1.0014  2.4268  0.6246
 2364SOL    HW218555   4.540   1.548   0.778 -0.2567 -0.2713 -0.5227
 2365SOL     OW18556   2.882   2.573  15.517 -0.2453  0.0157  0.2251
 2365SOL    HW118557   2.860   2.499  15.574  0.3862 -0.4561 -0.1376
 2365SOL    HW218558   2.949   2.529  15.464  0.0572 -0.6167  1.1178
 2366SOL     OW18559   2.593   4.300   0.058 -0.4204 -0.6421  0.2703
 2366SOL    HW118560   2.524   4.315   0.122 -2.2582  2.1691 -2.3111
 2366SOL    HW218561   2.667   4.342   0.102  0.2140 -1.9876  0.4750
 2367SOL     OW18562   1.496   0.402   4.688 -0.3339 -0.2193  0.1172
 2367SOL    HW118563   1.541   0.317   4.688 -0.4815 -0.2945 -0.9582
 2367SOL    HW218564   1.495   0.420   4.594 -0.5053 -0.4644  0.0723
 2368SOL     OW18565   0.326   3.272   7.046  0.8560  0.3646  0.1745
 2368SOL    HW118566   0.257   3.297   6.984  0.9836 -0.8388 -0.4618
 2368SOL    HW218567   0.399   3.328   7.019  0.0190  1.5294  0.3528
 2369SOL     OW18568   0.169   0.179   6.703 -0.3555  0.3423 -0.1386
 2369SOL    HW118569   0.149   0.229   6.624 -0.9725 -0.1216 -0.2725
 2369SOL    HW218570   0.263   0.188   6.718 -0.4064  0.6160  0.0214
 2370SOL     OW18571   2.033   4.718   5.060 -0.1800 -0.1102 -0.1126
 2370SOL    HW118572   1.961   0.057   5.057  1.1009  1.3038 -0.7423
 2370SOL    HW218573   2.104   0.041   5.017  0.3701 -2.6556 -1.9886
 2371SOL     OW18574   3.856   0.065   6.912  0.3176 -0.3412 -0.3046
 2371SOL    HW118575   3.897   0.057   6.999 -0.2941 -0.7148 -0.0510
 2371SOL    HW218576   3.926   0.113   6.868  0.4589 -0.6359 -0.3987
 2372SOL     OW18577   3.216   3.347  13.652 -0.1604 -0.0355  0.1313
 2372SOL    HW118578   3.187   3.279  13.712 -2.5131  1.0377  0.2127
 2372SOL    HW218579   3.218   3.430  13.701 -1.7136 -0.2327  0.5213
 2373SOL     OW18580   0.357   3.787   0.350 -0.6254 -0.8885 -0.2882
 2373SOL    HW118581   0.427   3.766   0.288 -0.5565 -0.5236 -0.3369
 2373SOL    HW218582   0.286   3.809   0.290  0.1188 -1.2881 -1.3309
 2374SOL     OW18583   3.950   0.684   8.159 -0.4307 -0.7743  0.1219
 2374SOL    HW118584   3.918   0.762   8.205  0.9601 -0.6756  0.9222
 2374SOL    HW218585   3.974   0.726   8.076 -1.7315 -0.7753 -0.2615
 2375SOL     OW18586   2.664   0.542   8.279 -0.2308 -0.2568  0.4911
 2375SOL    HW118587   2.739   0.564   8.335 -0.0976  1.5759 -0.4034
 2375SOL    HW218588   2.588   0.562   8.334  1.3002 -0.6348  2.7598
 2376SOL     OW18589   1.406   0.960   8.625 -0.0535 -0.0493 -0.5210
 2376SOL    HW118590   1.433   0.922   8.709  0.7726  0.4086 -0.5909
 2376SOL    HW218591   1.322   0.918   8.605  0.1775 -1.9906  2.5116
 2377SOL     OW18592   0.833   1.026   8.843 -0.2340 -0.5142 -0.2654
 2377SOL    HW118593   0.770   1.072   8.788 -0.9317 -0.9826  0.1518
 2377SOL    HW218594   0.815   0.944   8.796  1.2849  0.2084 -2.1066
 2378SOL     OW18595   1.255   3.593   7.563 -0.0062  0.4855 -0.2646
 2378SOL    HW118596   1.298   3.560   7.642 -2.1356 -1.5139  0.0454
 2378SOL    HW218597   1.161   3.585   7.578 -0.0289  1.5939  0.1190
 2379SOL     OW18598   2.165   1.325  14.190 -0.0381 -0.2629  0.1272
 2379SOL    HW118599   2.093   1.268  14.218 -1.7467  1.7488 -0.1006
 2379SOL    HW218600   2.245   1.280  14.214 -0.5086 -1.1340  0.0535
 2380SOL     OW18601   4.008   2.966   1.900  0.2364  0.2917 -0.3293
 2380SOL    HW118602   4.092   2.945   1.859  0.0284 -3.2636  1.0779
 2380SOL    HW218603   3.951   2.942   1.827  1.2019 -2.3656 -0.2253
 2381SOL     OW18604   3.075   4.116  16.353  0.5503 -0.6591 -0.7954
 2381SOL    HW118605   2.982   4.112  16.374  0.4881  0.5914 -0.8481
 2381SOL    HW218606   3.116   4.163  16.426  1.2853 -0.0201 -1.6165
 2382SOL     OW18607   3.753   2.859   2.638 -0.0391 -0.4863 -0.4239
 2382SOL    HW118608   3.677   2.830   2.688  0.0566  0.5414  0.3055
 2382SOL    HW218609   3.768   2.779   2.587 -2.1826 -0.7399 -0.6676
 2383SOL     OW18610   4.334   3.845   0.793 -0.1302  0.1231 -0.2755
 2383SOL    HW118611   4.251   3.854   0.840 -1.4318  0.7775 -2.7589
 2383SOL    HW218612   4.386   3.923   0.811  1.2688 -1.4735  2.8352
 2384SOL     OW18613   0.687   2.148   5.331  0.0617  0.0220  0.0776
 2384SOL    HW118614   0.633   2.092   5.387  1.2342 -0.2303  0.9595
 2384SOL    HW218615   0.714   2.079   5.271 -0.5252  0.3528 -0.5567
 2385SOL     OW18616   0.900   2.339   8.587 -0.6512 -0.7236 -0.6189
 2385SOL    HW118617   0.935   2.251   8.603  2.2931  0.4191 -0.7379
 2385SOL    HW218618   0.974   2.391   8.619  0.1309 -2.6280  0.6534
 2386SOL     OW18619   0.612   1.611   0.123  0.0720 -0.2391 -0.3039
 2386SOL    HW118620   0.609   1.695   0.169  0.3891 -0.3449 -0.0852
 2386SOL    HW218621   0.518   1.595   0.121 -0.0639  0.2901  2.4293
 2387SOL     OW18622   2.308   1.527   1.124 -0.0778  0.2623 -0.5167
 2387SOL    HW118623   2.225   1.506   1.081 -0.1886 -1.1840  0.3740
 2387SOL    HW218624   2.366   1.488   1.058  2.1474  2.2487  0.2710
 2388SOL     OW18625   0.323   2.650   7.697  0.2244  0.4089  0.1684
 2388SOL    HW118626   0.302   2.742   7.717  0.3682  0.2922  0.8545
 2388SOL    HW218627   0.250   2.612   7.746  0.0270  0.7614  0.1525
 2389SOL     OW18628   3.393   3.440   5.918 -0.6008  0.3967  0.1098
 2389SOL    HW118629   3.438   3.487   5.848 -0.8602  0.3823 -0.0689
 2389SOL    HW218630   3.305   3.442   5.881 -0.5826 -0.1122  0.0408
 2390SOL     OW18631   4.618   2.172   0.835  0.5236 -0.0933 -0.2555
 2390SOL    HW118632   4.585   2.088   0.802  0.0256 -0.5715  1.5052
 2390SOL    HW218633   4.702   2.179   0.790  0.4516 -1.9455 -0.7044
 2391SOL     OW18634   4.701   2.551  15.911 -0.3075 -0.0339 -0.1281
 2391SOL    HW118635   4.685   2.537  16.004  2.0102  1.1521  0.4659
 2391SOL    HW218636   0.068   2.526  15.897 -0.5425 -0.6183 -0.6538
 2392SOL     OW18637   3.079   2.120   4.686 -0.2892 -0.0537 -0.0475
 2392SOL    HW118638   3.137   2.052   4.719  1.1771  0.2056 -2.0647
 2392SOL    HW218639   3.140   2.159   4.623 -0.2134 -0.0120  0.0531
 2393SOL     OW18640   0.431   0.388   3.792 -0.1981  0.7279 -0.1987
 2393SOL    HW118641   0.396   0.438   3.866 -0.0103 -0.3789  0.6446
 2393SOL    HW218642   0.525   0.402   3.783  0.0654 -1.7427 -1.4758
 2394SOL     OW18643   2.084   2.134   5.020  0.2742  0.4638  0.2630
 2394SOL    HW118644   2.007   2.188   5.036 -2.3885 -2.7048 -2.0280
 2394SOL    HW218645   2.071   2.114   4.927 -0.7722 -1.2916  0.7933
 2395SOL     OW18646   3.785   1.873  12.624 -0.0291  0.1955  0.3638
 2395SOL    HW118647   3.818   1.829  12.702  0.3636 -0.8957 -0.4298
 2395SOL    HW218648   3.776   1.957  12.669 -0.1833  1.5936 -2.2821
 2396SOL     OW18649   1.442   3.631   2.159  0.1912 -0.0352  0.1896
 2396SOL    HW118650   1.370   3.673   2.207 -1.9629 -1.4567 -1.7902
 2396SOL    HW218651   1.506   3.702   2.156  0.8555 -0.6007  0.8699
 2397SOL     OW18652   2.724   0.185   0.111 -0.3146 -0.1743  0.4618
 2397SOL    HW118653   2.758   0.119   0.171  0.7343  0.8589  1.0014
 2397SOL    HW218654   2.734   0.141   0.026 -0.4116  0.1313  0.2928
 2398SOL     OW18655   1.645   4.083   7.276  0.1749 -0.3162 -0.4717
 2398SOL    HW118656   1.624   4.173   7.252  2.0615 -0.1601 -1.5440
 2398SOL    HW218657   1.665   4.037   7.195 -1.2563 -1.3653 -0.2210
 2399SOL     OW18658   0.417   3.921   6.134 -0.0671 -0.0242 -0.0243
 2399SOL    HW118659   0.440   3.897   6.044 -1.4116 -2.7409  0.3483
 2399SOL    HW218660   0.332   3.963   6.123 -0.4885 -1.0913 -0.9147
 2400SOL     OW18661   3.654   0.065   6.213  0.0704  0.7614 -0.8033
 2400SOL    HW118662   3.587   0.094   6.275  1.5238  1.6389  0.3735
 2400SOL    HW218663   3.619   0.109   6.136 -1.8753  0.3287 -0.1794
 2401SOL     OW18664   2.418   3.017   6.512  0.3688  0.5310 -0.7961
 2401SOL    HW118665   2.432   3.032   6.606 -0.6029  0.0380 -0.5807
 2401SOL    HW218666   2.441   2.928   6.488  0.1224  0.4996 -0.9134
 2402SOL     OW18667   3.271   3.639  14.768 -0.4451 -0.3601 -0.1496
 2402SOL    HW118668   3.288   3.590  14.848 -2.0922  0.2738  0.5958
 2402SOL    HW218669   3.325   3.593  14.703 -0.5971  1.4317 -1.5711
 2403SOL     OW18670   3.324   2.823   2.784 -0.2555 -0.2764 -0.0845
 2403SOL    HW118671   3.248   2.878   2.807  0.5633  1.5438 -1.7278
 2403SOL    HW218672   3.325   2.841   2.690  2.7168 -2.1276 -0.4024
 2404SOL     OW18673   0.032   1.453   4.451  0.3811 -0.0189  0.9179
 2404SOL    HW118674   0.118   1.439   4.413 -1.2651 -1.9560 -2.1066
 2404SOL    HW218675   0.017   1.371   4.499  1.1713 -0.5902  0.1819
 2405SOL     OW18676   3.663   0.593  14.800  0.1393  0.3192  0.0307
 2405SOL    HW118677   3.747   0.553  14.776 -0.0168  0.8756 -1.4744
 2405SOL    HW218678   3.693   0.684  14.802  1.8331 -0.2558  0.6572
 2406SOL     OW18679   1.647   2.040  12.375  0.5090 -0.4013 -0.4956
 2406SOL    HW118680   1.590   2.007  12.445  2.7903 -2.4126  0.3879
 2406SOL    HW218681   1.720   2.079  12.422 -0.3329 -1.2862  1.5539
 2407SOL     OW18682   4.664   0.027   9.046 -0.2226  0.2463 -0.4769
 2407SOL    HW118683   4.637   0.075   8.968  2.2015 -2.1903 -2.8074
 2407SOL    HW218684   4.704   0.102   9.089  0.2937  0.2290 -0.9348
 2408SOL     OW18685   3.766   1.705   2.793  0.0438  0.1088  0.4735
 2408SOL    HW118686   3.796   1.787   2.754 -0.5428  1.6422  3.2654
 2408SOL    HW218687   3.679   1.731   2.823  0.0378  0.8685 -0.2076
 2409SOL     OW18688   1.168   4.126  15.521 -0.1903 -0.3780  0.1856
 2409SOL    HW118689   1.237   4.130  15.587 -0.4819 -1.7012  0.5888
 2409SOL    HW218690   1.177   4.034  15.496 -0.7595 -0.3765 -0.0414
 2410SOL     OW18691   1.418   3.633   1.745  0.0285 -0.2378 -0.2152
 2410SOL    HW118692   1.469   3.584   1.810  1.4578  2.8961  1.0377
 2410SOL    HW218693   1.468   3.709   1.716  0.4106 -0.6838 -0.7275
 2411SOL     OW18694   1.475   0.071   9.489 -0.2352 -0.6729 -0.2446
 2411SOL    HW118695   1.525   0.137   9.537  0.5259  0.9385 -3.2322
 2411SOL    HW218696   1.397   0.126   9.485  0.6039  0.3822 -2.1259
 2412SOL     OW18697   0.729   1.950  16.994  0.0926  0.0567  0.3990
 2412SOL    HW118698   0.655   2.000  17.030 -1.4332 -1.7267 -0.2612
 2412SOL    HW218699   0.766   1.922  17.078  0.8689  1.8549  0.6548
 2413SOL     OW18700   2.720   2.165   5.338  0.0858  0.0885 -0.3450
 2413SOL    HW118701   2.732   2.130   5.250  0.3249  1.3820 -0.8337
 2413SOL    HW218702   2.676   2.249   5.325 -0.5721 -0.3911 -1.2148
 2414SOL     OW18703   0.961   0.305  15.178 -0.6490 -0.4049  0.4215
 2414SOL    HW118704   1.038   0.262  15.139 -1.5063 -0.5937 -1.0671
 2414SOL    HW218705   0.894   0.251  15.136  0.2744 -1.7875  0.7010
 2415SOL     OW18706   4.618   1.593  16.263  0.2321 -0.1099  0.0528
 2415SOL    HW118707   4.557   1.576  16.192 -0.0758  0.6682  0.1369
 2415SOL    HW218708   4.558   1.573  16.335  1.1159 -0.0814  0.8123
 2416SOL     OW18709   0.466   1.822   8.139  0.0435 -0.1725  0.5801
 2416SOL    HW118710   0.527   1.748   8.133 -0.6964 -0.5754 -1.8293
 2416SOL    HW218711   0.535   1.882   8.168 -0.5640 -0.0016  1.6656
 2417SOL     OW18712   1.103   4.346  14.300 -0.2014  0.1530  0.3453
 2417SOL    HW118713   1.079   4.261  14.264  0.3592  0.7812 -1.4849
 2417SOL    HW218714   1.132   4.393  14.222 -0.9688 -0.6451 -0.4222
 2418SOL     OW18715   1.321   0.721   2.425  0.0937  0.0682  0.7237
 2418SOL    HW118716   1.404   0.677   2.440  0.8803  0.6839 -1.8644
 2418SOL    HW218717   1.339   0.803   2.378 -2.7763 -0.4954 -1.4002
 2419SOL     OW18718   3.381   1.454   8.506 -0.1042  0.5870  0.5237
 2419SOL    HW118719   3.365   1.485   8.595 -1.9196 -1.1999  0.8165
 2419SOL    HW218720   3.412   1.531   8.458  1.0206 -1.3306 -1.8370
 2420SOL     OW18721   2.587   3.289   6.481 -0.4645 -0.1189  0.0929
 2420SOL    HW118722   2.530   3.216   6.505  2.4496 -2.6455 -0.6654
 2420SOL    HW218723   2.544   3.370   6.508  0.5065  0.8061 -1.1322
 2421SOL     OW18724   1.164   4.029   4.305 -0.1030  0.2927 -0.3385
 2421SOL    HW118725   1.132   4.024   4.215  0.9773  0.3402 -0.7243
 2421SOL    HW218726   1.124   3.956   4.352 -2.1579  1.1975 -0.6958
 2422SOL     OW18727   1.419   0.600   3.867  0.4257  0.1884 -0.6807
 2422SOL    HW118728   1.330   0.564   3.863  0.4629 -0.0132  0.4632
 2422SOL    HW218729   1.402   0.684   3.823 -2.3142 -0.8476 -1.6194
 2423SOL     OW18730   0.563   4.431   3.702  0.0027  0.0529  0.3142
 2423SOL    HW118731   0.515   4.366   3.753 -1.4039 -0.9056 -2.1964
 2423SOL    HW218732   0.653   4.428   3.731  0.2665 -0.9242 -0.6160
 2424SOL     OW18733   1.123   3.612   2.121 -0.0756  0.5620  0.1756
 2424SOL    HW118734   1.080   3.543   2.171  0.1608  0.6586  0.5074
 2424SOL    HW218735   1.085   3.595   2.034  0.9666 -0.0269 -0.1550
 2425SOL     OW18736   1.208   1.712   9.614  0.5199  0.5209 -0.0331
 2425SOL    HW118737   1.272   1.685   9.548 -0.0370 -1.3815  0.2203
 2425SOL    HW218738   1.152   1.765   9.557 -1.4193 -1.6318 -0.0759
 2426SOL     OW18739   4.451   4.459   6.022 -0.4031  0.3748 -0.1462
 2426SOL    HW118740   4.506   4.452   5.944 -0.3901 -0.3187 -0.0746
 2426SOL    HW218741   4.407   4.375   6.008  0.0236  0.5324 -2.4468
 2427SOL     OW18742   0.535   0.272   0.989  0.6426 -0.4724  0.6621
 2427SOL    HW118743   0.501   0.362   0.993 -0.2504 -0.7710 -0.2446
 2427SOL    HW218744   0.562   0.246   1.077  0.6677 -0.7078  0.5841
 2428SOL     OW18745   3.307   2.411   5.838 -0.7173  0.0251 -0.1307
 2428SOL    HW118746   3.276   2.323   5.817 -0.2083  0.1183 -1.2811
 2428SOL    HW218747   3.308   2.417   5.934  1.1006 -1.8888 -0.0243
 2429SOL     OW18748   3.663   3.482   7.775 -0.3976  0.0048  0.0487
 2429SOL    HW118749   3.706   3.462   7.858 -0.8739 -0.1211  0.2693
 2429SOL    HW218750   3.666   3.397   7.730 -0.1604 -2.9341  5.5090
 2430SOL     OW18751   0.727   1.030   3.007 -0.6480 -0.1187  0.7147
 2430SOL    HW118752   0.777   1.037   2.925 -0.7923  1.6015  0.7600
 2430SOL    HW218753   0.772   1.082   3.073 -0.8913 -0.3622  1.0725
 2431SOL     OW18754   0.602   1.294   1.593  0.6489  0.2971 -0.9514
 2431SOL    HW118755   0.604   1.389   1.604 -1.7015  0.5115 -2.1930
 2431SOL    HW218756   0.511   1.289   1.622  0.9435  2.7800  0.3537
 2432SOL     OW18757   1.462   4.035  15.464 -0.4298  0.8698  0.8064
 2432SOL    HW118758   1.465   3.989  15.380 -0.1249  1.6153  0.4066
 2432SOL    HW218759   1.555   4.051  15.484 -0.4578  0.2259  1.4505
 2433SOL     OW18760   2.323   4.024   7.189 -0.3673  0.1022 -0.3128
 2433SOL    HW118761   2.291   4.114   7.180  1.0550  0.4538 -1.9564
 2433SOL    HW218762   2.269   3.977   7.125  1.8471 -0.9851 -1.3972
 2434SOL     OW18763   4.353   3.669   1.081 -0.0701 -0.2816 -0.1252
 2434SOL    HW118764   4.440   3.637   1.105  0.0241  0.3792  0.4102
 2434SOL    HW218765   4.362   3.758   1.115  1.2703 -0.2188 -0.6623
 2435SOL     OW18766   4.200   4.703   4.210 -0.2637  0.0692 -0.1202
 2435SOL    HW118767   4.258   0.054   4.210  1.3814 -1.1965 -0.2726
 2435SOL    HW218768   4.237   4.659   4.286 -1.3490  0.5852  0.7151
 2436SOL     OW18769   2.161   3.012   4.256 -0.6755 -0.5010  0.9295
 2436SOL    HW118770   2.094   3.054   4.202  1.5643  0.2470 -1.2890
 2436SOL    HW218771   2.144   2.924   4.223 -2.6643 -0.6564  2.3924
 2437SOL     OW18772   0.614   2.649   7.669 -0.0314  0.2676 -0.4917
 2437SOL    HW118773   0.522   2.641   7.694 -0.1083  2.1882 -0.1687
 2437SOL    HW218774   0.655   2.624   7.751 -0.4913 -0.3114 -0.4386
 2438SOL     OW18775   0.445   1.902   2.295  0.0770  0.9987  0.1168
 2438SOL    HW118776   0.527   1.914   2.247  0.8538 -0.3168  1.1094
 2438SOL    HW218777   0.394   1.966   2.246 -0.0597  1.4125  0.7994
 2439SOL     OW18778   3.306   3.305   4.063  0.2982  0.1288 -0.1966
 2439SOL    HW118779   3.261   3.244   4.120 -0.5541  1.3336  0.4242
 2439SOL    HW218780   3.243   3.369   4.031  2.0799  1.2692 -1.4690
 2440SOL     OW18781   0.697   1.473   6.261 -0.1016 -0.2089  0.8572
 2440SOL    HW118782   0.738   1.421   6.192 -0.3102  0.2373  0.3936
 2440SOL    HW218783   0.727   1.434   6.343 -0.5117  0.7426  1.4639
 2441SOL     OW18784   3.591   0.751  12.955  0.1968 -0.2523  0.4032
 2441SOL    HW118785   3.623   0.712  12.873  1.9158  0.2111  0.8574
 2441SOL    HW218786   3.563   0.669  12.996  0.8718  0.0758  1.5240
 2442SOL     OW18787   0.670   0.514   5.109  0.5125 -0.2072  0.2867
 2442SOL    HW118788   0.754   0.480   5.140 -0.4090 -1.7327  1.1062
 2442SOL    HW218789   0.687   0.505   5.016  0.4222 -1.6896  0.4198
 2443SOL     OW18790   3.862   2.147  14.375 -0.0689  0.7035  0.0906
 2443SOL    HW118791   3.823   2.206  14.310  0.4790  1.0603  0.0905
 2443SOL    HW218792   3.937   2.126  14.320  0.8717  0.7983  1.3631
 2444SOL     OW18793   0.804   4.282   7.095 -0.1092 -0.1003 -0.7861
 2444SOL    HW118794   0.868   4.339   7.052  1.6201 -0.4164  1.3684
 2444SOL    HW218795   0.730   4.288   7.034  1.1578  0.8373 -2.2269
 2445SOL     OW18796   1.982   3.465   8.650 -0.5040 -0.4630 -0.3164
 2445SOL    HW118797   1.938   3.486   8.733  1.4162  0.6515  0.4240
 2445SOL    HW218798   2.074   3.485   8.668  0.0217 -2.5150 -0.6994
 2446SOL     OW18799   3.840   2.765   6.678 -0.4463  0.0977  0.3663
 2446SOL    HW118800   3.832   2.855   6.709 -1.7236  0.0073  0.2729
 2446SOL    HW218801   3.774   2.761   6.609 -0.1542  1.3428  0.0186
 2447SOL     OW18802   1.450   2.224   5.715  0.7478  0.0611 -0.2410
 2447SOL    HW118803   1.372   2.230   5.771 -0.5070 -0.1898 -1.9722
 2447SOL    HW218804   1.472   2.131   5.719  2.4399  0.5191  1.2772
 2448SOL     OW18805   0.557   3.356   5.447 -0.0197 -0.0370  0.3289
 2448SOL    HW118806   0.557   3.407   5.366  4.7855 -2.2644 -1.0792
 2448SOL    HW218807   0.640   3.374   5.491  0.8317 -1.0676 -0.8361
 2449SOL     OW18808   0.627   2.498  14.814 -0.4761 -0.1312  0.4217
 2449SOL    HW118809   0.582   2.526  14.893  0.0025  0.4904  0.4712
 2449SOL    HW218810   0.672   2.582  14.802  1.8528 -1.2182  1.5566
 2450SOL     OW18811   1.728   2.936   3.333 -0.1645 -0.1735 -0.7502
 2450SOL    HW118812   1.671   2.864   3.363  0.5413  0.5360  2.3060
 2450SOL    HW218813   1.818   2.905   3.341 -0.5013 -1.0068 -0.1673
 2451SOL     OW18814   2.355   1.526  12.429  0.0906 -0.1506 -0.1478
 2451SOL    HW118815   2.373   1.477  12.348  0.8596 -1.0748  0.5856
 2451SOL    HW218816   2.327   1.610  12.393  0.1627 -0.6238 -1.3061
 2452SOL     OW18817   0.200   4.577   4.620 -0.1235  0.1367 -0.4702
 2452SOL    HW118818   0.166   4.505   4.673 -0.2371  0.2403 -0.4018
 2452SOL    HW218819   0.293   4.556   4.629  0.2041  1.2177 -1.3567
 2453SOL     OW18820   1.550   4.309  15.882 -0.1760 -0.5356  0.2204
 2453SOL    HW118821   1.607   4.386  15.889 -1.9778  0.9155 -1.1505
 2453SOL    HW218822   1.567   4.284  15.972  0.4737  1.1022  0.5603
 2454SOL     OW18823   2.408   1.362  17.499 -0.0239 -0.1847 -0.0017
 2454SOL    HW118824   2.480   1.364  17.436 -2.0112 -1.0094 -2.3172
 2454SOL    HW218825   2.349   1.430  17.466 -0.2702 -0.0156  0.7756
 2455SOL     OW18826   0.710   4.290   1.719  0.2651 -0.5161  0.3672
 2455SOL    HW118827   0.775   4.343   1.765  0.2108 -1.2234  1.2592
 2455SOL    HW218828   0.636   4.307   1.777 -1.5225 -0.3624 -1.9761
 2456SOL     OW18829   2.677   0.496   8.581 -0.0048 -0.2309  0.0512
 2456SOL    HW118830   2.702   0.473   8.670  2.4362  3.2255  0.2281
 2456SOL    HW218831   2.611   0.432   8.553  2.2291 -2.6199  0.2874
 2457SOL     OW18832   2.753   3.576   5.876 -0.1098  0.1262 -0.7177
 2457SOL    HW118833   2.844   3.600   5.892 -0.5763  1.2798  0.1422
 2457SOL    HW218834   2.744   3.500   5.933 -0.8882  0.4046 -0.4692
 2458SOL     OW18835   1.534   4.543   9.522 -0.1128  0.3392 -0.3025
 2458SOL    HW118836   1.515   4.637   9.516  0.3734  0.5000  0.7302
 2458SOL    HW218837   1.459   4.509   9.572 -0.0566  0.3064 -0.2403
 2459SOL     OW18838   3.072   3.951   4.808 -0.0477  0.0247  0.6485
 2459SOL    HW118839   3.007   4.002   4.855 -0.5048  0.6937 -0.7112
 2459SOL    HW218840   3.112   4.026   4.764  2.4210  0.4288  3.5518
 2460SOL     OW18841   3.405   4.182  13.431  0.0962  0.4027 -0.0112
 2460SOL    HW118842   3.379   4.111  13.372 -2.0553 -0.2458  1.7456
 2460SOL    HW218843   3.427   4.254  13.372  0.3012 -0.7485 -1.3493
 2461SOL     OW18844   1.394   1.609   3.703  0.1455  0.1393  0.2258
 2461SOL    HW118845   1.324   1.559   3.660  2.4046 -1.0892 -2.0423
 2461SOL    HW218846   1.360   1.602   3.792  1.8774  0.6595  0.9224
 2462SOL     OW18847   0.488   0.345   6.684  0.3255 -0.0533  0.6659
 2462SOL    HW118848   0.452   0.298   6.759 -0.1378  0.0913  0.5326
 2462SOL    HW218849   0.510   0.431   6.718 -1.3608  0.5101  0.3363
 2463SOL     OW18850   3.652   2.461   6.450  0.6902  0.4224  0.2018
 2463SOL    HW118851   3.566   2.438   6.415 -1.3380  2.5722  3.8296
 2463SOL    HW218852   3.640   2.549   6.486  1.0035 -0.4720  2.4686
 2464SOL     OW18853   4.696   3.077   7.280 -0.3468  0.2174 -0.5079
 2464SOL    HW118854   4.639   3.000   7.272  0.3995 -0.2750 -1.1253
 2464SOL    HW218855   0.053   3.031   7.260  0.3073  1.1074  0.1611
 2465SOL     OW18856   0.580   3.084   3.679 -0.3093  0.0687 -0.3509
 2465SOL    HW118857   0.549   3.136   3.606  1.1903  1.2589 -0.1312
 2465SOL    HW218858   0.563   3.145   3.751  0.4304 -0.5659  0.3709
 2466SOL     OW18859   0.971   0.065   5.010  0.3649 -0.0532  0.0217
 2466SOL    HW118860   0.880   0.093   4.997  0.7844  0.5963 -1.4746
 2466SOL    HW218861   0.961   4.703   5.051  0.5432 -0.2017 -0.2476
 2467SOL     OW18862   0.991   0.405   1.071  0.0574  0.2495  0.3481
 2467SOL    HW118863   1.064   0.370   1.019  1.0905  0.2147  1.8362
 2467SOL    HW218864   1.015   0.387   1.162 -1.8889  0.1405  0.8309
 2468SOL     OW18865   1.434   0.251   6.466 -0.0184  0.0359  0.1653
 2468SOL    HW118866   1.526   0.234   6.487  0.3692  0.5015 -1.1681
 2468SOL    HW218867   1.397   0.187   6.528 -2.2072  0.6037 -0.5521
 2469SOL     OW18868   0.427   4.548   3.478 -0.8393 -0.5647  0.3461
 2469SOL    HW118869   0.493   4.617   3.468 -0.3278 -1.0575  0.3079
 2469SOL    HW218870   0.457   4.512   3.562  3.4082  2.8785  0.2982
 2470SOL     OW18871   4.573   2.714   2.547 -0.7722  0.1724  0.8960
 2470SOL    HW118872   4.555   2.624   2.521 -1.5753  0.5982 -0.0151
 2470SOL    HW218873   4.491   2.747   2.584 -0.5699  0.3410  1.2007
 2471SOL     OW18874   0.934   2.005  13.032  0.2857 -0.5669  0.1889
 2471SOL    HW118875   0.858   2.063  13.032  0.4583 -0.3031 -2.9563
 2471SOL    HW218876   0.897   1.917  13.043  0.6208 -0.7836 -0.4051
 2472SOL     OW18877   4.582   0.067   6.370 -0.0936 -0.2925  0.3716
 2472SOL    HW118878   4.577   0.162   6.362  0.2688 -0.2723  0.4051
 2472SOL    HW218879   4.599   0.037   6.281 -1.9144  1.1019 -0.4415
 2473SOL     OW18880   2.909   1.347  16.927  0.2797  0.0612 -0.6499
 2473SOL    HW118881   2.873   1.389  16.849  0.8503  1.2722 -0.2584
 2473SOL    HW218882   2.924   1.422  16.985 -0.2092  1.5283 -2.4391
 2474SOL     OW18883   4.558   1.041   3.831  0.8386 -0.3554 -0.2199
 2474SOL    HW118884   4.492   1.055   3.900  1.5218 -0.3684  0.4346
 2474SOL    HW218885   4.507   1.059   3.752 -0.4641 -0.7127  0.5371
 2475SOL     OW18886   2.298   4.104   6.545  0.1351  0.2546 -0.3367
 2475SOL    HW118887   2.212   4.064   6.535  0.2475  0.1141 -0.7266
 2475SOL    HW218888   2.317   4.150   6.463 -0.3015  0.1638 -0.4872
 2476SOL     OW18889   4.549   3.320   5.221 -0.5051  0.6042  0.5371
 2476SOL    HW118890   4.546   3.415   5.213  0.2117  0.5566 -0.2919
 2476SOL    HW218891   4.468   3.311   5.272  0.9546 -0.3561  2.6769
 2477SOL     OW18892   4.288   4.636   8.938 -0.4903  0.3375 -0.3149
 2477SOL    HW118893   4.311   4.544   8.924  2.0658  0.8049  0.7747
 2477SOL    HW218894   4.221   4.621   9.005  0.1414  1.9199  0.6665
 2478SOL     OW18895   0.834   0.317  17.589  0.0445  0.4463  0.3879
 2478SOL    HW118896   0.877   0.279  17.512 -0.5868 -0.0351  0.2673
 2478SOL    HW218897   0.873   0.256  17.651  2.1873  0.5770 -0.8361
 2479SOL     OW18898   3.621   2.050  13.647  0.3060  0.1869  0.2742
 2479SOL    HW118899   3.566   1.974  13.631  0.4626  0.0789  0.2532
 2479SOL    HW218900   3.687   2.005  13.700 -2.9531 -1.5324  2.8418
 2480SOL     OW18901   0.890   1.538   8.156  0.2296 -0.6158  0.0839
 2480SOL    HW118902   0.959   1.604   8.154  0.0807 -0.3513  3.3695
 2480SOL    HW218903   0.925   1.476   8.221  1.5707 -0.9324 -0.9323
 2481SOL     OW18904   4.715   1.872   6.279  0.3735  0.4921  0.7965
 2481SOL    HW118905   4.640   1.812   6.274  0.2064  0.6352  1.5852
 2481SOL    HW218906   4.675   1.959   6.288 -1.2664 -0.2485  0.6287
 2482SOL     OW18907   0.622   1.190   1.367  0.3213  0.1856 -0.5498
 2482SOL    HW118908   0.618   1.216   1.459 -0.2007 -0.2018 -0.4653
 2482SOL    HW218909   0.653   1.270   1.323 -0.4478  1.0789  0.5511
 2483SOL     OW18910   1.615   4.352   6.619 -0.0209 -0.2725  0.6110
 2483SOL    HW118911   1.608   4.446   6.636  1.1522  0.3730 -2.4275
 2483SOL    HW218912   1.703   4.357   6.581 -0.6757  3.2612 -0.5062
 2484SOL     OW18913   4.440   0.667   6.056  0.0701  0.4764  0.0006
 2484SOL    HW118914   4.524   0.627   6.077 -0.2661  1.5054  3.3660
 2484SOL    HW218915   4.386   0.604   6.105  3.9254 -2.9012 -0.0983
 2485SOL     OW18916   1.051   4.544  10.957  0.0700  0.1253 -0.5462
 2485SOL    HW118917   1.012   4.520  10.873 -0.0792 -0.7865 -0.2147
 2485SOL    HW218918   1.143   4.563  10.935  1.0247 -1.4317  2.1736
 2486SOL     OW18919   1.088   2.614  13.267  0.4075 -0.3958 -0.2186
 2486SOL    HW118920   1.098   2.690  13.325  2.2543  0.1691 -1.2759
 2486SOL    HW218921   1.114   2.547  13.331 -1.2449  0.0056  0.8775
 2487SOL     OW18922   0.672   1.252   4.707  0.0914  0.1946 -0.2681
 2487SOL    HW118923   0.609   1.180   4.705  0.0063  0.2184  1.7959
 2487SOL    HW218924   0.638   1.303   4.634  0.8008  2.4670  1.0003
 2488SOL     OW18925   3.423   0.604  10.441 -0.9544 -0.3609 -0.3417
 2488SOL    HW118926   3.412   0.596  10.346 -1.3124 -1.0255 -0.2523
 2488SOL    HW218927   3.389   0.521  10.477 -0.9207 -0.8726 -1.4739
 2489SOL     OW18928   2.295   2.784   5.266  0.0335  0.0378  0.4814
 2489SOL    HW118929   2.337   2.724   5.205 -1.0035  0.0743 -0.2651
 2489SOL    HW218930   2.304   2.739   5.350  0.4039  0.8399  0.8789
 2490SOL     OW18931   0.601   4.179   2.259  0.0469  0.4556 -0.0777
 2490SOL    HW118932   0.521   4.132   2.237  0.1863  0.4030 -0.4570
 2490SOL    HW218933   0.645   4.104   2.299  1.4873  1.5769  0.4028
 2491SOL     OW18934   0.696   0.166   3.264 -0.1357 -0.3483  0.0779
 2491SOL    HW118935   0.633   0.144   3.332 -1.1358  0.5884 -0.5359
 2491SOL    HW218936   0.728   0.247   3.303  0.6459 -0.7579  0.2845
 2492SOL     OW18937   2.635   3.803   2.771  0.8042  0.1338 -0.1443
 2492SOL    HW118938   2.573   3.782   2.840  0.3435  0.8671 -0.3394
 2492SOL    HW218939   2.591   3.759   2.698 -0.4851  0.8207  0.2272
 2493SOL     OW18940   4.354   2.035  10.742  0.6581 -0.3349 -0.3552
 2493SOL    HW118941   4.428   2.094  10.757 -1.3696  2.1376 -0.1755
 2493SOL    HW218942   4.292   2.086  10.691 -1.5465 -0.8891  1.7534
 2494SOL     OW18943   3.695   3.723   4.875 -0.3143  0.1949 -0.1724
 2494SOL    HW118944   3.690   3.814   4.845  0.9083 -0.0448 -1.1081
 2494SOL    HW218945   3.779   3.697   4.838 -0.4105  1.8636 -1.5792
 2495SOL     OW18946   2.450   1.635   7.332  0.1224  0.2549 -0.2375
 2495SOL    HW118947   2.498   1.683   7.400 -0.9887  1.5074 -0.3455
 2495SOL    HW218948   2.483   1.545   7.343 -1.2532 -0.4712 -2.1818
 2496SOL     OW18949   2.403   0.633   9.684  0.1781 -0.4519 -0.2449
 2496SOL    HW118950   2.369   0.615   9.596 -0.3291  0.2990 -0.2051
 2496SOL    HW218951   2.449   0.713   9.658  2.2771 -1.2694  0.9667
 2497SOL     OW18952   0.903   1.953   7.248  0.3084 -0.3173  0.0366
 2497SOL    HW118953   0.930   1.922   7.335 -0.7857 -2.9350 -0.5511
 2497SOL    HW218954   0.940   1.886   7.191 -1.1188  0.8366 -2.2057
 2498SOL     OW18955   3.747   1.557   6.663 -0.2323  0.2535 -0.6168
 2498SOL    HW118956   3.728   1.650   6.672  1.3454  0.4482  0.7402
 2498SOL    HW218957   3.821   1.554   6.724 -0.1492  0.7429 -0.6927
 2499SOL     OW18958   2.887   0.907   9.301  0.1272 -0.2058 -0.3011
 2499SOL    HW118959   2.942   0.980   9.329 -0.7259  0.1675  0.3685
 2499SOL    HW218960   2.800   0.945   9.306  1.0095  1.2844  3.5839
 2500SOL     OW18961   4.464   1.574   3.183 -0.1632  0.3794 -0.0994
 2500SOL    HW118962   4.384   1.531   3.151  1.4876 -2.6432 -0.1453
 2500SOL    HW218963   4.448   1.667   3.168 -1.0953  0.7228  2.9241
 2501SOL     OW18964   2.183   4.621   2.703  0.5770 -0.3385  0.0827
 2501SOL    HW118965   2.248   4.655   2.640  0.9307  0.3563  0.8178
 2501SOL    HW218966   2.199   4.681   2.776  1.3731 -3.3005  2.3608
 2502SOL     OW18967   4.677   4.547  14.980 -0.2963  0.4043 -0.2946
 2502SOL    HW118968   4.642   4.486  14.914 -0.9223  0.6267 -0.1631
 2502SOL    HW218969   4.677   4.490  15.057  0.7391  1.8750  0.8023
 2503SOL     OW18970   0.067   1.380   2.109 -0.3937  0.5350  0.5765
 2503SOL    HW118971   0.134   1.404   2.173  0.6928 -2.3424  0.4990
 2503SOL    HW218972   0.002   1.444   2.137 -2.1704 -0.7924 -0.4977
 2504SOL     OW18973   3.922   3.625   6.342 -0.4617  0.2684 -0.4337
 2504SOL    HW118974   3.888   3.616   6.254  0.5966  0.0381 -0.8198
 2504SOL    HW218975   4.016   3.617   6.325 -0.3975 -1.0752  0.5021
 2505SOL     OW18976   3.220   2.517   6.779  0.1756 -0.4360  0.6486
 2505SOL    HW118977   3.132   2.530   6.816 -0.5498 -1.9213 -0.5310
 2505SOL    HW218978   3.274   2.536   6.855 -0.7755  2.9393  0.4631
 2506SOL     OW18979   3.660   4.640   2.031  0.3227 -0.0559 -0.6665
 2506SOL    HW118980   3.583   4.695   2.040  2.6418  2.9948  0.3728
 2506SOL    HW218981   3.634   4.566   2.086 -0.9084  0.0961 -1.0457
 2507SOL     OW18982   0.107   0.714   0.619 -0.2907 -0.7072 -0.7316
 2507SOL    HW118983   0.172   0.782   0.636 -1.3736  0.6649 -2.0833
 2507SOL    HW218984   0.078   0.694   0.708 -0.9781  1.2702 -0.5132
 2508SOL     OW18985   3.272   0.924  14.983 -0.1522 -0.6435 -0.0522
 2508SOL    HW118986   3.201   0.938  15.046  0.1206 -0.4342  0.2112
 2508SOL    HW218987   3.332   0.863  15.026 -0.2301 -0.6398  0.0593
 2509SOL     OW18988   3.592   3.871   3.226 -0.2140 -0.5200  0.0179
 2509SOL    HW118989   3.501   3.899   3.216 -0.0024  0.9335  2.0856
 2509SOL    HW218990   3.647   3.942   3.192 -0.8334  0.3600  0.8419
 2510SOL     OW18991   3.399   3.884  16.037 -0.0451  0.2805 -0.1274
 2510SOL    HW118992   3.406   3.977  16.014 -0.6713  0.4641  0.4436
 2510SOL    HW218993   3.322   3.892  16.093  0.7049 -0.4407  1.0106
 2511SOL     OW18994   2.382   0.493   9.900 -0.4853 -0.3986  0.0881
 2511SOL    HW118995   2.387   0.551   9.824  0.0408  0.2746  0.6469
 2511SOL    HW218996   2.289   0.505   9.921 -0.2761  0.3899  0.5351
 2512SOL     OW18997   4.122   0.779   1.366  0.3797  0.2991 -0.0479
 2512SOL    HW118998   4.200   0.825   1.395 -1.2922  2.4102  1.0852
 2512SOL    HW218999   4.093   0.843   1.301  1.4894  0.1038 -0.7373
 2513SOL     OW19000   4.228   3.395   6.391  0.2500 -0.4593 -0.5200
 2513SOL    HW119001   4.312   3.409   6.435 -0.8660  3.1527  0.4830
 2513SOL    HW219002   4.245   3.439   6.308 -0.9477 -0.3651 -0.7265
 2514SOL     OW19003   1.703   2.050  14.180 -0.0096 -0.3453  0.8770
 2514SOL    HW119004   1.766   2.087  14.243 -1.2222  1.3037  1.1213
 2514SOL    HW219005   1.735   2.071  14.092 -1.4440 -1.9857 -0.0291
 2515SOL     OW19006   0.088   1.591  10.627 -0.0681  0.0391 -0.1196
 2515SOL    HW119007   0.069   1.574  10.720  2.1497 -2.5609 -0.1336
 2515SOL    HW219008   0.039   1.673  10.630  1.6412  1.1558 -2.8852
 2516SOL     OW19009   2.937   4.078  15.961 -0.0324  0.1271 -0.1837
 2516SOL    HW119010   2.910   4.012  16.024  2.5661  1.2760  2.1098
 2516SOL    HW219011   2.937   4.023  15.883  1.1742 -0.4311  0.2192
 2517SOL     OW19012   4.713   0.232  14.538 -0.0092  0.1707 -0.0201
 2517SOL    HW119013   4.623   0.260  14.521  0.0904 -1.2525 -2.8826
 2517SOL    HW219014   0.018   0.224  14.448  2.1217  1.1903  0.5916
 2518SOL     OW19015   4.208   1.438  11.141 -0.1846 -0.3157  0.3277
 2518SOL    HW119016   4.169   1.391  11.215  2.7195  1.5562  3.0562
 2518SOL    HW219017   4.263   1.501  11.187 -1.9939  1.2493  0.3328
 2519SOL     OW19018   3.351   0.880   7.947  0.0953  0.1079  0.8819
 2519SOL    HW119019   3.307   0.965   7.949 -0.7135 -0.2695 -1.1536
 2519SOL    HW219020   3.411   0.888   7.873 -1.6109 -1.5051 -0.6729
 2520SOL     OW19021   4.518   1.925   5.621 -0.2515 -0.0898 -0.0046
 2520SOL    HW119022   4.477   1.839   5.615  1.3912 -0.6618 -2.5717
 2520SOL    HW219023   4.597   1.895   5.665 -0.0175  0.9610  0.2875
 2521SOL     OW19024   3.661   1.536   8.205  0.1773 -0.5666 -0.6545
 2521SOL    HW119025   3.674   1.626   8.235  1.2725 -1.6987  2.3362
 2521SOL    HW219026   3.714   1.484   8.266  1.4236  0.9008 -0.4969
 2522SOL     OW19027   2.011   4.689   6.763 -0.2744 -0.1932  0.0678
 2522SOL    HW119028   2.097   4.662   6.792 -0.1165 -0.9886 -1.1241
 2522SOL    HW219029   2.020   0.044   6.710 -3.3955  0.5465  0.6377
 2523SOL     OW19030   0.464   4.402   1.841 -0.3060 -0.4954 -0.6208
 2523SOL    HW119031   0.424   4.487   1.857 -1.3457 -1.1189  0.0866
 2523SOL    HW219032   0.416   4.346   1.902 -1.5959  0.0174 -1.1543
 2524SOL     OW19033   1.636   2.601   1.593 -0.2883 -0.5961 -0.0224
 2524SOL    HW119034   1.722   2.606   1.551 -0.5930 -0.0204 -0.5853
 2524SOL    HW219035   1.598   2.685   1.564 -1.2445 -0.4242  1.6872
 2525SOL     OW19036   1.803   3.338   8.135  0.1123  0.2955  0.0912
 2525SOL    HW119037   1.862   3.370   8.203 -2.6575  2.7442  1.3308
 2525SOL    HW219038   1.858   3.280   8.082  0.4931 -0.0539  0.8736
 2526SOL     OW19039   3.714   2.707   4.129 -0.3388 -0.7544  0.2711
 2526SOL    HW119040   3.780   2.755   4.080 -0.0491 -0.0301  1.3687
 2526SOL    HW219041   3.775   2.644   4.167  0.9376 -0.3032 -1.0143
 2527SOL     OW19042   3.933   1.598   1.131  0.7061 -0.2056 -0.7485
 2527SOL    HW119043   3.868   1.597   1.060 -1.0013  3.6208  0.7656
 2527SOL    HW219044   3.877   1.626   1.203  1.0301 -0.7073 -0.3034
 2528SOL     OW19045   3.701   3.076   4.989 -0.1905 -0.1967 -0.7519
 2528SOL    HW119046   3.752   3.115   5.060 -2.3544  1.1681  0.0460
 2528SOL    HW219047   3.636   3.024   5.038  1.7978 -1.7097  0.2588
 2529SOL     OW19048   4.062   1.479   5.206  0.3314 -0.4126 -0.1439
 2529SOL    HW119049   4.146   1.438   5.226  0.4152 -0.3610 -0.3948
 2529SOL    HW219050   4.082   1.528   5.126  0.6620  0.7804  0.6655
 2530SOL     OW19051   4.070   0.143   6.777 -0.2967 -0.2477  0.0352
 2530SOL    HW119052   4.124   0.093   6.838 -1.0615 -2.7725 -1.4024
 2530SOL    HW219053   4.114   0.115   6.697  0.8369  4.0325 -0.8917
 2531SOL     OW19054   1.901   1.740   5.325  0.1134  0.5013 -0.5970
 2531SOL    HW119055   1.855   1.692   5.257 -0.2678 -0.3276  0.2534
 2531SOL    HW219056   1.963   1.791   5.272  0.3607  1.7735  0.8946
 2532SOL     OW19057   4.586   3.492   6.190  0.1332 -0.0008 -0.4890
 2532SOL    HW119058   4.603   3.421   6.252  0.5147 -0.2462 -0.8761
 2532SOL    HW219059   4.500   3.480   6.150  0.7341 -0.8379 -1.5553
 2533SOL     OW19060   3.172   3.942  13.770 -0.2135 -0.4166  0.4393
 2533SOL    HW119061   3.098   3.991  13.733 -0.4588 -1.6435 -0.7054
 2533SOL    HW219062   3.143   3.857  13.736 -0.5672 -0.3438  0.5527
 2534SOL     OW19063   0.946   4.062   6.356  0.5447  0.0468 -0.0516
 2534SOL    HW119064   0.970   4.003   6.427  1.1288  1.1333  0.6348
 2534SOL    HW219065   0.852   4.048   6.344  0.4745  0.4897 -0.0088
 2535SOL     OW19066   2.572   1.532   2.183 -0.3356 -0.3129  0.0831
 2535SOL    HW119067   2.530   1.553   2.267  0.8766  0.1652  0.5720
 2535SOL    HW219068   2.640   1.476   2.221 -1.9789 -2.7614 -0.6316
 2536SOL     OW19069   1.236   2.452   0.042 -0.1492  0.1350 -0.0453
 2536SOL    HW119070   1.151   2.412   0.062 -0.4602  0.5547 -0.5119
 2536SOL    HW219071   1.222   2.501  17.660  1.6931  1.2975  0.3439
 2537SOL     OW19072   3.059   2.176   5.198 -0.7193 -0.1470 -0.9146
 2537SOL    HW119073   3.081   2.136   5.114  1.6687  2.6540 -1.6061
 2537SOL    HW219074   2.978   2.221   5.176 -0.4886  0.9779  0.5874
 2538SOL     OW19075   0.994   3.450   5.716  0.0367  0.4465 -0.3534
 2538SOL    HW119076   0.965   3.419   5.802  1.3985 -0.9403 -0.3994
 2538SOL    HW219077   1.090   3.453   5.714  0.0101  2.6163  0.3655
 2539SOL     OW19078   0.344   2.480   6.787  0.1310 -0.0258 -0.5026
 2539SOL    HW119079   0.371   2.395   6.752 -2.2480 -0.4401 -1.4013
 2539SOL    HW219080   0.273   2.506   6.728  0.7912  0.2817 -1.1447
 2540SOL     OW19081   0.534   3.587   8.881 -0.5822  0.4494  0.2892
 2540SOL    HW119082   0.542   3.492   8.869 -1.0555  0.3342  0.8674
 2540SOL    HW219083   0.468   3.613   8.816 -0.0343  2.8545  0.7247
 2541SOL     OW19084   1.978   0.786   8.062  0.2928  0.7016  0.7266
 2541SOL    HW119085   2.030   0.710   8.089 -1.6951 -1.4010 -1.3244
 2541SOL    HW219086   2.040   0.857   8.074  0.5141  0.2642  2.1622
 2542SOL     OW19087   0.399   0.238   7.173  0.3986 -0.4003 -0.0190
 2542SOL    HW119088   0.320   0.202   7.214 -0.7338  0.7062 -1.2408
 2542SOL    HW219089   0.360   0.302   7.114  1.4997 -0.1408 -0.4650
 2543SOL     OW19090   3.427   0.410  12.391 -0.1922  0.4969 -0.1874
 2543SOL    HW119091   3.355   0.460  12.353  2.3103  3.6164 -0.8756
 2543SOL    HW219092   3.433   0.465  12.470  0.6746  0.5310 -0.2817
 2544SOL     OW19093   3.400   4.103   4.883  0.3706 -0.5870 -0.7857
 2544SOL    HW119094   3.341   4.075   4.954  1.7683 -1.5493 -0.0092
 2544SOL    HW219095   3.438   4.180   4.924  3.4938 -1.0923 -2.7947
 2545SOL     OW19096   3.419   2.903   5.767 -0.6871  0.2911  0.9965
 2545SOL    HW119097   3.493   2.946   5.809 -0.9700  0.4875  1.2952
 2545SOL    HW219098   3.436   2.814   5.798 -0.2109 -0.9325 -2.7635
 2546SOL     OW19099   1.245   2.256   8.020 -0.1676  0.6909 -0.1752
 2546SOL    HW119100   1.269   2.343   8.052  0.7636 -0.0195  1.0392
 2546SOL    HW219101   1.199   2.293   7.944  1.5377  0.2515 -1.4221
 2547SOL     OW19102   0.905   3.840   3.269  0.3982  0.5006  0.3948
 2547SOL    HW119103   0.922   3.782   3.195  1.1099  0.1590  0.8180
 2547SOL    HW219104   0.945   3.793   3.343  2.6851  1.7785 -0.0259
 2548SOL     OW19105   4.103   0.180  11.021  0.3790 -0.2228  0.4356
 2548SOL    HW119106   4.197   0.164  11.012  0.2743  0.2493 -1.3387
 2548SOL    HW219107   4.100   0.233  10.942 -2.8989  0.0331  0.7340
 2549SOL     OW19108   4.005   2.503  14.032  0.1631 -0.2945 -0.4505
 2549SOL    HW119109   3.989   2.413  14.001 -1.3567  0.0155 -0.5747
 2549SOL    HW219110   4.044   2.488  14.118 -1.4658  0.7055  0.4765
 2550SOL     OW19111   1.878   1.915   1.793 -0.7813  0.6430 -0.0669
 2550SOL    HW119112   1.964   1.917   1.750 -2.7474  1.9025 -3.9397
 2550SOL    HW219113   1.823   1.959   1.729 -0.0218 -0.0539 -1.2007
 2551SOL     OW19114   0.104   0.232  10.717  0.0344 -0.2453 -0.4924
 2551SOL    HW119115   0.075   0.225  10.626 -0.4633  2.9398 -0.5701
 2551SOL    HW219116   0.198   0.238  10.700  0.4173  1.0552  2.0071
 2552SOL     OW19117   1.755   1.277   8.195  0.4401  0.0636  0.1301
 2552SOL    HW119118   1.717   1.364   8.198 -0.9112 -0.4844 -1.2723
 2552SOL    HW219119   1.678   1.229   8.164  0.9587 -1.6336  1.5092
 2553SOL     OW19120   2.276   1.158   9.362 -0.2415 -0.2896 -0.0442
 2553SOL    HW119121   2.365   1.187   9.383  0.6354 -0.9167 -2.9205
 2553SOL    HW219122   2.227   1.234   9.331 -2.0571 -1.7021 -0.6519
 2554SOL     OW19123   3.906   3.420   2.366 -0.1440 -0.1161  0.3342
 2554SOL    HW119124   3.838   3.480   2.334 -0.6228 -0.1434  1.2919
 2554SOL    HW219125   3.975   3.481   2.393 -0.6379  1.0292 -0.9451
 2555SOL     OW19126   3.666   1.995   8.833 -0.4980 -0.2176 -0.2149
 2555SOL    HW119127   3.745   2.047   8.818  0.8805 -2.1695  0.3365
 2555SOL    HW219128   3.640   1.978   8.742 -1.9542  0.7437  0.0058
 2556SOL     OW19129   4.150   1.843   7.314  0.3051  0.8439 -0.4049
 2556SOL    HW119130   4.203   1.899   7.371 -0.9453 -0.9637  2.4759
 2556SOL    HW219131   4.103   1.901   7.253  1.4548  0.0059 -2.0893
 2557SOL     OW19132   3.576   2.891   8.139 -0.5522 -0.0432  0.8350
 2557SOL    HW119133   3.536   2.820   8.088  1.3220 -0.6639  0.2258
 2557SOL    HW219134   3.583   2.957   8.071  1.7278 -2.3533 -1.1714
 2558SOL     OW19135   0.586   0.898   5.566  0.4329 -0.0102 -0.0637
 2558SOL    HW119136   0.493   0.897   5.587  0.3735  3.0448 -0.2162
 2558SOL    HW219137   0.603   0.804   5.570 -0.9131 -0.1900  1.2399
 2559SOL     OW19138   0.580   0.647   4.743  0.3488 -0.3754 -0.3756
 2559SOL    HW119139   0.648   0.589   4.777  0.2996  0.4584  1.1671
 2559SOL    HW219140   0.608   0.659   4.652  0.6348  0.3138 -0.2025
 2560SOL     OW19141   2.238   1.982   2.433  0.4850 -0.0110  0.2313
 2560SOL    HW119142   2.228   2.005   2.340  1.2869  1.8582  0.6178
 2560SOL    HW219143   2.313   1.922   2.428  0.1694 -0.5049  1.6897
 2561SOL     OW19144   3.787   1.877   8.540  0.2010  0.0914  0.5189
 2561SOL    HW119145   3.806   1.969   8.560 -0.8220 -0.0778  2.2892
 2561SOL    HW219146   3.869   1.831   8.559 -0.2350 -0.9084 -0.0241
 2562SOL     OW19147   4.028   2.319   3.210  0.5119 -0.1514  0.1809
 2562SOL    HW119148   4.036   2.223   3.206 -0.4968 -0.3303  2.8419
 2562SOL    HW219149   4.013   2.338   3.117  0.5070  2.1558  0.6605
 2563SOL     OW19150   2.478   0.533   8.062  0.7474  0.0015 -0.2612
 2563SOL    HW119151   2.533   0.514   8.137 -0.2311  2.2989  1.0476
 2563SOL    HW219152   2.519   0.613   8.028 -0.9984  0.4430 -1.3903
 2564SOL     OW19153   2.742   4.548  13.829  0.2525  0.2746  0.0065
 2564SOL    HW119154   2.801   4.603  13.778 -1.5106 -0.1133 -2.4586
 2564SOL    HW219155   2.800   4.523  13.901 -0.7123  0.1898  0.7502
 2565SOL     OW19156   1.924   2.684   3.711  0.0917  0.9982  0.1463
 2565SOL    HW119157   1.886   2.642   3.633  0.6375 -1.4960  1.2353
 2565SOL    HW219158   1.854   2.665   3.773  0.0490 -3.0600 -1.1433
 2566SOL     OW19159   4.398   2.022   7.626  0.5538  0.0753  0.2895
 2566SOL    HW119160   4.370   2.041   7.715 -0.5486 -3.2141  0.6574
 2566SOL    HW219161   4.316   2.043   7.581  1.2007 -1.4093 -1.6280
 2567SOL     OW19162   3.049   1.580   5.760  0.3684  0.4215  0.1076
 2567SOL    HW119163   3.051   1.579   5.664  0.6528  0.9782  0.1068
 2567SOL    HW219164   3.142   1.563   5.777 -0.0412 -0.2179  1.7367
 2568SOL     OW19165   0.782   3.280  13.416  0.1450  0.3859  0.1683
 2568SOL    HW119166   0.807   3.363  13.376 -0.8027 -0.6556 -2.5942
 2568SOL    HW219167   0.779   3.218  13.343 -2.6768 -0.4949  1.0317
 2569SOL     OW19168   2.157   1.445   7.856 -0.1799  0.4384 -0.1890
 2569SOL    HW119169   2.136   1.525   7.903  0.5186 -0.2206  1.2438
 2569SOL    HW219170   2.104   1.386   7.909  0.0107 -0.3354 -0.8625
 2570SOL     OW19171   0.170   3.230   1.267 -0.0711 -0.2032 -0.3673
 2570SOL    HW119172   0.083   3.205   1.236 -0.5143  1.4210 -0.4854
 2570SOL    HW219173   0.216   3.252   1.186 -1.2560 -0.2518 -1.0616
 2571SOL     OW19174   3.310   1.697  11.735 -0.1328 -0.0882  0.1911
 2571SOL    HW119175   3.332   1.759  11.805  3.4309 -0.2768 -0.7896
 2571SOL    HW219176   3.370   1.738  11.673 -0.7860 -0.4143 -0.6578
 2572SOL     OW19177   1.584   2.407   3.519  0.0619  0.3275  0.2277
 2572SOL    HW119178   1.673   2.371   3.514  0.7942  1.7519  2.7456
 2572SOL    HW219179   1.543   2.354   3.588 -4.0330  1.7987 -1.0957
 2573SOL     OW19180   1.169   3.160  10.627 -0.5041 -0.0084 -0.0453
 2573SOL    HW119181   1.181   3.196  10.538  0.6433  0.0068  0.1131
 2573SOL    HW219182   1.147   3.070  10.603 -3.4326  1.5343 -3.2358
 2574SOL     OW19183   0.501   0.238  17.277 -0.4184 -0.0694 -0.1360
 2574SOL    HW119184   0.520   0.262  17.186  0.9458 -0.1181  0.1297
 2574SOL    HW219185   0.560   0.163  17.285  1.2282  0.9993 -2.0881
 2575SOL     OW19186   4.601   0.296  12.832  0.2006  0.2010  0.3021
 2575SOL    HW119187   4.650   0.215  12.830  0.4106  0.2730  2.1152
 2575SOL    HW219188   4.559   0.280  12.917  1.3251 -1.6790  0.4864
 2576SOL     OW19189   3.071   3.114   5.608 -0.0642  0.2705  0.0221
 2576SOL    HW119190   3.129   3.050   5.567 -0.8800  0.2694 -1.1253
 2576SOL    HW219191   3.074   3.085   5.699 -1.5620 -1.9610 -0.6464
 2577SOL     OW19192   0.432   2.264   8.649  0.1991  0.1745 -0.0964
 2577SOL    HW119193   0.353   2.289   8.697  1.0892  1.0319  0.9422
 2577SOL    HW219194   0.503   2.251   8.713  1.3172  1.4186 -1.0998
 2578SOL     OW19195   1.625   2.635  17.341  0.0388  0.1426 -0.5620
 2578SOL    HW119196   1.609   2.646  17.435  0.8050  1.1510 -0.5485
 2578SOL    HW219197   1.714   2.670  17.338 -0.3642  1.3683  1.6317
 2579SOL     OW19198   2.661   1.160   7.482  0.5181 -0.1910 -0.0704
 2579SOL    HW119199   2.567   1.158   7.464  0.4967 -0.9685  0.1204
 2579SOL    HW219200   2.672   1.065   7.494 -1.9417 -0.5024 -0.3297
 2580SOL     OW19201   3.533   2.316  15.955 -0.0569 -0.3779  0.0963
 2580SOL    HW119202   3.538   2.299  15.861 -0.1399 -1.5496  0.2992
 2580SOL    HW219203   3.468   2.387  15.953  1.1960  0.8006  2.2569
 2581SOL     OW19204   2.744   3.835   7.865  0.0857 -0.7880  0.2681
 2581SOL    HW119205   2.682   3.819   7.936 -1.4375  1.4408 -0.5930
 2581SOL    HW219206   2.782   3.923   7.868  0.6492 -0.9629 -1.4600
 2582SOL     OW19207   4.177   3.551   5.538  0.2480 -0.1286  0.2225
 2582SOL    HW119208   4.085   3.571   5.556 -0.5667 -3.3355 -0.4040
 2582SOL    HW219209   4.203   3.544   5.630  3.0544 -0.5003 -0.6184
 2583SOL     OW19210   0.422   1.370   3.294  0.7195  0.1855 -0.1854
 2583SOL    HW119211   0.500   1.341   3.247  2.2265  0.7853  1.8963
 2583SOL    HW219212   0.388   1.417   3.218 -0.1692 -0.6200 -0.2816
 2584SOL     OW19213   2.649   0.622   7.701 -0.0307  0.1554  0.4229
 2584SOL    HW119214   2.560   0.655   7.689  0.3763  0.3196 -2.1754
 2584SOL    HW219215   2.672   0.620   7.608  3.8461  1.3448  1.3636
 2585SOL     OW19216   1.778   1.046   4.961  0.0821  0.7174  0.0867
 2585SOL    HW119217   1.805   1.079   5.047  0.9340  0.4816 -0.0895
 2585SOL    HW219218   1.851   1.070   4.905 -0.0886 -0.3819 -0.6185
 2586SOL     OW19219   2.171   0.473   8.714  0.3776 -0.1973  0.1169
 2586SOL    HW119220   2.254   0.428   8.730  1.5718  1.5932 -1.0660
 2586SOL    HW219221   2.177   0.555   8.763 -0.4050 -0.0559 -0.0283
 2587SOL     OW19222   4.513   2.544  16.838 -0.3712 -0.3532  0.6033
 2587SOL    HW119223   4.429   2.512  16.806 -0.3828  2.8270 -2.5416
 2587SOL    HW219224   4.575   2.476  16.812  1.0867  1.8551 -1.7061
 2588SOL     OW19225   1.764   2.801  10.282  0.1310 -0.2196  0.1616
 2588SOL    HW119226   1.692   2.861  10.261 -0.9127 -0.5833  2.6881
 2588SOL    HW219227   1.784   2.756  10.200 -0.6373  0.5995 -0.4852
 2589SOL     OW19228   4.319   0.508   7.573  0.7306 -0.5971  0.3893
 2589SOL    HW119229   4.321   0.429   7.628  2.1092 -0.2352  0.8604
 2589SOL    HW219230   4.349   0.575   7.633 -0.6857  1.6284 -1.4077
 2590SOL     OW19231   0.303   3.448   9.400 -0.0348 -0.0850  0.0172
 2590SOL    HW119232   0.286   3.369   9.450 -2.9887 -1.3840 -3.0322
 2590SOL    HW219233   0.288   3.418   9.310 -0.3638  1.0336 -0.3099
 2591SOL     OW19234   1.297   4.214   7.058 -0.0861  0.3038 -0.1762
 2591SOL    HW119235   1.320   4.158   7.132 -2.1836  0.8113  0.8811
 2591SOL    HW219236   1.357   4.286   7.078  1.2412 -1.0107  0.6234
 2592SOL     OW19237   1.407   2.518   3.911  0.0411  0.7011  0.2724
 2592SOL    HW119238   1.439   2.481   3.993  0.9599  0.3828 -0.2388
 2592SOL    HW219239   1.444   2.466   3.840  0.1114  0.4209  0.5145
 2593SOL     OW19240   1.152   0.616   4.960  0.4803  0.0795 -0.0794
 2593SOL    HW119241   1.243   0.627   4.934  0.0684  2.2615 -0.5534
 2593SOL    HW219242   1.160   0.559   5.037  3.6282  1.8715  0.9420
 2594SOL     OW19243   0.540   4.356   6.624  0.3070 -0.0802  0.3925
 2594SOL    HW119244   0.621   4.403   6.605  0.4565 -0.1445  0.8644
 2594SOL    HW219245   0.467   4.417   6.612  0.6931  0.4721  0.8597
 2595SOL     OW19246   1.286   2.102   4.242 -0.6880  0.1046  0.3583
 2595SOL    HW119247   1.256   2.192   4.251  0.6214  0.7170 -1.3922
 2595SOL    HW219248   1.204   2.053   4.232 -1.8435  2.1890 -0.2587
 2596SOL     OW19249   3.933   3.247   6.836 -0.4727  0.2920 -0.3916
 2596SOL    HW119250   3.871   3.318   6.821 -0.3414  0.3108 -0.8442
 2596SOL    HW219251   4.007   3.285   6.883  0.2685 -2.7112  0.8901
 2597SOL     OW19252   0.069   2.102   1.243 -0.5175  0.7394 -0.0565
 2597SOL    HW119253   0.075   2.173   1.179  0.0659  1.3565  0.6762
 2597SOL    HW219254   4.719   2.140   1.290  0.3681  1.9643  0.3330
 2598SOL     OW19255   3.500   0.654  12.534  0.1455  0.6643  0.2472
 2598SOL    HW119256   3.506   0.708  12.455  1.5044  0.2083  0.0358
 2598SOL    HW219257   3.585   0.676  12.571 -0.1767 -0.0848  1.4085
 2599SOL     OW19258   2.963   0.574   4.285  0.2230  0.5109 -0.0553
 2599SOL    HW119259   3.038   0.623   4.318 -0.4994  0.8205  1.1063
 2599SOL    HW219260   2.900   0.636   4.247  1.2734  0.5975 -1.6565
 2600SOL     OW19261   2.663   4.666   4.604 -0.3279 -0.1069  0.1435
 2600SOL    HW119262   2.608   4.598   4.643 -0.7732  1.6856  2.6346
 2600SOL    HW219263   2.636   4.669   4.513 -0.5062 -0.2119  0.1940
 2601SOL     OW19264   2.028   1.694   4.950 -0.3253 -0.6912 -0.5089
 2601SOL    HW119265   1.994   1.718   4.865 -1.0063 -2.5729 -0.7761
 2601SOL    HW219266   2.083   1.618   4.927  0.6124 -0.2518  0.2645
 2602SOL     OW19267   2.635   2.059   1.745  0.3320 -0.3107  0.5608
 2602SOL    HW119268   2.622   1.965   1.733  0.7664 -0.0379 -2.2391
 2602SOL    HW219269   2.570   2.096   1.685  1.3697  1.3655  0.4651
 2603SOL     OW19270   0.983   0.657   8.293  0.4353  0.3687  0.3292
 2603SOL    HW119271   1.038   0.732   8.270 -0.2814  0.8227  0.1077
 2603SOL    HW219272   0.934   0.652   8.211 -1.2929  2.1671  1.2513
 2604SOL     OW19273   3.172   1.064   2.883  0.0219 -0.2843  0.0506
 2604SOL    HW119274   3.140   1.090   2.969  2.2526  1.8980  0.2362
 2604SOL    HW219275   3.128   1.138   2.840  0.4821 -0.5109 -0.8062
 2605SOL     OW19276   0.531   4.247   2.894 -0.0015 -0.4265  0.7434
 2605SOL    HW119277   0.541   4.335   2.930  3.1577 -1.4702  2.4236
 2605SOL    HW219278   0.621   4.218   2.877  0.0159  0.7577 -1.2146
 2606SOL     OW19279   1.723   0.651   4.668  0.5331  0.3465 -0.3980
 2606SOL    HW119280   1.732   0.668   4.761  0.0868 -1.2386 -0.0668
 2606SOL    HW219281   1.671   0.571   4.672 -1.2632  1.4767 -0.9284
 2607SOL     OW19282   1.429   1.661   2.908 -0.2507 -0.3973 -0.1229
 2607SOL    HW119283   1.479   1.579   2.912  1.4125  0.3832 -4.1094
 2607SOL    HW219284   1.460   1.688   2.821  1.6748  2.6480  1.5078
 2608SOL     OW19285   1.080   0.385   8.592 -0.3516  0.1599  0.0794
 2608SOL    HW119286   1.016   0.434   8.540  0.6618  0.5959 -0.7619
 2608SOL    HW219287   1.135   0.331   8.534 -0.2523  0.6320 -0.2724
 2609SOL     OW19288   1.722   2.928  12.544 -0.4275  0.8080  0.4372
 2609SOL    HW119289   1.710   2.957  12.454  1.6547 -0.1016 -0.1274
 2609SOL    HW219290   1.661   2.854  12.550 -2.0930  2.2265  1.2811
 2610SOL     OW19291   1.857   2.437   8.351  0.8690 -0.2282  0.0369
 2610SOL    HW119292   1.925   2.379   8.386  0.2049 -1.4028 -0.6154
 2610SOL    HW219293   1.846   2.505   8.419 -0.1576 -2.0042  1.6724
 2611SOL     OW19294   3.989   2.529   2.391  0.0299  0.1069  0.1575
 2611SOL    HW119295   3.955   2.552   2.478 -2.3998  0.8711 -0.9961
 2611SOL    HW219296   3.968   2.436   2.400  0.4639  0.0093  0.1405
 2612SOL     OW19297   3.758   4.460  17.024 -0.2385  0.2329  0.4895
 2612SOL    HW119298   3.726   4.370  17.019  0.5247  0.0434 -1.0101
 2612SOL    HW219299   3.728   4.495  16.940 -1.7888  1.3801  1.5098
 2613SOL     OW19300   3.833   3.444   6.153 -0.3338  0.3919  0.9740
 2613SOL    HW119301   3.905   3.394   6.116 -1.5942 -1.6772  1.3414
 2613SOL    HW219302   3.799   3.386   6.221  0.1172 -1.2077 -0.1849
 2614SOL     OW19303   1.761   2.557   7.816  0.8498  0.2173  0.4381
 2614SOL    HW119304   1.812   2.491   7.770 -1.1826  1.1879 -3.2569
 2614SOL    HW219305   1.798   2.544   7.903 -2.3898  1.0162  1.9367
 2615SOL     OW19306   2.216   0.612   3.097 -0.4015  0.5511 -0.4699
 2615SOL    HW119307   2.126   0.622   3.066 -1.7604 -3.3231  2.1604
 2615SOL    HW219308   2.256   0.561   3.027 -0.1437 -1.4318  1.1365
 2616SOL     OW19309   4.680   1.337   2.755 -0.1813  0.3599 -0.3569
 2616SOL    HW119310   4.640   1.386   2.683  1.5989  0.6542 -1.1377
 2616SOL    HW219311   4.604   1.287   2.784 -0.1565  1.0063  0.8241
 2617SOL     OW19312   4.142   4.187   4.310 -0.2605  0.3999 -0.2602
 2617SOL    HW119313   4.116   4.278   4.294  0.7244  0.6393 -0.5179
 2617SOL    HW219314   4.061   4.136   4.306 -0.0556  0.3208 -3.4608
 2618SOL     OW19315   2.801   0.526   6.886  0.5816 -0.1742  0.3425
 2618SOL    HW119316   2.747   0.460   6.930  0.6760  0.0901  0.8499
 2618SOL    HW219317   2.762   0.608   6.915  0.1962  1.1527 -3.8672
 2619SOL     OW19318   0.059   3.197   2.835  0.2203  0.1657  0.2318
 2619SOL    HW119319   4.716   3.193   2.903 -0.9059  0.2476 -0.8789
 2619SOL    HW219320   0.058   3.104   2.811 -0.3120  0.7735 -2.1463
 2620SOL     OW19321   0.782   2.667  11.423 -0.4396 -0.6003 -0.1301
 2620SOL    HW119322   0.748   2.607  11.489 -0.6942 -0.7827 -0.4275
 2620SOL    HW219323   0.810   2.601  11.360  2.8425  0.1528  0.5082
 2621SOL     OW19324   1.847   1.355   9.188 -0.0568 -0.5962  0.4035
 2621SOL    HW119325   1.758   1.388   9.193 -0.5650 -1.2313 -4.7660
 2621SOL    HW219326   1.855   1.299   9.265 -0.5851 -2.0552 -0.6109
 2622SOL     OW19327   4.539   4.570   9.203  0.6265  0.4455  0.0478
 2622SOL    HW119328   4.568   4.613   9.123 -0.9602  0.6607 -0.4141
 2622SOL    HW219329   4.458   4.612   9.234  2.1547  1.0753  3.2102
 2623SOL     OW19330   2.532   0.240   7.348 -0.0594 -0.1985  0.0484
 2623SOL    HW119331   2.463   0.254   7.413 -1.4351 -1.2265 -1.1891
 2623SOL    HW219332   2.525   0.315   7.289 -0.3288  0.1952  0.5823
 2624SOL     OW19333   4.224   3.113   7.526  0.4772 -0.1103 -0.0574
 2624SOL    HW119334   4.186   3.195   7.559 -3.3501 -2.4527  1.3794
 2624SOL    HW219335   4.290   3.144   7.465  0.8855  0.6118  0.7471
 2625SOL     OW19336   2.827   3.433   7.922  0.0497 -0.3482 -1.0510
 2625SOL    HW119337   2.834   3.492   7.846 -0.5189  0.7460 -0.2435
 2625SOL    HW219338   2.774   3.489   7.978  1.0735 -1.1929  0.7677
 2626SOL     OW19339   1.472   2.470   7.070  0.1482  0.2051  0.9128
 2626SOL    HW119340   1.420   2.473   6.989  0.0111 -1.7217  0.9322
 2626SOL    HW219341   1.448   2.546   7.122  1.3367 -0.4511  2.4141
 2627SOL     OW19342   4.123   2.281  14.743  0.1452 -0.2801 -0.1359
 2627SOL    HW119343   4.087   2.217  14.681 -1.1526  2.0489 -1.7588
 2627SOL    HW219344   4.047   2.339  14.752 -0.3923 -0.7438 -1.6623
 2628SOL     OW19345   4.455   0.683   3.776  0.5654  0.0707  0.1280
 2628SOL    HW119346   4.526   0.736   3.738 -1.5089  0.5069 -3.1185
 2628SOL    HW219347   4.377   0.722   3.738 -0.4459 -0.4957  1.6562
 2629SOL     OW19348   0.901   1.124   5.613  0.1578  0.3231  0.3062
 2629SOL    HW119349   0.848   1.118   5.533 -0.0855 -1.1047  0.5686
 2629SOL    HW219350   0.937   1.037   5.628 -1.6295 -0.6072 -0.7616
 2630SOL     OW19351   1.604   1.852   8.786 -0.2156 -0.0594  0.2015
 2630SOL    HW119352   1.642   1.937   8.808 -0.2449 -0.2180  0.8674
 2630SOL    HW219353   1.558   1.876   8.706 -0.6815 -0.9102  0.2091
 2631SOL     OW19354   2.820   2.557   7.963  0.1755  0.8800 -0.7509
 2631SOL    HW119355   2.827   2.471   8.003  3.8279  0.3368 -2.5191
 2631SOL    HW219356   2.905   2.595   7.987  0.7737 -0.6228 -0.5138
 2632SOL     OW19357   0.845   4.682   8.339 -0.0164 -0.0722  0.2446
 2632SOL    HW119358   0.847   0.013   8.262 -1.0652 -0.8853 -0.3614
 2632SOL    HW219359   0.760   4.705   8.376 -0.1691 -0.8471  0.3724
 2633SOL     OW19360   2.658   3.138   4.914  0.4118  0.0249  0.2854
 2633SOL    HW119361   2.628   3.135   5.005  0.5274 -0.7775  0.2920
 2633SOL    HW219362   2.643   3.229   4.886 -1.9358 -1.0919 -2.1536
 2634SOL     OW19363   0.458   2.588   9.028  0.0322 -0.1273  0.2251
 2634SOL    HW119364   0.548   2.561   9.012  0.4906  0.3986  2.0212
 2634SOL    HW219365   0.403   2.526   8.979  1.3725 -0.7327 -0.5087
 2635SOL     OW19366   1.317   4.625  10.891  1.6543  0.4488  0.1956
 2635SOL    HW119367   1.344   4.633  10.983  1.6116 -1.5526  0.3836
 2635SOL    HW219368   1.345   4.708  10.854 -1.2872  0.6179 -1.5966
 2636SOL     OW19369   2.525   0.105   3.631 -0.8383  0.1147 -0.5574
 2636SOL    HW119370   2.597   0.156   3.593 -1.3672  0.0758 -1.5967
 2636SOL    HW219371   2.447   0.147   3.596 -1.9936 -1.3222  0.3111
 2637SOL     OW19372   3.479   2.780   2.014  0.1271  0.6497 -0.4664
 2637SOL    HW119373   3.500   2.835   2.089 -1.2005  0.6248 -0.0783
 2637SOL    HW219374   3.387   2.804   2.002 -0.2747 -0.4929  0.3671
 2638SOL     OW19375   0.067   1.839   2.196 -0.4860  1.4133  0.3241
 2638SOL    HW119376   0.055   1.769   2.260 -0.9618  0.9675 -0.2357
 2638SOL    HW219377   4.698   1.847   2.176 -0.4857  0.2938 -0.1325
 2639SOL     OW19378   3.672   3.572   8.362 -0.2104  0.1218  0.1580
 2639SOL    HW119379   3.653   3.506   8.429 -1.9395 -0.1874 -0.6418
 2639SOL    HW219380   3.606   3.560   8.294  0.0774 -2.5547  0.3658
 2640SOL     OW19381   1.759   1.853   3.098 -0.2190 -0.4614 -0.4430
 2640SOL    HW119382   1.665   1.844   3.116  0.2123 -0.2498  1.9851
 2640SOL    HW219383   1.772   1.929   3.042 -0.1752  0.0207  0.2275
 2641SOL     OW19384   1.997   4.055   8.892  0.4322 -0.2986 -0.5796
 2641SOL    HW119385   1.976   4.145   8.914  0.9349 -0.9365  2.4918
 2641SOL    HW219386   1.941   4.051   8.815 -0.4670 -0.4571  0.0879
 2642SOL     OW19387   2.238   1.736   0.909 -0.1007  0.3061 -0.6989
 2642SOL    HW119388   2.245   1.752   1.003 -1.0475 -0.6234 -0.4653
 2642SOL    HW219389   2.193   1.652   0.909  0.8467 -0.2077 -1.2386
 2643SOL     OW19390   4.567   2.452  11.040 -0.0194  0.3741  0.0253
 2643SOL    HW119391   4.630   2.432  11.110  0.1924 -0.5756 -0.4344
 2643SOL    HW219392   4.572   2.548  11.045  1.5975  0.2644  0.4829
 2644SOL     OW19393   3.930   4.324   3.491  0.0650  0.1562 -0.7033
 2644SOL    HW119394   3.868   4.345   3.422 -1.3370  0.5359  0.6662
 2644SOL    HW219395   3.982   4.401   3.512 -0.2696 -0.3225  1.9157
 2645SOL     OW19396   0.549   1.806  11.549  0.2141 -0.2264  0.1531
 2645SOL    HW119397   0.541   1.756  11.468 -0.4251  0.6115 -0.2990
 2645SOL    HW219398   0.643   1.815  11.536  0.1826 -0.5046 -0.2870
 2646SOL     OW19399   2.920   0.362  15.391 -0.0170  0.4492 -0.3470
 2646SOL    HW119400   2.926   0.323  15.304 -1.4395 -0.1181 -0.1858
 2646SOL    HW219401   2.983   0.324  15.452 -0.0970 -0.4620 -0.8314
 2647SOL     OW19402   3.916   1.273   4.770  0.3773  0.1499 -0.3246
 2647SOL    HW119403   3.868   1.309   4.844  2.1004  1.5493  0.1132
 2647SOL    HW219404   4.003   1.278   4.809  1.0842  0.1709 -1.8798
 2648SOL     OW19405   3.228   1.237   4.491  0.2395 -0.2415 -0.2090
 2648SOL    HW119406   3.324   1.226   4.488  0.3475  0.8383 -0.6379
 2648SOL    HW219407   3.203   1.152   4.455  0.6455 -0.9038  1.0390
 2649SOL     OW19408   1.971   4.660   1.334  0.2650  0.6161  0.5451
 2649SOL    HW119409   2.056   4.698   1.357  0.9439  0.5288 -1.8030
 2649SOL    HW219410   1.922   0.011   1.300 -2.8337 -1.2759  0.8491
 2650SOL     OW19411   1.044   3.204   4.852 -0.5081 -0.3945 -0.0834
 2650SOL    HW119412   0.958   3.230   4.883 -0.3624  0.3793 -0.3229
 2650SOL    HW219413   1.106   3.277   4.862 -0.3563 -0.6766  1.0514
 2651SOL     OW19414   4.307   0.707   2.272  0.7944  0.1204  0.5386
 2651SOL    HW119415   4.251   0.770   2.227  0.8676  0.0438  0.3407
 2651SOL    HW219416   4.288   0.635   2.211 -0.0021  1.8364 -1.2359
 2652SOL     OW19417   3.152   3.695   6.176 -0.5317  0.2834  0.5660
 2652SOL    HW119418   3.241   3.726   6.159 -0.3313 -0.2871  0.5599
 2652SOL    HW219419   3.137   3.732   6.263  1.7791 -0.9170  1.4628
 2653SOL     OW19420   4.126   1.262   3.955 -0.0606  0.3438  0.1291
 2653SOL    HW119421   4.118   1.306   3.871 -1.7149  0.0845  0.1637
 2653SOL    HW219422   4.054   1.205   3.929 -1.6692  2.1097  0.7831
 2654SOL     OW19423   3.918   3.215  12.505  0.5756 -0.2309 -0.2391
 2654SOL    HW119424   3.938   3.162  12.428 -0.0993 -1.6433  0.5632
 2654SOL    HW219425   3.893   3.144  12.565 -1.1213 -0.0016 -0.6929
 2655SOL     OW19426   3.194   0.967   5.139 -0.0796  0.3492 -0.9026
 2655SOL    HW119427   3.268   0.932   5.088 -1.9153 -1.7835 -2.0887
 2655SOL    HW219428   3.206   0.928   5.225 -1.8372  0.9095 -0.4099
 2656SOL     OW19429   2.692   2.463   2.651  0.8608 -0.4449 -0.0573
 2656SOL    HW119430   2.634   2.478   2.575  1.9031 -0.3070 -0.8237
 2656SOL    HW219431   2.635   2.469   2.728 -0.8534 -1.0020 -1.2634
 2657SOL     OW19432   0.175   3.184  16.102  0.2229 -0.5735 -0.4148
 2657SOL    HW119433   0.102   3.236  16.068  1.2662 -0.1207 -1.9694
 2657SOL    HW219434   0.158   3.100  16.058 -2.0244  0.1806 -1.0014
 2658SOL     OW19435   3.318   1.646   3.962 -0.1216  0.3025 -0.7092
 2658SOL    HW119436   3.313   1.689   4.047 -0.5079  0.3740 -0.7683
 2658SOL    HW219437   3.412   1.660   3.946  0.5722 -4.3676 -0.8048
 2659SOL     OW19438   3.203   4.236  15.784 -0.3832  0.5717  0.8458
 2659SOL    HW119439   3.202   4.198  15.696 -4.5584  0.7991  0.8403
 2659SOL    HW219440   3.119   4.207  15.818 -0.7379  1.2807  0.5602
 2660SOL     OW19441   0.593   3.345   0.813 -0.5607 -0.2330  0.4760
 2660SOL    HW119442   0.540   3.274   0.777 -0.7750  0.4770 -0.5850
 2660SOL    HW219443   0.621   3.311   0.898 -1.4206  0.7836  1.1634
 2661SOL     OW19444   2.814   2.580   2.964 -0.1502  0.2116 -0.4057
 2661SOL    HW119445   2.729   2.607   2.930  0.4766  0.2362 -1.9960
 2661SOL    HW219446   2.810   2.485   2.950 -1.2458 -0.3173  3.5337
 2662SOL     OW19447   2.015   4.183  14.073  0.4871 -0.0981  0.4900
 2662SOL    HW119448   2.083   4.205  14.137  1.3932  1.2165 -0.9198
 2662SOL    HW219449   2.017   4.088  14.088 -1.0124 -0.3277 -0.7257
 2663SOL     OW19450   4.050   4.124   9.344 -0.5068  0.1862 -0.7342
 2663SOL    HW119451   4.006   4.093   9.265 -1.2714 -1.6112  0.4117
 2663SOL    HW219452   4.139   4.148   9.316  0.0405 -0.4055  0.5136
 2664SOL     OW19453   3.518   2.774  14.639  0.1563 -0.4634  0.3826
 2664SOL    HW119454   3.502   2.830  14.563  2.1499  0.6808  0.8284
 2664SOL    HW219455   3.456   2.701  14.631 -0.8941  0.4178  0.5425
 2665SOL     OW19456   3.355   2.121   6.843 -0.7350 -0.0749 -0.4538
 2665SOL    HW119457   3.423   2.089   6.784 -0.3186  0.9710 -0.5377
 2665SOL    HW219458   3.414   2.155   6.910  0.7550 -0.4801 -1.5720
 2666SOL     OW19459   2.476   2.050   8.451  0.4168 -0.6624  0.2465
 2666SOL    HW119460   2.408   2.023   8.390 -0.3747 -0.0673  0.8610
 2666SOL    HW219461   2.426   2.116   8.499  1.5135 -0.2796  0.8894
 2667SOL     OW19462   4.376   2.051  13.608  0.1864  0.1909 -0.3243
 2667SOL    HW119463   4.446   2.050  13.543 -2.4827  0.6362 -3.2067
 2667SOL    HW219464   4.358   1.958  13.618 -0.7035  0.4890  0.8714
 2668SOL     OW19465   1.025   2.809   8.945  0.2623 -0.0389 -0.1305
 2668SOL    HW119466   1.118   2.792   8.962  0.5790  0.0499 -1.7876
 2668SOL    HW219467   0.977   2.771   9.019 -1.7561  0.7317 -1.0569
 2669SOL     OW19468   2.100   3.394  10.040 -0.2686 -0.4417  0.2647
 2669SOL    HW119469   2.140   3.425  10.121  1.7557 -0.8813 -0.5573
 2669SOL    HW219470   2.152   3.320  10.008  0.8741 -0.2841  1.7370
 2670SOL     OW19471   0.432   4.232   1.477 -0.1376 -0.1461  0.5563
 2670SOL    HW119472   0.425   4.297   1.408  0.3222 -2.4607 -1.6803
 2670SOL    HW219473   0.354   4.256   1.528 -0.0993  1.1365  0.0011
 2671SOL     OW19474   0.559   1.827  10.090 -0.0442 -0.0682  0.1905
 2671SOL    HW119475   0.582   1.878  10.012 -1.6465  0.0582 -0.1982
 2671SOL    HW219476   0.591   1.883  10.161 -0.6107 -0.6873  0.9307
 2672SOL     OW19477   1.632   1.275   3.211  0.4663 -0.4206 -0.1973
 2672SOL    HW119478   1.547   1.231   3.222  1.2358 -1.4400  1.6869
 2672SOL    HW219479   1.662   1.224   3.136 -0.3070  0.1042 -0.8480
 2673SOL     OW19480   4.724   3.232   3.985  0.5449  0.2016  0.3168
 2673SOL    HW119481   0.015   3.139   3.972 -0.4763  0.0517  0.1517
 2673SOL    HW219482   4.660   3.234   4.057  1.2354 -1.9583  0.9709
 2674SOL     OW19483   3.033   2.412   5.490 -0.1175  0.6798 -0.0752
 2674SOL    HW119484   3.128   2.418   5.497  0.0991 -2.2398 -0.3412
 2674SOL    HW219485   3.015   2.318   5.481 -1.4027  0.6760  2.5341
 2675SOL     OW19486   0.621   1.133   7.406 -0.3319  0.4732  0.2426
 2675SOL    HW119487   0.598   1.149   7.498 -1.2392  0.7769 -0.0450
 2675SOL    HW219488   0.562   1.061   7.384  1.2655 -0.3306 -1.4317
 2676SOL     OW19489   3.318   2.545  14.256  0.5026 -0.0935  0.3926
 2676SOL    HW119490   3.235   2.517  14.294  0.0777 -0.9985 -1.2083
 2676SOL    HW219491   3.348   2.603  14.326  0.5760 -1.0749  1.1758
 2677SOL     OW19492   3.910   4.535   3.745 -0.1633  0.1161  0.0319
 2677SOL    HW119493   3.966   4.599   3.788 -2.5416  1.5957  0.9631
 2677SOL    HW219494   3.963   4.457   3.753  0.9435  0.5783 -2.7146
 2678SOL     OW19495   0.637   3.515  17.651  0.0350 -0.3535 -0.2719
 2678SOL    HW119496   0.723   3.536  17.616  0.5788 -0.6472  0.8722
 2678SOL    HW219497   0.631   3.419  17.656  0.0783 -0.3554 -0.2559
 2679SOL     OW19498   3.373   1.137   7.153  0.2342 -0.2297  0.1921
 2679SOL    HW119499   3.349   1.127   7.245  1.2373 -2.7407  0.1844
 2679SOL    HW219500   3.324   1.067   7.108 -1.8316  1.9610 -0.9918
 2680SOL     OW19501   0.385   0.343   4.525  0.0080  0.1871  0.0501
 2680SOL    HW119502   0.431   0.320   4.445 -0.8460 -0.7572 -0.1777
 2680SOL    HW219503   0.404   0.268   4.583 -1.9571 -0.7725 -0.5434
 2681SOL     OW19504   2.859   2.130   7.532 -0.4739  0.5329  0.7817
 2681SOL    HW119505   2.947   2.108   7.560 -0.2872 -0.1781 -0.3467
 2681SOL    HW219506   2.813   2.157   7.612  0.7115 -0.4450  1.7862
 2682SOL     OW19507   0.320   2.085   5.669 -0.0449 -0.3608  0.4086
 2682SOL    HW119508   0.286   2.171   5.644 -0.1182 -0.0103  1.7312
 2682SOL    HW219509   0.263   2.024   5.622 -1.3461  1.2897 -0.1466
 2683SOL     OW19510   4.525   1.119   8.348 -0.0494  0.0668  0.6523
 2683SOL    HW119511   4.528   1.173   8.427  1.9661  2.0300 -0.7593
 2683SOL    HW219512   4.486   1.190   8.297 -1.1984 -1.1711 -0.1763
 2684SOL     OW19513   2.480   1.774   4.157  0.5087  0.0669  0.5666
 2684SOL    HW119514   2.500   1.709   4.090 -0.3731 -0.1124  0.4866
 2684SOL    HW219515   2.408   1.822   4.116  1.1960  0.2720 -0.4077
 2685SOL     OW19516   4.573   1.413   2.505 -0.2403  0.0693 -0.1527
 2685SOL    HW119517   4.580   1.328   2.462  4.4764 -1.0034  2.6590
 2685SOL    HW219518   4.622   1.472   2.448  2.6837 -1.4783  0.7702
 2686SOL     OW19519   2.856   0.781  17.465 -0.5764 -0.0998 -0.7335
 2686SOL    HW119520   2.853   0.702  17.411 -0.2369 -0.2472 -0.5327
 2686SOL    HW219521   2.949   0.798  17.477 -0.9076  0.0497  1.6754
 2687SOL     OW19522   2.546   4.695   9.034  0.1275  0.3269  0.2876
 2687SOL    HW119523   2.628   4.645   9.027  0.1666  0.9141 -3.0744
 2687SOL    HW219524   2.478   4.631   9.014 -0.2646  1.6353 -2.4547
 2688SOL     OW19525   0.065   1.331   3.149 -0.6345  0.2418  0.3238
 2688SOL    HW119526   0.140   1.375   3.108 -2.3597  0.5165 -2.5441
 2688SOL    HW219527   0.079   1.239   3.127 -0.3625  0.2748  0.3600
 2689SOL     OW19528   1.705   0.554   1.304 -0.3606  0.2978  0.3442
 2689SOL    HW119529   1.764   0.627   1.283  1.2750 -1.0196  0.3833
 2689SOL    HW219530   1.751   0.507   1.373  0.1151  1.4948  0.8484
 2690SOL     OW19531   2.082   0.514   6.152  0.4673  0.4317 -0.5145
 2690SOL    HW119532   2.136   0.593   6.144  0.9229 -0.1952 -3.4415
 2690SOL    HW219533   2.144   0.443   6.137 -0.9699 -0.8961 -0.1869
 2691SOL     OW19534   3.225   4.365   2.681  0.3893  0.0140  0.0965
 2691SOL    HW119535   3.317   4.339   2.689  1.1312  1.8646 -2.1756
 2691SOL    HW219536   3.204   4.320   2.599  1.2872 -1.3315  0.6104
 2692SOL     OW19537   4.128   0.765  17.356  0.6619  0.0922  0.2926
 2692SOL    HW119538   4.096   0.845  17.315 -0.4898 -0.5547 -0.0911
 2692SOL    HW219539   4.147   0.713  17.277  0.1076 -0.8751  0.7854
 2693SOL     OW19540   2.196   0.412   5.076  0.3709 -0.4010 -0.5574
 2693SOL    HW119541   2.161   0.340   5.024  0.9489  0.6030 -2.3263
 2693SOL    HW219542   2.275   0.371   5.112  0.2106 -0.3925 -0.2023
 2694SOL     OW19543   1.637   1.606   2.258  0.1705  0.2921 -0.1422
 2694SOL    HW119544   1.569   1.672   2.273 -1.2747 -1.6658  1.9429
 2694SOL    HW219545   1.696   1.623   2.331 -0.7778 -0.5859  0.8314
 2695SOL     OW19546   2.709   1.217   9.110  0.1098  0.5584  0.3092
 2695SOL    HW119547   2.687   1.131   9.144  0.4140  0.7052  0.8820
 2695SOL    HW219548   2.645   1.279   9.145  1.4991  2.5794 -0.7025
 2696SOL     OW19549   3.469   1.384   5.938 -0.1925 -0.4593 -0.1748
 2696SOL    HW119550   3.391   1.396   5.993 -1.5034 -0.8839 -1.9386
 2696SOL    HW219551   3.533   1.371   6.008 -1.1977  0.9248  1.0044
 2697SOL     OW19552   3.109   4.454   3.555 -0.2862  0.0257  0.1248
 2697SOL    HW119553   3.179   4.389   3.547 -0.7406 -0.3471 -0.8588
 2697SOL    HW219554   3.039   4.402   3.517 -1.4497  0.9497  1.0240
 2698SOL     OW19555   4.205   3.968  16.257 -0.5398 -0.4462  0.1423
 2698SOL    HW119556   4.232   4.052  16.292 -1.0028 -0.3848  0.3405
 2698SOL    HW219557   4.295   3.935  16.249  0.3930  2.1775 -0.2686
 2699SOL     OW19558   0.678   1.757   3.918 -0.0119  0.4006  0.0423
 2699SOL    HW119559   0.663   1.668   3.887 -0.1725  0.8445 -1.1651
 2699SOL    HW219560   0.774   1.753   3.921  0.0111  0.2216 -0.8866
 2700SOL     OW19561   1.885   2.520   1.941 -0.4574 -0.2297  0.1447
 2700SOL    HW119562   1.826   2.444   1.950  0.2807 -0.8068  0.1254
 2700SOL    HW219563   1.947   2.490   2.007 -0.9534  0.1660  0.7926
 2701SOL     OW19564   3.851   2.912   6.090  0.1121 -0.3813 -0.5261
 2701SOL    HW119565   3.846   2.827   6.046  2.7031 -1.3228  1.0015
 2701SOL    HW219566   3.841   2.878   6.178 -0.7059 -0.2601 -0.5661
 2702SOL     OW19567   3.914   1.056   5.857  0.6180 -0.1828  0.3492
 2702SOL    HW119568   3.835   1.055   5.912 -1.0243  1.3054 -1.9803
 2702SOL    HW219569   3.942   1.138   5.898  2.0987 -0.9820  0.9006
 2703SOL     OW19570   4.546   3.031  12.725 -0.5011  0.3201 -0.0211
 2703SOL    HW119571   4.604   3.059  12.796  0.5495 -0.6778 -0.5091
 2703SOL    HW219572   4.534   3.113  12.678  2.7148  0.9633  0.3069
 2704SOL     OW19573   2.453   2.010   3.103 -0.2620  0.3450  0.0459
 2704SOL    HW119574   2.460   1.915   3.090 -0.6156  0.1544  1.2076
 2704SOL    HW219575   2.404   2.017   3.185  1.2625  0.4986  0.9496
 2705SOL     OW19576   2.062   3.047   9.235  0.9289 -0.5033 -0.3918
 2705SOL    HW119577   2.087   2.982   9.169  0.3467 -1.3112  0.1792
 2705SOL    HW219578   2.087   3.005   9.317  0.9444  0.5562  0.1479
 2706SOL     OW19579   1.544   4.081   3.066 -0.3054 -0.0253  0.2517
 2706SOL    HW119580   1.542   3.998   3.019 -1.6831  0.2733 -0.2039
 2706SOL    HW219581   1.522   4.138   2.992  1.3052 -0.4771 -0.5690
 2707SOL     OW19582   4.539   1.102   2.673  0.7367  0.4311  0.3643
 2707SOL    HW119583   4.565   1.114   2.582 -2.6880 -0.8813 -0.7896
 2707SOL    HW219584   4.604   1.034   2.691 -0.2783 -0.9759 -1.2499
 2708SOL     OW19585   2.622   0.181   6.338  0.0634 -0.5225  0.1009
 2708SOL    HW119586   2.571   0.140   6.269  0.3190 -0.1606 -0.2982
 2708SOL    HW219587   2.590   0.133   6.414  1.3202 -1.3269  0.1171
 2709SOL     OW19588   1.109   4.632   6.088  0.2545  0.4001  0.2691
 2709SOL    HW119589   1.067   4.658   6.006 -1.7479 -2.3217  0.4356
 2709SOL    HW219590   1.116   4.721   6.123 -1.0697  0.7168 -0.2625
 2710SOL     OW19591   4.157   1.704   3.338 -0.1394  0.4996 -0.3228
 2710SOL    HW119592   4.135   1.751   3.418  1.1921  0.4243  0.0929
 2710SOL    HW219593   4.230   1.759   3.307  0.1453  1.1737  1.5365
 2711SOL     OW19594   3.747   3.443  12.514  0.1451  0.0029  0.6509
 2711SOL    HW119595   3.807   3.370  12.498 -0.4384 -0.7637  1.9394
 2711SOL    HW219596   3.810   3.508  12.545 -0.7699  1.7347 -1.1622
 2712SOL     OW19597   3.270   0.614   8.041 -0.2365 -0.6231  0.5635
 2712SOL    HW119598   3.314   0.680   7.988 -2.7461  0.1091 -0.6150
 2712SOL    HW219599   3.185   0.604   7.998 -0.2046  2.1457 -0.1528
 2713SOL     OW19600   1.319   0.779   5.773  0.1141 -0.3571 -0.6528
 2713SOL    HW119601   1.295   0.695   5.813 -0.7263 -0.8137 -2.1284
 2713SOL    HW219602   1.293   0.771   5.682  4.1374 -1.3926 -1.7188
 2714SOL     OW19603   2.818   1.569   9.390  0.1782  0.2621 -0.2836
 2714SOL    HW119604   2.901   1.614   9.375  0.6290 -0.3386  0.4193
 2714SOL    HW219605   2.804   1.592   9.482 -0.2153  0.0239 -0.2852
 2715SOL     OW19606   2.383   4.129   5.962  0.0406  0.0734 -0.0388
 2715SOL    HW119607   2.449   4.076   5.918 -0.5797  0.0928 -0.9882
 2715SOL    HW219608   2.301   4.083   5.941  1.1414 -1.7549 -0.3146
 2716SOL     OW19609   0.366   4.257   3.814 -0.2678  0.1163 -0.0130
 2716SOL    HW119610   0.435   4.215   3.866  1.2959  1.6015 -0.8765
 2716SOL    HW219611   0.352   4.195   3.742  0.2815 -1.3891  1.1797
 2717SOL     OW19612   1.052   2.592   8.285  0.6216 -0.1147  0.1538
 2717SOL    HW119613   0.999   2.529   8.334  0.1280  1.0825  1.1500
 2717SOL    HW219614   0.991   2.621   8.217 -0.3397 -1.9230  0.2573
 2718SOL     OW19615   0.660   1.093   2.345  0.4388  0.5816 -0.2524
 2718SOL    HW119616   0.697   1.007   2.324 -1.9890  0.0341 -2.2766
 2718SOL    HW219617   0.658   1.135   2.258 -0.3755  1.6103  0.2730
 2719SOL     OW19618   0.042   3.889   4.008 -0.1199  0.3309 -0.8141
 2719SOL    HW119619   0.048   3.796   4.027  1.9426  0.4704 -0.8097
 2719SOL    HW219620   0.072   3.884   3.917  0.9865  0.2782 -0.4379
 2720SOL     OW19621   2.537   2.830   5.872  0.5570 -0.3268  0.4244
 2720SOL    HW119622   2.513   2.738   5.864 -0.8892  0.2601 -1.9293
 2720SOL    HW219623   2.477   2.853   5.944  1.8848 -0.1631  1.4895
 2721SOL     OW19624   2.565   2.646   0.509  0.3208  0.5005 -0.1364
 2721SOL    HW119625   2.518   2.686   0.583 -0.2038  1.3976 -0.9595
 2721SOL    HW219626   2.502   2.583   0.475  1.8827 -0.5370 -1.0831
 2722SOL     OW19627   1.845   2.644  15.667  0.2661  0.6672  0.0494
 2722SOL    HW119628   1.912   2.654  15.599  0.9563 -0.8998  0.4927
 2722SOL    HW219629   1.908   2.684  15.728  0.9297 -2.5969  1.4907
 2723SOL     OW19630   1.961   3.837   9.436 -0.4479 -0.2118  0.3007
 2723SOL    HW119631   2.003   3.923   9.448  4.2088 -2.1506 -2.1291
 2723SOL    HW219632   1.887   3.869   9.384 -0.9089 -0.3537  0.8717
 2724SOL     OW19633   2.506   4.165  17.011 -0.0156 -0.6086 -0.2392
 2724SOL    HW119634   2.458   4.114  17.076 -0.7341 -1.2354 -1.2688
 2724SOL    HW219635   2.594   4.143  17.041 -0.0017  0.5362  0.5984
 2725SOL     OW19636   4.245   4.436   1.334 -0.8875  0.1741  0.2221
 2725SOL    HW119637   4.176   4.418   1.398 -1.0353  1.0310  0.3000
 2725SOL    HW219638   4.271   4.518   1.376 -1.0282  0.9644 -1.2099
 2726SOL     OW19639   1.206   0.784   8.738  0.4995 -0.2457 -0.1782
 2726SOL    HW119640   1.135   0.769   8.801  1.3463  1.4384  1.1907
 2726SOL    HW219641   1.274   0.758   8.799  0.4616 -1.2565 -0.5753
 2727SOL     OW19642   3.919   3.679   0.974  0.3039 -0.2461  0.7246
 2727SOL    HW119643   3.934   3.645   1.062  0.8019  1.2271  1.2082
 2727SOL    HW219644   3.886   3.767   0.993 -0.3277 -0.3257 -0.0190
 2728SOL     OW19645   0.851   2.970  14.879 -0.0838 -0.0493  0.0156
 2728SOL    HW119646   0.903   3.026  14.936  1.4226 -1.2961 -0.1300
 2728SOL    HW219647   0.900   2.995  14.801 -0.0195 -0.1696  0.0164
 2729SOL     OW19648   1.272   2.769   2.060 -0.0916 -0.6754 -0.1638
 2729SOL    HW119649   1.311   2.773   1.972 -0.2794  0.3330 -0.2026
 2729SOL    HW219650   1.317   2.830   2.119 -0.6665 -1.8887  1.5201
 2730SOL     OW19651   2.518   2.645   7.348  0.5138  0.3229 -0.7774
 2730SOL    HW119652   2.570   2.607   7.277  1.5547 -1.0513  0.7175
 2730SOL    HW219653   2.428   2.635   7.318  1.1548 -0.6368 -2.3717
 2731SOL     OW19654   0.355   0.939   5.754  0.0214 -0.1436  0.4014
 2731SOL    HW119655   0.343   1.027   5.789 -0.0214 -0.8055  2.0607
 2731SOL    HW219656   0.362   0.883   5.831  2.1751  2.5547  2.1853
 2732SOL     OW19657   3.512   2.844  14.888 -0.4445  0.5151  0.2151
 2732SOL    HW119658   3.417   2.840  14.893 -0.3460  0.3567  2.0030
 2732SOL    HW219659   3.521   2.802  14.802 -0.2759 -1.0943  1.0316
 2733SOL     OW19660   2.019   1.834   4.606 -1.0091 -1.0216 -0.1612
 2733SOL    HW119661   2.101   1.786   4.620 -0.7131 -0.7314 -0.8757
 2733SOL    HW219662   2.023   1.863   4.514 -2.4519 -0.8362 -0.1535
 2734SOL     OW19663   2.860   2.966   1.683 -0.2054 -0.2977  0.1215
 2734SOL    HW119664   2.842   3.008   1.767 -0.1878  0.1750 -0.1136
 2734SOL    HW219665   2.831   2.877   1.703  1.6393 -1.2934 -1.5949
 2735SOL     OW19666   1.737   3.766   4.761  0.3033 -0.7853  0.1717
 2735SOL    HW119667   1.687   3.730   4.835 -0.2762  0.1996  0.2701
 2735SOL    HW219668   1.804   3.699   4.766 -0.8208 -1.7252  2.7285
 2736SOL     OW19669   3.743   0.197  15.889 -0.1136  0.2561  0.2389
 2736SOL    HW119670   3.805   0.253  15.842  0.0970  1.6381  2.1715
 2736SOL    HW219671   3.807   0.178  15.957  0.9861  0.2282 -0.8084
 2737SOL     OW19672   3.183   3.805   6.431 -0.3760  0.1995  0.0113
 2737SOL    HW119673   3.253   3.825   6.493  0.5610  1.0256 -1.3262
 2737SOL    HW219674   3.135   3.887   6.440 -1.1398 -0.1042 -1.2955
 2738SOL     OW19675   1.506   4.080  16.643 -0.4361  0.0176 -0.4007
 2738SOL    HW119676   1.521   4.030  16.723 -0.9237 -0.4113 -0.5770
 2738SOL    HW219677   1.573   4.061  16.578 -0.9950 -0.3558 -0.8692
 2739SOL     OW19678   0.754   2.401   5.877  0.3722  0.4086 -0.2621
 2739SOL    HW119679   0.676   2.411   5.931 -1.2894 -0.8324 -2.4058
 2739SOL    HW219680   0.826   2.384   5.938  0.5070 -2.2839 -1.1487
 2740SOL     OW19681   2.005   1.545   6.491 -0.3446 -0.1693 -0.0645
 2740SOL    HW119682   1.990   1.544   6.396 -1.3861 -1.3387  0.1209
 2740SOL    HW219683   2.031   1.637   6.500  1.7048 -0.4133 -3.1415
 2741SOL     OW19684   4.497   3.962  15.475 -0.6994  0.4207  0.0124
 2741SOL    HW119685   4.422   3.930  15.524  1.2736 -3.7899  0.2204
 2741SOL    HW219686   4.496   4.051  15.510  1.1927  0.7188 -0.7042
 2742SOL     OW19687   4.587   3.749   3.302  0.2545 -0.0503 -0.2755
 2742SOL    HW119688   4.563   3.693   3.376  0.5332 -2.5024 -2.0321
 2742SOL    HW219689   4.510   3.741   3.246 -0.3585  1.7954  0.2974
 2743SOL     OW19690   0.168   1.246   3.796  0.0292 -0.0257 -1.0418
 2743SOL    HW119691   0.182   1.179   3.729 -1.1254 -0.6177 -0.6909
 2743SOL    HW219692   0.136   1.190   3.867  0.3522 -1.3108 -1.9038
 2744SOL     OW19693   2.273   3.717  15.680 -0.0490 -0.6443 -0.5448
 2744SOL    HW119694   2.257   3.636  15.729  2.0955 -1.3339 -1.0011
 2744SOL    HW219695   2.203   3.715  15.615 -1.7529 -1.4854  1.3311
 2745SOL     OW19696   3.587   4.399   2.154  0.4710  0.0004  0.1688
 2745SOL    HW119697   3.494   4.401   2.176  0.2091  1.4656 -1.0755
 2745SOL    HW219698   3.601   4.304   2.151  0.2956 -0.0634  1.5228
 2746SOL     OW19699   0.231   2.654   2.189  0.2427  0.2697 -0.1884
 2746SOL    HW119700   0.321   2.643   2.222 -0.0628 -0.9934  0.2297
 2746SOL    HW219701   0.183   2.663   2.271 -0.6059  0.9266 -0.7553
 2747SOL     OW19702   1.196   3.838   1.622 -0.5053  0.4071  0.4897
 2747SOL    HW119703   1.242   3.792   1.693 -1.9433  0.6554  1.5905
 2747SOL    HW219704   1.173   3.771   1.558  0.9786  2.7014 -2.3788
 2748SOL     OW19705   3.670   2.710  12.935 -1.0363 -0.4234 -0.1154
 2748SOL    HW119706   3.578   2.736  12.939 -0.5677  1.3312 -0.3889
 2748SOL    HW219707   3.719   2.765  12.997  0.8188  0.1958 -2.1279
 2749SOL     OW19708   2.198   4.323   1.527 -0.2249 -0.8099 -0.5391
 2749SOL    HW119709   2.247   4.244   1.507  0.5653 -0.1729 -1.1454
 2749SOL    HW219710   2.173   4.354   1.440  3.7464 -1.4558 -1.9242
 2750SOL     OW19711   1.663   1.598   5.218 -0.2277  0.7219  0.1007
 2750SOL    HW119712   1.591   1.536   5.230 -0.8550  0.9207 -2.5750
 2750SOL    HW219713   1.626   1.652   5.148 -0.5762  0.6163  0.2007
 2751SOL     OW19714   1.287   1.334   2.493  0.6114 -0.2903  0.0518
 2751SOL    HW119715   1.337   1.319   2.413 -0.9303  0.0537 -0.9777
 2751SOL    HW219716   1.292   1.251   2.541 -2.0765  0.5541  1.7799
 2752SOL     OW19717   3.395   1.029   3.027 -0.4186 -0.1982  0.4592
 2752SOL    HW119718   3.398   1.125   3.026 -1.6406 -0.1122  4.8031
 2752SOL    HW219719   3.324   1.017   2.965 -1.0467  1.2627  0.8979
 2753SOL     OW19720   3.279   3.234   2.293  0.1735  0.6139  0.2446
 2753SOL    HW119721   3.373   3.215   2.304  0.1469 -0.0382 -0.6240
 2753SOL    HW219722   3.271   3.327   2.313 -0.0247  0.5128  0.6294
 2754SOL     OW19723   4.075   3.219   8.929  0.0592 -0.0899 -0.0196
 2754SOL    HW119724   4.040   3.277   8.996 -2.0199 -0.1397 -1.0901
 2754SOL    HW219725   4.093   3.140   8.981 -1.5775 -0.4117  0.0621
 2755SOL     OW19726   0.635   3.815   0.585  0.1842 -0.0299 -0.1992
 2755SOL    HW119727   0.634   3.892   0.528 -0.6048  0.5927  0.6469
 2755SOL    HW219728   0.576   3.847   0.653 -0.5778 -1.6610 -0.1104
 2756SOL     OW19729   1.342   0.950   7.452  0.3753 -0.7771 -0.0729
 2756SOL    HW119730   1.341   0.910   7.539  1.5447 -2.0214 -0.6350
 2756SOL    HW219731   1.435   0.961   7.435  0.8263 -1.1004  2.1093
 2757SOL     OW19732   0.018   2.236   9.560 -0.0774  0.5107  0.3574
 2757SOL    HW119733   0.026   2.286   9.641  0.9515  1.4447 -0.3338
 2757SOL    HW219734   4.691   2.162   9.594 -1.6413  0.1394 -2.7495
 2758SOL     OW19735   0.882   0.199  12.208  0.3724  0.4677  0.4870
 2758SOL    HW119736   0.924   0.277  12.245 -0.3324  2.1338 -2.2056
 2758SOL    HW219737   0.957   0.140  12.200 -0.3434 -0.1111 -1.9894
 2759SOL     OW19738   2.385   2.704   8.069 -0.2376  0.2552  0.8333
 2759SOL    HW119739   2.371   2.632   8.130 -0.4250 -0.8318 -0.4962
 2759SOL    HW219740   2.297   2.743   8.070  0.5270  2.0154  0.3232
 2760SOL     OW19741   4.360   2.893   2.605 -1.0201 -0.3843  0.1987
 2760SOL    HW119742   4.331   2.961   2.666 -1.8096 -1.2646  0.7928
 2760SOL    HW219743   4.360   2.949   2.527  1.2019 -1.5723 -0.6711
 2761SOL     OW19744   0.913   0.080  10.707  0.3245 -0.4171  0.3062
 2761SOL    HW119745   1.000   0.040  10.702  1.0602  1.0321  1.5405
 2761SOL    HW219746   0.904   0.109  10.798 -0.1123  0.7821 -0.1116
 2762SOL     OW19747   4.306   0.745   1.737 -0.0795 -0.1010  0.0297
 2762SOL    HW119748   4.297   0.661   1.691  0.6253  0.6221 -1.4510
 2762SOL    HW219749   4.401   0.754   1.745 -0.3505 -0.0845  3.1542
 2763SOL     OW19750   1.684   0.408  11.721 -0.8457  0.5819 -0.3011
 2763SOL    HW119751   1.672   0.335  11.781  1.8948 -0.6151 -1.2244
 2763SOL    HW219752   1.776   0.403  11.696 -0.8795  2.2463 -0.7755
 2764SOL     OW19753   1.255   1.616   7.310  0.5692  0.0746 -0.1667
 2764SOL    HW119754   1.263   1.656   7.223 -1.1214  0.8820  0.0440
 2764SOL    HW219755   1.289   1.686   7.366  2.1911  0.0405 -1.1100
 2765SOL     OW19756   1.527   3.770   6.536  0.1474  0.0225 -0.4213
 2765SOL    HW119757   1.578   3.693   6.511 -1.9624 -2.6821  3.5630
 2765SOL    HW219758   1.435   3.745   6.525 -0.2386  1.0575  0.3802
 2766SOL     OW19759   1.340   1.034   5.912 -1.0444  0.1612  0.2804
 2766SOL    HW119760   1.328   0.947   5.873 -3.7436  1.0022 -0.8263
 2766SOL    HW219761   1.248   1.062   5.911 -0.5625  1.5859 -2.9947
 2767SOL     OW19762   4.221   3.787   9.497  0.1372  0.5876  0.5430
 2767SOL    HW119763   4.265   3.844   9.561  2.0157 -1.6117  1.2214
 2767SOL    HW219764   4.282   3.716   9.477 -0.5240  0.2014 -0.1019
 2768SOL     OW19765   0.040   4.117   2.581 -0.0399 -0.0537  0.2438
 2768SOL    HW119766   0.047   4.026   2.551 -0.8666 -0.8004  2.3836
 2768SOL    HW219767   4.673   4.133   2.558 -0.1273 -0.8685  0.0249
 2769SOL     OW19768   2.594   1.929   1.099  0.1463 -0.0527 -0.1476
 2769SOL    HW119769   2.565   1.878   1.174  2.0988  1.1465  1.4054
 2769SOL    HW219770   2.620   1.859   1.039  1.1858  0.7943 -0.6887
 2770SOL     OW19771   0.668   3.154   1.602 -0.4653  0.8648 -0.0164
 2770SOL    HW119772   0.598   3.193   1.654 -2.0132  0.2837 -1.6754
 2770SOL    HW219773   0.636   3.067   1.580  1.8535  0.2801 -1.0643
 2771SOL     OW19774   4.189   2.610   0.058 -0.5246 -0.1072 -0.3645
 2771SOL    HW119775   4.155   2.609   0.147  0.0099  2.1024 -0.1239
 2771SOL    HW219776   4.122   2.657   0.007 -0.9088 -1.1431 -0.8237
 2772SOL     OW19777   3.084   0.736  16.495 -0.2783 -0.0660  0.2811
 2772SOL    HW119778   3.153   0.683  16.535  0.7114 -0.3795 -1.8138
 2772SOL    HW219779   3.127   0.762  16.413 -1.4327  0.1500 -0.2544
 2773SOL     OW19780   4.535   0.041  11.625 -0.5407 -0.2497 -0.0984
 2773SOL    HW119781   4.494   0.109  11.678  0.5480  0.8855 -0.7056
 2773SOL    HW219782   4.613   0.089  11.597  0.4701 -1.2283  1.0023
 2774SOL     OW19783   0.078   3.960   9.040 -0.3076 -0.3038  0.0329
 2774SOL    HW119784   0.150   3.964   9.103  1.0027 -1.7510 -1.3777
 2774SOL    HW219785   0.111   4.013   8.966  0.4688  0.5063  0.9502
 2775SOL     OW19786   1.103   3.719   6.956 -0.0800 -0.3989  0.1111
 2775SOL    HW119787   1.091   3.753   7.045 -0.1598  0.3309 -0.1785
 2775SOL    HW219788   1.140   3.631   6.967 -1.2193 -0.7386  1.2363
 2776SOL     OW19789   1.675   3.932   7.026  0.7553  0.4045 -0.0947
 2776SOL    HW119790   1.760   3.933   6.983  1.3963 -1.8288  1.1295
 2776SOL    HW219791   1.620   3.964   6.954 -0.7144  0.4083  1.0116
 2777SOL     OW19792   0.569   4.714   4.151  0.1657 -0.0243 -0.1300
 2777SOL    HW119793   0.659   4.710   4.120  0.1676  3.1357 -0.5686
 2777SOL    HW219794   0.533   4.676   4.071  1.4996 -0.4756 -0.5211
 2778SOL     OW19795   1.327   4.589   5.066  0.2888 -0.2003  0.2087
 2778SOL    HW119796   1.248   4.542   5.038  2.1469 -2.3004 -1.5521
 2778SOL    HW219797   1.346   4.514   5.123  0.9416 -0.1708  0.0242
 2779SOL     OW19798   0.616   0.180   1.222  0.2701 -0.2345 -0.0038
 2779SOL    HW119799   0.709   0.183   1.244  0.3192 -3.5664  0.2551
 2779SOL    HW219800   0.579   0.236   1.290 -0.7336 -2.2052  1.0800
 2780SOL     OW19801   4.488   1.721  13.661 -0.1255  0.2381 -0.2878
 2780SOL    HW119802   4.412   1.666  13.646  1.6961 -2.2089 -0.6889
 2780SOL    HW219803   4.520   1.740  13.573  1.5511 -0.6957  0.1128
 2781SOL     OW19804   1.712   3.618   1.651 -0.7602 -0.1570  0.3769
 2781SOL    HW119805   1.730   3.711   1.644  0.2864 -0.5308 -1.6351
 2781SOL    HW219806   1.742   3.578   1.569 -1.2871 -2.2123  1.1788
 2782SOL     OW19807   1.364   3.983   7.294 -0.1054 -0.1778 -1.0409
 2782SOL    HW119808   1.441   4.039   7.283 -1.2703  1.4322 -0.9740
 2782SOL    HW219809   1.387   3.940   7.376  0.9454  1.8309 -0.2667
 2783SOL     OW19810   3.777   2.629   3.833 -0.2770  0.0132  0.3745
 2783SOL    HW119811   3.724   2.646   3.912 -3.2913 -0.6939 -1.4737
 2783SOL    HW219812   3.865   2.665   3.841  0.3778 -1.4108 -0.6368
 2784SOL     OW19813   4.025   1.504   5.686 -0.3273 -0.1712  0.2635
 2784SOL    HW119814   3.971   1.581   5.701  1.7606  1.5512 -1.1099
 2784SOL    HW219815   3.960   1.442   5.719 -2.7080  1.1318 -2.0858
 2785SOL     OW19816   2.476   1.098   4.374 -0.2243  0.5969  0.0506
 2785SOL    HW119817   2.484   1.193   4.361  2.3198  0.2592 -0.9093
 2785SOL    HW219818   2.427   1.067   4.298 -0.2319  0.3254  0.1656
 2786SOL     OW19819   1.011   1.240  17.309 -0.0610 -0.3300 -0.0579
 2786SOL    HW119820   0.947   1.269  17.374 -0.0104 -3.1514  1.2691
 2786SOL    HW219821   0.997   1.145  17.312 -0.0473 -0.3017  1.2254
 2787SOL     OW19822   4.053   2.903   7.524 -0.3716  0.1971  0.1319
 2787SOL    HW119823   4.092   2.845   7.589 -0.3252 -0.2805 -0.3254
 2787SOL    HW219824   4.120   2.971   7.534  0.5099 -0.4434 -1.5327
 2788SOL     OW19825   2.830   1.977   1.936 -0.6292 -0.3922  0.3451
 2788SOL    HW119826   2.851   1.891   1.900 -0.9114  0.5110 -1.9818
 2788SOL    HW219827   2.795   2.026   1.862  0.0473  0.1786  0.4054
 2789SOL     OW19828   0.357   4.070   5.186  0.1467  0.1543  0.2675
 2789SOL    HW119829   0.406   3.991   5.165 -2.7985 -1.3042 -1.1548
 2789SOL    HW219830   0.380   4.088   5.277 -1.9673  0.0695  0.8188
 2790SOL     OW19831   0.598   1.561  12.006 -0.6326 -0.9394 -0.7048
 2790SOL    HW119832   0.587   1.577  12.100 -0.7088  0.5944 -0.9822
 2790SOL    HW219833   0.602   1.652  11.976 -0.6118 -0.4160  0.8973
 2791SOL     OW19834   4.222   1.658  16.598  0.4668  0.0607  0.5341
 2791SOL    HW119835   4.290   1.653  16.665  0.9895 -0.3287 -0.0271
 2791SOL    HW219836   4.151   1.708  16.639 -0.7091 -1.5479  0.4643
 2792SOL     OW19837   1.913   3.046   1.333  0.0425 -0.1331  0.3406
 2792SOL    HW119838   1.931   2.988   1.259  0.3741  1.2799 -0.6846
 2792SOL    HW219839   1.901   2.982   1.403  0.8462 -0.1971  0.4228
 2793SOL     OW19840   3.477   2.360  11.743 -0.3739 -0.2499 -0.0832
 2793SOL    HW119841   3.422   2.385  11.817  1.7163  0.1276  1.3433
 2793SOL    HW219842   3.489   2.265  11.750  2.4617 -0.0372 -1.9539
 2794SOL     OW19843   3.943   4.379  15.656  0.3835  0.1433  0.6734
 2794SOL    HW119844   3.985   4.455  15.695  3.5808 -0.3227 -1.8627
 2794SOL    HW219845   3.867   4.369  15.713 -1.4563 -0.1764 -1.8257
 2795SOL     OW19846   2.339   2.061  15.181  0.3074  0.2997 -0.1940
 2795SOL    HW119847   2.348   2.149  15.219  0.8929  0.6251 -1.0790
 2795SOL    HW219848   2.255   2.084  15.141 -0.9094 -2.3725  0.8639
 2796SOL     OW19849   4.323   0.187   1.879 -0.5673 -0.0272  0.3322
 2796SOL    HW119850   4.359   0.244   1.810  0.3161  0.4180  1.1616
 2796SOL    HW219851   4.338   0.099   1.845 -0.4392  0.3143 -0.5230
 2797SOL     OW19852   0.986   4.190   7.487  0.2277 -0.7042 -0.1780
 2797SOL    HW119853   0.915   4.231   7.438 -1.1286 -0.8596  1.6362
 2797SOL    HW219854   0.985   4.233   7.573  0.8410  0.7698 -0.9056
 2798SOL     OW19855   2.628   0.392  10.032  0.0394 -0.5393  0.9796
 2798SOL    HW119856   2.552   0.448  10.014  0.2123 -1.8433 -3.8267
 2798SOL    HW219857   2.594   0.308   9.999  0.2282 -0.7476  1.3142
 2799SOL     OW19858   3.195   2.528   3.473 -0.2020 -0.6222  0.1412
 2799SOL    HW119859   3.283   2.535   3.437  0.1610  1.5016  1.4469
 2799SOL    HW219860   3.138   2.549   3.399 -2.6939 -0.8039  1.9926
 2800SOL     OW19861   3.968   4.687  11.114 -0.3318  0.8914  0.0182
 2800SOL    HW119862   4.020   0.034  11.078 -1.5778  0.6052 -2.3558
 2800SOL    HW219863   4.032   4.623  11.145  0.0311  1.4524  0.4269
 2801SOL     OW19864   0.292   4.588   9.702  0.3046  0.7269  0.8074
 2801SOL    HW119865   0.246   4.671   9.713 -0.3871  0.4141  0.2554
 2801SOL    HW219866   0.335   4.574   9.787  2.6250  1.6498 -0.2371
 2802SOL     OW19867   3.731   0.220   2.215 -0.2556  0.3435 -0.0691
 2802SOL    HW119868   3.647   0.183   2.187 -0.3110 -0.3135  0.9697
 2802SOL    HW219869   3.765   0.149   2.270 -0.8273  0.1134 -0.0071
 2803SOL     OW19870   3.463   2.439   7.641  0.2597  0.3972  0.0682
 2803SOL    HW119871   3.379   2.423   7.598 -1.1823  2.3258  2.1689
 2803SOL    HW219872   3.467   2.533   7.622  2.4136 -0.1084 -1.8979
 2804SOL     OW19873   1.010   0.311   0.256 -0.0416 -0.3147 -0.0715
 2804SOL    HW119874   0.956   0.262   0.318  0.6070 -1.1039 -0.1296
 2804SOL    HW219875   0.999   0.257   0.177  1.4777  3.4918 -2.8800
 2805SOL     OW19876   0.735   2.453  16.230  0.0193  0.9388 -0.3034
 2805SOL    HW119877   0.680   2.504  16.171 -0.0051 -0.8383 -1.8195
 2805SOL    HW219878   0.683   2.453  16.310  0.1196 -2.1451 -0.2282
 2806SOL     OW19879   3.569   4.179   6.409 -0.7901 -0.2841  0.2156
 2806SOL    HW119880   3.549   4.086   6.420  0.2208 -0.6212 -0.7935
 2806SOL    HW219881   3.641   4.167   6.347 -1.5345  1.7418 -1.0381
 2807SOL     OW19882   3.301   1.787   2.740 -0.6858 -0.1212  0.4383
 2807SOL    HW119883   3.233   1.854   2.749 -1.0920 -0.4948  0.1511
 2807SOL    HW219884   3.252   1.707   2.754 -1.0348 -0.3862 -2.2203
 2808SOL     OW19885   1.804   1.598   8.724 -0.0110 -0.0068  0.2459
 2808SOL    HW119886   1.793   1.583   8.631 -2.1568 -0.0666  0.5140
 2808SOL    HW219887   1.728   1.653   8.745 -1.6996 -2.1553 -0.2718
 2809SOL     OW19888   2.258   4.081   6.818  0.1836 -0.3394  0.2090
 2809SOL    HW119889   2.232   4.068   6.727 -0.6553  1.1796  0.2274
 2809SOL    HW219890   2.353   4.092   6.808  0.2507  0.3621  1.4922
 2810SOL     OW19891   0.070   2.003  10.417 -0.2618  0.4146 -0.9071
 2810SOL    HW119892   4.717   1.960  10.454  1.7247 -1.8439  0.5881
 2810SOL    HW219893   0.072   1.951  10.337  1.3169  0.1305 -0.6710
 2811SOL     OW19894   4.227   1.101  15.772 -0.0842  0.1837 -0.4309
 2811SOL    HW119895   4.252   1.023  15.822  0.5566  1.9488  1.9796
 2811SOL    HW219896   4.229   1.066  15.682  1.6038  0.1322 -0.3792
 2812SOL     OW19897   2.344   0.312   3.279  0.2842  0.4302 -0.0081
 2812SOL    HW119898   2.359   0.282   3.189 -0.5869 -0.3490  0.1129
 2812SOL    HW219899   2.420   0.370   3.281  0.3200  0.3130  1.7907
 2813SOL     OW19900   2.980   2.599  11.511 -0.4036  0.6647  0.3834
 2813SOL    HW119901   2.915   2.666  11.489 -1.2166  0.2278  1.4499
 2813SOL    HW219902   2.977   2.552  11.428 -2.2234  0.3398  0.6503
 2814SOL     OW19903   4.605   2.407   5.675  0.6989  0.3306  0.4538
 2814SOL    HW119904   4.604   2.471   5.604 -0.8600  0.9375  1.0301
 2814SOL    HW219905   4.698   2.403   5.697  1.0736 -0.5615 -1.3543
 2815SOL     OW19906   3.798   4.198   8.675 -0.2974 -0.5428  0.3100
 2815SOL    HW119907   3.832   4.127   8.621 -0.0613 -0.8182  0.8282
 2815SOL    HW219908   3.864   4.265   8.658 -0.3253 -0.3122  1.0876
 2816SOL     OW19909   3.742   1.341  15.801 -0.8617 -0.5047  0.1021
 2816SOL    HW119910   3.823   1.291  15.799  0.1326  1.0976  0.1776
 2816SOL    HW219911   3.754   1.421  15.751  1.9203 -0.0189  1.5495
 2817SOL     OW19912   2.265   0.738   3.593  0.8503 -0.1056  0.6372
 2817SOL    HW119913   2.342   0.794   3.584  2.2411 -2.2965 -1.1494
 2817SOL    HW219914   2.268   0.700   3.505  0.6884  0.9030  0.2040
 2818SOL     OW19915   3.592   2.800   2.831 -0.4773  0.1194  0.5126
 2818SOL    HW119916   3.496   2.796   2.836 -0.5906 -0.9868 -2.4247
 2818SOL    HW219917   3.617   2.732   2.893  2.2453  1.1073  0.4957
 2819SOL     OW19918   1.537   1.273   4.411 -0.1437  0.1269 -0.2273
 2819SOL    HW119919   1.476   1.344   4.391 -0.9448 -0.0320  1.6596
 2819SOL    HW219920   1.541   1.267   4.507 -2.5969 -0.2121 -0.1593
 2820SOL     OW19921   1.444   2.225   3.693 -0.0394  0.2708  0.4083
 2820SOL    HW119922   1.438   2.219   3.788 -1.2586 -3.5145  0.0746
 2820SOL    HW219923   1.445   2.133   3.667 -3.7604  0.1590  0.7727
 2821SOL     OW19924   4.648   4.172  10.426 -0.0502 -0.5140  0.5390
 2821SOL    HW119925   4.690   4.150  10.509  1.2028  1.8969  0.5559
 2821SOL    HW219926   4.599   4.092  10.410  0.1715 -1.2377  3.4959
 2822SOL     OW19927   4.077   0.475  12.859 -0.3808 -0.5221 -0.4779
 2822SOL    HW119928   4.140   0.522  12.914  1.2329 -2.6639 -0.5047
 2822SOL    HW219929   4.131   0.411  12.813 -0.2174 -1.6096  1.2192
 2823SOL     OW19930   2.349   1.340   2.959  0.4728 -0.4116  0.0352
 2823SOL    HW119931   2.402   1.280   3.011  0.7848 -0.2359 -0.0814
 2823SOL    HW219932   2.412   1.410   2.941  0.2778 -0.2923 -0.1812
 2824SOL     OW19933   0.141   0.946   3.426  0.2904 -0.0687 -0.2222
 2824SOL    HW119934   0.201   0.872   3.419 -0.9670 -1.0246 -0.9870
 2824SOL    HW219935   0.062   0.896   3.405  0.6960 -0.2824 -1.2309
 2825SOL     OW19936   2.280   2.608   8.716 -0.2550  0.0421  0.3275
 2825SOL    HW119937   2.363   2.603   8.668 -0.0867 -0.1946  0.6407
 2825SOL    HW219938   2.226   2.665   8.662  1.1150  0.8559 -0.1710
 2826SOL     OW19939   1.095   3.393   9.675  0.1811 -0.6312 -0.5979
 2826SOL    HW119940   1.182   3.357   9.688  0.2900  0.3708  1.3281
 2826SOL    HW219941   1.102   3.488   9.684 -1.8639 -0.3972 -1.2885
 2827SOL     OW19942   0.560   0.966   6.585  0.0361 -0.2180 -0.1361
 2827SOL    HW119943   0.576   0.979   6.492 -0.2252  0.7479 -0.0421
 2827SOL    HW219944   0.512   1.043   6.614  0.7784 -0.0209  0.5841
 2828SOL     OW19945   1.719   2.015   8.083  1.1662 -0.2481  0.2178
 2828SOL    HW119946   1.685   1.941   8.033  0.1298  1.4102 -1.5372
 2828SOL    HW219947   1.778   2.052   8.018 -0.0354  2.3221  0.6066
 2829SOL     OW19948   4.138   4.414   5.127 -0.0770 -0.7094 -0.0710
 2829SOL    HW119949   4.226   4.377   5.122  0.1203 -0.3000  0.4006
 2829SOL    HW219950   4.161   4.479   5.060  1.3313  0.4617  1.5516
 2830SOL     OW19951   3.465   4.704   3.920 -0.4852 -0.3829  0.5435
 2830SOL    HW119952   3.416   0.018   3.993 -1.3433 -0.6451  0.0987
 2830SOL    HW219953   3.531   0.046   3.902 -0.5653 -0.1806  0.9828
 2831SOL     OW19954   0.320   1.961  12.425  0.2453 -0.1613 -0.0836
 2831SOL    HW119955   0.259   1.902  12.380  0.9464 -0.9873  0.0548
 2831SOL    HW219956   0.331   1.910  12.506  0.9497 -1.6111 -1.1134
 2832SOL     OW19957   0.745   4.207   0.685 -0.3073  0.1532 -0.4541
 2832SOL    HW119958   0.794   4.207   0.603  0.5815  2.7287  0.0839
 2832SOL    HW219959   0.668   4.160   0.653 -0.4097  1.1572 -1.6592
 2833SOL     OW19960   1.942   4.166   2.816 -0.5486 -0.1246  0.1526
 2833SOL    HW119961   1.897   4.191   2.897  2.3615 -0.4216  1.8663
 2833SOL    HW219962   1.978   4.252   2.795  0.1457  0.1941  2.6545
 2834SOL     OW19963   3.503   1.343   7.368  0.4795  0.5504  0.4373
 2834SOL    HW119964   3.467   1.279   7.430 -1.4121  0.6218 -0.6044
 2834SOL    HW219965   3.542   1.407   7.427  1.1324  0.5826 -0.0242
 2835SOL     OW19966   0.716   0.732  13.718 -0.2172 -0.2367  0.1476
 2835SOL    HW119967   0.811   0.744  13.713 -0.2050 -0.6529 -0.5168
 2835SOL    HW219968   0.679   0.816  13.691 -1.2933  0.6977  4.5436
 2836SOL     OW19969   1.115   4.265   0.603  0.0497  0.6496 -0.4664
 2836SOL    HW119970   1.039   4.277   0.546 -1.3094 -1.3610  0.9125
 2836SOL    HW219971   1.145   4.176   0.587  0.2755  0.9077 -1.4384
 2837SOL     OW19972   2.304   0.568   7.834 -0.1035  0.6304 -0.0428
 2837SOL    HW119973   2.370   0.499   7.827 -0.2556  0.1570  3.1566
 2837SOL    HW219974   2.340   0.615   7.909 -2.2506  3.3199 -0.7252
 2838SOL     OW19975   4.107   3.609   0.553 -0.3164  0.4959 -0.2421
 2838SOL    HW119976   4.022   3.615   0.597  0.6151 -0.7362  1.6770
 2838SOL    HW219977   4.088   3.666   0.478 -0.1742  0.5912 -0.2044
 2839SOL     OW19978   1.664   0.675  16.366  0.3065  0.0011 -0.0347
 2839SOL    HW119979   1.727   0.611  16.334 -0.4831 -0.8524  0.1158
 2839SOL    HW219980   1.615   0.702  16.289  0.8038  0.8161 -0.0724
 2840SOL     OW19981   3.380   2.474   4.327  0.4927  0.2993  1.2644
 2840SOL    HW119982   3.390   2.541   4.260 -0.0032  0.9791  1.8638
 2840SOL    HW219983   3.450   2.494   4.389  1.7896  2.8393 -1.0815
 2841SOL     OW19984   1.809   1.666  16.884 -0.2150 -0.1296 -0.4273
 2841SOL    HW119985   1.892   1.629  16.914 -0.3506  0.9979  1.3647
 2841SOL    HW219986   1.838   1.756  16.874  1.4640 -0.5934  0.2786
 2842SOL     OW19987   1.288   4.593   8.293 -0.4232  0.3082  0.3233
 2842SOL    HW119988   1.289   4.550   8.208 -0.2782  0.9999 -0.0242
 2842SOL    HW219989   1.267   4.517   8.348 -0.7913 -1.1508 -1.8062
 2843SOL     OW19990   2.962   0.072   6.110  0.0839  0.6290 -0.2436
 2843SOL    HW119991   2.896   0.006   6.088 -0.1213  0.4431  0.9341
 2843SOL    HW219992   2.957   0.087   6.204  1.2342 -0.1234 -0.0602
 2844SOL     OW19993   3.497   3.508   2.637  0.1708 -0.3343  0.1874
 2844SOL    HW119994   3.552   3.496   2.714 -1.1789 -0.6554  1.1113
 2844SOL    HW219995   3.424   3.450   2.660 -1.7306  1.5321 -1.1412
 2845SOL     OW19996   2.880   3.498   2.929 -0.0485 -0.0546 -0.2511
 2845SOL    HW119997   2.815   3.462   2.869 -0.0337 -2.0182  0.9007
 2845SOL    HW219998   2.895   3.574   2.872  0.3469  0.0855  0.0337
 2846SOL     OW19999   4.346   4.166  11.068  0.1907 -0.3115 -0.2687
 2846SOL    HW120000   4.366   4.091  11.125 -0.0537  0.3724  0.7168
 2846SOL    HW220001   4.275   4.121  11.022 -0.5830  0.9141 -0.2438
 2847SOL     OW20002   0.460   2.195   2.770  0.0353 -0.5424  0.3436
 2847SOL    HW120003   0.555   2.189   2.775  0.0504  0.9506  1.8737
 2847SOL    HW220004   0.439   2.130   2.703  0.3283 -1.5065  1.1828
 2848SOL     OW20005   4.311   4.695   9.395  0.2258  0.3749  0.1969
 2848SOL    HW120006   4.265   0.054   9.405  0.7594  0.4437  1.9555
 2848SOL    HW220007   4.238   4.641   9.365 -0.5450  1.1351  0.6944
 2849SOL     OW20008   3.635   1.341   2.013 -0.3457  0.2432  0.1899
 2849SOL    HW120009   3.562   1.363   1.955 -1.3685 -0.7540  1.0900
 2849SOL    HW220010   3.645   1.247   1.995 -1.4866 -0.6219  4.0106
 2850SOL     OW20011   2.997   2.457   8.835  0.3658  0.1856  0.7326
 2850SOL    HW120012   3.032   2.399   8.902 -0.5361  1.1366  2.0137
 2850SOL    HW220013   2.907   2.428   8.842  0.9614 -1.9115 -0.3662
 2851SOL     OW20014   3.683   2.093   6.422 -0.0749  0.2531 -0.1374
 2851SOL    HW120015   3.650   2.056   6.340 -1.6694  0.5624  0.3714
 2851SOL    HW220016   3.718   2.015   6.464  0.3960 -0.3150 -1.5764
 2852SOL     OW20017   2.698   2.188   3.991  0.5419 -0.6520 -0.0309
 2852SOL    HW120018   2.698   2.138   3.910  0.8567 -0.3145 -0.2371
 2852SOL    HW220019   2.617   2.239   3.989  1.6037  0.9970 -0.9386
 2853SOL     OW20020   0.693   1.344   3.666 -0.2121 -0.3993 -0.1597
 2853SOL    HW120021   0.607   1.386   3.670 -0.9290 -2.0123  1.3756
 2853SOL    HW220022   0.665   1.260   3.702 -0.6868  0.6728  1.9692
 2854SOL     OW20023   2.072   2.594   1.114 -0.0123 -0.0649 -0.2627
 2854SOL    HW120024   2.126   2.632   1.184  1.0679 -3.4297  0.7457
 2854SOL    HW220025   2.005   2.545   1.161  0.2849 -0.4803 -0.2718
 2855SOL     OW20026   3.488   2.149   2.151  0.5705  0.4537 -0.0105
 2855SOL    HW120027   3.468   2.166   2.059  0.8138 -0.0448 -0.1539
 2855SOL    HW220028   3.514   2.057   2.146 -3.1342 -0.6448  0.8603
 2856SOL     OW20029   1.292   0.950   5.236  1.2034 -0.3915  0.0574
 2856SOL    HW120030   1.383   0.932   5.212  1.0325  0.2016 -1.0395
 2856SOL    HW220031   1.290   1.045   5.233  2.1863 -0.3915 -0.6177
 2857SOL     OW20032   2.238   4.722  12.492 -0.3177 -0.2440 -0.1882
 2857SOL    HW120033   2.271   0.062  12.430  1.5260  0.0239  1.0662
 2857SOL    HW220034   2.294   4.645  12.481  0.2154  0.5698 -3.2228
 2858SOL     OW20035   4.241   2.087   9.567 -0.5289 -0.2770  0.1245
 2858SOL    HW120036   4.236   2.081   9.471 -0.2960  0.2718  0.0821
 2858SOL    HW220037   4.196   2.168   9.589  0.5325  0.3110  0.1382
 2859SOL     OW20038   1.383   0.835   7.687  0.3437 -0.1389  0.0053
 2859SOL    HW120039   1.367   0.874   7.773  1.2973 -0.5336  0.3624
 2859SOL    HW220040   1.473   0.809   7.704  0.5021 -1.0940 -2.3355
 2860SOL     OW20041   2.586   1.053  16.417  0.2003 -0.5404 -0.0455
 2860SOL    HW120042   2.665   1.068  16.470  1.4853 -0.0807 -2.1103
 2860SOL    HW220043   2.584   1.141  16.380  0.3441 -1.3000 -1.8228
 2861SOL     OW20044   1.649   1.004  13.570 -0.2342  0.3097 -0.0996
 2861SOL    HW120045   1.576   1.065  13.563  1.5199  2.4961  0.8045
 2861SOL    HW220046   1.653   0.985  13.476 -1.3762  1.3636 -0.3580
 2862SOL     OW20047   2.663   2.294   7.379  0.2432 -0.1894 -0.2178
 2862SOL    HW120048   2.744   2.252   7.410  0.4095  0.5706  0.3594
 2862SOL    HW220049   2.673   2.378   7.423  1.5535 -1.0024  1.0340
 2863SOL     OW20050   3.977   4.361   9.925 -0.3291 -0.1752 -0.1411
 2863SOL    HW120051   4.053   4.399   9.881  0.0909 -1.4972 -0.5411
 2863SOL    HW220052   3.959   4.285   9.871 -0.5576 -0.7620  0.7550
 2864SOL     OW20053   0.620   4.195   8.234  0.0185  0.3034 -0.0375
 2864SOL    HW120054   0.653   4.284   8.228 -0.9484  0.6858  0.4945
 2864SOL    HW220055   0.568   4.195   8.314 -0.6292 -0.6562 -0.4558
 2865SOL     OW20056   3.689   2.765   8.851 -0.4745 -0.2224 -0.1409
 2865SOL    HW120057   3.747   2.795   8.921  0.4164 -0.4101 -0.7916
 2865SOL    HW220058   3.602   2.769   8.890 -0.0546  0.3161  0.7415
 2866SOL     OW20059   4.461   1.606   5.057 -0.0089 -0.2125  0.2316
 2866SOL    HW120060   4.435   1.605   4.965  1.9014  0.1656 -0.3126
 2866SOL    HW220061   4.503   1.520   5.052 -0.3292 -0.3878  0.5743
 2867SOL     OW20062   1.717   1.101   0.399  0.4719  0.4667 -0.7194
 2867SOL    HW120063   1.628   1.074   0.374  1.3129 -2.7491 -0.2235
 2867SOL    HW220064   1.704   1.193   0.375  1.5229  0.1864 -2.3765
 2868SOL     OW20065   1.955   2.567  10.350  0.0419 -0.4492 -0.3447
 2868SOL    HW120066   1.964   2.478  10.315  3.9568  0.3018 -1.2246
 2868SOL    HW220067   1.895   2.605  10.286  0.7450  2.4436  0.7454
 2869SOL     OW20068   3.040   4.299   5.859 -0.9252  0.1087 -0.0555
 2869SOL    HW120069   3.032   4.384   5.817  1.2952  1.8401  2.9892
 2869SOL    HW220070   2.980   4.309   5.933  0.4070  1.6647  0.8250
 2870SOL     OW20071   4.316   1.533   6.964  0.0645  0.2811  0.2574
 2870SOL    HW120072   4.287   1.621   6.941 -0.3357  0.0082 -0.2808
 2870SOL    HW220073   4.406   1.555   6.988  0.0699  1.5931 -0.9303
 2871SOL     OW20074   1.956   1.103   3.529  0.2644  0.3387 -0.2759
 2871SOL    HW120075   2.001   1.081   3.448 -1.3749 -1.4667 -0.7160
 2871SOL    HW220076   1.914   1.188   3.516  0.0943  0.2612 -0.2324
 2872SOL     OW20077   3.739   2.465  11.213  0.0705  0.7572  0.4413
 2872SOL    HW120078   3.660   2.501  11.173  0.4525 -0.4211 -1.3846
 2872SOL    HW220079   3.787   2.418  11.145 -1.4092 -0.8673  0.4991
 2873SOL     OW20080   0.951   3.391   6.964  0.5243 -0.4254  0.7811
 2873SOL    HW120081   0.891   3.465   6.978 -0.1696 -1.1320  1.5480
 2873SOL    HW220082   0.979   3.393   7.055 -1.7028 -0.0750  1.4738
 2874SOL     OW20083   4.319   1.861  14.980 -0.4244 -0.0296  0.1298
 2874SOL    HW120084   4.406   1.838  15.013 -0.5493  1.6259  1.5909
 2874SOL    HW220085   4.299   1.943  15.026 -1.2029 -1.1903  1.8321
 2875SOL     OW20086   4.384   4.343  16.189  0.4705  0.0935 -0.5582
 2875SOL    HW120087   4.343   4.320  16.272  2.2629 -1.4057 -0.1093
 2875SOL    HW220088   4.320   4.339  16.117  0.4543  0.5873 -0.5703
 2876SOL     OW20089   1.722   2.500  15.434  0.2927 -0.3399  0.3200
 2876SOL    HW120090   1.646   2.534  15.387  1.1234  2.2878  0.8392
 2876SOL    HW220091   1.752   2.562  15.502  0.9947  1.3200 -1.5001
 2877SOL     OW20092   0.346   3.370  11.397  0.0660 -0.0858 -0.2791
 2877SOL    HW120093   0.439   3.349  11.407 -0.0632  0.4248  1.8992
 2877SOL    HW220094   0.303   3.287  11.373  0.3706  0.2447 -1.9804
 2878SOL     OW20095   1.726   0.358   3.919  0.3526  0.0219 -0.1099
 2878SOL    HW120096   1.774   0.280   3.891  0.8529  0.4472 -0.4372
 2878SOL    HW220097   1.796   0.412   3.956 -0.9288  0.3079  1.8940
 2879SOL     OW20098   4.100   1.688   9.462 -0.6403  0.0119  0.7949
 2879SOL    HW120099   4.024   1.653   9.507 -2.2872 -1.2812 -2.9566
 2879SOL    HW220100   4.125   1.604   9.423 -1.9475 -0.1474  0.3190
 2880SOL     OW20101   2.446   3.698   2.967  0.0101 -0.1800 -0.0336
 2880SOL    HW120102   2.481   3.612   2.992  0.8488  0.7208  1.8820
 2880SOL    HW220103   2.451   3.756   3.043 -0.1123 -1.6202  1.0718
 2881SOL     OW20104   1.857   1.055   6.699  0.3736 -0.0248  0.2114
 2881SOL    HW120105   1.769   1.025   6.677  0.7276 -1.7617  1.1759
 2881SOL    HW220106   1.866   1.139   6.652  0.1746 -0.1258 -0.0092
 2882SOL     OW20107   2.784   0.690   0.010  0.2639  0.1411 -0.3426
 2882SOL    HW120108   2.698   0.733   0.012  0.4888  0.5763  0.4100
 2882SOL    HW220109   2.815   0.725  17.626 -2.1489 -1.2190 -1.8059
 2883SOL     OW20110   0.610   3.467   5.181  0.8431 -0.2002  0.0429
 2883SOL    HW120111   0.573   3.489   5.095 -0.8148  1.3709  1.1707
 2883SOL    HW220112   0.697   3.507   5.189 -0.0201  1.7027 -0.0290
 2884SOL     OW20113   4.664   2.763   7.538  0.2497 -0.1083  0.0234
 2884SOL    HW120114   0.011   2.802   7.488 -0.8019 -0.4164 -1.6993
 2884SOL    HW220115   4.616   2.845   7.529 -0.7928 -0.7057  0.1957
 2885SOL     OW20116   3.564   2.126   2.494 -1.0095 -0.5826 -0.4174
 2885SOL    HW120117   3.477   2.100   2.464 -1.0211 -1.2030  0.1355
 2885SOL    HW220118   3.620   2.074   2.436 -0.1765 -1.2666  1.0039
 2886SOL     OW20119   1.473   2.747   2.513 -0.7583  0.3612 -0.1591
 2886SOL    HW120120   1.498   2.800   2.588 -0.2360  0.6496 -0.5328
 2886SOL    HW220121   1.414   2.682   2.550 -1.3819  1.4540  0.7647
 2887SOL     OW20122   3.323   3.330   5.215 -0.3661  0.4551 -1.0597
 2887SOL    HW120123   3.412   3.325   5.181 -0.0617 -0.4584 -0.1127
 2887SOL    HW220124   3.329   3.390   5.289 -1.2440 -0.7286 -0.0482
 2888SOL     OW20125   1.821   0.448   0.829 -0.2039 -0.0150 -0.4478
 2888SOL    HW120126   1.752   0.494   0.782  0.6954  2.0423  0.2344
 2888SOL    HW220127   1.833   0.382   0.761 -1.3842  0.6131 -1.2694
 2889SOL     OW20128   2.495   0.355   7.753 -0.3644  0.2377  0.0836
 2889SOL    HW120129   2.490   0.269   7.710  2.9096  1.1801 -2.1273
 2889SOL    HW220130   2.565   0.401   7.707 -1.9584  0.2740 -2.2466
 2890SOL     OW20131   4.533   2.063   9.614 -0.1660 -0.4664 -0.3564
 2890SOL    HW120132   4.481   2.100   9.543  0.1659 -2.1650 -1.4881
 2890SOL    HW220133   4.466   2.063   9.682  0.1162 -0.2714 -0.0777
 2891SOL     OW20134   3.848   0.335   6.122 -0.3073 -0.0062 -0.0128
 2891SOL    HW120135   3.921   0.397   6.124 -0.2991  0.0220 -1.0996
 2891SOL    HW220136   3.885   0.252   6.151 -2.4757 -0.8753  0.2108
 2892SOL     OW20137   1.610   4.545  17.626 -0.0344 -0.4549 -0.3115
 2892SOL    HW120138   1.589   4.634  17.652  0.0191 -0.4629 -0.2404
 2892SOL    HW220139   1.700   4.541  17.657 -0.7248  1.1890  1.9419
 2893SOL     OW20140   4.001   1.435   8.933 -0.8405  0.2661  0.2952
 2893SOL    HW120141   3.942   1.363   8.957  0.6610 -1.7888 -2.1786
 2893SOL    HW220142   4.016   1.423   8.839  3.1884 -1.0733  1.1007
 2894SOL     OW20143   2.169   2.789   9.381  0.1396 -0.2756  0.1125
 2894SOL    HW120144   2.242   2.778   9.319 -0.0973 -1.4215  0.0559
 2894SOL    HW220145   2.099   2.750   9.329 -0.5854 -0.1391  0.9982
 2895SOL     OW20146   3.858   0.646   5.522 -0.4511 -0.0155 -0.2249
 2895SOL    HW120147   3.914   0.584   5.569 -0.0296  0.5927  0.0743
 2895SOL    HW220148   3.924   0.708   5.491 -0.4959  1.7910  3.3356
 2896SOL     OW20149   4.061   1.520   6.198 -0.5736 -0.3190 -0.2703
 2896SOL    HW120150   4.026   1.520   6.287  1.4746 -1.2958  0.5375
 2896SOL    HW220151   3.984   1.518   6.143 -2.2852  0.7374  2.0807
 2897SOL     OW20152   4.134   0.693   8.558  0.3445  0.3314  0.0450
 2897SOL    HW120153   4.126   0.732   8.645 -0.0530 -0.2896  0.2864
 2897SOL    HW220154   4.219   0.729   8.533 -0.0352  0.4140 -1.1270
 2898SOL     OW20155   1.349   1.861   9.805 -0.1362 -0.2229  0.5804
 2898SOL    HW120156   1.292   1.797   9.764  0.8327 -0.5374 -0.2947
 2898SOL    HW220157   1.315   1.941   9.764  0.5554 -0.4346 -0.4123
 2899SOL     OW20158   0.159   0.796   1.165 -0.0090 -0.8942 -0.3852
 2899SOL    HW120159   0.208   0.800   1.248 -2.0105  1.7918  0.6784
 2899SOL    HW220160   0.135   0.889   1.161 -1.5025 -1.3347 -1.4086
 2900SOL     OW20161   1.732   0.075   6.761 -0.4591 -0.4733 -0.0421
 2900SOL    HW120162   1.812   0.025   6.780  0.2400  1.0023  0.8413
 2900SOL    HW220163   1.772   0.158   6.786 -1.0229  0.0106 -0.7350
 2901SOL     OW20164   0.644   0.486   7.313  0.6529 -0.3493  0.0270
 2901SOL    HW120165   0.665   0.406   7.266 -2.7299 -2.4743  2.1299
 2901SOL    HW220166   0.726   0.521   7.348  2.2499 -0.5588 -3.5319
 2902SOL     OW20167   2.488   4.596   0.058  0.9061 -0.2505 -0.6649
 2902SOL    HW120168   2.556   4.600   0.125 -0.6458 -0.5953  0.9206
 2902SOL    HW220169   2.455   4.686   0.059 -2.0665 -1.3341 -0.1049
 2903SOL     OW20170   2.998   0.669   7.505  0.9756  0.3561  0.4421
 2903SOL    HW120171   2.968   0.579   7.522  0.5656  0.4771  0.3477
 2903SOL    HW220172   3.077   0.653   7.453  0.5651  0.0824 -0.1013
 2904SOL     OW20173   2.136   3.703   7.417  0.0900  0.7722 -0.0641
 2904SOL    HW120174   2.063   3.692   7.355 -0.9041 -2.2629  1.6452
 2904SOL    HW220175   2.118   3.631   7.478 -0.5700 -0.2153 -1.4188
 2905SOL     OW20176   1.245   2.516  17.214 -0.6447 -0.0656 -0.2606
 2905SOL    HW120177   1.167   2.566  17.190  0.7623  2.6460  0.8325
 2905SOL    HW220178   1.214   2.433  17.249 -0.1137  0.5479  1.6761
 2906SOL     OW20179   4.034   0.438   3.794  0.0936  0.6455  0.2013
 2906SOL    HW120180   4.115   0.388   3.795 -1.7621 -2.3347  0.9344
 2906SOL    HW220181   3.975   0.385   3.848  0.9598 -2.1205 -1.5725
 2907SOL     OW20182   4.078   2.259   7.593 -0.3340 -0.3611 -0.7242
 2907SOL    HW120183   4.013   2.202   7.634  0.5695  0.0169  1.2101
 2907SOL    HW220184   4.139   2.269   7.666 -1.3879  0.4011  0.0387
 2908SOL     OW20185   2.254   1.269   5.823 -0.3689 -0.0702  0.4524
 2908SOL    HW120186   2.279   1.188   5.779 -2.1019  1.4608 -3.3804
 2908SOL    HW220187   2.222   1.327   5.754 -1.7378 -1.5508 -0.1465
 2909SOL     OW20188   2.004   2.855  11.177 -0.0151 -0.8346 -0.7746
 2909SOL    HW120189   1.975   2.885  11.091  2.5874  1.1946 -0.9587
 2909SOL    HW220190   1.988   2.761  11.184 -2.5234 -0.1240  3.4377
 2910SOL     OW20191   3.517   0.300  13.013  0.3900 -0.1188 -0.1960
 2910SOL    HW120192   3.518   0.387  13.055 -0.5127  0.3368 -1.1171
 2910SOL    HW220193   3.601   0.265  13.041  0.1553 -3.5884 -3.9580
 2911SOL     OW20194   0.065   0.495  14.603 -0.1938  0.0011  0.0396
 2911SOL    HW120195   0.003   0.459  14.539 -0.0095  1.5104 -1.0083
 2911SOL    HW220196   0.102   0.416  14.642  0.1224 -0.1182 -0.5041
 2912SOL     OW20197   3.491   2.997   6.169  0.3705  0.2368  0.1236
 2912SOL    HW120198   3.461   3.037   6.087  1.0804  1.0037  0.2447
 2912SOL    HW220199   3.421   3.025   6.227  0.7860  2.0549 -0.2510
 2913SOL     OW20200   1.277   0.334  16.379  0.0792 -0.2546 -0.2346
 2913SOL    HW120201   1.308   0.415  16.338  1.7153 -1.1045 -0.6744
 2913SOL    HW220202   1.339   0.312  16.449 -0.3274 -1.9058 -0.3791
 2914SOL     OW20203   0.608   2.134   4.770  0.2127  0.4179 -0.7052
 2914SOL    HW120204   0.562   2.057   4.738  0.5988 -1.4625  3.2271
 2914SOL    HW220205   0.540   2.156   4.834 -2.6948 -1.8820 -3.0590
 2915SOL     OW20206   1.594   0.524   7.027 -0.1710  0.2533  0.4580
 2915SOL    HW120207   1.511   0.476   7.027 -0.0578  0.0588  1.2440
 2915SOL    HW220208   1.579   0.607   7.074 -1.7792 -0.7688  1.7647
 2916SOL     OW20209   3.066   1.896   7.046 -0.3173  0.2478  0.0714
 2916SOL    HW120210   3.091   1.943   7.126  2.0351 -1.2789  0.2378
 2916SOL    HW220211   3.106   1.946   6.975  1.6019  0.4749  1.3260
 2917SOL     OW20212   2.339   2.900   8.808 -0.5993  0.8442 -0.5568
 2917SOL    HW120213   2.381   2.869   8.728 -0.9116  0.4170 -0.5597
 2917SOL    HW220214   2.337   2.995   8.798 -0.1490  0.9603  0.3810
 2918SOL     OW20215   4.083   3.760   7.392 -0.9775  0.0818 -0.2463
 2918SOL    HW120216   3.991   3.782   7.404 -1.1869 -2.3289  2.6124
 2918SOL    HW220217   4.113   3.825   7.329 -2.3815 -0.1228 -1.1061
 2919SOL     OW20218   4.645   1.138   9.338  0.3105  0.5647  0.1055
 2919SOL    HW120219   4.651   1.156   9.432 -1.1556  1.0524  0.0943
 2919SOL    HW220220   4.676   1.222   9.304 -0.7375 -0.0487 -2.3506
 2920SOL     OW20221   0.631   4.659   4.428  0.2334  0.1428  0.2359
 2920SOL    HW120222   0.595   4.695   4.347 -2.0986 -1.4151  0.5756
 2920SOL    HW220223   0.720   4.685   4.406  0.3697  0.3692  1.0287
 2921SOL     OW20224   1.645   2.541   4.387 -0.0478 -0.4025  0.3414
 2921SOL    HW120225   1.719   2.486   4.411  0.0702 -1.3379 -2.2199
 2921SOL    HW220226   1.608   2.576   4.469  1.0831  2.4684 -0.3654
 2922SOL     OW20227   3.812   2.681   5.282  0.9644 -0.0802  0.0642
 2922SOL    HW120228   3.860   2.760   5.305  1.0320 -0.9330  2.9420
 2922SOL    HW220229   3.853   2.632   5.353  2.5980 -1.0689 -1.5595
 2923SOL     OW20230   0.062   4.195  10.934 -0.4966  0.0214 -0.4404
 2923SOL    HW120231   4.721   4.265  10.942 -0.3268  0.5408 -3.5783
 2923SOL    HW220232   0.067   4.178  11.028 -1.5136  2.3466  0.0498
 2924SOL     OW20233   4.470   4.055   0.904 -0.1437  0.3426 -0.6500
 2924SOL    HW120234   4.457   4.138   0.949 -3.0434  0.0964 -1.0552
 2924SOL    HW220235   4.428   3.993   0.963  0.0919  1.2902  0.5189
 2925SOL     OW20236   4.615   1.142   7.729  0.3748 -0.5306 -0.8184
 2925SOL    HW120237   4.594   1.131   7.822 -0.1205  0.6381 -0.7915
 2925SOL    HW220238   4.531   1.147   7.685 -1.0997 -0.2142  2.0404
 2926SOL     OW20239   3.116   3.074   4.458 -0.6008 -0.0577  0.6144
 2926SOL    HW120240   3.150   3.139   4.519 -2.6448 -0.3335  2.0191
 2926SOL    HW220241   3.118   3.000   4.518 -0.9809 -0.1070  0.5643
 2927SOL     OW20242   1.179   0.221  15.051 -0.1465  0.7129 -0.3816
 2927SOL    HW120243   1.189   0.261  14.964  1.1361  0.6870 -0.2469
 2927SOL    HW220244   1.247   0.156  15.034  0.7159  1.3758  0.5098
 2928SOL     OW20245   3.468   0.643   0.301 -0.1800 -1.0180  0.3805
 2928SOL    HW120246   3.433   0.724   0.338  0.1708 -0.7007  0.0136
 2928SOL    HW220247   3.562   0.645   0.321  0.0274  0.1747 -0.7435
 2929SOL     OW20248   1.827   2.685   6.291  0.3221 -0.0248  0.2959
 2929SOL    HW120249   1.758   2.622   6.273  1.3874 -1.1022 -0.0322
 2929SOL    HW220250   1.861   2.648   6.372  1.9763 -0.6954 -0.7070
 2930SOL     OW20251   2.082   3.495   6.373 -0.5365  0.1933  0.0499
 2930SOL    HW120252   2.036   3.488   6.290  1.5011 -0.0709 -1.0744
 2930SOL    HW220253   2.107   3.404   6.393 -1.7616 -0.5405 -1.8277
 2931SOL     OW20254   4.578   1.910  10.551 -0.7603  0.8788  0.4493
 2931SOL    HW120255   4.500   1.865  10.517  0.1394 -1.5547  1.6330
 2931SOL    HW220256   4.593   1.855  10.628  2.6530  0.9934 -0.1454
 2932SOL     OW20257   4.303   0.871  15.883 -0.1513 -0.5221  0.6635
 2932SOL    HW120258   4.263   0.791  15.917  0.1769 -1.2337 -0.6228
 2932SOL    HW220259   4.396   0.857  15.901 -0.1555 -1.5668 -0.1012
 2933SOL     OW20260   0.327   0.545   0.848  0.2633 -0.4874 -0.1174
 2933SOL    HW120261   0.245   0.589   0.825 -0.0909 -1.3432 -0.4719
 2933SOL    HW220262   0.377   0.551   0.767  0.4113 -1.1649 -0.0704
 2934SOL     OW20263   1.043   0.552   5.889 -0.0997  0.1133  0.0399
 2934SOL    HW120264   0.949   0.539   5.904 -0.1392 -0.4312 -0.6954
 2934SOL    HW220265   1.084   0.619   5.944 -2.0289  0.2782  1.2776
 2935SOL     OW20266   0.430   4.121  14.489 -0.2332 -0.8479 -0.0437
 2935SOL    HW120267   0.498   4.083  14.433  0.5939 -0.9216  1.0014
 2935SOL    HW220268   0.428   4.213  14.462 -0.2637 -1.5236 -2.3460
 2936SOL     OW20269   1.766   3.268   3.711 -0.1939 -0.5978  0.3639
 2936SOL    HW120270   1.800   3.185   3.743 -1.2900 -1.4334 -0.6234
 2936SOL    HW220271   1.674   3.260   3.737  0.1235  0.1744  1.7439
 2937SOL     OW20272   0.988   1.303   4.035 -0.1721  0.1524  0.4078
 2937SOL    HW120273   0.947   1.326   3.951  0.8803 -2.5359 -0.8457
 2937SOL    HW220274   0.977   1.386   4.080 -0.0738  0.6240 -0.4342
 2938SOL     OW20275   3.231   2.808   7.410 -0.5487 -0.6215  0.2327
 2938SOL    HW120276   3.171   2.881   7.425 -0.1901  0.0341 -1.5649
 2938SOL    HW220277   3.165   2.741   7.394  0.6086 -0.7330 -4.1162
 2939SOL     OW20278   2.654   2.672   2.017  0.0001  0.6924 -0.0507
 2939SOL    HW120279   2.736   2.626   2.001 -0.0833  0.1627  1.0547
 2939SOL    HW220280   2.656   2.693   2.110 -2.0777 -0.8706  0.3401
 2940SOL     OW20281   1.010   3.131  17.668  0.3256  0.2015  0.0772
 2940SOL    HW120282   1.047   3.117  17.581  0.9965  0.4374  0.3275
 2940SOL    HW220283   1.012   3.226  17.680 -0.2351  0.2531 -0.2288
 2941SOL     OW20284   0.079   2.904  17.617 -0.7041 -0.4885  0.3452
 2941SOL    HW120285   0.034   2.830  17.658 -1.0307 -0.6884 -0.3613
 2941SOL    HW220286   0.012   2.934  17.555 -1.1640  0.3975  1.2668
 2942SOL     OW20287   2.041   1.080  17.249  0.3473 -0.3364  0.3614
 2942SOL    HW120288   2.077   0.997  17.216 -0.2976 -1.5964  2.7789
 2942SOL    HW220289   2.069   1.136  17.177  0.1778 -1.9069 -0.9288
 2943SOL     OW20290   3.199   4.724   3.615 -0.4229 -0.4132  0.1701
 2943SOL    HW120291   3.292   0.005   3.637 -0.6942 -0.5171  1.3251
 2943SOL    HW220292   3.186   4.637   3.576 -1.9768  0.2905 -0.8805
 2944SOL     OW20293   2.825   3.911   5.890  0.2871 -0.0353 -0.1919
 2944SOL    HW120294   2.811   3.970   5.815  0.4578 -0.8997 -0.9094
 2944SOL    HW220295   2.904   3.863   5.867 -1.0700 -1.6725 -1.5183
 2945SOL     OW20296   1.682   0.688  13.963 -0.5145  0.1454  0.6866
 2945SOL    HW120297   1.760   0.639  13.937  0.5740  3.0452 -1.5818
 2945SOL    HW220298   1.625   0.625  14.007 -0.0621 -1.6742 -1.3081
 2946SOL     OW20299   1.219   4.226   1.171  0.3884 -0.3582  0.3717
 2946SOL    HW120300   1.203   4.137   1.139 -2.0624 -0.6614  2.4229
 2946SOL    HW220301   1.133   4.257   1.199  0.2258  0.9799 -1.5750
 2947SOL     OW20302   3.455   4.252  10.855 -0.0824 -0.4342 -0.1778
 2947SOL    HW120303   3.483   4.235  10.945  0.2872  0.5375 -0.1085
 2947SOL    HW220304   3.510   4.322  10.821  1.0875 -1.8199 -1.1018
 2948SOL     OW20305   4.630   2.679   7.972 -0.2064  0.3750  0.2244
 2948SOL    HW120306   4.638   2.596   8.018 -0.2025 -0.2784 -0.9758
 2948SOL    HW220307   4.716   2.721   7.970  0.2291 -0.5732 -0.5920
 2949SOL     OW20308   0.504   3.051   6.726  0.6108 -0.0193 -0.4041
 2949SOL    HW120309   0.535   3.031   6.815  0.4597 -1.0725 -0.5941
 2949SOL    HW220310   0.574   3.110   6.698 -0.4160  1.8974  1.0159
 2950SOL     OW20311   4.299   3.445   9.655  0.4038 -0.1613 -0.8989
 2950SOL    HW120312   4.227   3.447   9.718  2.2821 -0.1080  1.2461
 2950SOL    HW220313   4.311   3.350   9.646  3.3828  0.3402 -1.9443
 2951SOL     OW20314   0.133   2.186  10.167 -0.1654  0.1504  0.0502
 2951SOL    HW120315   0.202   2.159  10.227  1.0285  0.0536 -1.3785
 2951SOL    HW220316   0.060   2.213  10.223  0.2153 -1.1565  1.1833
 2952SOL     OW20317   3.863   3.435   7.995  0.0220 -0.6943 -0.1018
 2952SOL    HW120318   3.899   3.466   8.079 -1.1734  1.3226 -0.3380
 2952SOL    HW220319   3.935   3.380   7.964  0.3891 -0.3974  0.2162
 2953SOL     OW20320   0.030   1.345   6.605 -0.2251 -0.4113 -0.2975
 2953SOL    HW120321   0.044   1.253   6.585  0.3586 -0.7178  1.5346
 2953SOL    HW220322   0.007   1.348   6.698  0.6696  0.0718 -0.0877
 2954SOL     OW20323   2.696   2.475   3.692  0.3395 -0.5064 -0.1683
 2954SOL    HW120324   2.705   2.568   3.671 -3.0235 -0.3564 -1.0491
 2954SOL    HW220325   2.653   2.479   3.778  1.4805  0.8335  0.3318
 2955SOL     OW20326   3.155   0.688  10.757 -0.6722 -0.0371 -0.2042
 2955SOL    HW120327   3.110   0.654  10.680 -1.4653 -1.2765  0.8196
 2955SOL    HW220328   3.227   0.740  10.719 -0.8473 -1.1158 -2.0162
 2956SOL     OW20329   1.195   1.267  13.995 -0.0073 -0.1532  0.4968
 2956SOL    HW120330   1.199   1.196  14.059 -0.4823  0.9474  1.7562
 2956SOL    HW220331   1.172   1.222  13.913  0.2161  1.0413 -0.2192
 2957SOL     OW20332   2.311   2.443  14.167  0.1297 -0.0904  0.1431
 2957SOL    HW120333   2.248   2.515  14.167 -1.8855 -1.8370  1.0651
 2957SOL    HW220334   2.400   2.478  14.158  0.0046  0.6998  1.8812
 2958SOL     OW20335   2.012   2.533   9.276 -0.2667  0.2086  0.0539
 2958SOL    HW120336   2.054   2.543   9.190  1.3990  0.2658  0.8871
 2958SOL    HW220337   1.957   2.456   9.262 -0.1692  0.1478  0.0025
 2959SOL     OW20338   3.155   0.990   4.803  0.4694  0.3302  0.4669
 2959SOL    HW120339   3.187   0.995   4.893 -1.1160 -0.2877  1.0598
 2959SOL    HW220340   3.192   0.904   4.783  0.2912  0.7358 -1.6395
 2960SOL     OW20341   3.629   0.199   3.881 -0.3963 -0.4738 -0.5739
 2960SOL    HW120342   3.571   0.267   3.846  0.5442  0.0497 -1.1158
 2960SOL    HW220343   3.712   0.243   3.901  0.0017 -1.0466 -0.9785
 2961SOL     OW20344   1.852   3.231   4.273 -0.4398  0.4367  0.1486
 2961SOL    HW120345   1.780   3.280   4.233  0.0626  0.6088 -0.5519
 2961SOL    HW220346   1.907   3.203   4.200  0.7291  3.3026 -0.0873
 2962SOL     OW20347   1.291   1.826   4.450 -0.4307 -0.1760  0.0989
 2962SOL    HW120348   1.268   1.916   4.428  2.3550  0.3994 -0.5199
 2962SOL    HW220349   1.355   1.820   4.379 -1.4639 -1.0244 -0.7623
 2963SOL     OW20350   4.101   0.621   7.416  0.1852  0.2715  0.1102
 2963SOL    HW120351   4.163   0.568   7.466  1.6866  2.7448  0.9140
 2963SOL    HW220352   4.069   0.681   7.484 -2.4270  0.1083 -0.9653
 2964SOL     OW20353   2.118   0.170   1.517 -0.3503 -0.0752 -0.4215
 2964SOL    HW120354   2.118   0.206   1.606  0.0960 -1.2240  0.0503
 2964SOL    HW220355   2.031   0.193   1.488 -0.8998  1.4761  2.4505
 2965SOL     OW20356   1.787   1.764   4.272 -0.4051 -0.1065 -0.0794
 2965SOL    HW120357   1.780   1.827   4.344 -0.3688 -0.2097  0.0140
 2965SOL    HW220358   1.741   1.810   4.201 -1.7511 -0.3965  0.6223
 2966SOL     OW20359   0.715   2.496  11.032  0.3816 -0.0430  0.1206
 2966SOL    HW120360   0.698   2.585  11.061  1.2357  0.2981 -0.4387
 2966SOL    HW220361   0.644   2.486  10.968  0.5367  3.2217 -0.5487
 2967SOL     OW20362   3.794   1.315   3.115  0.4539  0.5734  0.1881
 2967SOL    HW120363   3.821   1.236   3.162  0.0552  1.2607  1.5722
 2967SOL    HW220364   3.852   1.322   3.039 -0.7952 -1.0516 -0.8876
 2968SOL     OW20365   3.270   2.742   3.668 -0.0295 -0.2223  0.0365
 2968SOL    HW120366   3.215   2.700   3.601  1.9845  0.0544 -1.7910
 2968SOL    HW220367   3.265   2.834   3.641 -0.1125 -0.2032  0.1152
 2969SOL     OW20368   3.546   4.296  14.495 -0.5490 -0.3742 -0.3643
 2969SOL    HW120369   3.558   4.253  14.580  1.2909  1.6677  0.4256
 2969SOL    HW220370   3.545   4.390  14.516  0.4066 -0.3533 -0.4052
 2970SOL     OW20371   0.377   0.873   8.729 -0.2498 -0.3622  0.0247
 2970SOL    HW120372   0.422   0.847   8.809 -0.5663  2.3356  1.0770
 2970SOL    HW220373   0.359   0.966   8.745 -0.5561 -0.4815  0.3733
 2971SOL     OW20374   1.756   0.671   8.676  0.3540 -0.5149  0.4147
 2971SOL    HW120375   1.771   0.762   8.700  0.6449 -0.7692  1.2032
 2971SOL    HW220376   1.796   0.667   8.589  1.5717  0.1475  0.9436
 2972SOL     OW20377   4.103   4.369  16.608 -0.5506  0.0335 -0.2479
 2972SOL    HW120378   4.074   4.402  16.693  3.3782 -3.9326  2.6933
 2972SOL    HW220379   4.189   4.412  16.599 -0.0882 -1.2752 -1.9262
 2973SOL     OW20380   0.903   0.506   9.348  0.2518 -0.2563 -0.2437
 2973SOL    HW120381   0.876   0.597   9.335  0.1087 -0.1394  0.8730
 2973SOL    HW220382   0.924   0.501   9.441  0.5504 -0.5610 -0.3277
 2974SOL     OW20383   1.022   1.620   4.422  0.9711  0.3285  0.2136
 2974SOL    HW120384   1.027   1.538   4.471 -1.1929 -0.2842 -0.5861
 2974SOL    HW220385   1.115   1.642   4.432  1.0848 -0.2671  0.4495
 2975SOL     OW20386   0.483   0.423   6.013 -0.3049 -0.2923  0.1387
 2975SOL    HW120387   0.431   0.355   5.971 -2.3446  1.8624 -0.8118
 2975SOL    HW220388   0.561   0.415   5.959  0.2790 -0.6598  1.0333
 2976SOL     OW20389   4.097   3.424   4.168 -0.2542 -0.5037 -0.1738
 2976SOL    HW120390   4.111   3.487   4.097 -3.1377  0.9729  0.5511
 2976SOL    HW220391   4.011   3.392   4.142 -1.3049  1.9975  0.1370
 2977SOL     OW20392   1.669   4.029   6.000  0.7212  0.0917 -0.3873
 2977SOL    HW120393   1.614   4.107   6.006 -0.2075 -0.4225 -2.1493
 2977SOL    HW220394   1.726   4.054   5.928  1.0556 -2.1397 -0.8966
 2978SOL     OW20395   0.267   1.433   2.504  0.1798 -0.3095 -0.2729
 2978SOL    HW120396   0.306   1.520   2.497 -0.9151  0.2678  0.8838
 2978SOL    HW220397   0.310   1.394   2.428 -1.0750 -2.3784  0.0862
 2979SOL     OW20398   1.336   1.272   8.350 -0.2698  0.4850  0.1638
 2979SOL    HW120399   1.311   1.280   8.443  0.0066 -0.6117  0.3404
 2979SOL    HW220400   1.405   1.207   8.359 -0.2693  0.3415 -0.9546
 2980SOL     OW20401   0.567   3.511  13.564 -0.7485  0.2776  0.1664
 2980SOL    HW120402   0.501   3.451  13.530  0.3369 -0.5786 -0.4226
 2980SOL    HW220403   0.558   3.492  13.657 -0.0839  0.8357  0.3468
 2981SOL     OW20404   0.279   3.926  15.318  0.4165 -0.5635 -0.3640
 2981SOL    HW120405   0.333   3.896  15.244 -0.2550  0.2098 -1.1676
 2981SOL    HW220406   0.321   4.009  15.341  0.0125 -0.5900  0.4473
 2982SOL     OW20407   0.334   1.432   9.231 -0.0346  0.0582  0.3045
 2982SOL    HW120408   0.300   1.426   9.320 -0.2979 -0.1907  0.1886
 2982SOL    HW220409   0.267   1.488   9.192 -0.9575 -0.3795  1.2437
 2983SOL     OW20410   4.444   2.817   5.906  0.3222  0.2795 -0.0919
 2983SOL    HW120411   4.414   2.761   5.978  0.6534  0.7690  0.4221
 2983SOL    HW220412   4.418   2.765   5.830  0.1044  2.1285 -1.2666
 2984SOL     OW20413   0.629   1.593   8.124 -0.1237  0.0860  0.5528
 2984SOL    HW120414   0.723   1.575   8.130 -0.1342 -0.4296 -0.9299
 2984SOL    HW220415   0.573   1.539   8.181 -0.0281  0.2438  0.7946
 2985SOL     OW20416   1.541   3.977   2.604  0.3538  0.3682  0.1368
 2985SOL    HW120417   1.620   3.942   2.647 -0.8868  1.2609  3.1264
 2985SOL    HW220418   1.579   3.989   2.517  1.6352 -0.0291  0.6343
 2986SOL     OW20419   0.509   4.701  12.939 -0.1148 -0.7976 -0.1526
 2986SOL    HW120420   0.492   4.657  12.856  1.3721  0.7779 -1.2828
 2986SOL    HW220421   0.591   0.021  12.918  0.2632 -1.5797 -0.3218
 2987SOL     OW20422   2.678   2.468   8.557 -0.1532  0.4965  0.1503
 2987SOL    HW120423   2.773   2.471   8.546 -0.1790  0.7724  0.0157
 2987SOL    HW220424   2.658   2.446   8.466 -0.5819 -0.6664  0.5210
 2988SOL     OW20425   4.424   2.187   9.364  0.7487 -0.1914  0.6481
 2988SOL    HW120426   4.497   2.246   9.382  1.1139 -0.0389 -1.2909
 2988SOL    HW220427   4.377   2.248   9.306  1.0471 -0.3272  0.2614
 2989SOL     OW20428   2.397   1.648   6.939 -0.4747  0.2983  0.3567
 2989SOL    HW120429   2.342   1.633   7.016 -0.1712  1.7762  0.8631
 2989SOL    HW220430   2.437   1.731   6.965 -0.8098  0.5794 -0.0369
 2990SOL     OW20431   0.291   3.539  14.168  0.1007 -0.3703 -0.0109
 2990SOL    HW120432   0.384   3.524  14.185  0.0250 -0.1532  0.6189
 2990SOL    HW220433   0.257   3.570  14.252  0.3761 -0.9253  0.3075
 2991SOL     OW20434   2.145   3.195   2.455 -0.1579  0.1341 -0.3003
 2991SOL    HW120435   2.123   3.106   2.426 -0.8647 -0.4050  1.8957
 2991SOL    HW220436   2.065   3.242   2.430  0.7036  0.6986 -2.0034
 2992SOL     OW20437   3.173   2.171   5.820  0.4045 -0.5809 -0.2365
 2992SOL    HW120438   3.190   2.095   5.875  0.4428  0.1025  0.6859
 2992SOL    HW220439   3.121   2.139   5.746  1.7119 -2.2142 -0.4410
 2993SOL     OW20440   3.583   4.375   7.569  0.0358  0.8284  0.1767
 2993SOL    HW120441   3.508   4.419   7.610 -0.0578  0.5082  0.3509
 2993SOL    HW220442   3.649   4.386   7.637  0.2426  0.6331  0.0084
 2994SOL     OW20443   3.428   2.270  16.186  0.0769  0.4082  0.4650
 2994SOL    HW120444   3.470   2.264  16.100  0.1695 -0.9577  0.6129
 2994SOL    HW220445   3.489   2.230  16.248  1.5033  1.0709 -0.4797
 2995SOL     OW20446   4.604   3.196   7.073 -0.3329  0.1883  0.0639
 2995SOL    HW120447   4.655   3.155   7.143 -1.5367 -0.4082  0.6034
 2995SOL    HW220448   4.682   3.225   7.026 -0.6889  0.4869 -0.3455
 2996SOL     OW20449   2.368   2.564   4.565  0.4873  0.3527 -0.0828
 2996SOL    HW120450   2.393   2.519   4.646  0.0679  0.2675  0.0004
 2996SOL    HW220451   2.400   2.499   4.504 -1.8973  0.9387 -1.9657
 2997SOL     OW20452   2.061   3.498   3.150 -0.9237  0.0931  0.2824
 2997SOL    HW120453   2.012   3.547   3.217  0.3137  2.1838 -0.3598
 2997SOL    HW220454   1.985   3.459   3.106  0.1857 -0.2852 -1.2650
 2998SOL     OW20455   2.201   1.930   5.761 -0.5706  0.3557  0.2586
 2998SOL    HW120456   2.182   2.005   5.705 -3.7379  1.0701  2.2774
 2998SOL    HW220457   2.254   1.876   5.702  0.6370  1.6471  0.1590
 2999SOL     OW20458   4.217   0.741   5.742 -0.0671  0.2753  0.9302
 2999SOL    HW120459   4.242   0.814   5.685 -1.6179  1.1143  1.3240
 2999SOL    HW220460   4.309   0.721   5.760  0.0374 -0.7783 -0.8210
 3000SOL     OW20461   1.128   3.931   4.834  0.0815 -0.4809  0.1317
 3000SOL    HW120462   1.107   4.010   4.784  0.7443  0.9237  2.0561
 3000SOL    HW220463   1.073   3.863   4.795 -1.3327  0.6191  0.1711
 3001SOL     OW20464   3.972   1.461  14.725 -0.2748 -0.2759 -0.8381
 3001SOL    HW120465   3.909   1.394  14.698 -0.2079 -0.3177 -0.8918
 3001SOL    HW220466   3.916   1.539  14.721  0.7970  0.4436 -1.7852
 3002SOL     OW20467   1.988   1.601   8.441  0.9884 -0.5552  0.1463
 3002SOL    HW120468   2.004   1.660   8.515  0.6152 -0.0831 -0.1501
 3002SOL    HW220469   2.049   1.640   8.378  1.3611  1.0217  1.4766
 3003SOL     OW20470   3.254   0.848   8.795 -0.2305  0.2050 -0.2587
 3003SOL    HW120471   3.199   0.926   8.799  0.1884  0.4580  0.5306
 3003SOL    HW220472   3.209   0.805   8.722 -0.4275 -0.7990  0.4593
 3004SOL     OW20473   1.695   1.473  10.487 -0.0641 -0.2239 -0.0447
 3004SOL    HW120474   1.678   1.436  10.573  2.9102 -1.5409 -0.0219
 3004SOL    HW220475   1.762   1.411  10.458 -0.4830 -0.4719 -0.4824
 3005SOL     OW20476   1.332   2.461   5.057  0.0984  0.3990 -0.8193
 3005SOL    HW120477   1.237   2.471   5.050  0.1411  1.6879  0.4908
 3005SOL    HW220478   1.361   2.543   5.095 -2.5150  0.5667  0.8747
 3006SOL     OW20479   2.622   1.490   4.759 -0.3465  0.3438 -0.6120
 3006SOL    HW120480   2.673   1.409   4.766  2.4284  2.0611 -0.9535
 3006SOL    HW220481   2.593   1.509   4.849 -0.1432 -2.4145  0.0336
 3007SOL     OW20482   3.693   3.816  16.734  0.0226  1.0294 -0.4962
 3007SOL    HW120483   3.617   3.863  16.768  0.3467  1.1329  0.0768
 3007SOL    HW220484   3.762   3.880  16.754  0.1574  0.7186  0.0162
 3008SOL     OW20485   1.377   0.822   3.652 -0.4654  0.5157 -0.6649
 3008SOL    HW120486   1.378   0.912   3.684 -0.9106  0.8924 -1.7130
 3008SOL    HW220487   1.284   0.798   3.654 -0.7552  1.7124  0.4270
 3009SOL     OW20488   0.975   4.541   5.504 -0.1214 -0.0177 -0.2882
 3009SOL    HW120489   0.883   4.515   5.513 -0.2020  0.1592 -0.5876
 3009SOL    HW220490   1.001   4.542   5.596  0.8445 -0.5929 -0.5581
 3010SOL     OW20491   2.988   4.324   8.777  0.0579  0.2816  0.0113
 3010SOL    HW120492   2.982   4.231   8.758  1.1657  0.0197  1.0103
 3010SOL    HW220493   3.054   4.351   8.713  0.6327  0.2768  0.6161
 3011SOL     OW20494   2.031   4.409   2.720  0.1985 -0.3029 -0.8644
 3011SOL    HW120495   2.087   4.371   2.652  3.1570 -0.7102  1.8083
 3011SOL    HW220496   2.066   4.497   2.710 -0.8062  0.3116  1.0610
 3012SOL     OW20497   4.554   2.052   6.744 -0.4385  0.4341 -0.2969
 3012SOL    HW120498   4.516   2.135   6.772 -0.6146  0.1607  0.2654
 3012SOL    HW220499   4.518   2.005   6.819 -1.3914  2.0559  0.2701
 3013SOL     OW20500   4.248   3.095   7.215  0.4280 -0.1993  0.5981
 3013SOL    HW120501   4.172   3.150   7.197 -0.0828 -0.5904  1.5239
 3013SOL    HW220502   4.323   3.154   7.212 -0.7983  1.1606 -2.6732
 3014SOL     OW20503   0.912   2.768   3.071  0.4012 -0.1009 -0.3706
 3014SOL    HW120504   0.950   2.702   3.012  0.9375  0.5297 -0.7443
 3014SOL    HW220505   0.924   2.852   3.025  0.7948  0.4400  0.7140
 3015SOL     OW20506   0.711   2.340   0.480  0.3352 -0.5773 -0.4384
 3015SOL    HW120507   0.688   2.388   0.559 -0.1206 -1.7044  0.1012
 3015SOL    HW220508   0.749   2.412   0.429  0.5012 -1.1211 -1.0798
 3016SOL     OW20509   0.350   4.025   2.458 -0.1752  0.3311  0.1308
 3016SOL    HW120510   0.276   3.965   2.458 -0.7617  1.0629  0.3069
 3016SOL    HW220511   0.354   4.038   2.363  0.9107 -0.5104  0.0629
 3017SOL     OW20512   3.207   0.806   2.780  0.3802  0.0461  0.1424
 3017SOL    HW120513   3.277   0.822   2.717  0.2825  1.4345  0.3672
 3017SOL    HW220514   3.207   0.895   2.816 -0.8124 -0.2982  1.0037
 3018SOL     OW20515   0.849   4.653  10.175 -0.2633 -0.2541  0.3294
 3018SOL    HW120516   0.849   4.643  10.270 -0.1026  0.9911  0.4691
 3018SOL    HW220517   0.783   4.590  10.146  1.5397 -3.4564  3.2573
 3019SOL     OW20518   0.752   2.643   8.229  0.9731 -0.0750  0.1982
 3019SOL    HW120519   0.762   2.614   8.320 -1.5039 -1.2396  0.1020
 3019SOL    HW220520   0.667   2.688   8.235 -0.1404 -2.1130 -0.3028
 3020SOL     OW20521   4.124   4.694   1.716  0.2226 -0.8758 -0.0248
 3020SOL    HW120522   4.213   4.679   1.747  0.1299 -1.5070 -0.0545
 3020SOL    HW220523   4.078   4.708   1.800  0.3751  1.0972 -0.2776
 3021SOL     OW20524   2.607   2.801  10.668  0.1975 -0.5533  0.2359
 3021SOL    HW120525   2.617   2.749  10.748  0.2207 -2.0988 -0.7859
 3021SOL    HW220526   2.585   2.737  10.601 -0.8946 -0.2309  0.2753
 3022SOL     OW20527   3.694   2.123   3.228  0.0301  0.0264 -0.4836
 3022SOL    HW120528   3.785   2.102   3.207  0.0378 -0.5304  0.1019
 3022SOL    HW220529   3.697   2.118   3.323  2.5849 -1.1307 -0.6214
 3023SOL     OW20530   1.403   0.833   8.358 -0.1323  0.4217 -0.0637
 3023SOL    HW120531   1.471   0.842   8.291 -1.2885  1.2104 -1.1272
 3023SOL    HW220532   1.435   0.893   8.425  2.0708 -0.6233 -0.1848
 3024SOL     OW20533   1.719   1.176   4.656  0.1199  0.6395  0.3674
 3024SOL    HW120534   1.759   1.150   4.573 -2.7435 -0.1387 -0.7412
 3024SOL    HW220535   1.773   1.254   4.670 -0.6386  1.2192  0.0349
 3025SOL     OW20536   4.681   0.710   5.348  0.2237 -0.2590  0.2302
 3025SOL    HW120537   0.044   0.684   5.318  0.1152  0.2284 -0.5142
 3025SOL    HW220538   4.702   0.794   5.388  0.7847 -0.3849  0.2051
 3026SOL     OW20539   1.407   1.084  16.439  0.0222  0.2062 -0.1869
 3026SOL    HW120540   1.491   1.121  16.465 -0.0122  2.5646 -3.3795
 3026SOL    HW220541   1.408   1.016  16.507 -3.0063 -0.2223 -0.5774
 3027SOL     OW20542   2.165   4.088   7.822  0.6569  0.0453 -0.7354
 3027SOL    HW120543   2.070   4.075   7.830  0.3150  0.9237 -3.1885
 3027SOL    HW220544   2.163   4.180   7.847  0.3332 -1.2559  3.9544
 3028SOL     OW20545   3.480   1.641   7.772 -0.1010 -0.2885 -0.1783
 3028SOL    HW120546   3.460   1.548   7.765 -0.6978 -0.2708  1.2685
 3028SOL    HW220547   3.393   1.677   7.787  0.0065 -0.2344  0.3151
 3029SOL     OW20548   0.102   3.193  12.622  0.3956  0.0546 -0.0897
 3029SOL    HW120549   0.089   3.113  12.672  0.6100  0.3390  0.4248
 3029SOL    HW220550   0.195   3.204  12.641  0.1340  1.8485  0.1965
 3030SOL     OW20551   0.004   2.303   1.078  0.1918 -0.0039 -0.2841
 3030SOL    HW120552   4.647   2.288   1.029  1.8202 -0.6590 -2.8225
 3030SOL    HW220553   0.015   2.397   1.062 -0.5055  0.4067  1.6424
 3031SOL     OW20554   2.877   1.977   4.844 -0.0828  0.2296  0.1862
 3031SOL    HW120555   2.894   1.933   4.761 -1.7497  0.3984 -0.2549
 3031SOL    HW220556   2.961   2.016   4.868 -0.8320  1.8948  0.1167
 3032SOL     OW20557   3.212   0.672   9.286  0.2441  0.0540 -0.0279
 3032SOL    HW120558   3.288   0.614   9.295  1.8209  2.2822  1.0735
 3032SOL    HW220559   3.183   0.661   9.376  1.1922  0.6903  0.3662
 3033SOL     OW20560   1.754   0.475  13.527 -0.2437 -0.3798  0.3954
 3033SOL    HW120561   1.849   0.486  13.535 -0.0584 -2.5778  1.0246
 3033SOL    HW220562   1.731   0.555  13.574 -1.3201 -1.9890  2.5982
 3034SOL     OW20563   4.343   1.055   4.758  0.4158 -0.1483 -0.7512
 3034SOL    HW120564   4.262   1.020   4.796  1.3627  0.0985  1.4949
 3034SOL    HW220565   4.297   1.092   4.683  0.9577  1.8314 -0.0896
 3035SOL     OW20566   3.743   1.226   4.511 -0.4627 -0.2952  0.0786
 3035SOL    HW120567   3.800   1.185   4.446  1.2727 -0.2728  1.5901
 3035SOL    HW220568   3.797   1.240   4.588  0.4216 -0.7239 -0.4658
 3036SOL     OW20569   3.101   0.261   2.352 -0.2575  0.1929  0.2361
 3036SOL    HW120570   3.014   0.228   2.375 -0.1168 -0.1548  0.2744
 3036SOL    HW220571   3.111   0.333   2.413 -0.4264 -0.3803  0.9456
 3037SOL     OW20572   2.508   0.908   3.479  0.0054 -0.3984 -0.3544
 3037SOL    HW120573   2.576   0.962   3.439 -0.6764  2.1010  1.8031
 3037SOL    HW220574   2.451   0.883   3.406 -0.4972 -1.9463  0.5674
 3038SOL     OW20575   2.415   2.931  12.192  0.3849  0.4722 -0.0229
 3038SOL    HW120576   2.406   2.980  12.111  1.4466  1.2354  0.3091
 3038SOL    HW220577   2.498   2.889  12.169  0.1386  1.3378 -2.4983
 3039SOL     OW20578   4.094   3.924   2.685  0.4994 -0.0046  0.1074
 3039SOL    HW120579   4.084   3.830   2.669 -1.8464  0.3045 -0.2869
 3039SOL    HW220580   4.162   3.939   2.620  1.0898 -1.8004  0.3118
 3040SOL     OW20581   0.951   4.282   2.103  0.3889  0.1481  0.1291
 3040SOL    HW120582   0.968   4.344   2.031  2.9852 -0.5379  0.1509
 3040SOL    HW220583   0.914   4.206   2.058  0.1574  0.6507 -0.5435
 3041SOL     OW20584   3.526   4.707   1.075 -0.0914 -0.3472 -0.3872
 3041SOL    HW120585   3.551   0.047   1.008 -0.6083  0.2345 -0.0249
 3041SOL    HW220586   3.586   4.633   1.066 -1.1302 -1.1798 -0.3122
 3042SOL     OW20587   3.505   0.872   6.278 -0.1409  0.0464 -0.6350
 3042SOL    HW120588   3.523   0.813   6.205  0.8299  0.3186 -0.6203
 3042SOL    HW220589   3.588   0.920   6.290  0.5782 -1.2675 -0.3967
 3043SOL     OW20590   0.391   2.445  11.625  0.2438  0.1500 -0.6692
 3043SOL    HW120591   0.340   2.405  11.695  0.1850  2.0492  0.3660
 3043SOL    HW220592   0.379   2.371  11.564 -2.1587 -0.8291  1.0015
 3044SOL     OW20593   0.668   1.140  11.276 -0.1589  0.5926 -0.1435
 3044SOL    HW120594   0.634   1.222  11.313  1.0005  1.0003  0.0381
 3044SOL    HW220595   0.592   1.117  11.223 -0.0903 -0.6566  0.3027
 3045SOL     OW20596   0.721   2.740  14.697 -0.7770 -0.0662 -0.3192
 3045SOL    HW120597   0.808   2.762  14.664 -0.9327  0.7549 -0.1767
 3045SOL    HW220598   0.691   2.820  14.740 -1.5997 -0.0582 -0.9171
 3046SOL     OW20599   2.959   2.436   8.531  0.7152 -0.0222  0.1092
 3046SOL    HW120600   2.968   2.341   8.539 -3.5317 -0.6595 -2.7587
 3046SOL    HW220601   2.989   2.466   8.617  0.8055  2.6807 -0.8829
 3047SOL     OW20602   0.732   2.161   3.359  0.1800 -0.6803 -0.0266
 3047SOL    HW120603   0.748   2.224   3.288  2.2666 -0.7991  0.3505
 3047SOL    HW220604   0.782   2.194   3.433  1.1752  1.1228 -1.4793
 3048SOL     OW20605   3.807   2.130  12.713 -0.4157  0.0477  0.5356
 3048SOL    HW120606   3.823   2.127  12.808 -0.5505 -0.1548  0.5531
 3048SOL    HW220607   3.829   2.220  12.690  0.3446 -0.1950  0.2992
 3049SOL     OW20608   0.136   0.375   5.882  0.0150  0.3111 -0.4212
 3049SOL    HW120609   0.215   0.321   5.888  0.5832  1.4367  2.0978
 3049SOL    HW220610   0.076   0.308   5.849 -1.1627  1.6094 -0.9451
 3050SOL     OW20611   3.530   0.818   9.134  0.1272 -0.5754 -0.2348
 3050SOL    HW120612   3.518   0.727   9.105  0.2197 -1.1050  1.3648
 3050SOL    HW220613   3.557   0.865   9.056 -0.7015 -1.0624 -0.8069
 3051SOL     OW20614   4.288   1.063   3.356 -0.9133 -1.0217  0.6211
 3051SOL    HW120615   4.198   1.092   3.373 -0.5147  0.4028  0.3189
 3051SOL    HW220616   4.279   1.033   3.266 -1.4051  0.0685  0.3029
 3052SOL     OW20617   3.343   2.806   8.833  0.0286 -0.0687 -0.5979
 3052SOL    HW120618   3.351   2.778   8.742  1.2198  3.1972 -1.4813
 3052SOL    HW220619   3.249   2.790   8.841  0.3761 -1.5104  0.7844
 3053SOL     OW20620   1.924   4.686  12.608  0.1054 -0.1587  0.4573
 3053SOL    HW120621   1.972   0.036  12.647 -0.4315 -0.8801  2.5100
 3053SOL    HW220622   1.966   4.683  12.522  0.3712  2.6410  0.4908
 3054SOL     OW20623   4.064   3.747  11.893  0.5315 -0.2603 -0.0121
 3054SOL    HW120624   4.097   3.758  11.804 -0.8428  1.3849 -0.3308
 3054SOL    HW220625   4.135   3.789  11.941  0.9446 -2.2640  1.1143
 3055SOL     OW20626   3.982   1.624   8.290  0.1020  0.4190  0.1581
 3055SOL    HW120627   3.928   1.684   8.238  0.5486 -0.4543 -1.3398
 3055SOL    HW220628   4.053   1.684   8.315  2.5288 -0.9043 -3.3704
 3056SOL     OW20629   3.240   4.330   7.896  0.1038  0.1192 -0.3743
 3056SOL    HW120630   3.309   4.380   7.853  1.2193  0.8537  2.2508
 3056SOL    HW220631   3.219   4.379   7.975  1.2964  0.3609 -0.2128
 3057SOL     OW20632   1.495   3.960   6.323 -0.4384  0.0885  0.1538
 3057SOL    HW120633   1.490   3.901   6.247  1.5008  1.7646 -1.2494
 3057SOL    HW220634   1.484   3.896   6.394 -2.3462  0.0000 -0.2135
 3058SOL     OW20635   1.971   0.244   7.705  0.3154 -0.6028  0.4135
 3058SOL    HW120636   1.919   0.292   7.769 -0.9734  1.0413 -1.8667
 3058SOL    HW220637   2.027   0.191   7.761 -0.6567 -0.1081  1.8473
 3059SOL     OW20638   3.104   3.117   2.638  0.2037  0.0989  0.0810
 3059SOL    HW120639   3.189   3.103   2.598 -1.3215  1.5998 -3.6723
 3059SOL    HW220640   3.083   3.208   2.616 -1.1161 -0.8241 -2.5032
 3060SOL     OW20641   3.078   2.320  11.770  0.0652  0.4758 -0.0383
 3060SOL    HW120642   2.988   2.346  11.750 -0.0590  1.5465  1.9184
 3060SOL    HW220643   3.120   2.400  11.738 -0.2668  0.0088 -1.6416
 3061SOL     OW20644   4.598   1.619   9.129  0.0194 -0.1108  0.2239
 3061SOL    HW120645   4.679   1.671   9.128  0.2282 -0.4788 -1.6426
 3061SOL    HW220646   4.541   1.676   9.077  1.3376 -0.5442 -1.6820
 3062SOL     OW20647   3.551   3.850   4.188 -0.6109 -0.0246 -0.1863
 3062SOL    HW120648   3.524   3.800   4.111 -0.1864 -1.8192  0.8528
 3062SOL    HW220649   3.606   3.913   4.141 -0.2334 -0.7403 -0.7001
 3063SOL     OW20650   2.875   0.116  12.354  0.3723  0.2472  0.3152
 3063SOL    HW120651   2.951   0.166  12.384  1.0127  1.1796 -2.8297
 3063SOL    HW220652   2.907   0.033  12.319 -2.7488 -0.6360 -0.4175
 3064SOL     OW20653   1.835   2.092   5.758  0.0703 -0.3465 -0.5672
 3064SOL    HW120654   1.745   2.092   5.791 -0.2768  0.4451 -1.5129
 3064SOL    HW220655   1.837   2.027   5.688 -0.1937 -0.7444 -0.2096
 3065SOL     OW20656   0.986   4.014   1.713  0.3398  0.1660  0.5685
 3065SOL    HW120657   1.045   3.939   1.702  0.9346  0.5569  1.0635
 3065SOL    HW220658   1.041   4.081   1.672  0.0342  0.2715  0.3297
 3066SOL     OW20659   3.542   0.101  16.005 -0.2088 -0.3422 -0.0620
 3066SOL    HW120660   3.600   0.145  15.943 -0.3147 -0.8314 -0.5144
 3066SOL    HW220661   3.604   0.033  16.031 -1.4475 -1.0682  1.0219
 3067SOL     OW20662   0.371   3.185   4.965 -1.0235  0.4760  0.3410
 3067SOL    HW120663   0.287   3.162   4.926 -0.9969 -1.1702  1.2560
 3067SOL    HW220664   0.400   3.268   4.928  0.3296 -0.3511 -0.4562
 3068SOL     OW20665   4.057   0.533   5.691  0.2054  0.3473 -0.6008
 3068SOL    HW120666   4.129   0.591   5.715  0.4537 -0.3523  0.3295
 3068SOL    HW220667   4.092   0.466   5.633  0.4993  1.0156 -1.1997
 3069SOL     OW20668   1.359   4.256   0.903  0.3033 -0.2245  0.6049
 3069SOL    HW120669   1.365   4.178   0.849 -2.2935  0.0942 -0.1051
 3069SOL    HW220670   1.301   4.223   0.971 -0.3234 -0.0644  0.1392
 3070SOL     OW20671   0.311   3.907  11.259 -0.2794 -0.1528  0.4449
 3070SOL    HW120672   0.399   3.929  11.227  1.3701 -1.5114  4.1020
 3070SOL    HW220673   0.333   3.846  11.329  2.4090  2.1710  1.6567
 3071SOL     OW20674   2.818   4.173  17.495 -0.7625  0.5071 -0.1946
 3071SOL    HW120675   2.859   4.240  17.549  0.7043 -0.2002 -0.4184
 3071SOL    HW220676   2.785   4.109  17.559 -2.2409  0.3243 -1.1250
 3072SOL     OW20677   3.918   1.227   0.881 -0.1007 -0.3340 -0.4340
 3072SOL    HW120678   3.937   1.160   0.947  0.4853 -2.2023 -2.4975
 3072SOL    HW220679   3.873   1.171   0.818 -2.3055  2.2129 -1.1353
 3073SOL     OW20680   0.770   4.161   5.667 -0.8171  0.1346 -0.6852
 3073SOL    HW120681   0.718   4.103   5.721 -1.4621  1.1025 -0.2669
 3073SOL    HW220682   0.810   4.219   5.732  2.1689 -0.6540 -1.8132
 3074SOL     OW20683   2.924   0.657   8.542 -0.0265 -0.0073  0.1234
 3074SOL    HW120684   2.884   0.624   8.623 -0.3729 -1.4782 -0.6494
 3074SOL    HW220685   2.862   0.724   8.512 -2.1854 -1.5672  1.1212
 3075SOL     OW20686   4.203   2.623  11.598  0.3729 -0.2370  0.1302
 3075SOL    HW120687   4.265   2.694  11.581 -0.6551  0.8131  0.7563
 3075SOL    HW220688   4.173   2.643  11.687  0.5605  0.0985  0.1188
 3076SOL     OW20689   2.167   2.834  11.829  0.2628  0.2544 -0.5435
 3076SOL    HW120690   2.233   2.903  11.838  0.0466  0.5513 -1.2230
 3076SOL    HW220691   2.150   2.801  11.917 -0.1327  0.6332 -0.4763
 3077SOL     OW20692   2.777   2.838   6.551 -0.4424 -0.4659 -0.7279
 3077SOL    HW120693   2.763   2.918   6.602 -0.9394 -1.3552  0.5375
 3077SOL    HW220694   2.872   2.839   6.550 -0.4822  1.3793 -1.2427
 3078SOL     OW20695   3.174   3.462  14.280  0.2571  0.6551  0.2128
 3078SOL    HW120696   3.170   3.558  14.273 -0.1838  0.5158 -1.5445
 3078SOL    HW220697   3.243   3.448  14.344 -0.0095  0.7605  0.5242
 3079SOL     OW20698   2.664   2.829   6.865 -0.4623  0.0323 -0.1363
 3079SOL    HW120699   2.757   2.851   6.859 -0.2323 -0.8024  0.3832
 3079SOL    HW220700   2.671   2.734   6.880  2.9741  0.0958 -1.3626
 3080SOL     OW20701   1.806   2.551   4.651  0.1095  0.0446 -0.4565
 3080SOL    HW120702   1.746   2.570   4.723  2.3948 -0.3667  1.5592
 3080SOL    HW220703   1.874   2.495   4.688  0.9642  1.8320  0.6682
 3081SOL     OW20704   4.429   4.382   2.072 -0.6246  0.2951  0.1850
 3081SOL    HW120705   4.437   4.478   2.075 -1.7071  0.4370 -1.6413
 3081SOL    HW220706   4.387   4.372   1.987  0.9297  1.7792 -0.7480
 3082SOL     OW20707   2.350   1.818   5.571 -0.5551 -0.1675 -0.4002
 3082SOL    HW120708   2.412   1.886   5.544  0.6908 -2.4075 -3.2032
 3082SOL    HW220709   2.323   1.778   5.488  1.3377 -1.5711 -0.3484
 3083SOL     OW20710   4.208   3.751   3.502 -0.1600 -0.0518  0.1936
 3083SOL    HW120711   4.125   3.799   3.498  0.2469  0.5421 -1.4763
 3083SOL    HW220712   4.269   3.820   3.476 -0.1314  0.1282  0.7538
 3084SOL     OW20713   1.792   0.910   3.620 -0.0787  0.2354 -0.4521
 3084SOL    HW120714   1.854   0.964   3.571 -1.3104  1.7685 -0.3226
 3084SOL    HW220715   1.844   0.830   3.629 -0.4656  0.1562  1.1385
 3085SOL     OW20716   2.636   0.911  17.664 -0.2914 -0.0291 -0.1270
 3085SOL    HW120717   2.618   0.970  17.591  0.9186  0.1208 -0.2917
 3085SOL    HW220718   2.604   0.971   0.033 -0.0792  0.2914 -0.3118
 3086SOL     OW20719   1.427   2.702   5.134 -0.5167 -0.0506 -0.1824
 3086SOL    HW120720   1.377   2.757   5.194 -1.1048 -0.0668 -0.6550
 3086SOL    HW220721   1.511   2.733   5.168 -1.4546  0.2461  1.8666
 3087SOL     OW20722   0.790   4.486   7.484  0.3985 -0.3717  0.6425
 3087SOL    HW120723   0.755   4.427   7.416 -1.3804  2.0170 -0.4984
 3087SOL    HW220724   0.766   4.572   7.450 -0.4476 -1.0651 -0.5514
 3088SOL     OW20725   4.371   3.576   2.712 -0.3401  0.1397  0.0322
 3088SOL    HW120726   4.282   3.541   2.710  0.3645 -1.5241 -1.3612
 3088SOL    HW220727   4.362   3.581   2.807  0.0788 -2.0275  0.1871
 3089SOL     OW20728   1.607   0.666   3.583  0.0527  0.1610  0.2510
 3089SOL    HW120729   1.604   0.648   3.677  1.1861  2.0684  0.6401
 3089SOL    HW220730   1.526   0.715   3.570  1.9163  2.0237 -4.2443
 3090SOL     OW20731   3.706   4.322   4.940  0.3992  0.1295  0.0881
 3090SOL    HW120732   3.625   4.347   4.894 -0.3152 -0.2594  1.1311
 3090SOL    HW220733   3.669   4.242   4.977 -2.0158  0.2698 -1.9636
 3091SOL     OW20734   2.081   2.365   9.484 -0.0112 -0.2577  0.2729
 3091SOL    HW120735   2.088   2.408   9.398  0.7265 -2.7458 -0.9166
 3091SOL    HW220736   2.175   2.355   9.499 -0.1086 -2.2454 -0.4565
 3092SOL     OW20737   1.033   0.816   6.917 -0.6181  0.2060 -0.1272
 3092SOL    HW120738   0.987   0.777   6.843 -0.9099 -1.1094  0.7551
 3092SOL    HW220739   0.977   0.793   6.991  0.3447  2.0199  1.1677
 3093SOL     OW20740   0.869   2.636   6.168  0.8344  0.0844  0.5969
 3093SOL    HW120741   0.943   2.654   6.227  0.8792  2.8639 -0.3164
 3093SOL    HW220742   0.912   2.643   6.084 -1.4948  0.3340 -0.5764
 3094SOL     OW20743   2.532   0.208   5.485 -0.2726 -0.7817  0.4045
 3094SOL    HW120744   2.503   0.118   5.474  0.3679 -0.9131 -0.1976
 3094SOL    HW220745   2.461   0.245   5.538 -0.6184  1.9601 -1.9926
 3095SOL     OW20746   0.076   0.458   8.444  0.7243  0.4588 -0.1576
 3095SOL    HW120747   4.708   0.442   8.463  1.2988 -0.5922  1.6662
 3095SOL    HW220748   0.077   0.542   8.490  0.3646  0.1942  0.3218
 3096SOL     OW20749   0.891   4.402   8.340 -0.5247 -0.4730  0.5687
 3096SOL    HW120750   0.822   4.469   8.339  0.5947  0.6429 -0.7791
 3096SOL    HW220751   0.933   4.412   8.255  1.3863 -0.2124  1.5600
 3097SOL     OW20752   3.880   2.107   7.398 -0.2501 -0.1770  0.4794
 3097SOL    HW120753   3.965   2.114   7.354 -0.5544 -0.8096 -0.2174
 3097SOL    HW220754   3.825   2.153   7.335  0.8040  1.1472  0.5478
 3098SOL     OW20755   4.698   0.218   0.390  0.2209  0.2114  0.2258
 3098SOL    HW120756   0.025   0.288   0.351  0.9517 -0.9557 -0.9195
 3098SOL    HW220757   4.668   0.176   0.309  1.7736  0.5525 -0.5324
 3099SOL     OW20758   3.929   4.388   1.938  0.1803  0.2682  0.7335
 3099SOL    HW120759   3.945   4.335   1.859 -0.8948  1.1777 -0.0819
 3099SOL    HW220760   3.835   4.400   1.934 -0.0446 -1.7682 -0.2826
 3100SOL     OW20761   4.585   1.289  15.434 -0.0708  0.1779 -0.2927
 3100SOL    HW120762   4.636   1.241  15.370 -1.3452 -1.3400 -0.1773
 3100SOL    HW220763   4.499   1.302  15.394  0.3551  0.5182 -1.0858
 3101SOL     OW20764   3.227   0.499   7.082 -0.5630  0.4087 -0.1397
 3101SOL    HW120765   3.231   0.540   6.996  2.4193  1.8038  0.6360
 3101SOL    HW220766   3.320   0.479   7.094 -0.7465 -1.3672 -1.6303
 3102SOL     OW20767   0.561   0.971   2.574 -0.4747 -0.0493  0.7807
 3102SOL    HW120768   0.566   1.059   2.610  1.7695  0.2892 -0.3755
 3102SOL    HW220769   0.592   0.989   2.485  0.8979 -0.5167  1.1698
 3103SOL     OW20770   0.027   0.407   2.596 -0.1787  0.2627 -0.4891
 3103SOL    HW120771   0.004   0.341   2.662  1.2580  1.2737  1.0155
 3103SOL    HW220772   0.101   0.364   2.552  1.5931  2.0819  0.7106
 3104SOL     OW20773   3.892   3.775  13.362  0.3597 -0.5428  0.1949
 3104SOL    HW120774   3.881   3.736  13.449  0.7701 -1.3279 -0.1167
 3104SOL    HW220775   3.832   3.850  13.368 -1.1548 -1.7569  0.2292
 3105SOL     OW20776   3.435   1.209  12.835  0.5743 -0.7160 -0.0042
 3105SOL    HW120777   3.501   1.140  12.827  0.2143 -0.9401 -1.0471
 3105SOL    HW220778   3.482   1.290  12.817 -0.1913 -0.6807 -1.8719
 3106SOL     OW20779   0.786   3.896   4.861  0.6771 -0.5675  0.2799
 3106SOL    HW120780   0.842   3.971   4.883 -0.2224 -0.1563  1.1467
 3106SOL    HW220781   0.737   3.890   4.942  0.1556 -1.5091 -0.1145
 3107SOL     OW20782   2.318   0.273   3.550 -0.0158 -0.0719  0.2144
 3107SOL    HW120783   2.231   0.312   3.556 -1.3298 -3.4371  2.5436
 3107SOL    HW220784   2.336   0.285   3.457  2.8742  0.0008  0.7796
 3108SOL     OW20785   3.965   3.087   4.299 -0.2045 -0.3492  0.3898
 3108SOL    HW120786   3.899   3.080   4.230  0.1691  1.3254 -0.1186
 3108SOL    HW220787   3.901   3.128   4.358  0.3724 -0.2949  0.9739
 3109SOL     OW20788   4.041   3.326   7.599 -0.3744  0.9080 -0.3959
 3109SOL    HW120789   3.977   3.283   7.542  0.7755 -3.4835  1.6473
 3109SOL    HW220790   4.082   3.389   7.540 -1.6715  1.7484 -0.4066
 3110SOL     OW20791   0.627   1.966   3.026  0.1672  0.3290 -0.7551
 3110SOL    HW120792   0.719   1.944   3.013  0.6628  2.3040 -0.4785
 3110SOL    HW220793   0.631   2.055   2.993 -0.1582  0.0695 -1.4944
 3111SOL     OW20794   3.512   3.533   2.210  0.3035 -0.5303  0.2514
 3111SOL    HW120795   3.511   3.440   2.233  3.0184 -1.2668 -2.6744
 3111SOL    HW220796   3.602   3.548   2.180 -0.2672 -0.7592 -1.5482
 3112SOL     OW20797   4.182   0.519   6.682 -0.1828 -0.2655  0.5529
 3112SOL    HW120798   4.184   0.473   6.598  0.7916 -0.4118  0.6594
 3112SOL    HW220799   4.265   0.493   6.722 -0.6032 -2.1680  0.1984
 3113SOL     OW20800   3.811   1.541   7.930 -0.4567 -0.1057 -0.1797
 3113SOL    HW120801   3.872   1.474   7.960  0.8615  1.0131 -0.3668
 3113SOL    HW220802   3.736   1.543   7.990 -1.8722  1.3631 -2.0055
 3114SOL     OW20803   1.804   2.345   4.057 -0.0036 -0.2605  0.8120
 3114SOL    HW120804   1.826   2.438   4.056 -2.1444  0.2250 -0.1622
 3114SOL    HW220805   1.893   2.313   4.072 -0.0316 -1.2330 -1.2336
 3115SOL     OW20806   3.636   3.054  12.125 -0.0229  0.1770  0.2306
 3115SOL    HW120807   3.640   3.094  12.039 -2.5281 -0.3115 -0.1138
 3115SOL    HW220808   3.546   3.023  12.117  0.4534 -1.0196 -0.5979
 3116SOL     OW20809   3.042   1.156   9.532  0.0949 -0.2906  0.1261
 3116SOL    HW120810   3.013   1.216   9.463 -0.0667  0.1420  0.5664
 3116SOL    HW220811   3.088   1.224   9.582 -1.7914  2.3080 -1.6256
 3117SOL     OW20812   1.832   2.609   3.451  0.0206 -0.5717 -0.0578
 3117SOL    HW120813   1.878   2.666   3.390  0.4649 -2.8471 -1.8735
 3117SOL    HW220814   1.822   2.526   3.404  0.7298 -0.5902 -0.1798
 3118SOL     OW20815   2.954   1.472   8.970 -0.5325 -0.3332  0.0631
 3118SOL    HW120816   2.886   1.470   9.037 -1.0605  1.5995 -0.4285
 3118SOL    HW220817   2.974   1.379   8.955 -0.5438 -0.3509  0.1630
 3119SOL     OW20818   1.651   1.373   6.235  0.1868 -0.2741  0.3581
 3119SOL    HW120819   1.742   1.359   6.208  0.6337 -2.4017  3.0161
 3119SOL    HW220820   1.639   1.301   6.297  1.1643 -1.0867 -0.3910
 3120SOL     OW20821   1.134   1.479   5.537 -0.2680  0.0224 -0.7873
 3120SOL    HW120822   1.184   1.558   5.513 -1.2353  1.3788  1.7073
 3120SOL    HW220823   1.200   1.410   5.537 -0.3140 -0.0203  0.2066
 3121SOL     OW20824   2.295   4.091   7.462  0.0904 -0.3860  0.0964
 3121SOL    HW120825   2.312   4.045   7.380  0.5050  0.0749 -0.0769
 3121SOL    HW220826   2.288   4.023   7.529 -2.2195  0.1723  0.4274
 3122SOL     OW20827   3.600   2.544   2.187  0.3086  0.3641 -0.3033
 3122SOL    HW120828   3.558   2.473   2.234  2.9524  1.1568  3.2431
 3122SOL    HW220829   3.613   2.606   2.259  1.6159  1.5215 -1.5204
 3123SOL     OW20830   1.199   0.269   7.445  0.1919  0.1376  0.6798
 3123SOL    HW120831   1.223   0.361   7.435  0.6419 -0.1370 -0.7534
 3123SOL    HW220832   1.258   0.256   7.519  0.7560 -1.8785 -0.1331
 3124SOL     OW20833   0.172   3.699   5.567  0.1137 -0.0565  0.0572
 3124SOL    HW120834   0.089   3.686   5.612 -0.6130  1.3209 -0.8959
 3124SOL    HW220835   0.161   3.777   5.513 -0.6741  0.5389  1.0702
 3125SOL     OW20836   1.714   2.482   3.808  0.6858 -0.2413  0.1091
 3125SOL    HW120837   1.771   2.438   3.745 -0.1449 -0.7639 -0.2723
 3125SOL    HW220838   1.723   2.422   3.882  1.0822  0.2839  0.4885
 3126SOL     OW20839   2.360   4.458   2.861 -0.1262 -0.0052  0.9312
 3126SOL    HW120840   2.313   4.535   2.830  0.4756 -0.6752 -1.6363
 3126SOL    HW220841   2.290   4.391   2.863  2.0159 -2.3195 -1.6683
 3127SOL     OW20842   1.280   3.691   9.452  0.2175 -0.3614  0.6919
 3127SOL    HW120843   1.245   3.721   9.536 -1.0219 -1.0748  0.4342
 3127SOL    HW220844   1.206   3.632   9.435  1.1468 -1.3958  0.3013
 3128SOL     OW20845   1.938   0.022   8.756  0.6860 -0.2269  0.1780
 3128SOL    HW120846   1.986   0.012   8.674  0.0713 -0.7244 -0.1190
 3128SOL    HW220847   1.984   0.100   8.789  1.8726 -0.6617 -0.4603
 3129SOL     OW20848   1.707   2.379  10.309  0.2555  0.0307  0.6400
 3129SOL    HW120849   1.778   2.346  10.254  1.3204  0.7384  1.5836
 3129SOL    HW220850   1.749   2.369  10.394  2.2076  0.8640 -0.2410
 3130SOL     OW20851   3.629   3.126  11.834 -0.0281  0.3235  0.5622
 3130SOL    HW120852   3.614   3.210  11.792 -0.6335 -1.0661 -1.9753
 3130SOL    HW220853   3.602   3.067  11.764 -0.4573  1.1880  0.0120
 3131SOL     OW20854   4.635   1.827  14.173  0.3910  0.2924 -0.1255
 3131SOL    HW120855   4.606   1.811  14.083 -1.0191 -0.7213  0.5142
 3131SOL    HW220856   4.589   1.763  14.228  1.3015  1.3171  1.8255
 3132SOL     OW20857   0.942   2.847   6.684 -0.6113 -0.0614  0.2973
 3132SOL    HW120858   0.973   2.770   6.731 -2.8230 -2.0784 -1.5699
 3132SOL    HW220859   0.923   2.885   6.770 -0.2114  0.2974  0.2250
 3133SOL     OW20860   3.899   3.946  10.982  0.1948 -0.4711  0.0790
 3133SOL    HW120861   3.885   3.899  10.900 -4.3855  0.1893  0.4871
 3133SOL    HW220862   3.880   3.884  11.052 -1.2659  2.0620  1.9505
 3134SOL     OW20863   4.650   2.653   4.688 -0.0357 -0.1301 -0.4037
 3134SOL    HW120864   4.577   2.640   4.628 -0.0154  3.7698 -1.2762
 3134SOL    HW220865   4.707   2.580   4.664 -2.2905 -2.1161  0.2998
 3135SOL     OW20866   0.456   4.679   1.263 -0.3074 -0.2027 -0.3839
 3135SOL    HW120867   0.512   4.640   1.330 -1.5643  0.5439  1.0994
 3135SOL    HW220868   0.498   0.036   1.235 -2.2337  1.3207  1.1460
 3136SOL     OW20869   2.816   0.257   5.628 -0.4076  0.0466 -0.6647
 3136SOL    HW120870   2.746   0.232   5.567 -1.7099 -2.5621  1.8817
 3136SOL    HW220871   2.785   0.213   5.707  3.9806 -1.1800  0.3631
 3137SOL     OW20872   3.358   2.164   3.008 -0.1125 -0.2935 -0.1020
 3137SOL    HW120873   3.388   2.108   2.936 -0.2177 -0.8012  0.2542
 3137SOL    HW220874   3.270   2.192   2.980 -0.8467 -1.9319  0.5528
 3138SOL     OW20875   4.121   1.166   6.908  0.3650 -0.1558  0.0485
 3138SOL    HW120876   4.092   1.106   6.977  0.3827  0.0631  0.2450
 3138SOL    HW220877   4.199   1.123   6.873 -0.6958 -0.0522 -2.5297
 3139SOL     OW20878   1.636   1.605   6.552 -0.4216 -0.1749  0.2939
 3139SOL    HW120879   1.633   1.660   6.474 -4.3480 -0.7626  0.0254
 3139SOL    HW220880   1.561   1.552   6.525 -0.5191 -0.4894  1.1810
 3140SOL     OW20881   3.131   2.342   8.073 -0.5832 -0.4630 -0.0476
 3140SOL    HW120882   3.044   2.367   8.104 -0.0427  0.6933  0.5582
 3140SOL    HW220883   3.161   2.290   8.147  2.3376  0.5041 -0.5577
 3141SOL     OW20884   3.521   3.206   7.757  0.4714 -0.0113  0.1421
 3141SOL    HW120885   3.446   3.224   7.813  0.2662 -3.3665  0.9761
 3141SOL    HW220886   3.490   3.257   7.683  1.3868 -2.1284 -1.7134
 3142SOL     OW20887   2.888   3.358  16.796 -0.1974 -0.0911 -0.3755
 3142SOL    HW120888   2.980   3.342  16.773  0.3176 -0.3602  1.8977
 3142SOL    HW220889   2.865   3.416  16.723  0.8249 -0.0784 -0.6867
 3143SOL     OW20890   2.182   4.222   7.049 -0.0396 -0.6713 -0.4775
 3143SOL    HW120891   2.105   4.276   7.062  0.7940  1.2582 -3.4801
 3143SOL    HW220892   2.143   4.165   6.983  1.3463  0.2161 -2.0761
 3144SOL     OW20893   4.304   2.270  15.768  0.0793  0.5180  0.3066
 3144SOL    HW120894   4.380   2.317  15.733  1.0277 -2.2297 -1.3447
 3144SOL    HW220895   4.242   2.269  15.696 -0.4266 -0.7019  0.7613
 3145SOL     OW20896   1.968   2.809   8.755 -0.3262 -0.1952 -0.0448
 3145SOL    HW120897   1.968   2.793   8.849  1.1938 -0.1182 -0.0242
 3145SOL    HW220898   1.935   2.899   8.758 -0.0821 -0.1011 -0.1801
 3146SOL     OW20899   2.995   4.370   4.883 -0.0493  0.1505  0.2222
 3146SOL    HW120900   2.953   4.284   4.886 -0.5743  0.3646 -0.9730
 3146SOL    HW220901   3.009   4.398   4.973 -1.2298  0.3043  0.3646
 3147SOL     OW20902   2.036   2.919   3.089  0.2115 -0.0309 -0.4324
 3147SOL    HW120903   1.944   2.943   3.081  1.1802  3.4776 -0.9143
 3147SOL    HW220904   2.079   3.003   3.074 -1.1067  0.1790 -2.9122
 3148SOL     OW20905   2.280   1.365   6.583  0.1335  0.2545 -0.8614
 3148SOL    HW120906   2.272   1.392   6.674  1.6296 -0.4886 -0.5092
 3148SOL    HW220907   2.192   1.395   6.557 -0.4035 -0.0527  0.5915
 3149SOL     OW20908   2.247   1.645   9.096  0.1145  0.2164 -0.5324
 3149SOL    HW120909   2.294   1.667   9.015 -0.4301  1.4396 -0.5294
 3149SOL    HW220910   2.171   1.600   9.059  1.3967 -1.2704 -1.3209
 3150SOL     OW20911   3.226   0.456   7.531 -0.0264 -0.0004  0.4038
 3150SOL    HW120912   3.157   0.432   7.469 -1.4006  1.0304  1.5292
 3150SOL    HW220913   3.300   0.405   7.500  0.6132  0.8603  0.5064
 3151SOL     OW20914   2.172   2.193   7.807 -0.6501 -0.1504  0.3669
 3151SOL    HW120915   2.258   2.173   7.844  0.9828  1.8925 -2.3315
 3151SOL    HW220916   2.187   2.272   7.755 -3.5198 -0.3835 -0.8569
 3152SOL     OW20917   3.742   2.744  10.368  0.4949 -0.1890 -0.2265
 3152SOL    HW120918   3.805   2.764  10.298 -0.7009 -0.0203 -1.2540
 3152SOL    HW220919   3.710   2.667  10.320  0.2884  1.4647 -2.7698
 3153SOL     OW20920   1.566   1.149   6.022  0.1081  0.6882 -0.2229
 3153SOL    HW120921   1.498   1.089   5.992 -0.3437  0.7242  0.7531
 3153SOL    HW220922   1.616   1.075   6.055 -0.9893 -0.0296 -0.1956
 3154SOL     OW20923   1.556   4.256   0.670  0.1973 -0.1445  0.3794
 3154SOL    HW120924   1.504   4.183   0.703 -1.2634  1.2566  1.1596
 3154SOL    HW220925   1.505   4.315   0.615 -0.8207 -1.6068 -0.2372
 3155SOL     OW20926   4.271   4.483   7.627 -0.3821  0.0364  0.0194
 3155SOL    HW120927   4.323   4.489   7.707 -0.5179 -0.8182  0.1729
 3155SOL    HW220928   4.196   4.447   7.674 -1.6374  0.5770 -1.5675
 3156SOL     OW20929   2.635   3.068   6.088  0.1653 -0.5333  0.1332
 3156SOL    HW120930   2.701   3.050   6.156  0.4802 -0.8650 -0.2613
 3156SOL    HW220931   2.638   2.990   6.033 -0.2228 -1.3810  1.3190
 3157SOL     OW20932   1.097   3.429   8.516  0.7591  0.5445  0.4940
 3157SOL    HW120933   1.070   3.386   8.597 -0.8055  1.3453  0.4143
 3157SOL    HW220934   1.136   3.358   8.466  0.6336 -0.0431  1.2252
 3158SOL     OW20935   1.881   0.937   5.837  0.2531  0.0910 -0.3811
 3158SOL    HW120936   1.820   0.891   5.895  1.1375 -1.0146 -0.3150
 3158SOL    HW220937   1.948   0.960   5.901 -1.0681 -1.5497  1.5869
 3159SOL     OW20938   3.897   2.243   6.131 -0.0691  0.4334  0.0787
 3159SOL    HW120939   3.970   2.181   6.125  0.8194  1.4978 -0.1006
 3159SOL    HW220940   3.899   2.278   6.220  0.9331 -0.5708  0.4503
 3160SOL     OW20941   1.669   3.450   5.187  0.9825 -0.2454 -0.3693
 3160SOL    HW120942   1.676   3.490   5.273  1.2247  1.5534 -1.2105
 3160SOL    HW220943   1.638   3.524   5.134 -2.7074 -1.5927 -0.1598
 3161SOL     OW20944   1.086   1.125   5.898 -0.7640 -0.4452 -0.1937
 3161SOL    HW120945   1.049   1.204   5.859 -0.3607  0.4944  1.3422
 3161SOL    HW220946   1.014   1.061   5.890  0.4329 -1.3789 -3.3086
 3162SOL     OW20947   4.593   0.510  14.420 -0.0889 -0.4158 -0.4295
 3162SOL    HW120948   4.527   0.501  14.488  0.7988  0.2909  0.5213
 3162SOL    HW220949   4.541   0.514  14.339 -1.6190 -0.0966  0.5676
 3163SOL     OW20950   1.403   3.059   7.522 -0.3229 -0.8409  0.5630
 3163SOL    HW120951   1.354   3.117   7.463  3.0671 -0.1990 -1.6439
 3163SOL    HW220952   1.329   3.000   7.536 -0.9582 -0.0733  0.4679
 3164SOL     OW20953   2.642   2.059   9.914 -0.4059 -0.1172 -0.0307
 3164SOL    HW120954   2.705   2.020   9.975 -1.9278 -1.5554  0.6166
 3164SOL    HW220955   2.615   2.130   9.972 -2.3687 -1.1405  0.2896
 3165SOL     OW20956   4.177   3.523   0.940  0.0909 -0.0238  0.0413
 3165SOL    HW120957   4.235   3.582   0.989 -0.5401  1.3911 -0.9223
 3165SOL    HW220958   4.098   3.577   0.939 -0.5545 -1.0450 -2.0525
 3166SOL     OW20959   4.499   4.195   2.923 -0.0705 -0.1501 -0.0532
 3166SOL    HW120960   4.455   4.189   2.839  0.1789 -4.2172  0.1147
 3166SOL    HW220961   4.533   4.106   2.920  0.7385  0.2011 -1.4725
 3167SOL     OW20962   1.268   3.233   3.857 -0.3196 -0.0920 -0.2444
 3167SOL    HW120963   1.266   3.313   3.910  0.5158  0.1671 -0.5924
 3167SOL    HW220964   1.187   3.244   3.807  0.6848  2.4953 -1.3112
 3168SOL     OW20965   1.876   0.175   0.443 -0.2013  0.3472 -1.0612
 3168SOL    HW120966   1.792   0.202   0.406 -2.3761 -2.8699  1.5425
 3168SOL    HW220967   1.850   0.173   0.535  2.9025 -0.6169 -0.2260
 3169SOL     OW20968   3.056   3.333   8.253  0.2832  0.2152 -0.4531
 3169SOL    HW120969   2.996   3.258   8.247  0.3605  0.2707 -1.7249
 3169SOL    HW220970   3.030   3.361   8.341  0.7526  0.0628 -0.2649
 3170SOL     OW20971   1.000   4.450   7.651 -0.2656  0.3465 -0.2772
 3170SOL    HW120972   0.924   4.475   7.598 -0.6492  3.8216  1.9364
 3170SOL    HW220973   1.073   4.489   7.603 -0.4335 -0.0148 -0.8433
 3171SOL     OW20974   2.115   4.115   4.956 -0.1176  0.2540  0.1208
 3171SOL    HW120975   2.081   4.195   4.997  0.4523 -0.1243  1.3294
 3171SOL    HW220976   2.114   4.138   4.863  0.3394 -1.1760 -0.2386
 3172SOL     OW20977   0.175   2.629  10.010  0.3510 -0.0338  0.0388
 3172SOL    HW120978   0.086   2.650  10.036 -0.0791 -1.2652 -0.4335
 3172SOL    HW220979   0.179   2.677   9.927 -1.2633  1.4960  0.8629
 3173SOL     OW20980   4.684   4.614   9.738 -0.0058  0.3232  0.5418
 3173SOL    HW120981   0.020   4.552   9.779  1.3977  1.0660 -0.3960
 3173SOL    HW220982   4.641   4.651   9.815 -0.2750  0.2606  0.4220
 3174SOL     OW20983   2.056   0.372  14.775  0.2652 -0.1869  0.2096
 3174SOL    HW120984   2.118   0.330  14.835 -0.4748 -1.4452  0.0957
 3174SOL    HW220985   2.118   0.410  14.713  1.9428  1.0428  2.6132
 3175SOL     OW20986   2.286   2.528   7.261 -0.4254 -0.3932  0.0238
 3175SOL    HW120987   2.299   2.458   7.324 -1.7096  2.1495  3.0794
 3175SOL    HW220988   2.191   2.518   7.257 -0.2919 -1.4821 -0.6674
 3176SOL     OW20989   0.261   2.185   6.562  0.1014  0.4958 -0.3025
 3176SOL    HW120990   0.193   2.117   6.565  0.5710  0.0982  1.4855
 3176SOL    HW220991   0.218   2.258   6.604 -1.0783 -0.4181  0.0725
 3177SOL     OW20992   2.124   4.611   7.113  0.3945  0.1115 -0.3761
 3177SOL    HW120993   2.163   4.611   7.026  0.4143 -1.6445 -0.3612
 3177SOL    HW220994   2.140   4.702   7.138 -0.0342  0.3003 -0.8083
 3178SOL     OW20995   0.737   3.880  12.074  0.5207 -0.0735  0.5532
 3178SOL    HW120996   0.785   3.957  12.044 -0.0087  0.1431  0.2739
 3178SOL    HW220997   0.770   3.812  12.015  1.6475 -2.4749  3.9202
 3179SOL     OW20998   3.814   2.674   7.083  0.2475  0.3129  0.0889
 3179SOL    HW120999   3.847   2.590   7.117  1.0275 -0.3455 -2.2783
 3179SOL    HW221000   3.884   2.734   7.111  1.8127 -1.2600 -0.4435
 3180SOL     OW21001   2.920   2.721   6.105 -0.2809 -0.1009  0.2782
 3180SOL    HW121002   2.999   2.775   6.104 -1.1417  1.1638  2.5895
 3180SOL    HW221003   2.867   2.772   6.166  0.2343 -0.8678  1.3496
 3181SOL     OW21004   2.454   4.386   7.811 -0.1491 -0.6075  0.1526
 3181SOL    HW121005   2.463   4.300   7.852  1.8968  0.3446  1.7033
 3181SOL    HW221006   2.359   4.395   7.797  0.1015  0.6105 -0.7442
 3182SOL     OW21007   1.999   0.725   5.744 -0.2406 -0.7491 -0.1231
 3182SOL    HW121008   1.993   0.736   5.649  1.4409 -3.5209 -0.5490
 3182SOL    HW221009   1.959   0.807   5.772  1.1179  0.0333 -0.4951
 3183SOL     OW21010   1.437   3.654   8.109 -0.3205  0.5828 -0.1362
 3183SOL    HW121011   1.503   3.695   8.166 -0.3994 -0.2048  0.5256
 3183SOL    HW221012   1.483   3.573   8.088  0.1949  0.5469  1.0757
 3184SOL     OW21013   0.961   1.007  15.487 -0.0686 -0.3967 -0.5623
 3184SOL    HW121014   0.881   1.060  15.478 -0.5661 -1.0885 -0.1546
 3184SOL    HW221015   0.930   0.923  15.520  0.1855 -0.9842 -1.8117
 3185SOL     OW21016   1.732   3.194   5.144 -0.0207  0.5289  0.1166
 3185SOL    HW121017   1.756   3.194   5.051 -0.7815  0.1636 -0.0825
 3185SOL    HW221018   1.719   3.286   5.168  1.8919  0.5427  1.0413
 3186SOL     OW21019   1.317   0.173   2.770  0.3868 -0.9874  0.2384
 3186SOL    HW121020   1.244   0.139   2.718 -0.0009  1.2844 -0.7445
 3186SOL    HW221021   1.390   0.148   2.714 -1.1007  0.0941 -2.2132
 3187SOL     OW21022   4.339   4.337  14.936  0.1769  0.3015 -0.3157
 3187SOL    HW121023   4.281   4.389  14.991 -0.4557 -1.1187  0.3641
 3187SOL    HW221024   4.358   4.401  14.867 -1.9303 -0.6925 -1.8349
 3188SOL     OW21025   2.220   4.102   4.092  0.1101  0.1144 -0.0265
 3188SOL    HW121026   2.151   4.044   4.124 -0.9880  0.0298 -2.5055
 3188SOL    HW221027   2.296   4.044   4.090  0.4520  0.5557  0.2238
 3189SOL     OW21028   4.498   0.984   1.734 -0.2053  0.1809  0.0281
 3189SOL    HW121029   4.505   0.928   1.811 -0.3732 -0.8231 -0.6872
 3189SOL    HW221030   4.434   1.049   1.762 -0.8519 -0.5945  0.3308
 3190SOL     OW21031   2.529   0.469   4.704  0.0142  0.0791  0.0103
 3190SOL    HW121032   2.594   0.495   4.639 -0.0458  2.9839  1.1220
 3190SOL    HW221033   2.470   0.544   4.695 -1.6635 -1.2330 -0.0216
 3191SOL     OW21034   0.199   1.791   2.912  0.0890  0.5315 -0.4860
 3191SOL    HW121035   0.184   1.706   2.870  0.8289 -0.1245  0.5664
 3191SOL    HW221036   0.293   1.792   2.900  0.3990 -0.8841  1.6628
 3192SOL     OW21037   0.075   0.338   5.151 -0.4783 -0.0680 -0.3201
 3192SOL    HW121038   0.005   0.366   5.209 -0.1284 -0.4108  0.2607
 3192SOL    HW221039   0.072   0.407   5.084 -0.5288 -1.1060 -1.3876
 3193SOL     OW21040   4.060   1.624  10.318 -0.1408 -0.6069  0.4082
 3193SOL    HW121041   4.000   1.551  10.306 -0.5884 -0.0727 -0.5710
 3193SOL    HW221042   4.093   1.608  10.407 -0.2896 -1.7801  0.2484
 3194SOL     OW21043   0.212   1.682   9.107  0.3442 -0.3721 -0.8482
 3194SOL    HW121044   0.252   1.756   9.154  1.6716 -1.5996 -0.0418
 3194SOL    HW221045   0.185   1.728   9.028 -1.6885 -1.7962 -0.9829
 3195SOL     OW21046   0.331   2.473   8.496 -0.3926 -0.0743  0.2714
 3195SOL    HW121047   0.380   2.400   8.532  0.4814  0.2365 -0.2960
 3195SOL    HW221048   0.240   2.450   8.516 -0.1751 -1.0321  0.1231
 3196SOL     OW21049   3.533   0.924   5.254  0.7228 -0.2060 -0.0574
 3196SOL    HW121050   3.544   1.017   5.270  1.2470  0.1991 -2.7249
 3196SOL    HW221051   3.621   0.894   5.277  0.2560 -0.1148  1.7773
 3197SOL     OW21052   2.008   3.189   3.197  0.2030  0.4565  0.3352
 3197SOL    HW121053   2.067   3.231   3.260 -0.8989  1.6173  0.5893
 3197SOL    HW221054   1.927   3.182   3.246  0.2589 -1.2187  0.1874
 3198SOL     OW21055   1.154   1.368   9.382 -0.3872  0.4813  0.1732
 3198SOL    HW121056   1.096   1.321   9.322 -0.2147  1.5670 -0.8342
 3198SOL    HW221057   1.150   1.456   9.346  0.1417  0.1465 -0.7261
 3199SOL     OW21058   0.731   2.152  10.871 -0.3715 -0.1580  0.4999
 3199SOL    HW121059   0.678   2.072  10.865 -2.7943  1.3050  2.3656
 3199SOL    HW221060   0.671   2.221  10.842  0.3202 -0.2705 -1.2111
 3200SOL     OW21061   3.094   1.587   3.050 -0.0170  0.0304  0.1102
 3200SOL    HW121062   3.115   1.670   3.093 -2.2708  0.6331  0.0055
 3200SOL    HW221063   3.163   1.525   3.074  0.3316  0.7676  1.0034
 3201SOL     OW21064   0.622   0.569   8.280 -0.2135 -0.3123  0.1883
 3201SOL    HW121065   0.567   0.646   8.295  2.0921  0.5536  4.2978
 3201SOL    HW221066   0.564   0.495   8.261  1.1505 -1.0787 -1.0070
 3202SOL     OW21067   4.714   1.996   3.610  0.2944  0.5597  0.1704
 3202SOL    HW121068   0.038   1.919   3.578 -1.4442 -1.5052  2.5231
 3202SOL    HW221069   4.719   2.059   3.538 -0.9396  1.6386  1.0389
 3203SOL     OW21070   0.653   4.164   4.240  0.2272 -0.1980 -0.2605
 3203SOL    HW121071   0.711   4.213   4.181 -1.7044  0.6988 -1.4406
 3203SOL    HW221072   0.610   4.100   4.184 -2.5414  0.9212  0.5791
 3204SOL     OW21073   4.297   3.863  15.635 -0.0434  0.1195 -0.2250
 3204SOL    HW121074   4.213   3.908  15.629  0.1101  0.5924  1.1002
 3204SOL    HW221075   4.307   3.879  15.729  0.2292 -0.4717 -0.1556
 3205SOL     OW21076   1.600   2.321   6.086  0.3818 -0.3347 -0.6796
 3205SOL    HW121077   1.598   2.349   5.995  3.8821 -0.3378 -0.7403
 3205SOL    HW221078   1.508   2.343   6.101  0.5916 -0.3321  0.5910
 3206SOL     OW21079   1.424   0.481   6.695 -0.3935  0.2990  0.3933
 3206SOL    HW121080   1.517   0.457   6.696  0.1275  2.2878 -1.2443
 3206SOL    HW221081   1.385   0.427   6.764 -1.4751  2.8751  1.7992
 3207SOL     OW21082   1.301   4.435   8.084 -0.6960  0.4254 -0.8599
 3207SOL    HW121083   1.291   4.465   7.993  1.1577 -2.2370 -1.9186
 3207SOL    HW221084   1.366   4.365   8.075  1.0361  2.1348 -1.5647
 3208SOL     OW21085   4.339   2.832   0.443  0.4817 -0.2609 -0.0777
 3208SOL    HW121086   4.378   2.805   0.526 -0.4196  0.4088  0.5661
 3208SOL    HW221087   4.332   2.744   0.406 -0.9893 -0.4719  0.6900
 3209SOL     OW21088   4.062   2.097   4.807  0.2662 -0.0444 -0.3435
 3209SOL    HW121089   4.113   2.153   4.749  0.5447  1.1672  1.0795
 3209SOL    HW221090   4.003   2.053   4.746  1.8897  0.0131 -1.9430
 3210SOL     OW21091   0.594   1.062   9.012  0.9468 -0.0486 -0.2546
 3210SOL    HW121092   0.615   1.108   8.932 -0.1296  0.7808 -0.0573
 3210SOL    HW221093   0.625   1.131   9.071 -0.6044 -0.2685  0.8171
 3211SOL     OW21094   4.391   1.332   6.747  0.5860  0.0736  1.0480
 3211SOL    HW121095   4.396   1.392   6.821  1.4736  1.7408 -0.3641
 3211SOL    HW221096   4.355   1.259   6.797  0.0133 -0.8614 -0.7357
 3212SOL     OW21097   4.589   2.224   3.064 -0.3891  0.2689  0.1932
 3212SOL    HW121098   4.677   2.219   3.027 -0.0588 -3.0630  1.4311
 3212SOL    HW221099   4.542   2.245   2.983 -1.6636  0.7780  1.0571
 3213SOL     OW21100   3.022   0.592   9.478  0.4597  0.0204  0.3497
 3213SOL    HW121101   3.046   0.505   9.446 -0.3101  0.6160 -1.8357
 3213SOL    HW221102   2.943   0.582   9.532  0.0077 -0.2282 -0.3636
 3214SOL     OW21103   2.395   3.173   9.032  0.2353  0.5897  0.1857
 3214SOL    HW121104   2.452   3.108   9.074 -0.6338 -0.7812 -0.7450
 3214SOL    HW221105   2.453   3.220   8.972 -1.7812  0.0768 -2.1740
 3215SOL     OW21106   3.769   0.976   6.274  0.2702 -0.0460  0.0330
 3215SOL    HW121107   3.850   1.026   6.286 -0.7876  1.4050  1.1506
 3215SOL    HW221108   3.765   0.964   6.179 -1.2126 -0.9214  0.2042
 3216SOL     OW21109   1.182   2.992   3.938  0.2813  0.3472  0.0502
 3216SOL    HW121110   1.201   3.082   3.909 -0.1622  0.3820 -0.1413
 3216SOL    HW221111   1.265   2.947   3.928  0.1785 -0.0214  0.8806
 3217SOL     OW21112   3.406   1.212   2.356  0.7696 -0.2018  0.0512
 3217SOL    HW121113   3.413   1.159   2.435 -0.4675  2.4598  1.9683
 3217SOL    HW221114   3.353   1.289   2.378  0.0874 -1.1245  1.5928
 3218SOL     OW21115   2.320   1.341   6.331 -0.3646  0.3054  0.2015
 3218SOL    HW121116   2.344   1.250   6.315 -0.4416  0.3720 -0.2877
 3218SOL    HW221117   2.311   1.350   6.426 -1.1577  3.8983 -0.2192
 3219SOL     OW21118   3.006   3.301   8.670  0.1253  0.2130  0.4709
 3219SOL    HW121119   3.092   3.326   8.637  0.1489 -1.2380 -0.5658
 3219SOL    HW221120   3.019   3.226   8.728  0.3480 -0.2596 -0.1885
 3220SOL     OW21121   4.522   1.900   2.909  0.5326  0.3682  0.6203
 3220SOL    HW121122   4.603   1.952   2.916  0.7260  0.1555 -0.0397
 3220SOL    HW221123   4.552   1.816   2.943 -1.6640  0.2275  2.1607
 3221SOL     OW21124   4.246   0.472   8.813 -0.8110  0.5648  0.1808
 3221SOL    HW121125   4.157   0.507   8.800 -0.4170  0.9944 -1.4611
 3221SOL    HW221126   4.256   0.437   8.724  1.6221 -0.3636  0.8390
 3222SOL     OW21127   1.932   0.785   0.658  0.4105  0.0923 -0.4956
 3222SOL    HW121128   1.999   0.849   0.633  0.6900  0.0994  0.2873
 3222SOL    HW221129   1.924   0.794   0.753 -0.1879 -0.3844 -0.5006
 3223SOL     OW21130   0.875   3.917   9.893  0.2884 -0.1348 -0.0450
 3223SOL    HW121131   0.942   3.850   9.897  1.1975  0.9100  2.1800
 3223SOL    HW221132   0.873   3.962   9.978 -0.7662 -1.3587  0.5783
 3224SOL     OW21133   2.416   2.277   8.056  0.0515  0.1447 -0.1008
 3224SOL    HW121134   2.466   2.208   8.012 -0.6392 -0.1026 -0.4970
 3224SOL    HW221135   2.440   2.350   7.998  0.5932 -0.3605 -0.5208
 3225SOL     OW21136   1.038   0.590   4.716 -0.1484  0.5795 -0.2209
 3225SOL    HW121137   1.054   0.682   4.693 -1.9542  0.5921 -1.3806
 3225SOL    HW221138   1.063   0.581   4.808 -0.5150  1.8441  0.0085
 3226SOL     OW21139   1.874   4.210   6.749  0.3411 -0.4530  0.3899
 3226SOL    HW121140   1.907   4.195   6.838 -1.1652 -1.3677  0.7924
 3226SOL    HW221141   1.779   4.205   6.758 -0.0465  0.6298 -3.4984
 3227SOL     OW21142   2.552   2.672   8.657 -0.3044  0.1557  0.0685
 3227SOL    HW121143   2.576   2.738   8.592  0.6392  0.0886  0.3631
 3227SOL    HW221144   2.594   2.596   8.617  0.1242  1.1739 -1.4240
 3228SOL     OW21145   2.870   0.466   2.667  0.3296 -0.0766  0.5678
 3228SOL    HW121146   2.806   0.410   2.624  0.6075 -0.7645  1.0514
 3228SOL    HW221147   2.822   0.548   2.652 -1.7875 -1.3197  0.6615
 3229SOL     OW21148   1.877   4.381   7.503 -0.0570 -0.1027 -0.0556
 3229SOL    HW121149   1.882   4.293   7.541  0.6445 -0.0365  0.0144
 3229SOL    HW221150   1.964   4.413   7.479  0.9427 -0.8003  2.5633
 3230SOL     OW21151   3.775   3.681   6.974 -0.3442  0.0670 -1.0081
 3230SOL    HW121152   3.855   3.672   7.026 -0.6229 -2.1012 -0.9645
 3230SOL    HW221153   3.775   3.777   6.966 -1.1353  0.2669  1.4198
 3231SOL     OW21154   3.592   2.484   8.315  0.6480  0.7581 -0.0700
 3231SOL    HW121155   3.504   2.499   8.281 -0.0147 -1.1265  0.8454
 3231SOL    HW221156   3.604   2.573   8.350 -0.3189  1.1579 -0.7510
 3232SOL     OW21157   3.239   1.988  15.431  0.6108 -0.0502 -0.6672
 3232SOL    HW121158   3.299   2.059  15.453  0.1073  0.0541  0.3739
 3232SOL    HW221159   3.288   1.909  15.452  0.9840 -0.0543 -1.5391
 3233SOL     OW21160   4.284   3.821   5.988 -0.2302  0.3791  0.1612
 3233SOL    HW121161   4.363   3.869   6.015  1.0209 -0.9605 -1.1360
 3233SOL    HW221162   4.245   3.868   5.915  1.7736  1.5453 -0.1411
 3234SOL     OW21163   0.695   1.675  13.594  0.3218 -0.1059 -0.6488
 3234SOL    HW121164   0.779   1.632  13.609  0.6124  1.0232  0.9330
 3234SOL    HW221165   0.722   1.752  13.543  0.8756 -0.8394 -1.4676
 3235SOL     OW21166   4.019   2.504  13.615 -0.4755 -0.3935 -0.0378
 3235SOL    HW121167   3.969   2.424  13.597  0.6339 -1.6685  2.4938
 3235SOL    HW221168   3.965   2.563  13.668  1.8814  1.4106  0.3397
 3236SOL     OW21169   1.200   3.193   8.040  0.0494  0.0852 -0.8697
 3236SOL    HW121170   1.170   3.204   8.130  0.1098  1.8489 -1.0762
 3236SOL    HW221171   1.284   3.152   8.064  0.1884 -0.2206 -1.8675
 3237SOL     OW21172   1.261   2.080   4.557  0.4953  0.2511  0.1150
 3237SOL    HW121173   1.250   2.054   4.649  0.7293  1.6331  0.5394
 3237SOL    HW221174   1.199   2.153   4.556  2.0890  1.6465  1.8703
 3238SOL     OW21175   0.044   4.309   4.746  0.1871 -0.1753  0.1471
 3238SOL    HW121176   4.723   4.320   4.662 -1.0742  0.1542  0.8797
 3238SOL    HW221177   4.694   4.283   4.799 -0.8355 -0.4401 -1.4406
 3239SOL     OW21178   3.358   3.456  14.978  0.4977 -1.0626  0.0657
 3239SOL    HW121179   3.451   3.443  14.997  1.1340  4.9962  0.9270
 3239SOL    HW221180   3.317   3.438  15.063 -0.0308 -0.9145 -0.1595
 3240SOL     OW21181   4.132   2.826   8.927 -1.1025 -0.4751  0.1700
 3240SOL    HW121182   4.084   2.758   8.974 -0.6179 -1.7109 -1.1230
 3240SOL    HW221183   4.139   2.892   8.996 -0.4673 -1.5853  1.1645
 3241SOL     OW21184   4.403   3.098  13.237  0.2078  0.3272  0.8233
 3241SOL    HW121185   4.320   3.107  13.190  0.3788 -0.6389  0.3596
 3241SOL    HW221186   4.420   3.008  13.210 -2.8361 -0.2894  0.9129
 3242SOL     OW21187   3.964   0.245   5.536  0.1510 -0.3188  0.6798
 3242SOL    HW121188   3.990   0.191   5.611 -0.4037 -0.5935  0.6738
 3242SOL    HW221189   3.874   0.220   5.513  0.0752  1.4653 -1.0077
 3243SOL     OW21190   0.484   0.914   8.492  0.0939 -0.0819  0.0364
 3243SOL    HW121191   0.557   0.854   8.508  0.5748  0.0531 -1.6169
 3243SOL    HW221192   0.429   0.904   8.570 -0.1947 -0.5326 -0.2294
 3244SOL     OW21193   0.394   0.746   6.877  0.0191 -0.5083 -1.2542
 3244SOL    HW121194   0.323   0.793   6.918  1.4223 -0.3212  0.9509
 3244SOL    HW221195   0.376   0.657   6.907 -1.0420 -0.2131 -1.0477
 3245SOL     OW21196   1.443   2.240  10.282 -0.4991  0.8787  0.1405
 3245SOL    HW121197   1.463   2.151  10.255 -0.3121  1.3122 -1.1447
 3245SOL    HW221198   1.529   2.282  10.286 -0.0904  0.0953 -0.3976
 3246SOL     OW21199   4.362   0.735   9.185 -0.0154  0.4349 -0.0192
 3246SOL    HW121200   4.357   0.815   9.236  2.7148 -0.6597  1.9126
 3246SOL    HW221201   4.448   0.748   9.145 -0.1432 -0.7077 -0.6736
 3247SOL     OW21202   3.819   4.557  10.044  0.6299 -0.1008 -0.2131
 3247SOL    HW121203   3.876   4.508   9.985 -0.5476 -1.3601 -0.2978
 3247SOL    HW221204   3.851   4.515  10.123 -0.9431 -0.6193  0.1553
 3248SOL     OW21205   2.063   2.901   5.873 -0.4758  0.5181 -0.7362
 3248SOL    HW121206   2.044   2.830   5.934  1.8278  1.3105  0.9552
 3248SOL    HW221207   2.153   2.919   5.901 -0.5116 -0.0848 -0.2249
 3249SOL     OW21208   1.149   1.620   4.973  0.4070  0.0428 -0.1850
 3249SOL    HW121209   1.116   1.652   4.889  3.4215  1.9303 -0.6798
 3249SOL    HW221210   1.179   1.536   4.939 -0.1657 -0.9752  1.7955
 3250SOL     OW21211   1.968   2.191   1.185  0.4357 -0.5892  0.3058
 3250SOL    HW121212   1.920   2.262   1.227 -2.7534 -1.6277 -1.6074
 3250SOL    HW221213   1.922   2.111   1.209 -2.0994  0.2020 -1.9094
 3251SOL     OW21214   3.849   0.164   9.767  0.3843 -0.6889 -0.4956
 3251SOL    HW121215   3.930   0.123   9.798  0.4477  0.0260  0.2822
 3251SOL    HW221216   3.786   0.092   9.772 -0.2369  0.0142  2.1138
 3252SOL     OW21217   4.547   3.150   7.972  0.0776  0.5547  0.3739
 3252SOL    HW121218   4.476   3.213   7.987 -0.0465  0.2440  1.0794
 3252SOL    HW221219   4.562   3.159   7.878 -1.0882 -3.3184 -0.1600
 3253SOL     OW21220   1.805   1.738   3.393  0.2138 -0.4417 -0.2186
 3253SOL    HW121221   1.785   1.820   3.349  1.7969 -0.1940 -0.4804
 3253SOL    HW221222   1.733   1.691   3.352  0.5127 -3.0988  2.3137
 3254SOL     OW21223   3.024   2.140  15.213  0.1604  0.8408  0.2274
 3254SOL    HW121224   2.959   2.143  15.143  1.1691  1.8604 -0.6619
 3254SOL    HW221225   3.107   2.122  15.169  1.0346 -0.6104  2.4421
 3255SOL     OW21226   3.557   2.672   5.568 -0.3041  0.1967  0.1156
 3255SOL    HW121227   3.595   2.584   5.576  1.0449  0.5811 -2.1072
 3255SOL    HW221228   3.544   2.695   5.659  0.8582 -0.0944  0.3592
 3256SOL     OW21229   2.221   1.218   4.156  0.6942 -0.3011  0.3623
 3256SOL    HW121230   2.232   1.307   4.189  1.8893 -0.5287  0.5554
 3256SOL    HW221231   2.125   1.222   4.156  0.8497  2.9151 -0.9020
 3257SOL     OW21232   3.029   1.332  11.990 -0.3692 -0.0163 -0.1778
 3257SOL    HW121233   3.061   1.371  11.909 -2.1815 -0.9211 -1.3215
 3257SOL    HW221234   3.053   1.402  12.050  0.3602 -0.4485  0.0377
 3258SOL     OW21235   0.785   3.320  14.527 -0.1295 -0.0887 -0.0469
 3258SOL    HW121236   0.702   3.292  14.489  1.4275 -1.9715 -2.0743
 3258SOL    HW221237   0.750   3.400  14.566 -0.9745  0.7100 -2.4093
 3259SOL     OW21238   0.951   2.592  17.439 -0.1048  0.1904 -0.2965
 3259SOL    HW121239   1.021   2.599  17.504  0.0904  0.0115 -0.4846
 3259SOL    HW221240   0.944   2.678  17.397  0.8021 -0.5547 -2.0096
 3260SOL     OW21241   3.741   2.028   5.715  0.0301 -0.0801 -0.1077
 3260SOL    HW121242   3.673   1.967   5.687  0.6627 -1.6264  1.6719
 3260SOL    HW221243   3.677   2.098   5.726  0.0018  0.2713 -2.6827
 3261SOL     OW21244   2.675   3.872   4.021  0.3134  0.6113  0.0571
 3261SOL    HW121245   2.747   3.882   4.083  1.4260  2.6723 -1.5697
 3261SOL    HW221246   2.718   3.826   3.948 -0.3128  1.6812 -0.9798
 3262SOL     OW21247   4.458   1.640   1.918  0.6155 -0.2506 -0.2140
 3262SOL    HW121248   4.447   1.547   1.899  0.0070 -0.3902  0.8144
 3262SOL    HW221249   4.525   1.662   1.854  2.3068 -1.9144  1.0075
 3263SOL     OW21250   1.801   0.776   4.942  0.7146 -0.5162  0.1654
 3263SOL    HW121251   1.808   0.870   4.927 -0.5820 -0.1904  1.5662
 3263SOL    HW221252   1.756   0.768   5.026 -1.3209  1.8634 -0.7023
 3264SOL     OW21253   2.656   2.173   4.902 -0.1421  0.9262  0.5303
 3264SOL    HW121254   2.723   2.106   4.887  0.2920  1.3531  0.5583
 3264SOL    HW221255   2.650   2.193   4.808 -2.0378 -1.0932  0.2164
 3265SOL     OW21256   3.169   4.480   9.775 -0.0859  0.0506  0.6769
 3265SOL    HW121257   3.226   4.557   9.768 -1.1062  0.8008  0.6781
 3265SOL    HW221258   3.187   4.438   9.859 -1.7836  0.5511  1.2899
 3266SOL     OW21259   2.585   1.171   7.995  0.3433  0.2969  0.0773
 3266SOL    HW121260   2.616   1.104   8.056 -1.2546  0.3547  0.9298
 3266SOL    HW221261   2.559   1.126   7.915  0.9989 -0.0398  0.0515
 3267SOL     OW21262   0.988   3.629   8.386 -0.1943 -0.3312 -0.2907
 3267SOL    HW121263   1.054   3.659   8.324  0.2631  1.8235  1.2314
 3267SOL    HW221264   1.030   3.553   8.425 -0.9997 -0.9521 -0.6357
 3268SOL     OW21265   3.383   1.510   8.811  0.3198 -0.1237 -0.5760
 3268SOL    HW121266   3.327   1.588   8.815  1.6515  0.7513  0.7179
 3268SOL    HW221267   3.385   1.480   8.902 -0.2539 -0.5479 -0.6987
 3269SOL     OW21268   0.101   1.583  11.574 -0.0831  0.2767 -0.1597
 3269SOL    HW121269   0.196   1.579  11.586  0.2091 -1.4472 -3.1315
 3269SOL    HW221270   0.088   1.535  11.656  2.0776 -0.9644 -0.5549
 3270SOL     OW21271   2.147   3.839   4.944  0.0345 -0.3360  0.2166
 3270SOL    HW121272   2.111   3.831   4.856  1.1791  0.7970 -0.3648
 3270SOL    HW221273   2.116   3.926   4.968  0.1030 -0.2540  0.0046
 3271SOL     OW21274   3.109   3.240  16.377 -0.3730  0.2823 -0.0399
 3271SOL    HW121275   3.079   3.207  16.292 -0.9386 -2.1329  1.1148
 3271SOL    HW221276   3.205   3.236  16.373 -0.5404 -1.9799 -1.6794
 3272SOL     OW21277   0.249   3.134   8.743 -0.5587 -0.9826  0.1499
 3272SOL    HW121278   0.338   3.150   8.709 -1.1748  0.4294 -0.7921
 3272SOL    HW221279   0.217   3.222   8.762 -2.6736 -1.1568 -2.6282
 3273SOL     OW21280   3.868   1.043   9.713  0.1636 -0.1386 -0.0916
 3273SOL    HW121281   3.886   1.082   9.798  1.0604 -1.8293  0.4893
 3273SOL    HW221282   3.782   1.081   9.694  1.0573  1.1450 -1.5884
 3274SOL     OW21283   1.164   0.010  17.604 -0.5062 -0.1595  0.6957
 3274SOL    HW121284   1.074   0.017  17.573  0.2395  0.8348 -1.2410
 3274SOL    HW221285   1.198   4.663  17.549  0.2410 -0.1678  1.1552
 3275SOL     OW21286   3.377   2.638   8.589 -0.1850  0.5094  0.3764
 3275SOL    HW121287   3.393   2.551   8.625 -2.3699 -1.4338 -3.3158
 3275SOL    HW221288   3.453   2.667   8.538  0.1431  1.8293  1.5955
 3276SOL     OW21289   1.408   2.218   5.004  0.7356 -0.6865  0.0673
 3276SOL    HW121290   1.395   2.180   5.091 -0.4277 -0.9868 -0.2354
 3276SOL    HW221291   1.379   2.306   5.027 -0.2525 -1.4749  1.7918
 3277SOL     OW21292   3.389   2.609  11.361 -0.0881  0.1343  0.2970
 3277SOL    HW121293   3.322   2.676  11.350  1.1092  1.5358  1.4588
 3277SOL    HW221294   3.418   2.601  11.270 -1.6721  0.4449 -0.2431
 3278SOL     OW21295   3.310   0.827  12.133 -0.1503 -0.3445 -0.2112
 3278SOL    HW121296   3.319   0.873  12.216  0.7011  2.7068 -1.9877
 3278SOL    HW221297   3.290   0.897  12.070  0.7698  0.9038  0.8729
 3279SOL     OW21298   3.198   3.481   7.035  0.2349 -0.2296 -0.7168
 3279SOL    HW121299   3.230   3.487   7.125 -1.5124  1.4411 -0.2093
 3279SOL    HW221300   3.183   3.572   7.009 -1.7767 -0.1159  0.7806
 3280SOL     OW21301   3.876   2.978   2.878 -0.5771  0.6862 -0.3867
 3280SOL    HW121302   3.897   2.905   2.937 -0.9662  0.8075 -0.1000
 3280SOL    HW221303   3.847   2.930   2.800  1.6957 -0.6122 -0.4453
 3281SOL     OW21304   3.408   2.454   9.508  0.1576  0.2605  0.0783
 3281SOL    HW121305   3.451   2.384   9.459  0.9909  1.3625 -0.7602
 3281SOL    HW221306   3.332   2.469   9.452  0.9367  0.8668 -0.8087
 3282SOL     OW21307   0.319   0.862   5.418  0.3932 -0.2854  0.3576
 3282SOL    HW121308   0.355   0.942   5.381  0.1927  0.7501  2.3679
 3282SOL    HW221309   0.289   0.828   5.334  0.4500  2.1628 -0.6450
 3283SOL     OW21310   4.086   4.136  10.955  0.0473  0.7141  0.4294
 3283SOL    HW121311   4.021   4.066  10.964 -2.6541  3.3083  1.1754
 3283SOL    HW221312   4.065   4.195  10.883 -0.4151 -2.8024 -2.3182
 3284SOL     OW21313   1.876   4.426   7.766  0.4260  0.4646 -0.3127
 3284SOL    HW121314   1.844   4.421   7.676  0.0509 -2.2617 -0.0455
 3284SOL    HW221315   1.843   4.341   7.795  0.1084  0.6410 -0.1615
 3285SOL     OW21316   3.113   3.831   5.353 -0.1754 -0.4141  0.4463
 3285SOL    HW121317   3.166   3.860   5.427 -1.0005 -2.0955  1.6797
 3285SOL    HW221318   3.098   3.741   5.380  0.3047  0.0047  2.1035
 3286SOL     OW21319   2.512   4.234   5.350 -0.2678 -0.1129 -0.3848
 3286SOL    HW121320   2.451   4.210   5.420  2.0325  0.0806  1.6594
 3286SOL    HW221321   2.520   4.152   5.301  3.4531 -1.3059  2.2772
 3287SOL     OW21322   4.336   0.342   2.954 -0.0801  0.3330 -0.2821
 3287SOL    HW121323   4.386   0.421   2.934  1.6978  0.1011  3.3666
 3287SOL    HW221324   4.302   0.323   2.866  0.7979 -1.8298 -0.1586
 3288SOL     OW21325   3.101   4.513  17.417  0.0867  0.2206 -0.2837
 3288SOL    HW121326   3.146   4.578  17.470  0.2612  0.0143 -0.1769
 3288SOL    HW221327   3.017   4.506  17.462  0.4619 -1.2643  0.2086
 3289SOL     OW21328   0.793   3.438  16.830 -0.4737 -0.7394 -0.0691
 3289SOL    HW121329   0.851   3.482  16.768  0.3159 -2.8120 -0.7951
 3289SOL    HW221330   0.801   3.348  16.799 -1.4412 -1.5298  1.9396
 3290SOL     OW21331   2.963   3.568   3.361  0.6241  0.1818 -0.3714
 3290SOL    HW121332   3.019   3.549   3.287  1.8729 -1.8504  1.0788
 3290SOL    HW221333   2.875   3.574   3.324  1.3069  1.2912 -1.7822
 3291SOL     OW21334   3.360   0.957   1.461  0.4310  0.6421 -0.4484
 3291SOL    HW121335   3.370   0.932   1.369 -0.2175 -0.1822 -0.2926
 3291SOL    HW221336   3.264   0.963   1.458  0.4427  2.2531  1.7541
 3292SOL     OW21337   4.511   3.017   1.727 -0.0224 -0.2439  0.2973
 3292SOL    HW121338   4.592   2.974   1.703  0.1719 -0.5289  1.4545
 3292SOL    HW221339   4.533   3.108   1.712 -0.7035  0.0233  0.8708
 3293SOL     OW21340   2.898   3.794  14.250  0.1388 -0.4304  0.3393
 3293SOL    HW121341   2.875   3.822  14.161  2.6813 -1.1385 -0.5483
 3293SOL    HW221342   2.994   3.788  14.244 -0.0676 -3.5088  0.0074
 3294SOL     OW21343   2.782   1.969  10.123 -0.0910  0.0673  0.2647
 3294SOL    HW121344   2.823   1.983  10.209 -0.0046  1.4025  0.0015
 3294SOL    HW221345   2.802   1.878  10.102 -1.1571 -0.0963 -0.0011
 3295SOL     OW21346   3.017   1.785   9.422 -0.0249  0.3127  0.1315
 3295SOL    HW121347   3.084   1.849   9.444  0.1534  0.3980 -0.6491
 3295SOL    HW221348   2.979   1.754   9.504 -1.3816 -1.0830 -1.0204
 3296SOL     OW21349   4.645   1.760  11.445  0.1261 -0.4523  0.2820
 3296SOL    HW121350   4.713   1.694  11.457 -1.4996 -2.2259 -0.2721
 3296SOL    HW221351   4.571   1.713  11.484  0.0374 -0.4242  0.1488
 3297SOL     OW21352   4.152   2.837   8.560  0.2168  0.3188  0.8798
 3297SOL    HW121353   4.075   2.891   8.575 -1.4302 -1.5153 -0.8353
 3297SOL    HW221354   4.110   2.756   8.529 -0.6432  1.2840 -0.5040
 3298SOL     OW21355   3.034   1.732  13.679  0.6696 -0.0720 -0.9920
 3298SOL    HW121356   2.996   1.778  13.754  2.2569 -0.9633  0.3535
 3298SOL    HW221357   2.960   1.674  13.658  0.0810  1.6967 -3.7148
 3299SOL     OW21358   0.049   3.410  15.615 -0.2361 -0.2611  0.1988
 3299SOL    HW121359   0.063   3.491  15.566  0.8895 -1.4361 -1.4183
 3299SOL    HW221360   4.696   3.434  15.665 -0.6273  0.5953 -0.8017
 3300SOL     OW21361   0.659   2.281   1.237 -0.4094 -0.0032  0.0305
 3300SOL    HW121362   0.653   2.283   1.333  0.1044 -2.9491  0.1243
 3300SOL    HW221363   0.729   2.216   1.229  0.1050  0.3282  1.8291
 3301SOL     OW21364   1.567   2.979   9.290  0.3709 -0.1021  0.4552
 3301SOL    HW121365   1.490   3.021   9.328  0.5191 -1.1263  1.8871
 3301SOL    HW221366   1.538   2.888   9.284 -3.0081  0.9370  0.8093
 3302SOL     OW21367   3.195   3.986  16.630  0.1022  0.1855  0.1352
 3302SOL    HW121368   3.113   3.982  16.680  0.3130  1.1472  0.5532
 3302SOL    HW221369   3.182   4.061  16.572  1.4954 -0.9017 -1.5770
 3303SOL     OW21370   0.168   2.894  16.038  0.4257  0.2777 -0.6969
 3303SOL    HW121371   0.188   2.811  16.082 -1.1396 -0.5788 -1.6020
 3303SOL    HW221372   0.073   2.896  16.032  0.3602  0.5869  0.3168
 3304SOL     OW21373   1.879   4.040   5.548 -0.3808 -0.1418  0.2751
 3304SOL    HW121374   1.949   3.990   5.589 -0.4091 -0.7791 -0.4536
 3304SOL    HW221375   1.899   4.020   5.457  1.2791  0.2452  0.5560
 3305SOL     OW21376   0.306   1.994  16.346  0.9021  0.3428 -0.1081
 3305SOL    HW121377   0.305   2.045  16.265  0.5614 -0.8904 -0.8852
 3305SOL    HW221378   0.371   2.042  16.398 -0.5062  0.9571  1.1033
 3306SOL     OW21379   1.006   3.932   1.395 -0.1766 -0.5399 -0.2994
 3306SOL    HW121380   0.955   3.976   1.326  0.2622 -0.1647 -0.3829
 3306SOL    HW221381   0.944   3.862   1.417 -0.3930 -0.1389  0.3626
 3307SOL     OW21382   4.525   4.377   7.240 -0.2379 -0.1436 -0.3194
 3307SOL    HW121383   4.435   4.374   7.273  0.3220  1.2609  1.3236
 3307SOL    HW221384   4.524   4.345   7.150 -1.0030  0.9101 -0.6888
 3308SOL     OW21385   3.114   4.128   1.921 -0.0096 -0.0581  0.5821
 3308SOL    HW121386   3.113   4.111   1.827  0.7930  1.5455  0.2772
 3308SOL    HW221387   3.037   4.182   1.942 -0.0822 -0.2667  0.8550
 3309SOL     OW21388   1.092   3.336  10.857 -0.4055 -0.5098  0.2258
 3309SOL    HW121389   1.167   3.394  10.852 -0.9573  0.2439  0.6588
 3309SOL    HW221390   1.128   3.269  10.799  1.7131 -1.2403  2.3887
 3310SOL     OW21391   1.923   1.468   6.980 -0.3783 -0.5110 -0.3316
 3310SOL    HW121392   1.969   1.386   6.961  0.2137 -0.3239  0.2833
 3310SOL    HW221393   1.983   1.540   6.962 -0.1832 -0.1391  1.7726
 3311SOL     OW21394   2.719   0.365  12.902  0.3127  0.4400  0.9706
 3311SOL    HW121395   2.725   0.270  12.913  1.1093  0.4417  0.4978
 3311SOL    HW221396   2.638   0.383  12.950 -0.4868 -1.6710  0.4201
 3312SOL     OW21397   3.974   0.798  13.628  1.1077 -0.3291 -1.1345
 3312SOL    HW121398   3.993   0.851  13.551  0.8147 -0.7706 -1.5076
 3312SOL    HW221399   3.914   0.733  13.592  2.2366 -1.5850 -0.7553
 3313SOL     OW21400   2.751   1.795   5.587  0.3849  0.7333 -0.1010
 3313SOL    HW121401   2.799   1.857   5.642 -2.0090  2.1323  0.4027
 3313SOL    HW221402   2.692   1.860   5.549 -0.7393 -1.5176 -2.2019
 3314SOL     OW21403   2.910   3.121   4.797  0.0952  0.5025 -0.1714
 3314SOL    HW121404   2.831   3.121   4.851  0.2146  0.6022  0.0015
 3314SOL    HW221405   2.879   3.101   4.708 -0.3762  2.3163 -0.4139
 3315SOL     OW21406   0.918   1.803   7.769 -0.1019  0.2240  0.5703
 3315SOL    HW121407   0.842   1.801   7.827  0.1968 -0.4896  0.9322
 3315SOL    HW221408   0.972   1.734   7.807 -0.5840 -0.8393 -0.6455
 3316SOL     OW21409   3.533   0.672   6.788  0.5960 -0.0399 -0.2666
 3316SOL    HW121410   3.523   0.707   6.699 -0.2114  1.2630  0.3365
 3316SOL    HW221411   3.596   0.605   6.760 -0.7080 -0.7508 -1.4874
 3317SOL     OW21412   1.116   2.784   0.632  0.1072  0.5389 -0.5041
 3317SOL    HW121413   1.083   2.777   0.543 -0.3225  0.6018 -0.3491
 3317SOL    HW221414   1.132   2.879   0.634 -1.2210  0.7252  1.3462
 3318SOL     OW21415   0.840   0.384  10.707 -0.0010 -0.7518  0.7547
 3318SOL    HW121416   0.899   0.312  10.729  1.1511 -0.2517 -0.7815
 3318SOL    HW221417   0.885   0.462  10.739  0.4305 -0.8038  0.2680
 3319SOL     OW21418   1.725   1.633   8.424 -0.1622 -0.3777 -0.3894
 3319SOL    HW121419   1.715   1.622   8.329  0.0832 -2.4126 -0.1890
 3319SOL    HW221420   1.817   1.614   8.438  0.0966  1.6493  0.6543
 3320SOL     OW21421   3.859   3.829   5.822  0.3236 -0.7617  0.5391
 3320SOL    HW121422   3.952   3.814   5.835  0.4247  0.2093  0.9731
 3320SOL    HW221423   3.820   3.767   5.884  1.5973 -2.1374 -0.0359
 3321SOL     OW21424   4.198   0.144   8.383 -0.3459  0.0440 -0.4139
 3321SOL    HW121425   4.117   0.095   8.368 -0.3189 -0.7314  1.8714
 3321SOL    HW221426   4.185   0.206   8.311  1.7950  0.8483 -0.1157
 3322SOL     OW21427   1.301   3.009   2.980 -0.3316 -0.4509 -0.6162
 3322SOL    HW121428   1.298   2.982   3.071  0.8064  2.9928  0.4333
 3322SOL    HW221429   1.211   3.033   2.956 -0.9823 -1.4749  0.8097
 3323SOL     OW21430   3.204   3.490   2.344 -0.4297 -0.0143  0.4481
 3323SOL    HW121431   3.250   3.566   2.378  1.4601 -0.5875 -0.7964
 3323SOL    HW221432   3.159   3.520   2.265  0.2562 -0.5038 -0.1348
 3324SOL     OW21433   2.552   0.583  16.130 -0.1349  0.0130  0.3876
 3324SOL    HW121434   2.478   0.627  16.089  0.1524  0.0811 -0.0551
 3324SOL    HW221435   2.574   0.646  16.199 -0.5380  0.7731 -0.1750
 3325SOL     OW21436   0.758   0.273   2.659  0.0245 -0.1037  0.4511
 3325SOL    HW121437   0.667   0.245   2.667 -0.6212  2.0087  0.6662
 3325SOL    HW221438   0.763   0.311   2.572  0.0580 -2.0557 -0.3967
 3326SOL     OW21439   4.086   4.312   3.763  0.5558  0.3933 -0.1646
 3326SOL    HW121440   4.134   4.245   3.811 -0.1261 -1.4313 -2.0518
 3326SOL    HW221441   4.152   4.341   3.700 -0.0252  2.2072  0.0369
 3327SOL     OW21442   2.782   3.924   3.025 -0.0471 -0.2810  0.0583
 3327SOL    HW121443   2.707   3.972   3.060 -0.4592 -1.5015  0.8200
 3327SOL    HW221444   2.845   3.972   3.080  2.2266 -1.9573 -1.1045
 3328SOL     OW21445   2.304   4.549  15.220 -0.0215  0.4005 -0.0023
 3328SOL    HW121446   2.303   4.566  15.314  0.4583 -2.1936  0.4679
 3328SOL    HW221447   2.383   4.495  15.212 -0.4088 -0.1502 -0.0943
 3329SOL     OW21448   0.249   2.803  11.425  0.0509 -0.6084 -0.2904
 3329SOL    HW121449   0.330   2.799  11.476 -0.0084 -1.6209 -0.2793
 3329SOL    HW221450   0.278   2.745  11.354 -0.6495  0.4615 -1.4544
 3330SOL     OW21451   4.074   3.279  10.779  0.6967  0.4769 -0.3477
 3330SOL    HW121452   4.167   3.300  10.772  0.4043  1.9011 -0.0329
 3330SOL    HW221453   4.039   3.327  10.704 -1.7663  2.5004  2.0726
 3331SOL     OW21454   4.079   4.020  10.075  0.2114 -0.1053  0.6924
 3331SOL    HW121455   4.119   3.968  10.006  0.5866  2.5330 -1.0485
 3331SOL    HW221456   4.159   4.061  10.107  0.4904 -0.0536 -0.0717
 3332SOL     OW21457   2.281   0.612   9.444  0.1998 -0.1493 -0.1184
 3332SOL    HW121458   2.258   0.519   9.445  0.2413 -0.1132  3.3622
 3332SOL    HW221459   2.193   0.647   9.435  0.4658  0.4660 -0.3204
 3333SOL     OW21460   1.394   3.806   5.153  0.3709  0.3058 -0.2035
 3333SOL    HW121461   1.317   3.863   5.152 -0.8612 -1.3608 -0.5599
 3333SOL    HW221462   1.357   3.718   5.162  2.4037 -0.3932  1.2327
 3334SOL     OW21463   1.284   3.398   1.149 -0.5341 -0.2854  0.1453
 3334SOL    HW121464   1.326   3.323   1.107 -2.9255 -1.0703 -0.8250
 3334SOL    HW221465   1.301   3.389   1.243  0.1124 -1.4886 -0.0922
 3335SOL     OW21466   2.640   1.788   1.656  0.3058 -0.2506  0.2576
 3335SOL    HW121467   2.697   1.721   1.617 -0.8810 -0.4249 -1.1500
 3335SOL    HW221468   2.557   1.742   1.642 -0.2716 -0.0750  3.1041
 3336SOL     OW21469   0.860   0.614  12.079  0.6235  0.1780 -0.3934
 3336SOL    HW121470   0.892   0.540  12.027 -1.5892 -0.9402 -0.1498
 3336SOL    HW221471   0.766   0.599  12.069  0.4866  0.2771  0.7618
 3337SOL     OW21472   0.943   1.053   9.326  0.7550 -0.4404 -0.4735
 3337SOL    HW121473   0.910   1.141   9.307 -1.7779 -0.7998  2.2977
 3337SOL    HW221474   0.918   1.009   9.245  0.1734  0.1968 -0.6408
 3338SOL     OW21475   2.912   0.571   5.986  0.1683  0.0008 -0.0554
 3338SOL    HW121476   2.895   0.540   5.898 -1.1500  0.2632  0.1102
 3338SOL    HW221477   2.992   0.623   5.977  0.8835 -1.0277  0.2700
 3339SOL     OW21478   4.375   0.328   1.619 -0.2208 -0.2932 -0.1675
 3339SOL    HW121479   4.338   0.282   1.544 -2.6838  0.9311  0.3228
 3339SOL    HW221480   4.374   0.417   1.584  1.3025 -0.0801  0.3051
 3340SOL     OW21481   4.064   3.461  11.701 -0.4026  0.7418  0.2548
 3340SOL    HW121482   3.971   3.449  11.720 -0.2851  1.0392  1.0218
 3340SOL    HW221483   4.113   3.421  11.773 -0.1507  0.6553  0.0350
 3341SOL     OW21484   1.445   0.569   4.959  0.7947 -0.1410 -0.0935
 3341SOL    HW121485   1.470   0.489   5.005 -0.4503 -0.9946 -0.9134
 3341SOL    HW221486   1.426   0.534   4.872  2.9624 -0.1434 -0.5730
 3342SOL     OW21487   2.840   3.556   8.741 -0.0674  0.4689 -0.0177
 3342SOL    HW121488   2.832   3.628   8.803 -3.1651 -1.1781  1.5264
 3342SOL    HW221489   2.887   3.484   8.783  0.0481  1.1775  1.0761
 3343SOL     OW21490   3.830   0.138  15.024 -0.2018  0.7475 -0.2082
 3343SOL    HW121491   3.874   0.177  15.100  1.2401 -1.5452  0.1638
 3343SOL    HW221492   3.825   0.208  14.959 -0.6404  0.8941 -0.0132
 3344SOL     OW21493   4.111   2.860   2.406 -0.6050  0.0918  0.3634
 3344SOL    HW121494   4.088   2.947   2.440 -0.6341  0.2423 -0.0345
 3344SOL    HW221495   4.115   2.811   2.488  0.6492 -2.5759 -1.3008
 3345SOL     OW21496   0.142   0.836   6.970 -0.0596  0.0408  0.1364
 3345SOL    HW121497   0.132   0.778   7.045 -0.0841 -0.0250  0.0829
 3345SOL    HW221498   0.112   0.917   7.010  1.7610  1.1744 -0.7864
 3346SOL     OW21499   3.022   1.684   7.701 -0.3034 -0.4073  0.1909
 3346SOL    HW121500   3.076   1.643   7.634  3.2828  0.7469  2.4073
 3346SOL    HW221501   3.090   1.706   7.764 -1.0030 -1.0458  1.1603
 3347SOL     OW21502   3.246   1.470   6.093 -0.1920  0.7667  0.0037
 3347SOL    HW121503   3.177   1.491   6.156 -0.1319 -0.4786  0.4798
 3347SOL    HW221504   3.249   1.546   6.035  0.6104  1.2610  0.6813
 3348SOL     OW21505   1.224   1.211  13.240 -0.0548 -0.2785 -0.7164
 3348SOL    HW121506   1.289   1.185  13.175  1.1802  1.5921 -0.2344
 3348SOL    HW221507   1.221   1.139  13.303  1.2320 -1.0200 -1.5012
 3349SOL     OW21508   4.033   0.510   9.994  0.4725 -0.0747 -0.2588
 3349SOL    HW121509   4.051   0.533  10.086 -0.0513  4.4698 -1.2989
 3349SOL    HW221510   3.982   0.430  10.004 -0.1860  0.4287  0.5041
 3350SOL     OW21511   0.303   2.054  13.889  0.1679  0.3469 -0.3264
 3350SOL    HW121512   0.295   1.965  13.923 -2.2082  1.2148  1.3492
 3350SOL    HW221513   0.335   2.021  13.805 -0.2403 -0.3388 -0.2063
 3351SOL     OW21514   2.386   1.402   4.715 -0.0843  0.2904 -0.2040
 3351SOL    HW121515   2.409   1.326   4.662 -0.7724 -0.2709  0.3002
 3351SOL    HW221516   2.475   1.439   4.718 -0.2045  0.7083 -2.3185
 3352SOL     OW21517   4.410   1.327   5.684 -0.0530  0.0275 -0.4611
 3352SOL    HW121518   4.479   1.286   5.632 -0.2207 -1.1726  0.2489
 3352SOL    HW221519   4.404   1.257   5.750 -1.0184 -0.3349 -0.9355
 3353SOL     OW21520   3.370   1.232   6.232 -0.2982 -0.0957  0.3896
 3353SOL    HW121521   3.458   1.211   6.200 -1.3039 -2.0218 -1.1861
 3353SOL    HW221522   3.353   1.325   6.217  0.1043 -0.2123 -0.8266
 3354SOL     OW21523   3.410   3.709   2.961 -0.4055 -0.4847 -0.0784
 3354SOL    HW121524   3.406   3.761   2.881 -0.0034 -0.0459  0.1895
 3354SOL    HW221525   3.356   3.637   2.926 -2.1930  0.4192  0.8596
 3355SOL     OW21526   1.309   1.549   0.245  0.2368 -0.8253 -0.5103
 3355SOL    HW121527   1.264   1.574   0.326  0.8666 -1.2062 -0.0468
 3355SOL    HW221528   1.265   1.604   0.180 -0.4577 -0.8622 -0.0776
 3356SOL     OW21529   2.920   1.732   4.700 -0.2151  0.1388 -0.0792
 3356SOL    HW121530   2.942   1.687   4.782  0.1025 -2.2251 -1.4842
 3356SOL    HW221531   2.829   1.759   4.711  0.2497  0.8681  2.0708
 3357SOL     OW21532   0.917   1.472  13.875 -0.7621 -0.2580 -0.4316
 3357SOL    HW121533   0.923   1.376  13.883  0.5095 -0.0835  0.7083
 3357SOL    HW221534   0.823   1.487  13.876 -0.9047 -1.1641  0.0885
 3358SOL     OW21535   4.571   2.924   9.759 -0.1108  0.1946  0.3115
 3358SOL    HW121536   4.624   2.965   9.691  0.4582 -0.2389  0.4975
 3358SOL    HW221537   4.629   2.925   9.835  0.9569  2.3081 -0.5243
 3359SOL     OW21538   1.604   2.483  16.198 -0.1613 -0.2063 -0.3875
 3359SOL    HW121539   1.515   2.462  16.226 -1.1889  3.5507 -0.7647
 3359SOL    HW221540   1.626   2.540  16.272 -0.6437 -1.1573  0.4898
 3360SOL     OW21541   2.290   3.421   4.883  0.0269  0.7305  0.1234
 3360SOL    HW121542   2.323   3.486   4.945 -1.0220  0.6436  0.7628
 3360SOL    HW221543   2.204   3.395   4.915 -0.3562  0.5450 -1.0607
 3361SOL     OW21544   0.519   2.001   4.429 -0.5299 -0.0868 -0.5840
 3361SOL    HW121545   0.585   2.040   4.372 -0.6182  0.9968  0.0394
 3361SOL    HW221546   0.558   1.914   4.439  0.7579  0.5477 -0.0008
 3362SOL     OW21547   1.278   1.004   2.338  0.9858  0.8300  0.3685
 3362SOL    HW121548   1.332   1.012   2.260 -0.4011  2.7576 -0.3840
 3362SOL    HW221549   1.199   1.053   2.316  1.6863  1.7735 -0.0366
 3363SOL     OW21550   2.853   0.095  16.795  0.2717 -0.3171  0.2101
 3363SOL    HW121551   2.776   0.131  16.750 -1.2682 -1.4238  1.9298
 3363SOL    HW221552   2.902   0.065  16.718 -0.0561 -4.3608  1.5822
 3364SOL     OW21553   2.678   2.695  15.369  0.3366 -0.1636  0.3578
 3364SOL    HW121554   2.746   2.675  15.433  0.3012  1.8506  1.0226
 3364SOL    HW221555   2.725   2.739  15.298  0.1598  0.0052  0.3427
 3365SOL     OW21556   3.326   1.648   5.900 -0.0957 -0.5686 -0.5524
 3365SOL    HW121557   3.410   1.605   5.885  0.3100 -0.3155  1.0338
 3365SOL    HW221558   3.333   1.710   5.827 -0.3334  1.3445  1.0504
 3366SOL     OW21559   1.875   0.271   1.429 -0.5754 -0.1716 -0.1070
 3366SOL    HW121560   1.783   0.250   1.412 -0.3903 -0.0210 -1.2647
 3366SOL    HW221561   1.875   0.365   1.448  0.1649 -0.8692  3.3277
 3367SOL     OW21562   0.997   4.296   4.211 -0.1101 -0.0280  0.0659
 3367SOL    HW121563   1.044   4.228   4.164 -0.4656  0.4691 -1.0114
 3367SOL    HW221564   1.038   4.304   4.298 -0.3108 -2.2231  0.3529
 3368SOL     OW21565   3.569   0.368   2.455 -0.0209 -0.2387 -0.7397
 3368SOL    HW121566   3.587   0.338   2.544  2.0574 -0.6077 -1.2931
 3368SOL    HW221567   3.501   0.433   2.474 -0.8353 -1.3906  0.3031
 3369SOL     OW21568   2.895   3.932   4.216 -0.6649 -0.1798 -0.1073
 3369SOL    HW121569   2.984   3.930   4.180 -0.4470  2.6899  0.3098
 3369SOL    HW221570   2.907   3.982   4.296  1.3476  0.6423 -0.9182
 3370SOL     OW21571   0.677   1.236  10.887 -0.6372  0.7549 -0.2726
 3370SOL    HW121572   0.601   1.182  10.863  0.7644 -1.7587  0.8513
 3370SOL    HW221573   0.665   1.320  10.844  0.1177  0.2801 -1.4144
 3371SOL     OW21574   3.329   1.724  15.676  0.3585 -0.4734  0.4938
 3371SOL    HW121575   3.350   1.811  15.712  2.1956 -1.3105  1.4467
 3371SOL    HW221576   3.368   1.726  15.588  0.9399  1.5909  0.7908
 3372SOL     OW21577   2.568   3.502   8.624  0.0944 -0.5062 -0.3260
 3372SOL    HW121578   2.660   3.519   8.644 -0.0707 -1.4107  1.1432
 3372SOL    HW221579   2.532   3.590   8.613  1.0592 -0.0889 -0.1631
 3373SOL     OW21580   1.229   4.077   2.629  0.0399 -0.2918 -0.0382
 3373SOL    HW121581   1.171   4.001   2.641 -0.5889 -0.4316 -3.8288
 3373SOL    HW221582   1.306   4.038   2.669 -0.1785 -0.8868 -0.1835
 3374SOL     OW21583   4.610   4.667   2.257  0.6188  0.4887  0.1177
 3374SOL    HW121584   4.554   4.680   2.181  1.1549  0.2750 -0.3147
 3374SOL    HW221585   4.661   4.591   2.230 -1.7207 -1.0500  0.0693
 3375SOL     OW21586   1.004   2.452   5.756  0.0397 -0.1632  0.9286
 3375SOL    HW121587   0.908   2.461   5.762 -0.2900 -0.4438 -3.8772
 3375SOL    HW221588   1.003   2.376   5.698  1.4727  0.8251 -0.3593
 3376SOL     OW21589   1.643   0.373   8.232  0.8470 -0.3108 -0.2251
 3376SOL    HW121590   1.675   0.355   8.320 -3.0697  0.3957  1.3493
 3376SOL    HW221591   1.626   0.285   8.197  1.3450 -0.5024  0.0279
 3377SOL     OW21592   2.340   0.037   4.276  0.4040 -0.0295  0.1101
 3377SOL    HW121593   2.310   0.107   4.217  2.1214  0.6230  0.0287
 3377SOL    HW221594   2.294   4.690   4.232  2.0613 -0.3205 -1.1176
 3378SOL     OW21595   1.722   3.159   6.001  0.4537 -0.0993  0.0029
 3378SOL    HW121596   1.746   3.238   5.952 -0.4917  0.8403  1.0483
 3378SOL    HW221597   1.687   3.104   5.930  0.2650  0.1909 -0.1332
 3379SOL     OW21598   4.329   0.622  10.136  0.5518  0.0732 -0.3385
 3379SOL    HW121599   4.402   0.589  10.188 -0.4172  1.0865  1.6700
 3379SOL    HW221600   4.343   0.559  10.065 -1.3906 -0.2651 -0.4243
 3380SOL     OW21601   3.455   0.282   9.374  0.6664 -0.3225 -0.0167
 3380SOL    HW121602   3.433   0.191   9.394  0.2893 -0.7073 -2.1791
 3380SOL    HW221603   3.549   0.285   9.391  0.7857 -0.5637 -0.6374
 3381SOL     OW21604   2.739   3.282  17.373  0.2750  0.7376  0.1424
 3381SOL    HW121605   2.663   3.325  17.333 -0.6011 -0.2439  0.7471
 3381SOL    HW221606   2.734   3.195  17.333  0.1919  0.2941  1.1372
 3382SOL     OW21607   1.319   1.310   2.212 -0.6482 -0.3678  0.0178
 3382SOL    HW121608   1.291   1.275   2.128 -0.3417 -2.1134  0.6538
 3382SOL    HW221609   1.236   1.353   2.235  0.6142  1.2673  1.5264
 3383SOL     OW21610   0.766   3.734   8.916 -0.4876 -0.0522 -0.0673
 3383SOL    HW121611   0.739   3.751   9.006 -0.9288 -2.4940  0.2645
 3383SOL    HW221612   0.696   3.673   8.893 -1.1920  0.8579 -0.3275
 3384SOL     OW21613   0.756   4.175   2.526  0.4938 -0.4657 -0.7938
 3384SOL    HW121614   0.689   4.127   2.575  0.4449  0.8522  0.4329
 3384SOL    HW221615   0.810   4.100   2.502  0.6395 -1.3781  2.4392
 3385SOL     OW21616   1.399   2.448   5.573  0.0441 -0.0735  0.2752
 3385SOL    HW121617   1.407   2.376   5.635  0.5281  0.2293  0.5686
 3385SOL    HW221618   1.454   2.415   5.502 -0.7993  2.6825 -1.6781
 3386SOL     OW21619   2.340   0.566   8.928 -0.0935  0.1313  0.1592
 3386SOL    HW121620   2.283   0.557   9.004 -0.1347  0.9829  0.2202
 3386SOL    HW221621   2.395   0.488   8.936  1.2318  1.0235 -0.2769
 3387SOL     OW21622   1.186   4.678   9.465 -0.6709  0.3362 -0.2630
 3387SOL    HW121623   1.137   4.648   9.388  3.1553  1.5749 -3.2111
 3387SOL    HW221624   1.273   4.636   9.463 -0.1593  1.3660  0.5805
 3388SOL     OW21625   4.022   3.348  14.641 -0.0842 -0.0029 -0.3834
 3388SOL    HW121626   4.071   3.430  14.630  1.2356 -0.6411  0.7549
 3388SOL    HW221627   4.070   3.322  14.719 -0.4869 -1.4260 -0.6062
 3389SOL     OW21628   0.449   1.733   9.379  0.7760 -0.0007  0.0844
 3389SOL    HW121629   0.428   1.785   9.457 -0.9127 -1.6891  0.7632
 3389SOL    HW221630   0.360   1.746   9.346  0.5726  0.8173  0.9642
 3390SOL     OW21631   1.597   1.776   9.247  0.0349 -0.6479  0.5728
 3390SOL    HW121632   1.596   1.766   9.152  1.5080 -0.0008  0.4888
 3390SOL    HW221633   1.590   1.869   9.268 -1.2351 -0.6534  0.1378
 3391SOL     OW21634   1.278   0.153   6.251  0.1202 -0.6126 -0.0841
 3391SOL    HW121635   1.338   0.186   6.318  0.2243  2.6251 -1.7767
 3391SOL    HW221636   1.210   0.106   6.299 -0.3078 -1.1874 -1.2569
 3392SOL     OW21637   1.815   3.307  14.886 -0.0745 -0.5897 -0.1083
 3392SOL    HW121638   1.733   3.261  14.873 -0.2812 -0.5143  0.9442
 3392SOL    HW221639   1.850   3.274  14.968  1.0162  1.9992  0.4747
 3393SOL     OW21640   0.702   2.892   8.008 -1.0438  0.0368 -0.4779
 3393SOL    HW121641   0.676   2.855   8.092  1.6093 -2.0926 -0.6151
 3393SOL    HW221642   0.628   2.857   7.958 -1.3418 -0.6701  0.4542
 3394SOL     OW21643   3.043   0.152  10.551 -0.0128  0.5087  0.2618
 3394SOL    HW121644   3.013   0.061  10.552  0.6862  0.2705  0.1416
 3394SOL    HW221645   3.107   0.150  10.479  1.4307  0.4898  1.5372
 3395SOL     OW21646   3.444   3.095   4.225  0.2503  0.0088 -0.2105
 3395SOL    HW121647   3.459   3.082   4.319 -0.5412 -1.0189 -0.2375
 3395SOL    HW221648   3.348   3.098   4.225  0.3018  1.6097 -1.3959
 3396SOL     OW21649   4.211   1.713   2.191  0.0178 -0.2910 -0.4527
 3396SOL    HW121650   4.175   1.715   2.103 -1.4684  0.6357  0.1653
 3396SOL    HW221651   4.272   1.640   2.179  0.4884 -0.3718  2.2606
 3397SOL     OW21652   0.558   2.265   3.941 -0.3545  0.3157 -0.5333
 3397SOL    HW121653   0.579   2.191   3.884 -0.3726  1.8797 -2.5929
 3397SOL    HW221654   0.647   2.294   3.962  0.1436 -2.7400  1.5222
 3398SOL     OW21655   1.869   1.893   2.166 -0.1282 -0.6531 -0.1512
 3398SOL    HW121656   1.934   1.898   2.236  0.4431 -0.7547 -0.6686
 3398SOL    HW221657   1.819   1.970   2.192 -0.5430 -0.3383 -1.8511
 3399SOL     OW21658   0.118   0.016  14.808 -0.3479 -0.1857  0.0254
 3399SOL    HW121659   0.069   4.673  14.855 -0.0890 -0.0007  0.5559
 3399SOL    HW221660   0.207   4.711  14.826 -0.2245 -0.9620 -1.8636
 3400SOL     OW21661   3.437   0.585   4.712  0.4564  0.0919  0.2559
 3400SOL    HW121662   3.497   0.638   4.765  0.6595 -1.5268  1.6270
 3400SOL    HW221663   3.491   0.588   4.632 -0.2973 -0.9065 -0.2920
 3401SOL     OW21664   3.150   3.233   2.036  0.0097 -0.4468 -0.3974
 3401SOL    HW121665   3.187   3.237   2.124  0.2918  0.2488 -0.5491
 3401SOL    HW221666   3.056   3.238   2.054  0.2922  0.8500  0.8228
 3402SOL     OW21667   0.592   1.914  10.968  0.8496  0.1757 -0.6323
 3402SOL    HW121668   0.533   1.902  10.894  0.3654  0.5688 -0.3114
 3402SOL    HW221669   0.635   1.829  10.974  0.2701  0.0006  1.1295
 3403SOL     OW21670   3.160   0.372   9.362  0.3611 -0.2789 -0.1998
 3403SOL    HW121671   3.153   0.284   9.327  1.6658 -0.1884 -0.6880
 3403SOL    HW221672   3.256   0.375   9.358  0.3574 -1.2837 -1.1574
 3404SOL     OW21673   0.872   1.132   3.211 -0.2028  0.2610 -0.1328
 3404SOL    HW121674   0.895   1.052   3.258  1.1324  0.5132 -0.3490
 3404SOL    HW221675   0.948   1.180   3.244  0.0211  0.3120 -0.7308
 3405SOL     OW21676   0.926   2.081   7.787 -0.3140 -0.1994 -0.3795
 3405SOL    HW121677   0.830   2.089   7.788 -0.1785  1.4419 -0.2702
 3405SOL    HW221678   0.948   1.992   7.814  0.6507 -0.2611 -1.3958
 3406SOL     OW21679   3.898   0.764  14.792 -0.1504 -0.4337  0.3740
 3406SOL    HW121680   3.915   0.671  14.781  0.9689 -0.2255  0.3835
 3406SOL    HW221681   3.984   0.802  14.774 -0.8506  0.6416 -0.7048
 3407SOL     OW21682   3.031   0.393   5.727 -0.0092  0.1866 -0.1878
 3407SOL    HW121683   2.981   0.322   5.687 -0.8524  0.3176  0.6430
 3407SOL    HW221684   3.036   0.374   5.821 -0.4999 -0.8086 -0.3547
 3408SOL     OW21685   1.775   2.273  12.468 -0.0666  0.4730  0.5760
 3408SOL    HW121686   1.819   2.307  12.546  1.3612 -2.2089  0.9399
 3408SOL    HW221687   1.717   2.343  12.439  0.9065  1.0315 -0.0050
 3409SOL     OW21688   2.677   3.416   8.363  0.1601 -0.2648  0.3349
 3409SOL    HW121689   2.758   3.455   8.395  0.6086  1.4722 -2.9334
 3409SOL    HW221690   2.640   3.389   8.448  0.1171  0.6687  0.6100
 3410SOL     OW21691   0.298   0.574   5.518  0.3727  0.0632  0.2415
 3410SOL    HW121692   0.301   0.658   5.472  0.7282 -0.2381 -0.2826
 3410SOL    HW221693   0.372   0.538   5.471  1.6458  3.0892 -0.0981
 3411SOL     OW21694   1.749   3.911   2.396 -0.0361  0.0842 -0.0884
 3411SOL    HW121695   1.718   3.832   2.351 -1.5881 -0.6992  2.3293
 3411SOL    HW221696   1.776   3.958   2.317 -0.2691  1.5652  0.7126
 3412SOL     OW21697   0.009   0.153  10.953  0.3505 -0.3481  0.0979
 3412SOL    HW121698   0.037   0.180  10.865  1.2890 -2.6986 -0.3338
 3412SOL    HW221699   4.697   0.065  10.945  0.3048 -0.3630  0.4489
 3413SOL     OW21700   0.530   0.671  14.952  0.4316 -0.3403 -0.5625
 3413SOL    HW121701   0.596   0.660  14.884  1.4050 -0.7479  0.4468
 3413SOL    HW221702   0.491   0.584  14.954 -2.5341  1.0230  0.5166
 3414SOL     OW21703   4.067   2.346   6.958  0.6616  0.1068  0.0311
 3414SOL    HW121704   4.088   2.439   6.946 -0.3486  0.1871 -1.1389
 3414SOL    HW221705   4.126   2.310   6.892  0.5674 -0.4430  0.2484
 3415SOL     OW21706   0.297   3.713   6.886 -0.3141 -0.1516 -0.0397
 3415SOL    HW121707   0.293   3.717   6.791 -1.2560  0.8831  0.0395
 3415SOL    HW221708   0.227   3.654   6.913 -1.7259  0.3023 -2.7127
 3416SOL     OW21709   2.228   1.968  17.206  0.1442 -0.1108 -0.1316
 3416SOL    HW121710   2.232   1.922  17.290  0.5377  2.4198  1.2396
 3416SOL    HW221711   2.137   1.984  17.183  0.6181  1.3137 -1.0022
 3417SOL     OW21712   3.087   0.587   8.865  0.4007  0.0169  0.1369
 3417SOL    HW121713   3.088   0.639   8.945 -3.8628 -0.3290  0.3867
 3417SOL    HW221714   2.997   0.607   8.843 -0.1210 -0.0999  2.1266
 3418SOL     OW21715   1.579   0.324  10.535 -0.5563 -0.1159  0.0211
 3418SOL    HW121716   1.545   0.399  10.485 -1.4593 -0.3293  0.3192
 3418SOL    HW221717   1.543   0.335  10.623 -0.3104  0.7498  0.0153
 3419SOL     OW21718   1.349   0.302   2.437  0.2191  1.2295 -0.0007
 3419SOL    HW121719   1.334   0.355   2.516  0.1280 -0.4236  1.1005
 3419SOL    HW221720   1.443   0.285   2.446 -0.1540  0.6792  2.8168
 3420SOL     OW21721   4.447   2.252  10.910 -0.1577  0.3964  0.0586
 3420SOL    HW121722   4.494   2.321  10.956  0.4929 -0.1007  0.1357
 3420SOL    HW221723   4.357   2.262  10.941 -0.7100  0.1359 -1.4410
 3421SOL     OW21724   0.571   0.808   2.256  0.4542 -0.3890 -0.1523
 3421SOL    HW121725   0.489   0.855   2.267 -0.7744 -2.4734 -0.4900
 3421SOL    HW221726   0.533   0.732   2.212 -0.8982  0.8749 -1.1417
 3422SOL     OW21727   4.253   0.959  16.476 -0.6555 -0.4203  0.5397
 3422SOL    HW121728   4.249   0.909  16.395 -0.4955 -1.3177  1.0930
 3422SOL    HW221729   4.303   1.035  16.444 -1.9662 -0.3264 -1.3158
 3423SOL     OW21730   4.514   3.825   1.445  0.2294  0.2858  0.1853
 3423SOL    HW121731   4.559   3.788   1.369  0.2213 -1.6896  1.1439
 3423SOL    HW221732   4.538   3.916   1.425  0.9295 -0.1472 -0.9116
 3424SOL     OW21733   3.938   3.305   9.678 -0.4326  0.5999  0.1808
 3424SOL    HW121734   3.958   3.212   9.669  1.5079  1.0857 -0.6766
 3424SOL    HW221735   3.891   3.332   9.599  1.4128  0.7196 -0.8785
 3425SOL     OW21736   0.675   1.153   2.080  0.0546  0.2031 -0.0159
 3425SOL    HW121737   0.738   1.082   2.066  0.1648  0.5039 -1.0295
 3425SOL    HW221738   0.610   1.135   2.012  1.9660  0.6590 -1.9678
 3426SOL     OW21739   3.306   4.529   3.260  0.0693 -0.3652 -0.1347
 3426SOL    HW121740   3.290   4.623   3.275 -2.7333 -0.8913  0.2452
 3426SOL    HW221741   3.227   4.495   3.219 -0.0089 -1.3706  0.8470
 3427SOL     OW21742   2.376   2.908   4.045 -0.2207 -0.0349  0.3031
 3427SOL    HW121743   2.323   2.969   3.995  0.8210  1.3974  0.9599
 3427SOL    HW221744   2.381   2.842   3.976  0.2978  0.4984 -0.1655
 3428SOL     OW21745   3.983   0.263   7.468 -0.1543 -0.0095  0.1772
 3428SOL    HW121746   4.030   0.276   7.386  2.2439 -1.8067  1.2394
 3428SOL    HW221747   4.053   0.208   7.504  0.4896  1.5927  1.3680
 3429SOL     OW21748   2.499   3.297   8.793  0.5473  0.8560 -0.1346
 3429SOL    HW121749   2.583   3.255   8.775 -0.6682 -0.8902 -1.7423
 3429SOL    HW221750   2.503   3.364   8.725  0.0170  1.2040  0.1736
 3430SOL     OW21751   1.306   1.298   1.374 -0.3112  0.2665 -0.3559
 3430SOL    HW121752   1.265   1.375   1.334  0.9501  0.7921 -0.6299
 3430SOL    HW221753   1.344   1.324   1.458 -1.3125 -0.4612  0.3312
 3431SOL     OW21754   3.753   3.377   4.700 -0.5035  0.2751  0.1220
 3431SOL    HW121755   3.811   3.452   4.716  0.1655  0.1246 -1.5898
 3431SOL    HW221756   3.704   3.396   4.620 -0.2446 -1.5756 -0.4728
 3432SOL     OW21757   0.642   1.674   6.019 -0.0396  0.2455 -0.0151
 3432SOL    HW121758   0.684   1.593   5.988  3.0384  1.5130  0.9007
 3432SOL    HW221759   0.689   1.736   5.964 -1.2079  0.4752 -0.7594
 3433SOL     OW21760   3.991   2.154   5.683  0.2691 -0.5085  0.0813
 3433SOL    HW121761   3.905   2.112   5.677 -0.5754  0.8245  2.6288
 3433SOL    HW221762   4.003   2.202   5.602  0.1075 -0.3656  0.1426
 3434SOL     OW21763   4.152   2.213   5.882 -0.0154 -0.0587 -0.4455
 3434SOL    HW121764   4.137   2.157   5.959 -3.1442  0.1473 -0.9062
 3434SOL    HW221765   4.076   2.185   5.830 -0.7015 -1.2605  1.1806
 3435SOL     OW21766   3.141   2.271   6.633 -0.3867 -0.6713  0.1961
 3435SOL    HW121767   3.187   2.353   6.649 -0.2776 -0.6196 -0.3836
 3435SOL    HW221768   3.121   2.231   6.718 -1.5715  1.7682  1.0823
 3436SOL     OW21769   0.041   1.728   4.517  0.2752 -0.6745 -0.3081
 3436SOL    HW121770   0.044   1.729   4.613  1.3594  2.8497 -0.4191
 3436SOL    HW221771   4.717   1.646   4.503  0.7702 -1.3632  1.9707
 3437SOL     OW21772   0.532   4.035   3.263  0.3790  0.1034  0.1744
 3437SOL    HW121773   0.624   4.061   3.259 -0.0873  2.0210  1.9986
 3437SOL    HW221774   0.482   4.112   3.291  0.2388 -0.1487  0.6023
 3438SOL     OW21775   0.620   2.519   5.252  0.5057 -0.7986 -0.0890
 3438SOL    HW121776   0.563   2.488   5.322 -1.8661  1.0471 -1.1918
 3438SOL    HW221777   0.576   2.493   5.171 -3.0130 -0.0187  1.5966
 3439SOL     OW21778   2.502   4.451  13.026 -0.0945  0.1921  0.1498
 3439SOL    HW121779   2.411   4.465  13.049 -0.1796  1.3264 -0.8440
 3439SOL    HW221780   2.526   4.539  12.995 -0.0241  0.5172  1.1244
 3440SOL     OW21781   2.687   1.842   3.409  0.3835  0.4613  0.0520
 3440SOL    HW121782   2.775   1.881   3.405  1.4010 -1.8155  0.0097
 3440SOL    HW221783   2.651   1.906   3.348 -0.8421  0.1030  0.3972
 3441SOL     OW21784   4.458   2.569   0.036  0.1111  0.0482 -0.2732
 3441SOL    HW121785   4.366   2.595   0.039  0.0512 -0.1595 -0.3166
 3441SOL    HW221786   4.473   2.533   0.124 -1.0567 -3.8408 -1.6790
 3442SOL     OW21787   0.107   0.082   7.236  0.1666  0.7041  0.7049
 3442SOL    HW121788   0.027   0.032   7.218  1.2347 -0.7344 -0.0690
 3442SOL    HW221789   0.078   0.171   7.214  1.4053  0.8720 -0.2706
 3443SOL     OW21790   2.390   3.670   8.947  0.1327  0.1689 -0.4313
 3443SOL    HW121791   2.435   3.710   9.022 -1.1425  0.5219  0.1433
 3443SOL    HW221792   2.340   3.602   8.991 -0.5363 -0.9949 -3.0277
 3444SOL     OW21793   4.252   2.742   4.876  0.5036 -0.0416  0.1790
 3444SOL    HW121794   4.342   2.761   4.848  0.3441  0.0523 -0.2670
 3444SOL    HW221795   4.196   2.775   4.806  1.1956 -0.0493 -0.3785
 3445SOL     OW21796   4.478   1.503  16.501 -0.0352 -0.3523  0.4213
 3445SOL    HW121797   4.514   1.430  16.552 -0.5178  1.5224  3.4517
 3445SOL    HW221798   4.385   1.500  16.525 -0.6225 -1.1296 -2.0428
 3446SOL     OW21799   3.990   4.583  17.533 -0.6975 -0.0085 -0.1200
 3446SOL    HW121800   3.952   4.576  17.446 -0.9662  0.9167 -0.0820
 3446SOL    HW221801   3.911   4.574  17.587 -0.2318  0.3596  0.6314
 3447SOL     OW21802   1.020   4.392   6.168 -0.1387  0.6073 -0.0502
 3447SOL    HW121803   1.080   4.373   6.240  1.5945 -0.1110 -1.6808
 3447SOL    HW221804   1.049   4.476   6.131  0.6781  1.3871  2.4151
 3448SOL     OW21805   2.806   2.776   8.336  0.4588  0.1856 -0.5714
 3448SOL    HW121806   2.878   2.715   8.319  1.9290  1.3195  1.5206
 3448SOL    HW221807   2.803   2.808   8.246  1.1161 -0.5939 -0.8587
 3449SOL     OW21808   0.693   3.921  15.345  0.4874 -0.1794 -0.3776
 3449SOL    HW121809   0.762   3.893  15.405  1.4062  0.2232 -1.2455
 3449SOL    HW221810   0.654   3.991  15.396  0.0381  1.3924 -2.8557
 3450SOL     OW21811   2.634   3.513  14.169  0.2142  0.0705 -0.6221
 3450SOL    HW121812   2.558   3.460  14.193 -1.3972  1.8579 -1.8716
 3450SOL    HW221813   2.662   3.461  14.093  1.3610 -1.9320  1.1351
 3451SOL     OW21814   2.106   0.238   0.129  0.3499  0.4177 -0.5879
 3451SOL    HW121815   2.201   0.227   0.123  0.4722  1.6685 -0.9567
 3451SOL    HW221816   2.098   0.309   0.066 -0.9441 -1.3910 -2.4687
 3452SOL     OW21817   4.482   2.411   2.619 -0.4236  0.1200 -0.5878
 3452SOL    HW121818   4.518   2.463   2.690  0.6019  0.0054 -1.0249
 3452SOL    HW221819   4.523   2.324   2.627  0.1835  0.4724  0.0965
 3453SOL     OW21820   0.591   1.199   2.715  0.0408  0.0930  0.1900
 3453SOL    HW121821   0.576   1.274   2.657  0.0711  1.4968  1.9975
 3453SOL    HW221822   0.606   1.237   2.801 -1.8506 -0.8006  0.9095
 3454SOL     OW21823   0.325   0.109   2.247  0.6953  0.0468 -0.1054
 3454SOL    HW121824   0.298   0.179   2.305  1.7421  1.0558 -0.8440
 3454SOL    HW221825   0.327   0.041   2.315 -0.5978  1.3196  1.2013
 3455SOL     OW21826   1.382   1.901  11.503  0.2116 -0.6759  1.0045
 3455SOL    HW121827   1.418   1.924  11.417 -0.3166 -1.0825  0.6735
 3455SOL    HW221828   1.452   1.918  11.565  1.4358 -1.3211 -0.1943
 3456SOL     OW21829   3.321   3.056  10.945  0.3639 -0.2498  0.1650
 3456SOL    HW121830   3.289   3.143  10.924  1.1782 -0.3485 -1.4932
 3456SOL    HW221831   3.378   3.050  10.868 -0.2842 -0.4416 -0.2993
 3457SOL     OW21832   2.052   0.423   3.630  0.2475 -0.0809 -0.4485
 3457SOL    HW121833   2.078   0.472   3.551  2.5092  0.2198  0.4953
 3457SOL    HW221834   1.968   0.388   3.600  1.5460 -1.2353 -2.7312
 3458SOL     OW21835   4.198   3.677   4.569 -0.4285  0.0440  0.3521
 3458SOL    HW121836   4.256   3.750   4.591 -0.6086 -0.0030  0.9808
 3458SOL    HW221837   4.162   3.722   4.492  0.6216 -1.2860 -0.9045
 3459SOL     OW21838   1.399   2.051   3.164 -0.1819  0.2924 -0.7427
 3459SOL    HW121839   1.424   2.100   3.243 -1.7086 -0.0028 -0.0740
 3459SOL    HW221840   1.363   1.968   3.198  0.9110  0.1006 -0.0544
 3460SOL     OW21841   3.585   1.955  13.106  0.1722  0.1155 -0.0376
 3460SOL    HW121842   3.587   2.046  13.136  2.5596 -0.4442  1.5724
 3460SOL    HW221843   3.558   1.965  13.015  0.1930 -2.8314 -0.3647
 3461SOL     OW21844   1.180   3.258  14.680 -0.0140  0.0905 -0.2718
 3461SOL    HW121845   1.194   3.352  14.665  0.3214  0.3165  1.4331
 3461SOL    HW221846   1.251   3.231  14.620 -0.2883  2.5632 -1.7215
 3462SOL     OW21847   0.858   4.113  12.047 -0.1493 -0.3832  0.4206
 3462SOL    HW121848   0.834   4.204  12.062  2.2919  0.4671 -0.7268
 3462SOL    HW221849   0.951   4.115  12.071  0.6518 -1.1569 -2.5905
 3463SOL     OW21850   3.199   1.999   9.484  0.1432  0.1422  0.0113
 3463SOL    HW121851   3.137   2.070   9.500 -0.3566 -0.0667 -1.0199
 3463SOL    HW221852   3.269   2.050   9.443  2.4970 -2.8777  0.2229
 3464SOL     OW21853   0.670   2.889   5.058  0.0739 -0.4985  0.1758
 3464SOL    HW121854   0.642   2.807   5.018  2.0221 -0.3721 -1.4297
 3464SOL    HW221855   0.600   2.893   5.124 -0.5037  2.6189 -0.6170
 3465SOL     OW21856   0.840   0.817   4.259 -0.1712 -0.0373 -0.0383
 3465SOL    HW121857   0.748   0.805   4.234 -0.0394 -0.7913 -0.1747
 3465SOL    HW221858   0.867   0.870   4.183 -0.2837  1.7293  1.1644
 3466SOL     OW21859   2.190   1.371   3.188  0.1061 -0.4670 -0.0707
 3466SOL    HW121860   2.277   1.400   3.216  0.6303 -1.2020 -0.9099
 3466SOL    HW221861   2.191   1.365   3.092  1.4221  1.5025 -0.1621
 3467SOL     OW21862   3.151   0.137   8.130 -0.4403 -0.6973  0.2753
 3467SOL    HW121863   3.148   0.204   8.198  0.6590 -0.1297 -0.2372
 3467SOL    HW221864   3.064   0.150   8.095  0.2868 -0.8920 -1.5842
 3468SOL     OW21865   3.028   4.640  12.251 -0.1694 -0.3500 -0.2869
 3468SOL    HW121866   3.010   4.546  12.241  3.2064 -1.0750  0.4380
 3468SOL    HW221867   3.119   4.638  12.220  0.3105 -1.0284  1.2022
 3469SOL     OW21868   0.333   0.539  16.533 -0.6468 -0.2685  0.6362
 3469SOL    HW121869   0.320   0.605  16.601  0.3919  0.3793  0.2124
 3469SOL    HW221870   0.426   0.518  16.546 -0.8686 -0.7280  1.4874
 3470SOL     OW21871   3.811   2.255   2.085  0.4353 -0.1122 -0.3709
 3470SOL    HW121872   3.735   2.291   2.131  0.8015 -0.1134  0.2340
 3470SOL    HW221873   3.798   2.160   2.088  1.0841 -0.1086  2.6731
 3471SOL     OW21874   4.583   1.332   8.894 -0.2890  0.3334  0.5366
 3471SOL    HW121875   4.649   1.269   8.924  0.4302  0.0450 -1.6677
 3471SOL    HW221876   4.637   1.391   8.843  0.2395 -0.0023  0.7062
 3472SOL     OW21877   0.195   2.868  14.538  0.6593 -0.1615  0.4523
 3472SOL    HW121878   0.225   2.941  14.484 -0.8134 -1.2359 -1.8371
 3472SOL    HW221879   0.101   2.881  14.521  1.2334  0.7156 -2.0897
 3473SOL     OW21880   3.861   0.650   3.809 -0.1869 -0.2659 -0.2963
 3473SOL    HW121881   3.929   0.584   3.805  1.1408  0.9318  2.2863
 3473SOL    HW221882   3.828   0.639   3.720  0.6678 -0.2055 -0.6175
 3474SOL     OW21883   1.072   0.815  14.632 -0.0408 -0.4835  0.5712
 3474SOL    HW121884   0.986   0.857  14.644 -0.3078 -0.6500 -0.7484
 3474SOL    HW221885   1.038   0.728  14.612 -0.3342 -0.4257  0.8096
 3475SOL     OW21886   1.721   4.605   5.017 -0.6456  0.4385 -0.0739
 3475SOL    HW121887   1.696   4.548   4.944  0.5903 -1.0656  0.6885
 3475SOL    HW221888   1.642   4.616   5.070 -0.6921  0.1526 -0.0843
 3476SOL     OW21889   0.154   0.568   1.949  0.1763  0.6460  0.2306
 3476SOL    HW121890   0.170   0.662   1.938  0.6369  0.6883  1.2731
 3476SOL    HW221891   0.061   0.566   1.972 -0.2262  1.1328 -1.3629
 3477SOL     OW21892   3.889   2.125   6.885  0.6288 -0.1080 -0.2408
 3477SOL    HW121893   3.906   2.208   6.840 -0.5967  0.5609  0.5225
 3477SOL    HW221894   3.836   2.152   6.960  0.1396  2.7998 -1.6362
 3478SOL     OW21895   2.137   3.080  11.277 -0.2166  0.2964  0.6503
 3478SOL    HW121896   2.229   3.068  11.299  0.8831  3.6670 -2.1519
 3478SOL    HW221897   2.106   2.991  11.258  2.3192 -0.5859  0.6547
 3479SOL     OW21898   1.249   0.906   0.411  0.3976 -0.0603 -0.2879
 3479SOL    HW121899   1.179   0.847   0.384  0.8145  0.0248 -1.5695
 3479SOL    HW221900   1.280   0.855   0.486 -0.5652  1.2121  0.9687
 3480SOL     OW21901   0.096   2.254  13.947  0.0268 -0.0577  0.1309
 3480SOL    HW121902   0.033   2.207  13.892 -1.3135  0.1082  1.5481
 3480SOL    HW221903   0.164   2.186  13.947  0.5082  0.4515  3.2086
 3481SOL     OW21904   2.118   3.650   3.701  0.1332  0.0422 -0.4604
 3481SOL    HW121905   2.084   3.581   3.644 -2.0967  0.2808  0.5880
 3481SOL    HW221906   2.213   3.642   3.691  0.1385 -1.1779  0.5461
 3482SOL     OW21907   3.921   4.419   6.902 -0.0579 -0.0724 -0.5764
 3482SOL    HW121908   3.837   4.392   6.866 -0.7533  1.0055  0.2582
 3482SOL    HW221909   3.986   4.401   6.834  0.8159  0.2250  0.1740
 3483SOL     OW21910   1.589   1.026   3.507 -0.3409  0.7133 -0.9780
 3483SOL    HW121911   1.520   1.036   3.573  0.9451 -0.2532  0.4918
 3483SOL    HW221912   1.649   0.959   3.537 -0.9420  0.2488 -0.8137
 3484SOL     OW21913   1.069   4.051   4.055  0.1886 -0.8950 -0.2419
 3484SOL    HW121914   1.129   4.040   3.981 -0.9320 -0.6091 -1.1889
 3484SOL    HW221915   0.995   4.007   4.014 -0.4883 -0.6287  0.6995
 3485SOL     OW21916   3.458   2.740   6.702 -0.0863 -0.1902 -0.9198
 3485SOL    HW121917   3.384   2.698   6.745 -0.8047  0.3636 -1.6353
 3485SOL    HW221918   3.510   2.768   6.778  1.1630  1.7290 -2.4802
 3486SOL     OW21919   3.331   3.277   8.208 -0.6702  0.2403 -0.1960
 3486SOL    HW121920   3.333   3.267   8.112  4.7660 -1.7580  0.0858
 3486SOL    HW221921   3.257   3.334   8.227 -0.0719  1.4706 -1.5105
 3487SOL     OW21922   2.881   1.513  15.580  0.3741  0.1618 -0.2449
 3487SOL    HW121923   2.976   1.510  15.594  0.0309 -2.4959  1.5836
 3487SOL    HW221924   2.852   1.437  15.630  0.6999 -0.5250 -1.1078
 3488SOL     OW21925   4.341   0.182   4.142  0.0128  0.0627 -0.0969
 3488SOL    HW121926   4.318   0.218   4.056  1.5467  1.2483 -0.0040
 3488SOL    HW221927   4.432   0.163   4.120  0.2143  1.2655 -0.3294
 3489SOL     OW21928   4.082   4.517  12.675  0.0985  0.3723  0.1689
 3489SOL    HW121929   4.112   4.588  12.730  2.3121 -0.7986  0.4707
 3489SOL    HW221930   4.050   4.454  12.740 -0.5065  0.6673  0.1639
 3490SOL     OW21931   3.209   2.763   8.433 -0.2097 -0.1223  0.6057
 3490SOL    HW121932   3.171   2.847   8.456  0.3159  0.4241 -0.5092
 3490SOL    HW221933   3.256   2.733   8.510 -1.2240 -0.2318  1.1787
 3491SOL     OW21934   1.994   0.091  13.826  0.2577  0.1765  0.0683
 3491SOL    HW121935   2.066   0.130  13.776 -0.6002  0.2330 -1.1163
 3491SOL    HW221936   1.950   0.167  13.864 -0.1173  0.9531 -1.9070
 3492SOL     OW21937   0.841   2.816   7.105  0.4473  0.1354 -0.3077
 3492SOL    HW121938   0.814   2.865   7.182  0.7703 -0.6067  0.2701
 3492SOL    HW221939   0.839   2.725   7.132  1.7565 -0.0719 -0.8825
 3493SOL     OW21940   1.088   3.848   2.681  0.1616 -0.1028  0.3700
 3493SOL    HW121941   1.097   3.754   2.669 -2.6377 -0.4226  0.7150
 3493SOL    HW221942   1.010   3.871   2.630 -1.6329 -2.7943  1.9097
 3494SOL     OW21943   0.183   0.030  14.107 -0.2181 -0.4823 -0.2758
 3494SOL    HW121944   0.141   4.691  14.165  1.9064 -1.1844  0.5155
 3494SOL    HW221945   0.271   0.015  14.143  1.4957 -0.7429 -4.4661
 3495SOL     OW21946   0.143   0.276  13.000 -0.2700  0.3190  0.3150
 3495SOL    HW121947   0.087   0.199  13.006  0.5698 -0.4305 -1.3124
 3495SOL    HW221948   0.230   0.239  13.018  0.9181  3.5699  1.1318
 3496SOL     OW21949   3.929   3.885   2.285 -0.0579 -0.0110 -0.3468
 3496SOL    HW121950   3.910   3.945   2.213 -1.3965 -2.1833 -1.8028
 3496SOL    HW221951   4.021   3.863   2.271 -0.0131  1.3465 -2.0161
 3497SOL     OW21952   4.134   1.743   8.017  0.1625 -0.1041 -0.3100
 3497SOL    HW121953   4.060   1.744   7.957  2.0459 -0.8757 -2.6415
 3497SOL    HW221954   4.194   1.682   7.973  0.0364  0.2782 -1.0106
 3498SOL     OW21955   2.866   4.338   6.090 -0.2169  0.6307  0.0659
 3498SOL    HW121956   2.927   4.396   6.135  1.3515 -1.2404  0.3436
 3498SOL    HW221957   2.834   4.292   6.168 -2.3312 -0.3418 -1.3659
 3499SOL     OW21958   0.510   3.860   7.318  0.0409 -0.0968  0.1537
 3499SOL    HW121959   0.437   3.857   7.256  0.6408 -1.1434 -0.5002
 3499SOL    HW221960   0.555   3.780   7.293 -0.1501 -0.5700  1.3253
 3500SOL     OW21961   3.313   4.309   5.881 -0.2227 -0.1658 -0.1764
 3500SOL    HW121962   3.219   4.293   5.883 -0.2413 -0.1283 -0.7763
 3500SOL    HW221963   3.348   4.302   5.970  0.9637  0.4290 -0.5933
 3501SOL     OW21964   0.419   3.036   5.187 -0.1798  0.3867  0.0194
 3501SOL    HW121965   0.421   3.089   5.108 -1.1293  0.4922  0.0687
 3501SOL    HW221966   0.324   3.032   5.197 -0.2278  2.9623  0.4823
 3502SOL     OW21967   1.364   0.064   8.030 -0.3446  0.2105 -1.2923
 3502SOL    HW121968   1.275   0.098   8.039 -0.2360  0.1483  0.1312
 3502SOL    HW221969   1.384   0.018   8.112 -1.4313 -0.1664 -1.2319
 3503SOL     OW21970   2.661   2.702   5.497  0.2043  0.1354  0.0023
 3503SOL    HW121971   2.712   2.648   5.557 -0.6691  1.5353  1.9926
 3503SOL    HW221972   2.704   2.666   5.419 -1.5164 -1.4861 -0.1949
 3504SOL     OW21973   0.260   1.417   5.702  0.2744 -0.1783 -0.2895
 3504SOL    HW121974   0.298   1.504   5.716  0.8098 -0.7417  1.6344
 3504SOL    HW221975   0.223   1.424   5.613  0.6482  2.9378 -0.2118
 3505SOL     OW21976   2.361   0.737  12.246 -0.7089  0.6184  0.0242
 3505SOL    HW121977   2.414   0.755  12.324  1.5944 -1.3354 -1.1050
 3505SOL    HW221978   2.413   0.663  12.216  0.0784  1.1676  0.0188
 3506SOL     OW21979   2.671   1.547   3.319  0.0941 -0.0932 -0.0600
 3506SOL    HW121980   2.731   1.573   3.249  0.0472  0.6098  0.1646
 3506SOL    HW221981   2.668   1.626   3.373  0.5414 -2.0718  2.8890
 3507SOL     OW21982   2.765   2.020   9.251  0.4405 -0.1308 -0.0678
 3507SOL    HW121983   2.700   2.090   9.244 -0.6425 -1.0630  0.6517
 3507SOL    HW221984   2.752   1.971   9.170  1.4802 -3.1124  1.5906
 3508SOL     OW21985   0.048   2.464   8.350 -0.1096 -0.3721  0.2694
 3508SOL    HW121986   4.722   2.433   8.426 -0.0025 -0.0708  0.4644
 3508SOL    HW221987   0.054   2.554   8.382  0.2559  0.3347 -1.8383
 3509SOL     OW21988   0.467   1.458   8.339 -0.5306 -0.2279  0.1614
 3509SOL    HW121989   0.514   1.456   8.422  1.6955 -0.8979 -1.1182
 3509SOL    HW221990   0.384   1.500   8.365 -0.6137 -0.8074  0.8304
 3510SOL     OW21991   0.056   1.642   8.224 -0.0847  0.8540  0.4299
 3510SOL    HW121992   0.060   1.581   8.150  0.4049  0.1116  1.0703
 3510SOL    HW221993   0.079   1.722   8.177 -0.4548  1.4377  1.2443
 3511SOL     OW21994   0.861   3.509   6.384  0.2210 -0.7623 -0.6670
 3511SOL    HW121995   0.789   3.530   6.443  0.2889 -1.9307 -0.1784
 3511SOL    HW221996   0.885   3.599   6.359  3.9650 -2.2831 -2.5310
 3512SOL     OW21997   4.434   1.740   8.257  0.0108  0.1404 -0.1595
 3512SOL    HW121998   4.387   1.810   8.211 -0.8203 -1.2503 -1.4032
 3512SOL    HW221999   4.464   1.796   8.328  2.1048  0.9005 -1.6556
 3513SOL     OW22000   3.061   0.295  15.625 -0.3770  0.6045 -0.4883
 3513SOL    HW122001   3.029   0.216  15.668 -0.7274  1.3391  0.5905
 3513SOL    HW222002   3.105   0.332  15.702  0.7649 -1.6472 -0.0814
 3514SOL     OW22003   2.697   0.685   6.100 -0.7649 -0.3349 -0.4661
 3514SOL    HW122004   2.633   0.650   6.039 -1.6135  1.4481 -0.5898
 3514SOL    HW222005   2.775   0.637   6.072 -0.1000  0.5800 -0.1620
 3515SOL     OW22006   3.751   3.395   1.412  0.5891  0.0805  0.0861
 3515SOL    HW122007   3.747   3.452   1.335  1.9903 -0.9529 -0.7498
 3515SOL    HW222008   3.711   3.443   1.484  0.2843 -1.5414  1.0146
 3516SOL     OW22009   1.996   3.569   1.747 -0.2990  0.5678 -0.2541
 3516SOL    HW122010   2.063   3.615   1.798 -0.8426  1.5706 -0.4305
 3516SOL    HW222011   2.034   3.544   1.663 -1.2017 -0.2922 -0.3970
 3517SOL     OW22012   0.671   3.140  15.117 -0.0887 -0.9120 -0.4094
 3517SOL    HW122013   0.656   3.050  15.090 -1.5723 -0.5784 -0.7225
 3517SOL    HW222014   0.766   3.132  15.115 -0.5040 -4.6608 -4.8546
 3518SOL     OW22015   2.823   3.285   5.687 -0.1796 -0.1256  0.0928
 3518SOL    HW122016   2.830   3.251   5.598 -0.7487 -0.7426  0.2851
 3518SOL    HW222017   2.891   3.352   5.678 -0.7662  0.2184 -1.7495
 3519SOL     OW22018   3.404   4.563   6.712  0.1809  0.0183  0.1203
 3519SOL    HW122019   3.437   4.639   6.760 -1.6591  1.7417 -1.3361
 3519SOL    HW222020   3.428   4.598   6.626  1.6473  0.1469  0.5823
 3520SOL     OW22021   1.118   4.429   2.511 -0.2441  0.2049 -0.1439
 3520SOL    HW122022   1.045   4.384   2.554 -1.1217  1.9058  0.1414
 3520SOL    HW222023   1.119   4.373   2.434 -1.7961  1.3490 -1.0058
 3521SOL     OW22024   1.684   3.015   7.192 -0.9828 -0.5573 -0.0786
 3521SOL    HW122025   1.623   3.082   7.160 -1.0201  0.1586  1.4644
 3521SOL    HW222026   1.768   3.059   7.176  0.0073 -2.4420 -0.0001
 3522SOL     OW22027   2.641   3.352   0.243  0.6311 -0.6813 -0.8265
 3522SOL    HW122028   2.729   3.372   0.275 -0.3653  0.5123  1.1891
 3522SOL    HW222029   2.663   3.299   0.166 -2.1046 -2.3761 -0.4346
 3523SOL     OW22030   2.053   0.518  10.260 -0.5863 -0.1928 -0.3046
 3523SOL    HW122031   2.077   0.432  10.225 -2.3380 -1.1896  0.9965
 3523SOL    HW222032   1.981   0.538  10.200 -0.6494 -1.5658 -0.6724
 3524SOL     OW22033   1.616   2.275   7.183  0.4512  0.3089 -0.7070
 3524SOL    HW122034   1.625   2.203   7.120 -1.4825 -0.0759 -0.5444
 3524SOL    HW222035   1.571   2.338   7.127  0.3591 -1.0844 -2.2014
 3525SOL     OW22036   3.161   3.137   4.217 -0.0440 -0.2961 -0.0769
 3525SOL    HW122037   3.154   3.117   4.311 -0.6265 -5.1165 -1.1725
 3525SOL    HW222038   3.070   3.160   4.200 -0.0566  0.5320  1.0858
 3526SOL     OW22039   1.129   1.610  16.891 -0.3640  0.0272 -0.3247
 3526SOL    HW122040   1.149   1.623  16.798 -2.6578 -0.1469 -0.8380
 3526SOL    HW222041   1.217   1.583  16.917 -0.2459  0.6016 -0.1311
 3527SOL     OW22042   0.896   0.635   7.421  0.3180  0.0204  0.1930
 3527SOL    HW122043   0.865   0.722   7.444 -1.3996 -0.6638  0.4296
 3527SOL    HW222044   0.938   0.610   7.503 -0.3352 -2.7766 -0.3273
 3528SOL     OW22045   2.251   3.774  14.243 -0.4673 -0.1312  0.0012
 3528SOL    HW122046   2.250   3.688  14.285  0.4813 -0.4117 -0.5535
 3528SOL    HW222047   2.341   3.787  14.215 -0.0791 -3.0676 -0.1882
 3529SOL     OW22048   1.172   2.827   8.190  0.1863  0.1831 -0.3284
 3529SOL    HW122049   1.154   2.741   8.228 -1.9539  1.2078  0.9951
 3529SOL    HW222050   1.229   2.858   8.260  1.8923 -0.4243 -1.4351
 3530SOL     OW22051   0.882   2.719   7.637  0.0462  0.0224  0.7041
 3530SOL    HW122052   0.883   2.807   7.600  0.6189 -1.5860 -3.1480
 3530SOL    HW222053   0.792   2.693   7.619  0.7569 -0.4757 -2.1960
 3531SOL     OW22054   4.009   4.289  10.753  0.2035 -0.3256  0.1365
 3531SOL    HW122055   3.991   4.201  10.719  1.0737 -0.0129 -1.1191
 3531SOL    HW222056   3.945   4.339  10.703  0.1230 -2.4632 -1.9042
 3532SOL     OW22057   3.763   4.108   6.252  0.4284  0.3243  0.1109
 3532SOL    HW122058   3.851   4.146   6.247 -0.2149  1.9724  1.3323
 3532SOL    HW222059   3.761   4.050   6.176  1.1345  1.1452 -0.5327
 3533SOL     OW22060   2.414   0.757   0.051 -0.6603 -0.3009 -0.1038
 3533SOL    HW122061   2.475   0.749  17.678 -0.5634  0.2370 -0.0802
 3533SOL    HW222062   2.438   0.679   0.101  0.5428  1.1774  1.6103
 3534SOL     OW22063   3.172   3.522   0.423  0.3836 -0.3869  0.1884
 3534SOL    HW122064   3.173   3.508   0.329 -0.7768 -0.3964  0.1707
 3534SOL    HW222065   3.216   3.443   0.454 -0.9561 -0.8644  0.9191
 3535SOL     OW22066   4.072   2.558   2.926 -0.1207 -0.4105 -0.3408
 3535SOL    HW122067   4.104   2.544   2.836 -0.3254  0.4823 -0.5539
 3535SOL    HW222068   3.978   2.565   2.909 -0.3971  1.4091  1.8654
 3536SOL     OW22069   1.351   0.726   0.693 -0.5606  0.6628  0.1524
 3536SOL    HW122070   1.408   0.725   0.770 -1.8628  0.4649  1.1096
 3536SOL    HW222071   1.344   0.634   0.667 -2.4393  1.5980 -2.6950
 3537SOL     OW22072   4.591   4.694   0.582  0.5758 -0.2349 -0.4251
 3537SOL    HW122073   4.592   4.655   0.495 -1.7054 -0.0639 -0.5309
 3537SOL    HW222074   4.504   0.010   0.585  1.0680  0.7646  0.2703
 3538SOL     OW22075   4.131   1.265   4.937  0.4636  0.0586 -0.7986
 3538SOL    HW122076   4.199   1.257   5.003 -1.0930 -2.3296  0.5038
 3538SOL    HW222077   4.118   1.180   4.895 -1.9046  0.0085  0.0330
 3539SOL     OW22078   0.557   0.229   7.425  0.2310  0.3902  0.3767
 3539SOL    HW122079   0.500   0.222   7.349  1.1026  0.4520 -0.2710
 3539SOL    HW222080   0.550   0.321   7.450 -3.4327  0.4091 -0.7630
 3540SOL     OW22081   2.663   1.923   4.614  0.7165 -0.1830 -0.5504
 3540SOL    HW122082   2.648   1.881   4.530 -0.8297 -1.3123  0.3032
 3540SOL    HW222083   2.684   2.013   4.587  1.2095 -0.3699 -0.7843
 3541SOL     OW22084   2.326   4.568   8.947  0.1301 -0.2927  0.5804
 3541SOL    HW122085   2.285   4.524   8.873  0.7350 -1.7178  1.0824
 3541SOL    HW222086   2.288   4.655   8.934 -0.2980 -0.7008 -0.8217
 3542SOL     OW22087   2.678   4.177   8.805  0.1542  0.4347 -0.3194
 3542SOL    HW122088   2.753   4.121   8.787 -1.0191 -0.8657 -1.2319
 3542SOL    HW222089   2.604   4.140   8.756 -1.7288  0.8637  2.2236
 3543SOL     OW22090   4.074   1.845  16.210 -0.2700  0.2412 -0.3964
 3543SOL    HW122091   4.127   1.788  16.267  0.0469  1.3395  0.3995
 3543SOL    HW222092   4.051   1.920  16.264 -5.1993 -2.0647  0.6820
 3544SOL     OW22093   1.603   0.696   9.237 -0.0653  0.2131 -0.0194
 3544SOL    HW122094   1.546   0.773   9.239  0.5641  0.5840  3.6852
 3544SOL    HW222095   1.604   0.667   9.146 -0.1230  1.6581 -0.4834
 3545SOL     OW22096   2.716   3.279  17.642  0.6488  0.0525  0.4974
 3545SOL    HW122097   2.727   3.272  17.548 -3.3172 -0.9312  0.1089
 3545SOL    HW222098   2.634   3.232  17.657  0.6930  0.1955  1.1910
 3546SOL     OW22099   0.602   0.086   4.788 -0.2442  0.0118 -0.8833
 3546SOL    HW122100   0.508   0.095   4.778 -0.5250 -0.0219  1.6595
 3546SOL    HW222101   0.616   0.008   4.734  0.7197  1.3684 -2.5583
 3547SOL     OW22102   3.080   3.589  14.575 -0.1702  0.2917  0.8226
 3547SOL    HW122103   3.135   3.643  14.631  0.4652 -1.0641  1.5019
 3547SOL    HW222104   2.990   3.607  14.603  0.2840 -1.0262  3.1228
 3548SOL     OW22105   3.902   0.265   3.935  0.2424 -0.3048  0.7228
 3548SOL    HW122106   3.900   0.175   3.902  3.2179  0.9972 -3.0167
 3548SOL    HW222107   3.925   0.241   4.024 -2.5872 -1.2366  1.1870
 3549SOL     OW22108   1.724   1.696   5.757 -0.1533  0.0361  0.4704
 3549SOL    HW122109   1.817   1.712   5.737 -0.1882  0.3395  0.5498
 3549SOL    HW222110   1.693   1.654   5.677 -0.9083  0.2141  0.6678
 3550SOL     OW22111   4.295   1.928   8.145  0.0582  0.2102 -0.3931
 3550SOL    HW122112   4.234   1.871   8.097  0.7023 -0.1396 -0.7990
 3550SOL    HW222113   4.243   2.008   8.137 -0.1737 -0.3578 -4.8000
 3551SOL     OW22114   1.268   0.008   6.975  0.4786 -0.2451  0.1155
 3551SOL    HW122115   1.242   0.037   7.063  1.8996  1.5756 -0.0672
 3551SOL    HW222116   1.363   0.016   6.981  0.2733  2.0469  0.5942
 3552SOL     OW22117   4.711   4.146   8.624  0.4952 -0.3911 -0.1170
 3552SOL    HW122118   4.702   4.158   8.530 -1.2719 -1.7123 -0.1176
 3552SOL    HW222119   4.671   4.060   8.642  2.4015 -1.1459  0.5332
 3553SOL     OW22120   0.063   3.630   7.148 -0.5464  0.1236  0.2209
 3553SOL    HW122121   0.087   3.548   7.190  0.3431 -0.0321 -0.5877
 3553SOL    HW222122   0.010   3.591   7.079  0.7381  1.5079 -1.5726
 3554SOL     OW22123   3.066   4.085  17.118  0.0020 -0.0918  0.2850
 3554SOL    HW122124   3.018   4.078  17.036 -0.1357 -1.9585  0.5385
 3554SOL    HW222125   3.106   4.172  17.119 -1.5656  0.6205  1.4842
 3555SOL     OW22126   4.435   1.732   7.572  0.1666  0.4508  0.1741
 3555SOL    HW122127   4.359   1.690   7.612 -0.4942  0.6324 -0.8999
 3555SOL    HW222128   4.407   1.820   7.547 -2.0612 -0.5274 -0.7958
 3556SOL     OW22129   1.274   3.322  11.160 -0.3671  0.4838  0.2538
 3556SOL    HW122130   1.283   3.242  11.109  1.7982  1.6938 -1.3040
 3556SOL    HW222131   1.364   3.323  11.192  0.1083 -3.5003 -1.0236
 3557SOL     OW22132   2.057   1.289   8.043  0.4129  0.1074 -0.9199
 3557SOL    HW122133   2.121   1.329   8.103  1.6799  0.1455 -2.2932
 3557SOL    HW222134   1.979   1.294   8.098  0.7352  0.1612 -0.4701
 3558SOL     OW22135   0.056   3.556   1.612 -0.1271  0.6871 -0.0987
 3558SOL    HW122136   0.102   3.631   1.575  2.9996 -0.4821  1.4062
 3558SOL    HW222137   0.050   3.498   1.536  3.3787  2.6728 -1.8840
 3559SOL     OW22138   3.192   0.686   4.371  0.3025 -0.0085 -0.2419
 3559SOL    HW122139   3.254   0.650   4.308  0.9243 -1.9804  1.5091
 3559SOL    HW222140   3.250   0.744   4.421 -0.8698 -0.2268  1.3851
 3560SOL     OW22141   4.663   3.505   6.927  1.0145  0.0067  0.4920
 3560SOL    HW122142   4.708   3.421   6.917  0.4297 -0.0915 -1.3081
 3560SOL    HW222143   4.700   3.541   6.847  0.5742  0.7514  0.6209
 3561SOL     OW22144   2.394   2.091   0.321 -0.4933  0.1331 -0.7805
 3561SOL    HW122145   2.453   2.059   0.389  0.2631  0.9312 -1.0666
 3561SOL    HW222146   2.439   2.045   0.250 -1.8246 -2.1688 -0.1688
 3562SOL     OW22147   1.279   3.278   5.925  0.1469 -0.3269 -0.2163
 3562SOL    HW122148   1.267   3.184   5.936  0.3240 -0.1932  1.0764
 3562SOL    HW222149   1.191   3.313   5.938  0.0280 -1.4608  1.9862
 3563SOL     OW22150   1.041   3.814   5.465  1.0193  0.3825 -0.1637
 3563SOL    HW122151   1.089   3.732   5.476 -0.4826 -0.4195  0.4017
 3563SOL    HW222152   1.098   3.859   5.527  0.5485 -0.1256  0.6369
 3564SOL     OW22153   4.116   2.329  10.907 -0.2867  0.3479 -0.8077
 3564SOL    HW122154   4.164   2.403  10.870  0.0092 -0.4037 -1.9324
 3564SOL    HW222155   4.099   2.279  10.828  1.3442 -1.4244 -0.0519
 3565SOL     OW22156   0.501   4.125   0.634  0.1822 -0.3005 -0.2206
 3565SOL    HW122157   0.465   4.202   0.590  2.1082  1.6637  1.6700
 3565SOL    HW222158   0.429   4.061   0.639  0.1561 -0.3776 -1.4645
 3566SOL     OW22159   3.133   0.346  12.672  0.1126 -0.6610  0.0738
 3566SOL    HW122160   3.115   0.253  12.687 -1.2726 -0.7586 -2.2516
 3566SOL    HW222161   3.114   0.371  12.582  0.3771  0.1219  0.2369
 3567SOL     OW22162   0.453   0.837   6.181 -0.1259 -0.4682  0.3474
 3567SOL    HW122163   0.432   0.777   6.110  2.0365 -0.7017 -0.0989
 3567SOL    HW222164   0.428   0.921   6.143  2.1113  0.6870  1.3898
 3568SOL     OW22165   4.079   4.507   7.122 -0.0091  0.1543 -0.2984
 3568SOL    HW122166   4.029   4.490   7.043  1.7044 -1.8397 -0.9273
 3568SOL    HW222167   4.165   4.532   7.087  0.3908 -0.1769  0.4392
 3569SOL     OW22168   2.137   1.823   2.972 -0.0118 -0.4160  0.3586
 3569SOL    HW122169   2.143   1.904   3.022  0.8688  0.9720 -1.9656
 3569SOL    HW222170   2.214   1.781   3.010 -0.5465 -1.1634  0.6339
 3570SOL     OW22171   3.241   1.665   9.619  0.3769 -0.0980 -0.1320
 3570SOL    HW122172   3.336   1.666   9.633 -0.0995 -0.5628  3.1299
 3570SOL    HW222173   3.216   1.748   9.660 -0.9850 -1.4388  1.7322
 3571SOL     OW22174   0.563   2.115  10.524  0.3152 -0.5385  0.4597
 3571SOL    HW122175   0.555   2.173  10.599 -2.0493  2.5752 -2.1752
 3571SOL    HW222176   0.485   2.129  10.471 -0.8134 -0.7911  2.0774
 3572SOL     OW22177   1.701   0.362   6.824  0.2685 -0.0547  0.1387
 3572SOL    HW122178   1.680   0.406   6.907 -0.2733  0.2033 -0.1405
 3572SOL    HW222179   1.788   0.327   6.844  0.7318  1.1542  0.2427
 3573SOL     OW22180   0.807   4.173   8.876 -0.0464 -0.2945  0.5646
 3573SOL    HW122181   0.779   4.150   8.964 -1.9056 -0.1164  0.0085
 3573SOL    HW222182   0.783   4.096   8.825  3.3257 -0.5904 -0.5773
 3574SOL     OW22183   1.962   2.858   2.649  0.0666 -0.2602  0.2281
 3574SOL    HW122184   1.909   2.791   2.606  0.4190 -0.2901 -0.1573
 3574SOL    HW222185   1.996   2.905   2.573  2.5426 -0.1494  1.4275
 3575SOL     OW22186   2.235   2.820   7.465  0.4128  0.0701  0.2244
 3575SOL    HW122187   2.193   2.872   7.397 -0.5187 -0.4595  0.4046
 3575SOL    HW222188   2.162   2.758   7.472  0.5705 -0.1191  0.2093
 3576SOL     OW22189   1.688   2.210   2.681 -0.5567  0.0345 -0.3715
 3576SOL    HW122190   1.634   2.183   2.756 -0.7253 -0.6337 -0.7348
 3576SOL    HW222191   1.721   2.286   2.729 -0.6224 -1.5569  2.2020
 3577SOL     OW22192   0.422   0.143   6.882  0.5440  0.0487 -0.2828
 3577SOL    HW122193   0.511   0.144   6.919  0.0630  0.4025  0.8634
 3577SOL    HW222194   0.375   0.114   6.960  2.4744 -0.1070  0.8427
 3578SOL     OW22195   3.908   2.453   7.190  0.0576  0.1449 -0.0358
 3578SOL    HW122196   3.975   2.420   7.130 -0.0945  0.1677 -0.2139
 3578SOL    HW222197   3.965   2.480   7.263  0.4302 -0.1003 -0.2345
 3579SOL     OW22198   0.628   3.320   2.847 -0.6077 -0.2300 -0.1766
 3579SOL    HW122199   0.571   3.388   2.882 -1.7490 -1.2058 -0.1366
 3579SOL    HW222200   0.593   3.237   2.881 -0.9427  0.5580  1.3832
 3580SOL     OW22201   0.339   2.355   3.756  0.5399  0.2585  0.2223
 3580SOL    HW122202   0.375   2.438   3.724 -1.5152  1.5410  1.2013
 3580SOL    HW222203   0.411   2.329   3.814 -0.7796 -0.9915  1.2730
 3581SOL     OW22204   3.285   4.582   7.003 -0.0195  0.5232  0.6938
 3581SOL    HW122205   3.294   4.580   6.908 -0.0425 -1.4179  0.7259
 3581SOL    HW222206   3.272   4.677   7.008 -2.8536  0.2422 -1.4131
 3582SOL     OW22207   4.521   0.846   6.644  0.1920 -0.4544 -0.5252
 3582SOL    HW122208   4.460   0.773   6.640 -0.0231 -0.3329  0.6421
 3582SOL    HW222209   4.605   0.804   6.663 -0.3267 -1.0757  0.3963
 3583SOL     OW22210   2.107   4.482   8.293  0.1549 -0.3109 -0.2855
 3583SOL    HW122211   2.126   4.490   8.199 -0.3515 -0.7514 -0.4256
 3583SOL    HW222212   2.046   4.408   8.289  0.2200 -0.4459  1.3754
 3584SOL     OW22213   3.436   0.303   6.822  0.0510  0.5473 -0.1493
 3584SOL    HW122214   3.464   0.360   6.894 -1.4029 -0.6289  1.3372
 3584SOL    HW222215   3.510   0.280   6.765 -1.2755  0.4719 -1.8381
 3585SOL     OW22216   3.722   3.650  11.551 -0.3610 -0.3011  0.1542
 3585SOL    HW122217   3.677   3.729  11.581  0.1354 -0.7739  2.1483
 3585SOL    HW222218   3.714   3.648  11.455 -0.3844  2.3555  0.0821
 3586SOL     OW22219   0.746   0.656   3.900  0.1737  0.1153  0.1404
 3586SOL    HW122220   0.687   0.592   3.859 -0.8059  0.3942  1.1254
 3586SOL    HW222221   0.682   0.708   3.949 -1.1494 -1.3528 -0.0271
 3587SOL     OW22222   0.100   3.495   1.294 -0.0272  0.3862 -0.3290
 3587SOL    HW122223   0.008   3.487   1.266  0.0812 -2.6132  0.1812
 3587SOL    HW222224   0.132   3.406   1.279 -0.9704 -0.0738  0.3945
 3588SOL     OW22225   4.343   3.527   2.986  0.4250 -0.0988 -0.0567
 3588SOL    HW122226   4.299   3.602   3.026  0.7357 -0.9700  1.9425
 3588SOL    HW222227   4.371   3.485   3.067 -1.8387 -1.5307 -0.0224
 3589SOL     OW22228   2.739   0.856   3.779  0.5405  0.2674  0.5276
 3589SOL    HW122229   2.707   0.946   3.784  1.8831  0.8062 -0.5187
 3589SOL    HW222230   2.825   0.887   3.750 -0.1433  2.0623  0.3991
 3590SOL     OW22231   3.691   0.318   6.677  0.1391 -0.0521  0.3501
 3590SOL    HW122232   3.723   0.373   6.748 -1.2993 -3.1279  3.3532
 3590SOL    HW222233   3.648   0.382   6.620  1.4424 -0.4637 -1.1137
 3591SOL     OW22234   3.778   1.262   0.207 -0.6239  0.2489 -0.6270
 3591SOL    HW122235   3.809   1.337   0.156 -1.8321  1.8330  1.0003
 3591SOL    HW222236   3.766   1.307   0.290  1.4351 -0.8136  0.2382
 3592SOL     OW22237   2.070   2.128   4.199  0.1866  0.4325 -0.5759
 3592SOL    HW122238   2.062   2.200   4.262 -3.4550  0.8687 -1.5053
 3592SOL    HW222239   2.075   2.182   4.120 -0.0802  3.1608  1.2556
 3593SOL     OW22240   4.374   4.632  11.089 -0.1713  0.9743  0.2396
 3593SOL    HW122241   4.319   4.678  11.153 -1.3724 -0.1033 -0.0026
 3593SOL    HW222242   4.399   4.704  11.031 -1.0760  2.6387  1.9144
 3594SOL     OW22243   0.212   0.367  12.751  1.0688 -0.7078  0.1038
 3594SOL    HW122244   0.171   0.352  12.836  0.2491 -0.0560 -0.1785
 3594SOL    HW222245   0.299   0.396  12.777 -0.4960  3.4980  0.6529
 3595SOL     OW22246   3.094   4.085   6.753 -0.1254  0.4774  0.2988
 3595SOL    HW122247   3.111   4.179   6.760  1.3817  0.0603  2.5329
 3595SOL    HW222248   3.061   4.063   6.840 -0.4169 -0.1572  0.0267
 3596SOL     OW22249   4.612   0.858  12.584 -0.2902 -0.5614  0.6786
 3596SOL    HW122250   4.642   0.911  12.509  3.0343 -0.9706  1.7341
 3596SOL    HW222251   4.518   0.875  12.578 -0.0367 -0.0736 -2.1259
 3597SOL     OW22252   2.561   3.590  13.325  0.1565  0.0559 -0.2941
 3597SOL    HW122253   2.534   3.680  13.310 -0.0808 -0.2134 -1.4587
 3597SOL    HW222254   2.639   3.585  13.270 -0.9635 -3.3786 -1.5641
 3598SOL     OW22255   1.143   3.999   0.541  0.1622 -0.0460  0.5173
 3598SOL    HW122256   1.142   3.910   0.576 -1.6372  0.1690  1.0292
 3598SOL    HW222257   1.058   3.990   0.497 -0.1200 -1.2162  1.2908
 3599SOL     OW22258   3.857   3.626  13.610  0.3116  0.3930  0.0046
 3599SOL    HW122259   3.911   3.614  13.687  0.8296 -0.0803 -0.4369
 3599SOL    HW222260   3.781   3.578  13.644 -0.0332  1.6704  1.0530
 3600SOL     OW22261   1.772   2.373   2.881 -0.0673 -0.1945  1.3566
 3600SOL    HW122262   1.808   2.451   2.922  1.0789 -0.2892  0.5021
 3600SOL    HW222263   1.713   2.347   2.952 -1.9546  0.4335  0.0280
 3601SOL     OW22264   4.448   4.637  15.066 -0.3841  0.0624 -0.6071
 3601SOL    HW122265   4.373   4.608  15.014 -0.2243  0.0156 -0.8114
 3601SOL    HW222266   4.527   4.609  15.021  0.3202  0.0227  0.6699
 3602SOL     OW22267   1.319   1.744   7.718 -0.3837 -0.0521  0.7298
 3602SOL    HW122268   1.406   1.781   7.730 -0.3009 -0.3351  0.9946
 3602SOL    HW222269   1.335   1.652   7.737  0.9141  0.5778  2.6718
 3603SOL     OW22270   2.094   3.640  15.452 -0.2754 -0.5270 -0.3920
 3603SOL    HW122271   2.171   3.629  15.397 -1.3136  0.5978 -2.0915
 3603SOL    HW222272   2.029   3.584  15.410 -0.4254 -2.1888  2.0590
 3604SOL     OW22273   2.455   4.373   9.890  0.5721  0.2251  0.0532
 3604SOL    HW122274   2.443   4.344   9.799 -2.8370 -1.3090  0.9978
 3604SOL    HW222275   2.380   4.322   9.918  0.9932 -0.9171 -0.9012
 3605SOL     OW22276   0.030   1.945   2.510  0.8279  0.6105 -0.6687
 3605SOL    HW122277   0.035   2.026   2.459  2.5785 -0.2157 -1.7928
 3605SOL    HW222278   0.009   1.976   2.598  1.6467  1.6213 -0.8378
 3606SOL     OW22279   1.268   0.898   4.853 -0.3581 -0.2829 -0.2794
 3606SOL    HW122280   1.351   0.932   4.888 -2.0270  2.7370  0.7073
 3606SOL    HW222281   1.267   0.959   4.779  2.7235  0.6572  0.4447
 3607SOL     OW22282   4.420   4.273   1.045 -0.3457  0.0546  0.3740
 3607SOL    HW122283   4.331   4.307   1.055 -1.1755 -1.9075 -0.3929
 3607SOL    HW222284   4.468   4.341   1.093 -0.0004 -0.0059  0.1139
 3608SOL     OW22285   0.974   4.395   8.598 -0.2277 -0.5079 -0.4100
 3608SOL    HW122286   0.940   4.389   8.509 -0.9245  0.6108 -0.2177
 3608SOL    HW222287   0.905   4.435   8.651  0.7274  0.9799 -0.2979
 3609SOL     OW22288   3.184   2.716   7.771  0.2732  0.3388 -0.2469
 3609SOL    HW122289   3.220   2.688   7.855 -0.0514  1.5703  0.2987
 3609SOL    HW222290   3.091   2.695   7.779  0.0141  1.3961 -0.4985
 3610SOL     OW22291   4.465   3.485   3.227  0.6118 -0.0284  0.0766
 3610SOL    HW122292   4.527   3.485   3.300 -0.2753 -0.7044  0.8297
 3610SOL    HW222293   4.382   3.471   3.271  0.7788  0.2235  0.4705
 3611SOL     OW22294   1.351   4.517   4.100 -0.1673  0.2561  0.6880
 3611SOL    HW122295   1.269   4.548   4.063 -0.6451 -2.8464 -0.9239
 3611SOL    HW222296   1.410   4.544   4.029 -0.2160  0.4019  0.7042
 3612SOL     OW22297   0.928   2.079   8.662 -0.3244 -0.5729 -0.1689
 3612SOL    HW122298   1.000   2.017   8.672 -1.2329 -1.8684 -1.7021
 3612SOL    HW222299   0.878   2.029   8.597  1.1475  0.1142 -1.8149
 3613SOL     OW22300   2.130   1.993   8.571  0.2036  0.4096 -0.1483
 3613SOL    HW122301   2.139   2.088   8.578  0.2103  0.2301  2.1424
 3613SOL    HW222302   2.186   1.981   8.495  2.3785 -0.1655  1.5468
 3614SOL     OW22303   4.673   3.837   5.246  0.1397 -0.6541  0.1412
 3614SOL    HW122304   4.702   3.846   5.155  0.1630 -1.4591  0.0702
 3614SOL    HW222305   0.029   3.848   5.298  1.7740 -0.5440 -2.4216
 3615SOL     OW22306   0.737   2.141   4.315 -0.9413  0.5068  0.5661
 3615SOL    HW122307   0.745   2.221   4.263 -0.1404  1.1496  1.6857
 3615SOL    HW222308   0.722   2.181   4.400 -0.9667  1.1500  0.2615
 3616SOL     OW22309   1.115   4.596   2.968  0.2152 -0.4305  0.5892
 3616SOL    HW122310   1.102   4.691   2.967 -2.1288 -0.7578  1.0432
 3616SOL    HW222311   1.029   4.562   2.945  0.3892 -1.3337  1.2712
 3617SOL     OW22312   1.977   0.596  13.925  0.1163 -0.2927 -0.2189
 3617SOL    HW122313   2.017   0.630  14.005 -1.3594 -1.0064  0.8167
 3617SOL    HW222314   2.002   0.670  13.869  2.1506 -0.9494 -0.1644
 3618SOL     OW22315   2.189   0.171   9.255  0.7945  0.3387  0.6371
 3618SOL    HW122316   2.271   0.121   9.263  0.8893  0.5147  0.7461
 3618SOL    HW222317   2.139   0.099   9.215 -0.3113  0.5710  1.6103
 3619SOL     OW22318   1.514   2.741   3.116  0.0025 -0.0350 -0.1675
 3619SOL    HW122319   1.587   2.790   3.078 -0.0119 -0.4200 -0.6899
 3619SOL    HW222320   1.448   2.810   3.129  0.6642  0.2192  1.8613
 3620SOL     OW22321   0.805   0.107   3.572 -0.0009  0.6046 -0.2319
 3620SOL    HW122322   0.732   0.120   3.512 -0.4516  1.4002  0.4876
 3620SOL    HW222323   0.850   0.191   3.571 -0.0122  0.6089 -0.3697
 3621SOL     OW22324   0.036   2.572   1.077  0.3664  0.2235  0.2488
 3621SOL    HW122325   0.085   2.612   1.149 -0.1546 -0.9275  1.2329
 3621SOL    HW222326   4.670   2.596   1.097  0.4560 -2.3431  3.8152
 3622SOL     OW22327   4.381   0.201   3.175  0.3285 -0.2843  0.0782
 3622SOL    HW122328   4.362   0.250   3.095 -1.0131  2.2328  1.9559
 3622SOL    HW222329   4.333   0.251   3.240  1.3148 -0.0916  0.6594
 3623SOL     OW22330   2.371   4.203  15.409  0.2562  0.8631 -0.2682
 3623SOL    HW122331   2.304   4.145  15.444  1.5934 -0.9418 -0.7366
 3623SOL    HW222332   2.352   4.274  15.470 -2.6451  0.2560 -0.4645
 3624SOL     OW22333   0.119   4.016  10.084 -0.3486 -0.6370 -0.5835
 3624SOL    HW122334   0.122   3.967  10.166  1.7922  0.8721  0.2280
 3624SOL    HW222335   0.049   3.968  10.039 -0.5403 -1.6739  0.8216
 3625SOL     OW22336   2.023   1.730   5.786  0.1317 -0.1814  0.4076
 3625SOL    HW122337   2.073   1.812   5.782 -2.1310  1.1868  0.6481
 3625SOL    HW222338   2.005   1.730   5.880 -0.5598 -0.2053  0.2748
 3626SOL     OW22339   2.362   3.445   7.482  0.5458 -0.1524 -0.2500
 3626SOL    HW122340   2.360   3.350   7.478  1.1828 -0.0870 -2.5218
 3626SOL    HW222341   2.292   3.481   7.427  0.3908  0.5915  0.4280
 3627SOL     OW22342   1.242   0.343   8.778 -0.3743 -0.1878  0.6009
 3627SOL    HW122343   1.194   0.343   8.695 -1.4971 -0.2766  1.2514
 3627SOL    HW222344   1.172   0.374   8.835 -0.5411 -1.0899  0.8826
 3628SOL     OW22345   2.641   2.399  14.111  0.8192  0.0020 -0.3802
 3628SOL    HW122346   2.622   2.368  14.200 -0.1132  2.5481  0.2974
 3628SOL    HW222347   2.579   2.351  14.058 -1.6096  0.9569  1.6024
 3629SOL     OW22348   3.666   3.815   1.433 -0.2530 -0.5165  0.1113
 3629SOL    HW122349   3.687   3.852   1.519  1.7961 -3.2438  0.7735
 3629SOL    HW222350   3.746   3.766   1.415  0.2975 -0.0710  1.3341
 3630SOL     OW22351   0.274   2.218  10.435 -0.4467 -0.0693 -0.1835
 3630SOL    HW122352   0.227   2.292  10.471  0.8671  0.7469 -0.1416
 3630SOL    HW222353   0.210   2.147  10.430  0.7579 -1.1840  0.1279
 3631SOL     OW22354   3.541   1.247   8.751  0.8775  0.1588  0.0092
 3631SOL    HW122355   3.447   1.231   8.758  0.1550  3.1728 -2.8192
 3631SOL    HW222356   3.563   1.293   8.671 -1.9077  1.6552  0.0792
 3632SOL     OW22357   3.938   4.147  12.135  0.7016  0.0186  0.0225
 3632SOL    HW122358   3.868   4.212  12.133  1.6549  0.9830 -2.3379
 3632SOL    HW222359   4.012   4.208  12.142 -0.8863  1.7030  2.3310
 3633SOL     OW22360   1.180   1.474  17.276 -0.1032  0.0107 -0.0929
 3633SOL    HW122361   1.126   1.537  17.228  1.2562  1.8920  0.8875
 3633SOL    HW222362   1.120   1.400  17.286 -0.4700 -0.2539 -3.9651
 3634SOL     OW22363   1.294   0.570  12.437 -0.3393 -0.4239 -0.2284
 3634SOL    HW122364   1.359   0.626  12.481  2.2918 -2.4665 -1.4810
 3634SOL    HW222365   1.334   0.492  12.473  0.3413 -0.6948 -1.5535
 3635SOL     OW22366   0.293   3.397   5.225 -0.0514  0.3909  0.2543
 3635SOL    HW122367   0.376   3.444   5.220  0.1340  0.0973  0.5605
 3635SOL    HW222368   0.294   3.337   5.151  0.3781 -1.1602  1.5184
 3636SOL     OW22369   0.041   1.529   5.006 -0.8026 -0.0247  0.6322
 3636SOL    HW122370   0.108   1.487   5.060  0.5478  0.1878 -0.8847
 3636SOL    HW222371   4.708   1.452   5.002  1.5838 -1.6875 -1.6578
 3637SOL     OW22372   1.733   2.219   6.747  0.0562 -0.0325  0.3642
 3637SOL    HW122373   1.674   2.169   6.803 -1.9391  1.3712 -0.4249
 3637SOL    HW222374   1.675   2.283   6.704 -0.6936  1.4070  3.4790
 3638SOL     OW22375   1.839   0.442   7.890  0.2363  0.1173  0.2269
 3638SOL    HW122376   1.840   0.536   7.871 -1.2431  0.2794  0.9806
 3638SOL    HW222377   1.758   0.403   7.856  1.3531  0.6724 -3.0779
 3639SOL     OW22378   0.140   3.145   9.789 -0.2793  0.3801 -0.2511
 3639SOL    HW122379   0.104   3.070   9.835  2.0594  0.9345  2.4628
 3639SOL    HW222380   0.159   3.203   9.862 -1.1478 -0.2535  0.4627
 3640SOL     OW22381   2.332   4.431   5.604 -0.1994 -0.2311 -0.5113
 3640SOL    HW122382   2.274   4.355   5.600 -0.2221 -0.3270  1.2559
 3640SOL    HW222383   2.353   4.405   5.694 -1.1332 -1.3520 -0.6173
 3641SOL     OW22384   2.097   1.656   1.468 -0.5487 -0.0460  0.7496
 3641SOL    HW122385   2.186   1.633   1.443 -0.8123 -1.4620  1.1271
 3641SOL    HW222386   2.072   1.717   1.398  0.3098  0.3808  0.8104
 3642SOL     OW22387   1.303   1.374   3.121  0.2837 -0.6548  0.6273
 3642SOL    HW122388   1.370   1.413   3.065 -0.8375  0.6147  0.1754
 3642SOL    HW222389   1.314   1.281   3.100  1.0259 -0.2934 -0.6161
 3643SOL     OW22390   0.130   3.211   2.422  0.4916  0.6902 -0.5014
 3643SOL    HW122391   0.100   3.253   2.503  0.1352  1.9472 -1.2885
 3643SOL    HW222392   0.081   3.129   2.417  0.1051  0.8776  0.1374
 3644SOL     OW22393   1.223   2.794   5.304 -0.0595 -1.0553 -0.7588
 3644SOL    HW122394   1.161   2.867   5.311  0.4776 -0.6532 -0.2621
 3644SOL    HW222395   1.184   2.748   5.230  0.3078 -0.4834 -1.3130
 3645SOL     OW22396   1.713   1.057   9.109  0.2115 -0.1522 -0.1567
 3645SOL    HW122397   1.720   1.152   9.113 -3.5317  0.0200  1.5215
 3645SOL    HW222398   1.800   1.032   9.142  0.3540 -0.4235 -0.7253
 3646SOL     OW22399   4.662   4.030  14.455 -0.1921 -0.1563  0.4402
 3646SOL    HW122400   4.577   4.022  14.412 -0.4591 -0.8736  1.1028
 3646SOL    HW222401   4.699   4.107  14.411 -1.8623 -0.9393 -2.3254
 3647SOL     OW22402   4.348   1.294   9.016  0.3118  0.0191 -0.2366
 3647SOL    HW122403   4.342   1.337   9.101  1.7618 -1.9899  0.8840
 3647SOL    HW222404   4.438   1.310   8.988  0.4654  2.0046  1.4504
 3648SOL     OW22405   1.419   1.473   8.707 -0.5188 -0.2310  0.2095
 3648SOL    HW122406   1.354   1.405   8.691  0.5369 -1.3283  0.5835
 3648SOL    HW222407   1.480   1.453   8.636 -0.9770 -0.7327 -0.0499
 3649SOL     OW22408   2.607   1.453   5.445 -0.4604 -0.1467 -0.7294
 3649SOL    HW122409   2.597   1.540   5.405  1.5731  0.5491  0.2881
 3649SOL    HW222410   2.605   1.483   5.536  2.4979  0.2527 -0.8101
 3650SOL     OW22411   3.815   3.088  13.033 -0.6775  0.1307 -0.1905
 3650SOL    HW122412   3.836   3.001  13.068 -1.0446 -0.6243 -1.8554
 3650SOL    HW222413   3.803   3.135  13.115  1.3390  0.2608  0.0502
 3651SOL     OW22414   4.599   3.698   2.091 -0.1249  0.8180  0.6685
 3651SOL    HW122415   4.551   3.741   2.020  0.6116  1.1158  0.3421
 3651SOL    HW222416   4.539   3.687   2.164 -0.2770 -2.4527  0.0796
 3652SOL     OW22417   2.738   2.481   6.054 -0.2861 -0.2061  0.1504
 3652SOL    HW122418   2.793   2.408   6.024 -0.4807  1.0368 -3.1912
 3652SOL    HW222419   2.795   2.539   6.104 -0.2646 -0.9037  0.9391
 3653SOL     OW22420   4.266   4.272   8.530 -0.1782  0.3210  0.2074
 3653SOL    HW122421   4.336   4.266   8.594  0.5285  0.3007 -0.5669
 3653SOL    HW222422   4.234   4.182   8.535 -1.1710  0.5960 -1.0014
 3654SOL     OW22423   3.887   3.832  15.380 -0.1534 -0.7910 -0.5298
 3654SOL    HW122424   3.875   3.888  15.304  1.5491 -0.5719 -0.6488
 3654SOL    HW222425   3.880   3.750  15.331  0.3131 -1.0397 -0.1788
 3655SOL     OW22426   2.760   3.588   2.613 -0.3843 -0.0640  0.3069
 3655SOL    HW122427   2.739   3.495   2.606 -1.1878  0.2635 -1.6302
 3655SOL    HW222428   2.712   3.632   2.543 -1.5294 -0.2801  0.9667
 3656SOL     OW22429   2.506   1.867   7.990  0.6164 -0.0376  0.3172
 3656SOL    HW122430   2.482   1.794   8.047  0.3397 -0.0690  0.1581
 3656SOL    HW222431   2.596   1.879   8.019  0.3843  0.1803  0.9357
 3657SOL     OW22432   3.631   1.230   6.963 -0.8076 -0.4367  0.0824
 3657SOL    HW122433   3.692   1.303   6.977 -0.1016 -1.1052  0.4812
 3657SOL    HW222434   3.579   1.220   7.043  0.2725  0.3444  0.8860
 3658SOL     OW22435   2.305   4.290  14.107  0.4964 -0.0455  0.4642
 3658SOL    HW122436   2.386   4.338  14.091  2.4649 -3.2680  0.9424
 3658SOL    HW222437   2.329   4.234  14.181 -1.2570  0.8604  1.7402
 3659SOL     OW22438   0.934   1.846   9.088 -0.1022  0.2515 -0.4085
 3659SOL    HW122439   0.862   1.866   9.148  0.0801  0.8569 -0.3939
 3659SOL    HW222440   0.955   1.937   9.069 -0.0076  0.2915 -0.1151
 3660SOL     OW22441   1.425   2.195   2.334  0.2237  0.3008  0.5748
 3660SOL    HW122442   1.474   2.122   2.296 -2.0547 -0.9228  0.0389
 3660SOL    HW222443   1.338   2.191   2.296 -0.3420 -0.2832  1.9307
 3661SOL     OW22444   2.284   2.718   5.948  0.4576 -0.7172  0.4570
 3661SOL    HW122445   2.211   2.691   6.004 -2.8269  3.2936 -1.9449
 3661SOL    HW222446   2.277   2.649   5.882 -1.8671  0.2235 -0.2510
 3662SOL     OW22447   3.844   4.093   3.603  0.9029  0.2888  0.1493
 3662SOL    HW122448   3.876   4.180   3.580 -0.8111  0.8641 -0.0026
 3662SOL    HW222449   3.870   4.090   3.695  2.5703 -0.1945 -0.3312
 3663SOL     OW22450   0.899   1.723  11.871 -0.2925 -0.5557  0.2827
 3663SOL    HW122451   0.977   1.763  11.909 -0.4670  0.9692 -0.9817
 3663SOL    HW222452   0.904   1.628  11.884  1.6120 -0.6035 -0.7692
 3664SOL     OW22453   1.852   4.135   7.772  0.3743  0.0152 -0.2476
 3664SOL    HW122454   1.758   4.120   7.773  0.1534  1.4654 -0.2008
 3664SOL    HW222455   1.884   4.127   7.682 -0.3737 -1.5491 -0.3876
 3665SOL     OW22456   4.315   4.674   6.132 -0.2659 -0.2100  0.0650
 3665SOL    HW122457   4.286   0.003   6.058  1.1343  1.1200  0.4781
 3665SOL    HW222458   4.356   4.609   6.075 -1.4830 -0.4286 -0.5718
 3666SOL     OW22459   2.144   4.624   5.566  0.0752  0.1860 -0.4852
 3666SOL    HW122460   2.213   4.563   5.538 -0.0571  0.2069 -0.8554
 3666SOL    HW222461   2.156   4.602   5.659 -0.1426  0.6298 -0.3545
 3667SOL     OW22462   2.377   1.072   7.476  0.2076  0.0319  0.0919
 3667SOL    HW122463   2.310   1.117   7.425  2.9167  2.3791 -1.3819
 3667SOL    HW222464   2.377   0.989   7.428 -0.7735  0.1082 -0.0299
 3668SOL     OW22465   4.274   3.033   8.350  0.3861 -0.2687  0.2373
 3668SOL    HW122466   4.285   3.012   8.442  1.2539 -1.5327 -0.1530
 3668SOL    HW222467   4.216   2.961   8.322 -0.1330  0.2546 -0.0398
 3669SOL     OW22468   3.621   2.833  10.809 -0.3546  0.3619 -0.2189
 3669SOL    HW122469   3.649   2.881  10.887  1.8492  0.6683 -1.2176
 3669SOL    HW222470   3.597   2.748  10.846 -0.1334  1.9265  3.4775
 3670SOL     OW22471   0.926   4.387   9.944 -0.0099 -0.0764  0.0593
 3670SOL    HW122472   0.849   4.351   9.989  1.1214 -3.5649 -0.7859
 3670SOL    HW222473   0.981   4.433  10.007  1.1824 -2.2920  0.6223
 3671SOL     OW22474   4.496   4.570   6.520 -0.2500  0.0862  0.0132
 3671SOL    HW122475   4.505   4.636   6.452 -2.8531 -1.0029 -1.3605
 3671SOL    HW222476   4.511   4.488   6.473  0.2959  0.0548  0.2393
 3672SOL     OW22477   0.852   1.043   8.431 -0.0614 -0.1172 -0.1614
 3672SOL    HW122478   0.867   1.017   8.340  0.6348 -4.8244  1.3045
 3672SOL    HW222479   0.896   0.974   8.481  1.5130 -0.3162 -1.8228
 3673SOL     OW22480   1.141   4.698  10.647  0.0124 -0.3767 -0.2520
 3673SOL    HW122481   1.229   0.006  10.630  0.0203 -0.4038 -0.2622
 3673SOL    HW222482   1.156   4.605  10.634 -2.2913 -0.7334 -0.3089
 3674SOL     OW22483   2.483   2.909   0.058  0.1664  0.3404  0.6001
 3674SOL    HW122484   2.503   2.893   0.150  1.0320 -1.7067  0.0709
 3674SOL    HW222485   2.495   2.830   0.004 -0.6300  0.3978  0.3339
 3675SOL     OW22486   4.391   2.727   8.602  0.7447  0.2257  0.5167
 3675SOL    HW122487   4.314   2.771   8.565 -0.1765 -0.2314  1.9216
 3675SOL    HW222488   4.458   2.744   8.536  1.9931  0.3310  1.8297
 3676SOL     OW22489   1.740   4.046   0.788 -0.2537  0.0516 -0.6411
 3676SOL    HW122490   1.766   3.990   0.714 -0.6920 -1.6069  0.4745
 3676SOL    HW222491   1.685   4.111   0.742 -1.7962 -0.2045  0.8432
 3677SOL     OW22492   1.433   0.040   5.924 -0.5250  0.0064  0.5333
 3677SOL    HW122493   1.394   0.126   5.907  1.5856  0.8632 -0.0347
 3677SOL    HW222494   1.358   4.723   5.882 -0.0192  1.6261 -2.0035
 3678SOL     OW22495   0.125   1.981   5.095 -0.0745  0.3256 -0.1919
 3678SOL    HW122496   0.063   1.918   5.058  0.2216  1.5766 -2.8592
 3678SOL    HW222497   0.130   1.958   5.188  2.8749  2.9037  0.2822
 3679SOL     OW22498   0.702   2.507   5.612  0.1559  0.2123  0.5513
 3679SOL    HW122499   0.701   2.529   5.705 -0.8325  3.2707 -0.1988
 3679SOL    HW222500   0.658   2.422   5.613  1.1752 -0.3078  0.7937
 3680SOL     OW22501   0.549   4.200   0.986 -0.2463  0.2561 -0.8601
 3680SOL    HW122502   0.497   4.254   0.926  0.0472  1.6819  0.1480
 3680SOL    HW222503   0.601   4.265   1.033 -0.1548 -1.6564  1.6559
 3681SOL     OW22504   3.147   0.414  13.184 -0.3244 -0.3561  0.9339
 3681SOL    HW122505   3.057   0.422  13.154  0.1305  0.2477 -0.2487
 3681SOL    HW222506   3.173   0.505  13.168 -2.6145  0.0532 -0.4590
 3682SOL     OW22507   0.377   2.847   9.826 -0.2447 -0.3297  0.2385
 3682SOL    HW122508   0.448   2.788   9.853  0.3367  0.1019 -0.3311
 3682SOL    HW222509   0.357   2.891   9.908 -0.8856  0.6781 -0.4586
 3683SOL     OW22510   1.168   2.719   6.169 -0.5865  0.4378 -0.1229
 3683SOL    HW122511   1.152   2.708   6.076 -0.2715  3.7597 -0.5618
 3683SOL    HW222512   1.107   2.791   6.188 -0.5734  0.3497  0.2602
 3684SOL     OW22513   2.812   2.983   3.698 -0.2968  0.4741 -0.0525
 3684SOL    HW122514   2.786   3.075   3.696 -1.3101  0.2209  1.4422
 3684SOL    HW222515   2.858   2.970   3.615 -1.2709 -1.1099 -0.3400
 3685SOL     OW22516   1.778   2.093   9.058 -0.2078 -1.3041 -0.2925
 3685SOL    HW122517   1.820   2.010   9.034 -0.1610 -1.5743  0.7186
 3685SOL    HW222518   1.791   2.087   9.153 -1.7965  1.0540  0.0780
 3686SOL     OW22519   3.592   3.359   4.068  0.2760 -0.1431  0.0179
 3686SOL    HW122520   3.502   3.380   4.045  0.3925 -0.2159 -0.5010
 3686SOL    HW222521   3.581   3.269   4.101  1.2285 -0.6192 -0.9555
 3687SOL     OW22522   3.610   1.825  17.125  0.5737 -0.3508 -0.1807
 3687SOL    HW122523   3.540   1.771  17.163 -0.5711  0.8906 -0.5250
 3687SOL    HW222524   3.551   1.878  17.072  0.1406 -1.6727 -1.0291
 3688SOL     OW22525   2.199   2.423   5.904  0.3825 -0.0570  0.1756
 3688SOL    HW122526   2.135   2.354   5.924 -0.1182 -0.1624 -1.7194
 3688SOL    HW222527   2.267   2.377   5.952  0.4741  1.1904  1.2542
 3689SOL     OW22528   0.131   0.796   2.337  0.2648 -0.7921 -0.1780
 3689SOL    HW122529   0.084   0.713   2.328  0.2589 -1.0687  2.5398
 3689SOL    HW222530   0.180   0.772   2.415  2.0919 -0.0689 -1.1030
 3690SOL     OW22531   2.247   1.384   5.572 -0.4289 -0.0479 -0.0147
 3690SOL    HW122532   2.286   1.467   5.598  0.7085 -0.7081  0.3750
 3690SOL    HW222533   2.324   1.336   5.540 -1.0617 -1.5782  0.7402
 3691SOL     OW22534   2.669   0.925   4.883 -0.4232 -0.1330 -0.0116
 3691SOL    HW122535   2.574   0.922   4.885 -0.4234  0.1111  0.3471
 3691SOL    HW222536   2.686   0.831   4.887  1.0016  0.2003  1.6235
 3692SOL     OW22537   0.440   1.230   4.145  0.6903  0.1275 -0.5985
 3692SOL    HW122538   0.376   1.159   4.138  1.4760 -0.7299  0.7768
 3692SOL    HW222539   0.441   1.241   4.050 -0.2911  2.3951 -0.3273
 3693SOL     OW22540   1.678   4.531   9.083  0.3995  0.0145  0.0353
 3693SOL    HW122541   1.646   4.442   9.069  0.9157 -0.0621 -0.6263
 3693SOL    HW222542   1.700   4.535   9.176 -1.0515  2.3635  0.2871
 3694SOL     OW22543   0.623   2.120   1.597  0.4095 -0.5311  0.2827
 3694SOL    HW122544   0.552   2.150   1.540  1.9811  2.3054 -0.1414
 3694SOL    HW222545   0.665   2.201   1.627  2.3472 -0.3503 -2.9764
 3695SOL     OW22546   1.257   4.164   3.850 -0.0121 -0.0486  0.2767
 3695SOL    HW122547   1.292   4.224   3.784 -3.4976  1.1475 -0.4405
 3695SOL    HW222548   1.257   4.082   3.800  1.6070 -0.3295  0.7316
 3696SOL     OW22549   2.393   3.051  11.344  0.1196  0.0637  0.0590
 3696SOL    HW122550   2.468   3.093  11.302  1.1150 -1.9038 -0.1368
 3696SOL    HW222551   2.419   2.959  11.340 -1.0268 -0.1407 -2.4841
 3697SOL     OW22552   3.514   0.803   7.489 -0.3797  0.1703 -0.0306
 3697SOL    HW122553   3.514   0.720   7.442  1.6377  0.9794 -1.4302
 3697SOL    HW222554   3.421   0.825   7.493 -0.2332  0.6619  0.8562
 3698SOL     OW22555   2.641   2.446  13.609 -0.3837  0.4086 -0.1647
 3698SOL    HW122556   2.546   2.457  13.607 -0.4068  0.2820  0.6016
 3698SOL    HW222557   2.672   2.505  13.677  2.5508 -1.2861 -0.0652
 3699SOL     OW22558   0.499   0.527   1.063 -0.2650 -0.4754 -0.3829
 3699SOL    HW122559   0.580   0.573   1.043 -0.5011  0.4981  0.9156
 3699SOL    HW222560   0.446   0.554   0.988  0.5980  1.9287 -0.1375
 3700SOL     OW22561   1.874   1.795   9.056  0.7225 -0.1309 -0.2555
 3700SOL    HW122562   1.918   1.711   9.066  0.6629 -0.0390  0.8179
 3700SOL    HW222563   1.847   1.802   9.148  3.3644 -1.7890  0.6386
 3701SOL     OW22564   2.928   0.418   6.248  0.7434 -0.4375 -0.2455
 3701SOL    HW122565   2.918   0.476   6.172 -0.8918  1.6382  1.5790
 3701SOL    HW222566   2.934   0.480   6.320  0.3274 -0.4196 -0.2307
 3702SOL     OW22567   3.172   4.720  17.579 -0.1198 -0.9054 -0.0167
 3702SOL    HW122568   3.185   0.089  17.560  1.2697 -1.5132 -2.0300
 3702SOL    HW222569   3.206   4.708  17.668 -2.4241 -0.9903  0.8540
 3703SOL     OW22570   2.491   0.967   6.932 -0.4215 -0.5482 -0.3456
 3703SOL    HW122571   2.520   1.057   6.947 -1.7950  0.1393 -1.8106
 3703SOL    HW222572   2.538   0.928   7.005  1.4854  0.5515 -0.9798
 3704SOL     OW22573   3.266   0.971   6.749  0.1368  0.7964 -0.5284
 3704SOL    HW122574   3.322   0.908   6.705  0.5396  1.4877 -0.9912
 3704SOL    HW222575   3.281   1.053   6.702 -1.5499  0.0535 -2.3408
 3705SOL     OW22576   3.805   0.431   8.113  0.1106  0.6074 -0.1255
 3705SOL    HW122577   3.718   0.472   8.116 -0.6332 -0.9310 -0.5846
 3705SOL    HW222578   3.849   0.516   8.113 -0.4018  0.8735  0.5853
 3706SOL     OW22579   3.536   3.754  14.700  0.3056  0.4821  0.4333
 3706SOL    HW122580   3.549   3.835  14.748 -0.8027  0.4818  0.7356
 3706SOL    HW222581   3.606   3.698  14.735 -2.1312 -2.2918  0.8775
 3707SOL     OW22582   0.538   2.681   8.625 -0.2923  0.0554 -0.5530
 3707SOL    HW122583   0.488   2.621   8.569 -1.4389  0.1947  0.3222
 3707SOL    HW222584   0.577   2.613   8.681 -0.9830  2.3620  2.7613
 3708SOL     OW22585   2.567   1.460   2.668  0.2665  0.0172  0.1626
 3708SOL    HW122586   2.517   1.497   2.595 -0.0495 -0.4835  0.1246
 3708SOL    HW222587   2.544   1.367   2.663  1.6455 -0.3759  1.2949
 3709SOL     OW22588   0.614   4.697   6.706  0.6305  0.1806 -0.0240
 3709SOL    HW122589   0.533   4.689   6.655 -0.9609  3.9073  1.8519
 3709SOL    HW222590   0.579   4.659   6.787  1.4566  0.7745  0.6045
 3710SOL     OW22591   4.250   1.411   3.730 -0.3672 -0.1335 -0.2207
 3710SOL    HW122592   4.320   1.388   3.669 -0.2394 -3.5898  1.1999
 3710SOL    HW222593   4.285   1.497   3.754 -0.0911 -0.4959  0.6701
 3711SOL     OW22594   2.883   3.549   8.487 -0.0772  0.2883 -0.0226
 3711SOL    HW122595   2.929   3.628   8.459 -0.2327  1.0122  1.7655
 3711SOL    HW222596   2.857   3.563   8.578 -0.9036  4.1500 -0.8531
 3712SOL     OW22597   0.077   2.102   5.958 -0.5056 -0.3964  0.0241
 3712SOL    HW122598   4.719   2.054   5.962  0.9630 -2.6627  3.0190
 3712SOL    HW222599   0.044   2.191   5.945 -0.3963 -0.6601 -2.0014
 3713SOL     OW22600   3.388   0.778  14.258 -0.3988  0.2168  0.8018
 3713SOL    HW122601   3.455   0.803  14.321  1.0754 -1.4489 -0.1222
 3713SOL    HW222602   3.428   0.815  14.180  1.1395 -0.6720  1.1831
 3714SOL     OW22603   3.803   2.609   9.382 -0.0321  0.0400 -0.3173
 3714SOL    HW122604   3.885   2.569   9.412 -0.5947 -1.2181 -0.4434
 3714SOL    HW222605   3.748   2.604   9.460  0.5650 -0.9715  0.0342
 3715SOL     OW22606   3.930   1.739  12.830  0.3544 -0.1010  0.2007
 3715SOL    HW122607   3.976   1.687  12.896 -3.1974 -1.0047  1.9902
 3715SOL    HW222608   3.965   1.824  12.859  0.8607  0.0489 -0.8655
 3716SOL     OW22609   1.823   3.585  13.365  0.2495 -0.6664  0.0177
 3716SOL    HW122610   1.885   3.529  13.413  1.2573 -0.3393 -0.9084
 3716SOL    HW222611   1.739   3.540  13.373 -1.1598  2.2690  1.6724
 3717SOL     OW22612   3.548   2.106   8.103 -0.2179 -0.6072  0.4434
 3717SOL    HW122613   3.530   2.118   8.196 -2.4200 -0.2788 -0.0249
 3717SOL    HW222614   3.525   2.192   8.069  1.4410  0.6689  2.5738
 3718SOL     OW22615   4.117   2.554  13.325 -0.2811  0.8757 -0.3372
 3718SOL    HW122616   4.024   2.534  13.314 -0.4511  2.5222 -1.8715
 3718SOL    HW222617   4.144   2.596  13.244 -0.0349  1.5093  0.0706
 3719SOL     OW22618   0.572   3.544  16.698  0.1654 -0.3563 -0.3802
 3719SOL    HW122619   0.647   3.503  16.741 -1.4106 -0.7708  1.9531
 3719SOL    HW222620   0.589   3.551  16.604 -0.0463 -1.6370 -0.5023
 3720SOL     OW22621   4.244   1.888   4.907 -0.1382  0.7794  0.2474
 3720SOL    HW122622   4.283   1.884   4.820  1.4164  1.0017  0.9406
 3720SOL    HW222623   4.212   1.978   4.910 -0.1512  0.8355 -1.9649
 3721SOL     OW22624   3.698   0.534   6.260 -0.7204  0.1171  0.8273
 3721SOL    HW122625   3.784   0.576   6.257 -0.4639 -0.3418  1.6176
 3721SOL    HW222626   3.717   0.457   6.206 -4.8221 -0.5613  0.4030
 3722SOL     OW22627   1.491   0.756  12.485 -0.2844 -0.0350  0.8951
 3722SOL    HW122628   1.445   0.815  12.425  1.9262 -0.5807 -1.3243
 3722SOL    HW222629   1.577   0.793  12.468  0.1406 -0.7169  1.5570
 3723SOL     OW22630   3.424   3.750   1.482 -0.5099 -0.0884 -0.1640
 3723SOL    HW122631   3.439   3.666   1.439 -0.6777  0.1427 -0.6792
 3723SOL    HW222632   3.508   3.790   1.460 -0.7308  0.5874  0.2027
 3724SOL     OW22633   3.719   1.787   7.853 -0.4231  0.4151  0.4000
 3724SOL    HW122634   3.647   1.742   7.809 -0.2442  0.4890  0.0293
 3724SOL    HW222635   3.761   1.714   7.899  0.0353 -0.3369 -1.2358
 3725SOL     OW22636   0.031   1.836   9.844  0.0014 -0.5469 -0.2555
 3725SOL    HW122637   0.013   1.928   9.860  1.4080 -0.4275  0.6133
 3725SOL    HW222638   4.675   1.792   9.874  0.5628 -1.6520 -0.3711
 3726SOL     OW22639   3.467   4.582  12.901  0.3322 -0.0530  0.4894
 3726SOL    HW122640   3.525   4.508  12.918  0.9523  0.5025  0.7732
 3726SOL    HW222641   3.432   4.592  12.989 -0.3887  0.3839  0.1633
 3727SOL     OW22642   1.797   0.011  14.047  0.4777  0.2009 -0.4434
 3727SOL    HW122643   1.829   4.679  14.118  0.1379  1.8329  1.0246
 3727SOL    HW222644   1.801   0.096  14.091 -0.6072  0.5118 -0.9392
 3728SOL     OW22645   2.485   2.178   6.715 -0.0329  0.1562 -0.1084
 3728SOL    HW122646   2.521   2.260   6.683 -1.5457  0.5107 -0.9379
 3728SOL    HW222647   2.486   2.115   6.643  0.9106  0.3735 -0.2793
 3729SOL     OW22648   0.152   3.392   8.855  0.3452 -0.1709 -0.6884
 3729SOL    HW122649   0.071   3.342   8.854  0.7411 -0.7539 -4.2008
 3729SOL    HW222650   0.166   3.420   8.765 -0.4300 -1.2192 -1.1271
 3730SOL     OW22651   3.700   3.618   3.994 -0.2793 -0.0033  0.0564
 3730SOL    HW122652   3.694   3.639   3.900 -1.1145 -2.2588 -0.3920
 3730SOL    HW222653   3.681   3.524   3.995 -0.9472  0.1304 -0.0156
 3731SOL     OW22654   4.392   0.347   2.493 -0.1729  0.1144 -0.1917
 3731SOL    HW122655   4.474   0.300   2.473  1.6592  2.1623  2.5362
 3731SOL    HW222656   4.340   0.326   2.415 -0.0626 -1.2551  0.0975
 3732SOL     OW22657   4.105   1.476  10.896  0.4911 -0.1018 -0.1798
 3732SOL    HW122658   4.106   1.486  10.991 -1.2984 -0.5825 -0.1134
 3732SOL    HW222659   4.143   1.389  10.903 -0.6118 -0.6459 -0.9542
 3733SOL     OW22660   4.444   4.533   8.262  0.4459 -0.1243  0.1796
 3733SOL    HW122661   4.521   4.539   8.205  0.6185 -0.8886  0.3377
 3733SOL    HW222662   4.381   4.482   8.211  0.0966 -0.8204  1.3070
 3734SOL     OW22663   4.407   4.423   4.966  0.2114 -0.4386 -0.5626
 3734SOL    HW122664   4.334   4.435   4.905  0.0794  0.2575 -0.2731
 3734SOL    HW222665   4.447   4.510   4.969 -1.6416  0.2986  3.1617
 3735SOL     OW22666   4.646   2.348   6.018  0.3435  0.1951  0.0958
 3735SOL    HW122667   4.562   2.338   6.064 -1.0796  1.0956 -2.2868
 3735SOL    HW222668   4.616   2.365   5.929 -0.7270  1.0396  0.6157
 3736SOL     OW22669   0.131   0.847   9.395 -0.0456  0.2103  0.0800
 3736SOL    HW122670   0.221   0.876   9.411 -0.3406  1.3256 -0.2706
 3736SOL    HW222671   0.081   0.875   9.472  0.6861  1.0878  0.2389
 3737SOL     OW22672   1.514   0.768   6.815  0.7241  0.2140 -0.0176
 3737SOL    HW122673   1.425   0.803   6.808  1.6115  2.0806 -2.0105
 3737SOL    HW222674   1.502   0.674   6.805 -4.7372  0.9581 -0.7623
 3738SOL     OW22675   1.177   2.026   6.628 -0.1579  0.0642  0.2204
 3738SOL    HW122676   1.259   2.065   6.601  0.7543 -2.5416 -0.8218
 3738SOL    HW222677   1.125   2.103   6.604 -0.2088  0.4339  1.5031
 3739SOL     OW22678   3.123   4.687   0.210 -0.9912 -0.0747 -0.1557
 3739SOL    HW122679   3.029   4.668   0.207 -1.3457  1.6468 -0.0298
 3739SOL    HW222680   3.139   4.679   0.304 -2.3041  2.7944  0.3172
 3740SOL     OW22681   4.093   0.086  12.892 -0.6320 -0.6773  0.1308
 3740SOL    HW122682   4.019   0.082  12.831 -0.9047 -2.8082  0.6102
 3740SOL    HW222683   4.164   0.064  12.831  0.1181  0.5813  0.5562
 3741SOL     OW22684   0.429   2.418   3.400 -0.1199 -0.4156  0.1872
 3741SOL    HW122685   0.435   2.491   3.338  5.3619 -0.9662  0.1288
 3741SOL    HW222686   0.401   2.472   3.474 -2.3664 -0.1317 -0.8708
 3742SOL     OW22687   3.062   2.675   8.038 -0.5487  0.4319  0.5708
 3742SOL    HW122688   3.081   2.658   8.130  1.6348  0.8215  0.1801
 3742SOL    HW222689   3.071   2.770   8.030 -2.9293  0.4141 -2.2833
 3743SOL     OW22690   2.752   1.551   9.146  0.3051  0.0844 -0.5855
 3743SOL    HW122691   2.790   1.559   9.234  0.1769 -0.2141 -0.5009
 3743SOL    HW222692   2.675   1.494   9.155  1.2855 -1.6466 -3.3601
 3744SOL     OW22693   1.035   3.512   8.931  0.2743  0.0075 -0.3328
 3744SOL    HW122694   1.066   3.439   8.878  4.1258  0.6353  0.9844
 3744SOL    HW222695   0.947   3.491   8.961  0.7149 -1.6790 -0.2408
 3745SOL     OW22696   0.472   1.201  15.704 -0.6359 -0.0951  0.0383
 3745SOL    HW122697   0.464   1.240  15.791 -0.9765 -0.4445  0.1649
 3745SOL    HW222698   0.436   1.270  15.648 -0.0754  0.4807  0.3868
 3746SOL     OW22699   0.543   1.510   9.526  0.9406 -0.5300 -0.4024
 3746SOL    HW122700   0.504   1.563   9.456 -1.5148 -2.3148 -0.3971
 3746SOL    HW222701   0.490   1.542   9.599  2.9453  0.7039  0.4991
 3747SOL     OW22702   0.893   4.191   0.455  0.1692  0.2664  0.2211
 3747SOL    HW122703   0.871   4.123   0.391  3.2535  0.0882 -0.6168
 3747SOL    HW222704   0.842   4.260   0.411 -1.6328 -0.4736  1.1514
 3748SOL     OW22705   1.871   0.073   3.097 -0.0082  0.1635  0.3614
 3748SOL    HW122706   1.877   0.055   3.003 -2.0769 -0.3352  0.3095
 3748SOL    HW222707   1.902   4.717   3.138 -1.3579  0.6271  2.2837
 3749SOL     OW22708   3.289   3.281   3.699  0.0688 -0.2355 -0.0563
 3749SOL    HW122709   3.249   3.315   3.780 -1.6008 -3.3925  0.4388
 3749SOL    HW222710   3.279   3.361   3.648  0.3722 -0.0697  0.1452
 3750SOL     OW22711   3.652   1.382   2.275  0.5584 -0.5965 -0.0551
 3750SOL    HW122712   3.647   1.363   2.182  0.8602 -1.0891  0.0330
 3750SOL    HW222713   3.599   1.308   2.304 -2.1969  1.4370  0.1331
 3751SOL     OW22714   0.512   2.251   6.698  0.2455 -0.1355 -0.0515
 3751SOL    HW122715   0.520   2.185   6.629 -2.4518  0.7780 -1.2241
 3751SOL    HW222716   0.573   2.224   6.766 -2.1961  1.9093  2.9538
 3752SOL     OW22717   1.074   3.022   3.376 -0.4954  0.0854 -0.4650
 3752SOL    HW122718   1.126   3.034   3.454  0.6963 -1.9975 -0.9281
 3752SOL    HW222719   1.123   3.081   3.318 -0.0065 -0.9773 -1.1403
 3753SOL     OW22720   1.721   4.162   5.067 -0.1691  0.1305  0.2657
 3753SOL    HW122721   1.724   4.086   5.009 -0.2353  1.4583 -1.4763
 3753SOL    HW222722   1.773   4.219   5.010  3.7523  0.0500  3.7450
 3754SOL     OW22723   1.622   0.381  13.179  0.3770 -0.3577 -0.0113
 3754SOL    HW122724   1.568   0.341  13.111 -1.4498  0.9807  0.6467
 3754SOL    HW222725   1.711   0.390  13.145  0.8361 -0.3524  1.1745
 3755SOL     OW22726   0.953   1.373  16.765 -0.0257  0.4067 -0.6656
 3755SOL    HW122727   0.956   1.279  16.786 -1.8635  0.0221 -2.0745
 3755SOL    HW222728   1.028   1.390  16.708  1.6878 -0.9112  1.1987
 3756SOL     OW22729   1.266   3.724   3.781  0.4945 -0.3922 -0.0795
 3756SOL    HW122730   1.290   3.701   3.691 -0.0611 -1.7290  0.1184
 3756SOL    HW222731   1.350   3.762   3.808  0.4678 -0.0839 -0.4275
 3757SOL     OW22732   2.750   1.295   2.228  0.6125 -0.0483  0.6361
 3757SOL    HW122733   2.827   1.350   2.244 -1.2784  2.7816 -0.2261
 3757SOL    HW222734   2.757   1.271   2.136  0.3371  3.2755 -0.2171
 3758SOL     OW22735   0.248   4.632   5.235  0.2170  0.1641  0.2857
 3758SOL    HW122736   0.300   4.551   5.233 -1.0046 -0.6861  2.8891
 3758SOL    HW222737   0.306   4.705   5.255  0.9455 -0.0527 -1.0228
 3759SOL     OW22738   0.365   1.705   7.690 -0.4154  0.0571 -0.0621
 3759SOL    HW122739   0.335   1.617   7.665 -2.6495  1.0547 -0.8514
 3759SOL    HW222740   0.304   1.722   7.763  1.9687  0.1560  1.9007
 3760SOL     OW22741   2.894   1.010   2.493  0.0784  0.1235 -0.0753
 3760SOL    HW122742   2.946   0.952   2.549 -0.7484  0.9247  1.5157
 3760SOL    HW222743   2.830   0.955   2.447  0.4959 -0.4892  0.0682
 3761SOL     OW22744   2.260   1.924   8.328  0.3264  0.8050  0.4916
 3761SOL    HW122745   2.263   1.829   8.320  3.1807  0.8989  0.4874
 3761SOL    HW222746   2.224   1.952   8.243  0.1560  1.2027  0.6967
 3762SOL     OW22747   1.967   4.491  13.730  0.2546  0.4560 -0.0848
 3762SOL    HW122748   1.956   4.462  13.640 -0.7657  0.7628 -0.0626
 3762SOL    HW222749   2.056   4.528  13.727 -0.2465  1.4855 -2.5226
 3763SOL     OW22750   4.129   3.256  17.423  0.4203 -0.0424 -0.2703
 3763SOL    HW122751   4.174   3.192  17.477 -0.7960 -0.1479  0.6208
 3763SOL    HW222752   4.149   3.222  17.336 -0.6507 -0.4056 -0.3744
 3764SOL     OW22753   2.971   1.612   4.922 -0.1461  0.1847  0.5173
 3764SOL    HW122754   3.061   1.640   4.941 -0.7432  0.4274  2.8933
 3764SOL    HW222755   2.931   1.641   5.003 -0.4572 -0.1504  0.4788
 3765SOL     OW22756   1.318   2.613  14.313  0.4500 -0.4887  0.0802
 3765SOL    HW122757   1.392   2.583  14.366 -2.0372 -0.8795  3.3672
 3765SOL    HW222758   1.336   2.707  14.314 -1.1978 -0.1751 -0.4139
 3766SOL     OW22759   1.136   1.472   6.851  0.5639 -0.2934 -0.3509
 3766SOL    HW122760   1.219   1.518   6.860 -1.2088  3.4732 -2.6689
 3766SOL    HW222761   1.123   1.431   6.936  1.1462  0.3943  0.0669
 3767SOL     OW22762   4.012   4.444   4.601 -0.0795  0.0220  0.2751
 3767SOL    HW122763   3.986   4.404   4.683 -0.0152  0.0045  0.2867
 3767SOL    HW222764   4.011   4.538   4.620  1.2088  0.7806 -3.3335
 3768SOL     OW22765   1.277   1.842   3.267  0.6225 -1.0087  0.2306
 3768SOL    HW122766   1.301   1.832   3.359  1.5513  0.0546  0.0957
 3768SOL    HW222767   1.336   1.789   3.213 -1.6485 -0.2378 -3.0440
 3769SOL     OW22768   0.649   3.220   1.061  0.0439  0.7874 -0.5008
 3769SOL    HW122769   0.612   3.170   1.134 -1.4903 -2.0908 -3.2248
 3769SOL    HW222770   0.643   3.161   0.985 -1.7681  0.8018 -0.3862
 3770SOL     OW22771   0.640   2.117   8.487  0.0733 -0.2972  0.1332
 3770SOL    HW122772   0.601   2.043   8.533  1.8287 -2.6298 -2.1359
 3770SOL    HW222773   0.623   2.190   8.547  0.3254 -1.6421  1.8413
 3771SOL     OW22774   4.373   0.228  11.021 -0.6675  0.3925  0.3014
 3771SOL    HW122775   4.403   0.222  11.112  1.2039  1.1357 -0.2930
 3771SOL    HW222776   4.412   0.313  11.004 -2.0157  0.6656 -1.3775
 3772SOL     OW22777   1.567   4.286   6.007 -0.3505 -0.1963  0.4069
 3772SOL    HW122778   1.570   4.329   5.921 -0.0689 -1.6075 -0.2797
 3772SOL    HW222779   1.484   4.310   6.047 -0.2137  0.9985  0.0070
 3773SOL     OW22780   4.404   0.402   6.784  0.3832 -0.6285  0.1911
 3773SOL    HW122781   4.487   0.407   6.830  0.1232  0.8282  0.5191
 3773SOL    HW222782   4.435   0.372   6.699 -0.5858 -4.1759  1.0936
 3774SOL     OW22783   0.394   4.056   6.497 -0.7876  0.2119  0.2971
 3774SOL    HW122784   0.343   4.105   6.433  1.3777  2.7453  0.5027
 3774SOL    HW222785   0.479   4.100   6.492 -1.0931  0.6956 -0.5446
 3775SOL     OW22786   2.323   2.031   6.879 -0.5466  0.3649 -0.0562
 3775SOL    HW122787   2.279   1.980   6.812  1.4756 -0.8514 -0.4654
 3775SOL    HW222788   2.395   2.075   6.833 -0.3525 -1.4903 -1.5175
 3776SOL     OW22789   1.266   2.347   7.719 -0.2847 -0.5937  0.0941
 3776SOL    HW122790   1.173   2.328   7.735 -0.1120 -1.5873 -0.0688
 3776SOL    HW222791   1.273   2.435   7.755  0.5910  0.1194 -1.8239
 3777SOL     OW22792   1.647   4.439   8.068  0.2262 -0.0617  0.4764
 3777SOL    HW122793   1.653   4.534   8.073  1.3292 -0.1486  0.8144
 3777SOL    HW222794   1.603   4.411   7.989  0.9739 -1.7658  0.6645
 3778SOL     OW22795   3.557   1.209   5.232 -0.1393 -0.2336  0.3448
 3778SOL    HW122796   3.503   1.270   5.182 -0.8267  0.7799  2.2999
 3778SOL    HW222797   3.640   1.256   5.229 -0.5046  0.4911  1.3097
 3779SOL     OW22798   3.996   2.153  13.329 -0.1146 -0.0622 -0.6142
 3779SOL    HW122799   3.906   2.186  13.329  0.1228  0.6013 -1.4412
 3779SOL    HW222800   3.979   2.061  13.350  0.8675  0.4682  2.4043
 3780SOL     OW22801   4.060   3.017   9.150 -0.5139  0.3734  0.1354
 3780SOL    HW122802   4.108   2.951   9.201 -0.4178 -1.0470 -1.7761
 3780SOL    HW222803   4.042   3.075   9.224  0.0953  1.7785 -0.8247
 3781SOL     OW22804   0.095   0.253   8.280 -0.5045 -0.1553 -0.0898
 3781SOL    HW122805   0.166   0.190   8.269 -1.4315 -1.3722  0.8927
 3781SOL    HW222806   0.131   0.311   8.346 -0.7928  0.2009 -0.2446
 3782SOL     OW22807   3.774   3.784   3.398 -0.0966 -0.3326 -0.0610
 3782SOL    HW122808   3.831   3.859   3.413 -0.8427  0.7282 -2.5581
 3782SOL    HW222809   3.721   3.817   3.325  0.6199 -0.1970 -0.5235
 3783SOL     OW22810   3.457   4.633   6.442  0.3935  0.7591  0.7551
 3783SOL    HW122811   3.394   4.690   6.396 -1.7181 -2.6119 -0.5132
 3783SOL    HW222812   3.446   4.551   6.395 -1.4577  1.4447 -0.0089
 3784SOL     OW22813   3.911   4.487   5.281  1.0717  0.3954 -0.5491
 3784SOL    HW122814   3.974   4.467   5.212  0.1171  1.0649 -1.6230
 3784SOL    HW222815   3.856   4.556   5.244 -2.2111 -1.6599  0.4015
 3785SOL     OW22816   3.454   0.939   5.992  0.2770  0.6930 -0.2068
 3785SOL    HW122817   3.390   0.959   5.924  0.7958 -1.8793 -1.4321
 3785SOL    HW222818   3.492   0.858   5.958 -1.4381  0.3033 -1.1918
 3786SOL     OW22819   3.114   2.227   8.301  0.1349 -0.1335 -0.2067
 3786SOL    HW122820   3.103   2.134   8.317  1.3004 -0.3420 -0.6272
 3786SOL    HW222821   3.122   2.267   8.387 -1.0135 -2.6745  1.0870
 3787SOL     OW22822   3.956   2.902   6.389 -0.2813 -0.5093 -0.1573
 3787SOL    HW122823   4.014   2.918   6.463  0.4055 -2.5778 -0.2364
 3787SOL    HW222824   3.896   2.977   6.383 -0.6201 -0.7426  0.2635
 3788SOL     OW22825   3.853   2.249   7.852  0.4026  0.3390 -0.5688
 3788SOL    HW122826   3.835   2.317   7.917 -0.7057 -0.5829  0.0965
 3788SOL    HW222827   3.854   2.170   7.906 -1.6435  0.8434  0.1840
 3789SOL     OW22828   4.259   0.254  13.031 -0.0433 -0.2286 -0.4752
 3789SOL    HW122829   4.217   0.234  13.115 -0.5306  0.4144 -0.5630
 3789SOL    HW222830   4.211   0.215  12.959 -0.1677 -1.2858  0.1826
 3790SOL     OW22831   1.210   0.563   6.967 -0.3696 -0.2870  0.0435
 3790SOL    HW122832   1.186   0.549   7.059  0.7624 -0.9946  0.2357
 3790SOL    HW222833   1.210   0.655   6.941  0.2872 -0.2709  0.0884
 3791SOL     OW22834   2.570   2.926   1.948  0.0167  0.1133  0.8220
 3791SOL    HW122835   2.545   2.947   2.038 -1.4327 -0.5163  0.5615
 3791SOL    HW222836   2.606   2.839   1.961 -1.4681 -0.8294 -1.3698
 3792SOL     OW22837   4.273   2.623   3.527  0.6906 -0.0578 -0.0640
 3792SOL    HW122838   4.191   2.620   3.478 -0.2091 -0.0341  1.4478
 3792SOL    HW222839   4.255   2.711   3.559  2.8163  0.4959 -0.3913
 3793SOL     OW22840   3.364   0.808  10.598  0.0022 -0.2048 -0.0059
 3793SOL    HW122841   3.454   0.803  10.631 -0.0579 -1.7248 -0.0745
 3793SOL    HW222842   3.368   0.736  10.535  0.5307  0.5879 -0.8899
 3794SOL     OW22843   1.788   2.704   1.784  0.9976  0.6312 -0.5369
 3794SOL    HW122844   1.829   2.641   1.843  0.7210  0.6226 -0.3542
 3794SOL    HW222845   1.745   2.653   1.716  2.8551  1.5139 -2.3684
 3795SOL     OW22846   4.530   1.593  13.015  0.0510  0.2867 -0.3060
 3795SOL    HW122847   4.528   1.530  12.943 -2.6142 -0.3277  0.2992
 3795SOL    HW222848   4.615   1.568  13.049  0.0071  1.0134  0.3412
 3796SOL     OW22849   0.044   3.920   0.669  0.0724  0.3814  0.1059
 3796SOL    HW122850   0.039   3.865   0.746 -1.1072  0.0383 -0.2233
 3796SOL    HW222851   4.694   3.888   0.619  0.9910 -0.6923 -0.5901
 3797SOL     OW22852   1.448   1.426   2.698 -0.2143 -0.0405 -0.0458
 3797SOL    HW122853   1.402   1.414   2.615  1.4323 -3.6528 -0.4444
 3797SOL    HW222854   1.483   1.514   2.686 -1.8096  0.3275 -1.9077
 3798SOL     OW22855   3.316   3.914   3.255  0.7600 -0.4179 -0.2919
 3798SOL    HW122856   3.258   3.871   3.192 -1.6173 -2.0808  3.0649
 3798SOL    HW222857   3.300   3.866   3.336 -0.2056  1.4878  0.6497
 3799SOL     OW22858   2.912   1.082   4.166  0.0949 -0.2015  0.7060
 3799SOL    HW122859   2.879   1.172   4.164 -0.0382 -0.2812 -0.7002
 3799SOL    HW222860   2.975   1.090   4.094 -2.8260 -2.0413 -2.0578
 3800SOL     OW22861   1.622   1.146   2.969 -0.2597 -0.1105 -0.0963
 3800SOL    HW122862   1.654   1.084   2.904  0.7541  2.2418 -1.8453
 3800SOL    HW222863   1.529   1.155   2.947 -0.1318 -0.3146 -0.7051
 3801SOL     OW22864   2.830   0.423  12.355  0.9868  0.8646  0.1326
 3801SOL    HW122865   2.822   0.496  12.416 -1.4884 -0.0261  0.8741
 3801SOL    HW222866   2.833   0.345  12.410  1.7619  1.1130  0.4353
 3802SOL     OW22867   2.447   4.008   0.570 -0.3319  0.1441  0.5091
 3802SOL    HW122868   2.435   4.089   0.620  0.6590  1.0783 -0.7518
 3802SOL    HW222869   2.533   4.025   0.533 -0.4812  1.4058  0.7311
 3803SOL     OW22870   1.085   2.554   7.298  0.1434 -0.2658 -0.2582
 3803SOL    HW122871   1.120   2.540   7.386  0.6673  1.0301 -0.2669
 3803SOL    HW222872   0.991   2.564   7.316 -0.5219 -1.7870 -2.9056
 3804SOL     OW22873   1.723   4.603   6.246 -0.3519  0.0722 -0.1449
 3804SOL    HW122874   1.789   4.657   6.289 -1.1038  0.2645  0.7701
 3804SOL    HW222875   1.661   4.670   6.218 -2.0274 -1.3752  0.1189
 3805SOL     OW22876   1.311   1.634   4.650  0.6266 -0.0860 -0.5060
 3805SOL    HW122877   1.294   1.708   4.592 -0.1153 -0.1982 -0.4397
 3805SOL    HW222878   1.222   1.616   4.681  0.6816 -0.5428 -0.6165
 3806SOL     OW22879   1.250   3.264   7.424 -0.2006 -0.2483  1.3800
 3806SOL    HW122880   1.289   3.316   7.354  0.1037 -0.3537  1.4725
 3806SOL    HW222881   1.181   3.216   7.377  0.4178  1.3467 -1.1647
 3807SOL     OW22882   1.243   4.558   6.740  0.7748  0.1241 -0.3049
 3807SOL    HW122883   1.266   4.643   6.777  0.0124 -1.1224  3.0425
 3807SOL    HW222884   1.307   4.567   6.670  1.9631  2.2815  1.0413
 3808SOL     OW22885   0.908   1.856   7.495 -0.3363 -0.4680 -0.4159
 3808SOL    HW122886   0.856   1.788   7.452 -1.2809  0.3566 -0.5519
 3808SOL    HW222887   0.931   1.810   7.576 -0.8870 -0.3942 -0.2213
 3809SOL     OW22888   0.920   2.124   9.064  0.2699  0.5255  0.2540
 3809SOL    HW122889   0.984   2.191   9.038 -0.1666  0.9469  0.2579
 3809SOL    HW222890   0.874   2.108   8.981  1.2610 -1.9802  0.2019
 3810SOL     OW22891   1.489   2.457   2.320  0.7199 -0.2268  0.6582
 3810SOL    HW122892   1.417   2.497   2.368 -0.0331 -1.1439  0.3181
 3810SOL    HW222893   1.459   2.367   2.332 -0.5971  0.1441  0.1215
 3811SOL     OW22894   4.723   4.055   1.038  0.3804  0.0998  0.4855
 3811SOL    HW122895   4.711   4.012   1.123 -0.9638 -1.8255 -0.6909
 3811SOL    HW222896   4.646   4.022   0.991  0.9553 -2.7576  1.5772
 3812SOL     OW22897   1.791   0.528  10.868 -0.2608 -0.0701 -0.2541
 3812SOL    HW122898   1.801   0.491  10.781  0.5205 -2.2546  0.7660
 3812SOL    HW222899   1.717   0.588  10.857 -0.4064 -0.2788 -0.4061
 3813SOL     OW22900   1.258   1.682  11.399  0.0478 -0.1877 -0.2370
 3813SOL    HW122901   1.305   1.759  11.432 -0.8024  0.6800 -1.0665
 3813SOL    HW222902   1.170   1.716  11.412 -0.1863 -1.2045  0.7837
 3814SOL     OW22903   2.799   2.285   1.739 -0.1968 -0.4003 -0.0380
 3814SOL    HW122904   2.793   2.196   1.703  1.4328 -0.6995  0.4136
 3814SOL    HW222905   2.710   2.311   1.761 -0.7151 -3.1122  1.1090
 3815SOL     OW22906   2.672   1.162   2.447 -0.0466  0.0412 -0.2095
 3815SOL    HW122907   2.753   1.123   2.478 -0.5174 -0.4170  0.4292
 3815SOL    HW222908   2.708   1.215   2.375 -1.7453 -0.6243 -1.5577
 3816SOL     OW22909   2.022   2.444   2.168  0.1300 -0.0935 -0.6229
 3816SOL    HW122910   2.099   2.499   2.180 -0.1135  0.0783  0.1649
 3816SOL    HW222911   2.008   2.391   2.247  0.6032 -0.4349 -0.7677
 3817SOL     OW22912   3.414   3.354  10.547  0.9155  0.7516 -0.0213
 3817SOL    HW122913   3.403   3.263  10.518 -0.0950  0.3208  1.6846
 3817SOL    HW222914   3.507   3.368  10.531  0.5841 -1.1551 -3.6751
 3818SOL     OW22915   2.639   3.666   4.987 -0.3858  0.2567  0.2096
 3818SOL    HW122916   2.658   3.704   5.073 -0.0743  0.3013  0.1206
 3818SOL    HW222917   2.545   3.654   4.995 -0.6628  0.4172 -2.8355
 3819SOL     OW22918   0.908   1.080  16.833 -0.1356 -0.6250  0.0735
 3819SOL    HW122919   0.907   0.990  16.865 -0.9574 -0.6526 -0.0271
 3819SOL    HW222920   0.880   1.123  16.914 -0.8311 -1.8307  0.4678
 3820SOL     OW22921   2.321   3.486   9.249 -0.3733 -0.1990  0.1463
 3820SOL    HW122922   2.248   3.517   9.301 -0.6910  0.6995 -0.8233
 3820SOL    HW222923   2.389   3.487   9.316 -1.7162  0.9284  1.4598
 3821SOL     OW22924   1.051   2.152   1.521 -0.0431  0.3889 -0.3352
 3821SOL    HW122925   1.049   2.210   1.598 -0.4667  0.0181 -0.0692
 3821SOL    HW222926   1.002   2.080   1.561 -1.5123 -0.1961 -3.2336
 3822SOL     OW22927   0.266   1.456   7.650  0.2095 -0.0003 -0.2663
 3822SOL    HW122928   0.296   1.374   7.612 -0.8592  0.9634 -3.1113
 3822SOL    HW222929   0.173   1.449   7.632  0.2332 -2.5506  0.6380
 3823SOL     OW22930   3.541   0.465   7.050 -0.0735  0.2895 -0.4459
 3823SOL    HW122931   3.615   0.417   7.087 -0.9165  0.0282  0.8746
 3823SOL    HW222932   3.580   0.542   7.008  0.2952  0.2547 -0.1589
 3824SOL     OW22933   3.391   0.380   3.259 -0.1969  0.1425  0.1082
 3824SOL    HW122934   3.301   0.369   3.291 -0.8497 -0.7887 -1.9521
 3824SOL    HW222935   3.385   0.446   3.190  2.3969 -1.2304 -1.4161
 3825SOL     OW22936   1.585   2.193  13.816 -0.1657  0.5887 -0.1735
 3825SOL    HW122937   1.656   2.161  13.872 -0.7922  0.6049  0.6212
 3825SOL    HW222938   1.552   2.272  13.858 -1.5379 -1.7368  3.0411
 3826SOL     OW22939   3.776   3.761   4.355  0.1681 -0.0834  0.1802
 3826SOL    HW122940   3.823   3.681   4.381  2.8084  0.2316 -3.6081
 3826SOL    HW222941   3.821   3.780   4.273 -0.8638  1.1103 -0.0966
 3827SOL     OW22942   2.650   0.645   7.432 -0.1583  0.6705 -0.1511
 3827SOL    HW122943   2.710   0.662   7.359  1.7262 -0.3834  1.1441
 3827SOL    HW222944   2.598   0.577   7.388  2.2144 -1.8991  0.9920
 3828SOL     OW22945   4.604   4.531   5.627 -0.0468  0.2659 -0.0876
 3828SOL    HW122946   4.553   4.611   5.636  2.3932  1.8029  0.1079
 3828SOL    HW222947   4.661   4.554   5.554  0.0343 -0.6261 -0.3102
 3829SOL     OW22948   4.407   1.665   9.458  0.4556  0.0760  0.0868
 3829SOL    HW122949   4.330   1.695   9.506 -0.0334 -0.6834 -0.2275
 3829SOL    HW222950   4.460   1.745   9.450  0.2220  0.2306  0.0936
 3830SOL     OW22951   0.656   0.279   5.603  0.6348 -0.0416  0.1402
 3830SOL    HW122952   0.572   0.236   5.587  0.6926 -1.0271  2.3973
 3830SOL    HW222953   0.728   0.237   5.557  0.8267 -0.7635  1.1073
 3831SOL     OW22954   1.048   4.448  17.085  0.0531  0.1063 -0.0806
 3831SOL    HW122955   1.127   4.503  17.083 -2.0746  3.1251 -1.2395
 3831SOL    HW222956   1.034   4.447  16.991 -0.8383  0.2883  0.0532
 3832SOL     OW22957   0.475   2.980   1.555  0.0387  0.5380  0.2596
 3832SOL    HW122958   0.429   2.999   1.473  0.1312  3.0590  0.7706
 3832SOL    HW222959   0.442   3.054   1.606  0.9678  1.7905 -0.9386
 3833SOL     OW22960   4.151   0.993   7.575  0.6039  0.4033  0.4881
 3833SOL    HW122961   4.106   1.043   7.507 -0.7840 -0.8581  0.4687
 3833SOL    HW222962   4.103   0.910   7.575  4.2989 -1.7021 -0.1267
 3834SOL     OW22963   0.419   1.204   8.176  0.5483 -0.0160 -0.3294
 3834SOL    HW122964   0.467   1.279   8.210 -1.5505  2.1473 -2.1025
 3834SOL    HW222965   0.360   1.175   8.246  1.0066 -1.2396 -0.4551
 3835SOL     OW22966   0.236   3.633  11.970  0.9789 -0.5427 -0.5338
 3835SOL    HW122967   0.224   3.693  11.897 -1.9168  0.3326  0.6795
 3835SOL    HW222968   0.259   3.697  12.037  0.4474 -0.6914 -0.2075
 3836SOL     OW22969   0.308   3.324  10.211 -0.2963 -0.5379  0.5364
 3836SOL    HW122970   0.281   3.310  10.120  0.8040 -2.4079  0.4998
 3836SOL    HW222971   0.377   3.260  10.227 -0.1168 -0.9136 -1.6932
 3837SOL     OW22972   4.640   2.342   9.343 -0.6756  0.1586 -0.2664
 3837SOL    HW122973   4.694   2.416   9.313  1.7334 -1.5776 -0.2081
 3837SOL    HW222974   4.689   2.322   9.423 -1.1408 -0.3953 -0.1270
 3838SOL     OW22975   3.602   0.175   7.801  0.1453 -0.0385  0.3953
 3838SOL    HW122976   3.643   0.096   7.769 -1.1473 -0.5309 -0.0707
 3838SOL    HW222977   3.577   0.153   7.890  0.8412 -1.2424  0.2922
 3839SOL     OW22978   3.377   2.162   2.725  0.4644 -0.1961 -0.6754
 3839SOL    HW122979   3.333   2.245   2.705  0.3815 -0.4938 -1.7225
 3839SOL    HW222980   3.419   2.144   2.641  0.6836  2.1394 -1.0665
 3840SOL     OW22981   1.799   4.035   8.714 -0.3573 -0.4616  0.1980
 3840SOL    HW122982   1.790   4.037   8.619 -0.2984 -1.6753  0.1729
 3840SOL    HW222983   1.838   3.950   8.734 -0.2896 -0.6546 -0.7535
 3841SOL     OW22984   3.562   4.580   5.603 -0.3772  0.2370 -0.2692
 3841SOL    HW122985   3.558   4.655   5.662 -2.8895  1.9121 -2.5312
 3841SOL    HW222986   3.532   4.627   5.525 -1.8539 -1.0138 -0.4583
 3842SOL     OW22987   0.161   3.044  10.460 -0.2293 -0.2432 -0.3953
 3842SOL    HW122988   0.180   2.989  10.536 -2.3368 -0.7709 -0.2481
 3842SOL    HW222989   0.160   2.976  10.392  0.9194  0.2202 -0.8699
 3843SOL     OW22990   4.394   1.519   1.037 -0.3944  0.2113  0.2447
 3843SOL    HW122991   4.306   1.556   1.031 -0.5236  0.0504  1.1330
 3843SOL    HW222992   4.376   1.430   1.066  0.8156  0.6586  2.3481
 3844SOL     OW22993   4.335   2.489   2.375 -0.2559  0.1229  0.3435
 3844SOL    HW122994   4.272   2.552   2.410  2.3123  2.6593  0.3878
 3844SOL    HW222995   4.375   2.459   2.457 -0.8588 -0.6104  0.3611
 3845SOL     OW22996   1.380   0.293   6.964 -0.4021  0.1715 -0.1042
 3845SOL    HW122997   1.383   0.298   7.060 -0.7813 -2.2497  0.0323
 3845SOL    HW222998   1.299   0.342   6.949 -0.3641  0.9326  2.0799
 3846SOL     OW22999   0.544   1.980  12.282 -0.2848  0.4569  0.1591
 3846SOL    HW123000   0.607   2.016  12.344  0.3285  1.3778 -0.9897
 3846SOL    HW223001   0.460   1.996  12.325 -1.4679  1.0987 -2.4073
 3847SOL     OW23002   3.918   3.624  12.640 -0.3665 -0.2442  0.2017
 3847SOL    HW123003   3.938   3.715  12.616  1.8138 -0.8611 -0.3675
 3847SOL    HW223004   3.990   3.608  12.702 -0.9559 -3.6997 -0.0533
 3848SOL     OW23005   1.361   0.402   5.482  0.1956  0.0028  0.8688
 3848SOL    HW123006   1.417   0.399   5.560 -0.3236  0.7349  1.2697
 3848SOL    HW223007   1.290   0.451   5.524 -0.1262 -0.4952  0.9055
 3849SOL     OW23008   2.447   3.916  15.548  0.1040 -0.1249  0.0934
 3849SOL    HW123009   2.453   3.963  15.632 -0.3843 -0.0266  0.0729
 3849SOL    HW223010   2.388   3.848  15.578  1.5536 -1.7346 -0.7200
 3850SOL     OW23011   2.155   1.035   8.079  0.4115  0.0009 -0.1837
 3850SOL    HW123012   2.101   1.114   8.082  1.3431  0.6915 -1.5326
 3850SOL    HW223013   2.222   1.046   8.147  0.1895 -0.4919  0.1166
 3851SOL     OW23014   3.427   2.709  11.700 -0.3977 -0.1799 -0.1151
 3851SOL    HW123015   3.437   2.793  11.655  2.2641  0.0493  0.8961
 3851SOL    HW223016   3.516   2.696  11.733  0.4924  1.1250 -1.9924
 3852SOL     OW23017   3.024   4.545  15.201  0.3337  0.6030  0.1361
 3852SOL    HW123018   3.074   4.572  15.278 -0.0242 -0.3058  0.6897
 3852SOL    HW223019   3.062   4.598  15.131  0.6300 -1.2036 -1.0590
 3853SOL     OW23020   0.808   1.879  11.510 -0.2385 -0.2029 -0.5648
 3853SOL    HW123021   0.870   1.810  11.535 -0.8552 -0.4007  0.4162
 3853SOL    HW223022   0.850   1.946  11.456 -0.5092  0.6760  0.3218
 3854SOL     OW23023   0.271   1.204   6.377 -0.1966 -0.2848 -0.1586
 3854SOL    HW123024   0.326   1.253   6.316 -0.7736 -0.6785 -0.9976
 3854SOL    HW223025   0.185   1.242   6.360  0.4650 -0.3531 -3.5576
 3855SOL     OW23026   1.543   1.984   2.213  0.4980  0.0098  0.3417
 3855SOL    HW123027   1.560   1.948   2.125  4.0086  0.3315  0.9004
 3855SOL    HW223028   1.510   1.909   2.261  0.8153  0.2812  0.9754
 3856SOL     OW23029   4.466   3.818  16.100 -0.4445  0.1676 -0.1139
 3856SOL    HW123030   4.453   3.890  16.039 -0.7027  1.2596  1.2261
 3856SOL    HW223031   4.521   3.758  16.049 -1.5554  0.1585 -1.3050
 3857SOL     OW23032   2.632   2.900  13.735 -0.5884  0.4256  0.1929
 3857SOL    HW123033   2.695   2.966  13.765  0.2531 -1.1144  1.8195
 3857SOL    HW223034   2.564   2.908  13.803 -0.9699  0.2887 -0.1747
 3858SOL     OW23035   2.434   3.789  10.379 -0.0486  0.2765 -0.4681
 3858SOL    HW123036   2.353   3.806  10.332 -0.3225 -1.2891 -0.5842
 3858SOL    HW223037   2.387   3.751  10.453  0.8966 -1.3958 -0.7223
 3859SOL     OW23038   3.594   0.007  14.971 -0.0649 -0.1562  0.8529
 3859SOL    HW123039   3.560   4.694  15.052  0.9815 -1.9804  0.4586
 3859SOL    HW223040   3.680   0.040  14.996  1.2787 -0.8920 -2.6482
 3860SOL     OW23041   4.069   2.404   6.620  0.0633  0.5042  0.5733
 3860SOL    HW123042   4.042   2.407   6.528  0.3001  2.5248  0.5740
 3860SOL    HW223043   3.987   2.424   6.665 -0.7012  1.6356 -1.3437
 3861SOL     OW23044   2.903   1.783   4.120  0.1599 -0.4987  0.6214
 3861SOL    HW123045   2.882   1.802   4.211 -1.4370  0.4019  0.0750
 3861SOL    HW223046   2.817   1.748   4.095 -0.6717  1.5531  0.6501
 3862SOL     OW23047   2.375   2.158   5.355  0.1636 -0.0250  0.3703
 3862SOL    HW123048   2.361   2.242   5.399 -1.5101  0.6527 -1.4545
 3862SOL    HW223049   2.406   2.180   5.267  2.6780  0.5902  1.4246
 3863SOL     OW23050   0.322   3.242   2.792  0.1864 -0.0570  0.2746
 3863SOL    HW123051   0.340   3.288   2.710 -2.5346  1.8639  0.7672
 3863SOL    HW223052   0.227   3.236   2.800  0.2720  1.2892  2.4398
 3864SOL     OW23053   0.904   3.283   0.219 -0.1759  0.1631 -0.2108
 3864SOL    HW123054   0.843   3.310   0.287 -0.0395  0.0977 -0.0618
 3864SOL    HW223055   0.992   3.276   0.257 -0.7174  3.5072  1.6332
 3865SOL     OW23056   0.139   1.775   1.924 -0.0169  0.3555 -0.1655
 3865SOL    HW123057   0.117   1.860   1.888 -0.6837  1.0023  1.7593
 3865SOL    HW223058   0.115   1.784   2.016  0.2862 -0.8609  0.0376
 3866SOL     OW23059   4.196   0.547   9.673  0.0459 -0.0355 -0.1374
 3866SOL    HW123060   4.214   0.564   9.580  0.0822  1.8105  0.2140
 3866SOL    HW223061   4.137   0.621   9.689  0.4183 -0.1938  1.9244
 3867SOL     OW23062   1.325   2.232  15.044  0.1081  0.4277  0.1236
 3867SOL    HW123063   1.331   2.157  14.984 -2.1557 -3.1276  4.3256
 3867SOL    HW223064   1.251   2.203  15.098  0.3078 -3.4706 -1.6952
 3868SOL     OW23065   0.513   1.910   6.233  0.3341  0.0883 -0.2053
 3868SOL    HW123066   0.421   1.921   6.256  0.3588  2.5919 -1.3117
 3868SOL    HW223067   0.526   1.976   6.164 -0.0013 -0.9134 -1.2152
 3869SOL     OW23068   2.219   0.519   1.461 -0.1248  0.4616  0.3369
 3869SOL    HW123069   2.168   0.480   1.532  0.2111 -0.9996 -0.2314
 3869SOL    HW223070   2.164   0.593   1.437  0.9352  1.7275  1.8459
 3870SOL     OW23071   0.258   1.761   7.964  0.1669 -0.0320  0.0797
 3870SOL    HW123072   0.344   1.755   8.006  0.2717 -0.7978 -0.2387
 3870SOL    HW223073   0.238   1.851   7.990  1.8177  0.4327 -0.2434
 3871SOL     OW23074   4.347   1.552   6.255  0.1060 -0.4465 -0.4783
 3871SOL    HW123075   4.340   1.460   6.277  0.7858 -0.3782  0.0220
 3871SOL    HW223076   4.270   1.551   6.198  0.7066  0.0478 -1.3062
 3872SOL     OW23077   3.208   2.041   8.690 -0.9533 -0.1959 -0.0829
 3872SOL    HW123078   3.228   2.029   8.783  2.3388 -1.7555 -1.0001
 3872SOL    HW223079   3.224   1.951   8.661 -0.1505 -0.5291  1.3913
 3873SOL     OW23080   4.531   1.831   2.145 -0.3489  0.8803  0.0059
 3873SOL    HW123081   4.524   1.766   2.214  0.1685  1.3426  0.5012
 3873SOL    HW223082   4.498   1.777   2.074 -0.3561  1.0286 -0.1028
 3874SOL     OW23083   2.068   1.960   7.430  0.3535  0.6818  0.0187
 3874SOL    HW123084   2.150   1.959   7.382  1.5190 -0.9884  2.0707
 3874SOL    HW223085   2.101   1.913   7.506 -0.2680 -0.6209 -0.5274
 3875SOL     OW23086   1.056   1.811   5.322 -0.0018 -0.1845 -0.3800
 3875SOL    HW123087   1.025   1.727   5.286  0.3983 -0.8931  0.9137
 3875SOL    HW223088   1.011   1.796   5.405  0.2964 -0.5613 -0.2809
 3876SOL     OW23089   0.657   3.901   0.197 -0.4675  0.3952  0.1171
 3876SOL    HW123090   0.642   3.808   0.215  1.9381  0.5935  3.1955
 3876SOL    HW223091   0.602   3.923   0.123  0.6315 -0.2542 -0.8941
 3877SOL     OW23092   3.919   0.714   9.430 -0.0144  0.2770  0.1783
 3877SOL    HW123093   3.951   0.753   9.349  0.6673 -1.8647 -0.5899
 3877SOL    HW223094   3.948   0.624   9.413 -0.6066  0.4108 -1.6068
 3878SOL     OW23095   3.742   3.114   7.939  0.0489  0.2021 -0.4667
 3878SOL    HW123096   3.717   3.186   7.881  1.4179 -0.6662 -2.1263
 3878SOL    HW223097   3.752   3.166   8.018  1.3205 -0.3725 -0.2545
 3879SOL     OW23098   0.556   2.762   5.446  0.5662 -0.3526 -0.2634
 3879SOL    HW123099   0.462   2.771   5.456  0.7649  1.4689 -0.1242
 3879SOL    HW223100   0.560   2.666   5.439  0.9728 -0.4425  1.2201
 3880SOL     OW23101   1.104   3.027   7.400  0.0033  0.9651 -0.8171
 3880SOL    HW123102   1.038   3.032   7.470 -1.4804  1.9858 -2.3106
 3880SOL    HW223103   1.155   2.951   7.429  0.5160  1.1431 -1.2677
 3881SOL     OW23104   4.303   1.808   1.411 -0.3148 -0.0641 -0.6959
 3881SOL    HW123105   4.340   1.724   1.384 -0.2544 -1.1106  2.6735
 3881SOL    HW223106   4.382   1.843   1.452 -0.3760 -1.0950  0.2935
 3882SOL     OW23107   2.647   4.280   4.559  0.5263  1.0852  0.0812
 3882SOL    HW123108   2.609   4.329   4.631  1.5221  2.5620 -0.4089
 3882SOL    HW223109   2.726   4.326   4.530  0.4131  1.4534  0.3703
 3883SOL     OW23110   3.619   0.679   5.093  0.2584 -0.0164 -0.4896
 3883SOL    HW123111   3.645   0.614   5.158  1.8435  1.4325  0.3439
 3883SOL    HW223112   3.700   0.729   5.085  1.5687 -2.2195 -0.9486
 3884SOL     OW23113   3.806   2.127   8.234 -0.0924  0.0725  0.4800
 3884SOL    HW123114   3.716   2.124   8.203  0.8907  1.1174 -2.5472
 3884SOL    HW223115   3.792   2.193   8.301  1.7507 -0.8908  1.8165
 3885SOL     OW23116   1.065   3.624   3.323  0.5778  0.0978 -0.1637
 3885SOL    HW123117   1.079   3.537   3.361  0.1391  0.1831  0.2007
 3885SOL    HW223118   1.136   3.630   3.259  0.7778  0.3319  0.0780
 3886SOL     OW23119   4.625   3.609  15.925 -0.0007  0.0515  0.0065
 3886SOL    HW123120   4.682   3.680  15.898  0.3062 -1.2727 -2.8159
 3886SOL    HW223121   4.577   3.580  15.847  0.8820  0.4090 -0.6648
 3887SOL     OW23122   0.043   3.248   4.494 -0.3601  0.1306  0.3886
 3887SOL    HW123123   0.128   3.293   4.492 -1.8020  2.9163  1.6578
 3887SOL    HW223124   4.705   3.315   4.467  1.5995  1.0912 -1.7359
 3888SOL     OW23125   2.625   2.274   3.103  0.6292 -0.4942 -0.3710
 3888SOL    HW123126   2.540   2.246   3.070  1.4999 -0.8404 -2.3493
 3888SOL    HW223127   2.677   2.246   3.028  0.9206 -0.9185 -0.0059
 3889SOL     OW23128   0.534   1.118   5.007 -0.1672  0.5019  0.2820
 3889SOL    HW123129   0.583   1.161   5.076 -0.0083  0.1313  0.3996
 3889SOL    HW223130   0.569   1.029   4.997  0.4454  0.7568  0.1827
 3890SOL     OW23131   2.915   1.122   6.985 -0.2323  0.5665 -0.6760
 3890SOL    HW123132   2.928   1.049   6.925 -0.5201  1.5836 -1.9833
 3890SOL    HW223133   2.921   1.199   6.927  2.1731  0.2397 -0.8691
 3891SOL     OW23134   0.391   1.277   7.885  0.3648  0.2890  0.3022
 3891SOL    HW123135   0.408   1.256   7.976 -0.8326 -2.0628  0.0081
 3891SOL    HW223136   0.311   1.225   7.880  1.4244 -0.8910 -4.5106
 3892SOL     OW23137   1.176   2.344  13.316 -0.5272 -0.8565 -0.1225
 3892SOL    HW123138   1.247   2.320  13.256  0.3819 -0.1036  0.6613
 3892SOL    HW223139   1.227   2.358  13.395  3.3930  0.0689 -2.8041
 3893SOL     OW23140   1.516   0.478   8.017 -0.6007  0.1256  0.1289
 3893SOL    HW123141   1.497   0.397   7.971  2.7958 -2.1158  2.6713
 3893SOL    HW223142   1.529   0.456   8.110  0.3405 -0.1869 -0.0738
 3894SOL     OW23143   1.642   4.547   2.256 -0.1101 -0.5357 -0.2289
 3894SOL    HW123144   1.694   4.484   2.306  0.4989 -0.5435 -0.8795
 3894SOL    HW223145   1.583   4.571   2.328  0.6681  1.5603 -0.2970
 3895SOL     OW23146   4.143   2.276   2.591 -0.7365 -0.2760 -0.4709
 3895SOL    HW123147   4.063   2.249   2.547 -0.4830 -1.5979 -0.1377
 3895SOL    HW223148   4.202   2.209   2.555 -3.3831 -2.9753  0.2263
 3896SOL     OW23149   2.767   2.919   8.055  0.4988 -0.0622 -0.0889
 3896SOL    HW123150   2.861   2.930   8.039  0.5310 -1.8649 -1.1050
 3896SOL    HW223151   2.736   2.999   8.013  0.8987  0.1902  0.0989
 3897SOL     OW23152   1.909   1.808   8.134 -0.6108  0.0108 -0.0001
 3897SOL    HW123153   1.818   1.800   8.107 -0.3871 -1.5635 -0.2867
 3897SOL    HW223154   1.904   1.868   8.209  3.0375 -1.1514  1.1768
 3898SOL     OW23155   2.932   3.431   3.654 -0.1571  0.6138  0.6027
 3898SOL    HW123156   2.991   3.391   3.718  1.3662 -1.3005 -2.0145
 3898SOL    HW223157   2.984   3.504   3.623  3.4006 -1.4189  1.8314
 3899SOL     OW23158   2.342   0.911   1.560 -0.7904 -0.4115 -0.1912
 3899SOL    HW123159   2.266   0.951   1.602 -1.0460  0.8921 -1.9314
 3899SOL    HW223160   2.316   0.911   1.468 -0.3935 -1.3831 -0.3037
 3900SOL     OW23161   2.565   4.126   3.117  0.0027 -0.0764  0.1147
 3900SOL    HW123162   2.573   4.216   3.088  0.8682  0.2498  1.3323
 3900SOL    HW223163   2.486   4.087   3.080  0.9638  0.9770 -2.9593
 3901SOL     OW23164   0.549   2.261   2.359 -0.4113  0.3900 -0.5096
 3901SOL    HW123165   0.609   2.321   2.404 -1.7450  0.6059  0.9613
 3901SOL    HW223166   0.596   2.260   2.275  0.9720  1.6417  0.2434
 3902SOL     OW23167   3.408   1.864   8.063 -0.2793 -0.0412 -0.5476
 3902SOL    HW123168   3.474   1.803   8.028 -0.5732 -0.1671 -0.8778
 3902SOL    HW223169   3.457   1.941   8.091 -0.4733 -0.1385  0.0695
 3903SOL     OW23170   0.069   3.183   3.199 -0.3579 -0.6969  0.1316
 3903SOL    HW123171   0.013   3.135   3.139  1.2602 -1.1066 -1.0649
 3903SOL    HW223172   0.144   3.198   3.142  0.1351 -0.4469  0.8345
 3904SOL     OW23173   3.750   1.043  11.398 -0.3077  0.0570  0.0031
 3904SOL    HW123174   3.732   1.124  11.351 -2.0028 -0.3901 -0.1508
 3904SOL    HW223175   3.707   0.972  11.349 -1.6537  0.3591  0.7568
 3905SOL     OW23176   4.117   0.535  12.207  0.1235  0.2436  0.2414
 3905SOL    HW123177   4.179   0.595  12.166 -0.0538  1.5511  1.8822
 3905SOL    HW223178   4.034   0.565  12.171  0.7642 -0.4906 -1.8358
 3906SOL     OW23179   1.965   1.981  17.118  0.0587  0.1223 -0.0384
 3906SOL    HW123180   1.916   1.994  17.199  0.8810  0.8741  0.3523
 3906SOL    HW223181   1.921   2.048  17.065  1.0989  0.6081 -0.3002
 3907SOL     OW23182   3.399   0.343  12.774  0.8636 -0.3681 -0.2626
 3907SOL    HW123183   3.326   0.284  12.760  1.3992 -0.9306 -0.6898
 3907SOL    HW223184   3.435   0.310  12.856 -1.4418 -0.5941  0.6493
 3908SOL     OW23185   2.169   0.366   9.434 -0.6325  0.3725 -0.2848
 3908SOL    HW123186   2.195   0.317   9.512 -1.5635  0.3179 -0.0134
 3908SOL    HW223187   2.147   0.290   9.379 -1.1270 -0.2312  0.7633
 3909SOL     OW23188   0.359   1.655  11.658 -0.4013  0.1497 -0.2201
 3909SOL    HW123189   0.429   1.714  11.628 -1.7433  1.0292 -1.5740
 3909SOL    HW223190   0.330   1.697  11.739 -2.9195  1.2164 -1.6935
 3910SOL     OW23191   1.787   0.901   0.043 -0.0811  0.3227 -0.3773
 3910SOL    HW123192   1.722   0.967   0.018 -1.1322 -0.7739 -0.4962
 3910SOL    HW223193   1.762   0.836  17.677  3.2933 -0.7286 -0.5935
 3911SOL     OW23194   2.248   2.710  10.390 -0.5634 -0.5180 -0.0817
 3911SOL    HW123195   2.191   2.669  10.325 -0.7249  2.2516 -1.6971
 3911SOL    HW223196   2.289   2.634  10.431 -2.4962 -0.3094  2.2297
 3912SOL     OW23197   1.830   0.182   7.488 -0.1803  0.4373  0.2185
 3912SOL    HW123198   1.777   0.136   7.554 -0.5017  0.2425 -0.1821
 3912SOL    HW223199   1.902   0.192   7.551  0.0544  1.9167 -0.3069
 3913SOL     OW23200   4.069   1.956   2.586  0.3841 -0.2397 -0.8741
 3913SOL    HW123201   4.087   1.884   2.526 -3.0282 -0.7823 -1.2334
 3913SOL    HW223202   3.973   1.953   2.583  0.3647 -1.7083  1.2574
 3914SOL     OW23203   0.309   0.158   0.848 -1.1188  0.0496  0.0718
 3914SOL    HW123204   0.369   0.089   0.821  0.6566  1.5538  0.1595
 3914SOL    HW223205   0.355   0.184   0.928 -1.2552  0.4525  0.0211
 3915SOL     OW23206   1.682   1.771   6.023  0.3037 -0.4003 -0.4138
 3915SOL    HW123207   1.770   1.797   5.997 -0.4876  1.0061 -1.7665
 3915SOL    HW223208   1.663   1.725   5.941  3.7204  0.5831 -1.7556
 3916SOL     OW23209   1.338   1.052   6.317  0.2632  0.0483  0.2186
 3916SOL    HW123210   1.303   0.964   6.334  2.0215 -0.6566  0.2518
 3916SOL    HW223211   1.256   1.093   6.289 -1.0053 -2.6097 -0.0101
 3917SOL     OW23212   2.283   4.323   2.320 -0.4697  0.0178 -0.3768
 3917SOL    HW123213   2.261   4.362   2.235 -1.0423 -0.6710 -0.5498
 3917SOL    HW223214   2.349   4.263   2.287 -1.4496 -0.0177 -2.2868
 3918SOL     OW23215   3.808   3.980   4.902 -0.3346 -0.2130 -0.2960
 3918SOL    HW123216   3.895   3.940   4.892  0.5896  0.9067  3.3441
 3918SOL    HW223217   3.790   4.017   4.816 -0.8243  1.7395  0.6635
 3919SOL     OW23218   0.856   3.463   8.193 -0.1874  0.1167  0.6295
 3919SOL    HW123219   0.891   3.513   8.119  1.7284 -1.6376  0.3833
 3919SOL    HW223220   0.894   3.514   8.265 -1.8434 -1.9011  2.9287
 3920SOL     OW23221   1.159   4.132   1.516  0.2769 -0.0609  0.5650
 3920SOL    HW123222   1.247   4.094   1.509  0.7575  0.8406  1.7061
 3920SOL    HW223223   1.111   4.051   1.498 -1.5235  1.1294  0.0536
 3921SOL     OW23224   0.713   1.279   9.122  0.1344  0.0230 -0.1429
 3921SOL    HW123225   0.794   1.259   9.077  0.5123 -1.0177  1.0021
 3921SOL    HW223226   0.726   1.372   9.141  1.0932  0.0640 -1.0862
 3922SOL     OW23227   2.009   2.107  13.337 -0.2139 -0.0783  0.6331
 3922SOL    HW123228   1.930   2.150  13.303  0.2754  0.0305 -0.3621
 3922SOL    HW223229   2.082   2.169  13.331  0.0344 -0.3935  0.4238
 3923SOL     OW23230   3.052   1.756  12.536  0.4869 -0.1526 -0.0547
 3923SOL    HW123231   3.147   1.768  12.525  0.6876 -0.6903  1.0644
 3923SOL    HW223232   3.067   1.683  12.596 -0.2810  0.5214  0.9501
 3924SOL     OW23233   2.135   1.604   3.354 -0.0743 -0.2533  0.7027
 3924SOL    HW123234   2.058   1.645   3.314  0.0508 -0.1625  0.5569
 3924SOL    HW223235   2.147   1.526   3.299 -1.9647 -1.9356  2.6664
 3925SOL     OW23236   2.965   3.701   4.863 -0.1813  0.4163  0.0392
 3925SOL    HW123237   2.885   3.749   4.843  0.2731  1.0101 -0.3712
 3925SOL    HW223238   3.016   3.779   4.840 -1.6960  0.6564 -2.4978
 3926SOL     OW23239   3.115   3.943   9.181 -0.1707  0.2221  0.5200
 3926SOL    HW123240   3.105   4.032   9.216 -1.0799  0.0281  0.7441
 3926SOL    HW223241   3.195   3.959   9.131  1.2092 -0.3623  2.5437
 3927SOL     OW23242   0.789   2.471   2.026 -0.0279  0.1638 -0.2372
 3927SOL    HW123243   0.791   2.419   2.107 -0.3097  3.7660  2.0780
 3927SOL    HW223244   0.881   2.455   2.005  0.1591 -0.3301  0.9422
 3928SOL     OW23245   0.191   2.526   2.653 -0.3758  0.3793 -0.1604
 3928SOL    HW123246   0.172   2.433   2.645 -3.0512  0.8949  0.1119
 3928SOL    HW223247   0.114   2.550   2.704  0.9985  2.3231  1.0077
 3929SOL     OW23248   2.413   2.803   0.690 -0.1596  0.4935  0.0550
 3929SOL    HW123249   2.318   2.801   0.693 -0.2048 -0.8112 -2.0979
 3929SOL    HW223250   2.423   2.883   0.638  0.2065  0.1984 -0.3357
 3930SOL     OW23251   3.289   2.167  12.691  0.4040 -0.4372  0.6444
 3930SOL    HW123252   3.357   2.139  12.752  0.2886  1.8254  1.8172
 3930SOL    HW223253   3.211   2.122  12.721  0.7206 -0.7370  1.0078
 3931SOL     OW23254   2.548   4.044   6.466 -0.1492 -0.0995 -0.4901
 3931SOL    HW123255   2.462   4.051   6.507 -1.1949  0.9235 -2.8569
 3931SOL    HW223256   2.581   3.958   6.493  1.0658  0.1785 -1.0660
 3932SOL     OW23257   4.404   3.937   1.159  0.4265 -0.2928  0.5572
 3932SOL    HW123258   4.463   3.995   1.207 -0.0357  0.1550  0.5918
 3932SOL    HW223259   4.323   3.975   1.192 -0.2927 -0.2793 -1.1902
 3933SOL     OW23260   2.746   3.612   6.926  0.2394  0.2473 -0.2418
 3933SOL    HW123261   2.691   3.681   6.890 -0.5664 -0.2616  0.0298
 3933SOL    HW223262   2.687   3.548   6.965  0.2780  0.4780  0.1908
 3934SOL     OW23263   2.355   1.122   0.677 -1.1705  0.2065  0.7093
 3934SOL    HW123264   2.326   1.205   0.715  1.9413  2.1569 -1.1497
 3934SOL    HW223265   2.383   1.161   0.594  0.8994  0.0227  1.3206
 3935SOL     OW23266   2.686   4.588   4.958 -0.0408 -0.1138  0.0972
 3935SOL    HW123267   2.772   4.552   4.936  0.2698  0.4081  0.4482
 3935SOL    HW223268   2.651   4.533   5.028  0.2994 -0.6181 -0.1308
 3936SOL     OW23269   2.645   3.003   9.062  0.7456  0.9217 -0.0777
 3936SOL    HW123270   2.627   2.993   8.968 -1.4639  1.9882  0.2324
 3936SOL    HW223271   2.728   2.957   9.064  0.3351  0.0281 -2.7083
 3937SOL     OW23272   2.898   0.117   6.376  0.1023  0.1704  0.0305
 3937SOL    HW123273   2.873   0.030   6.407  1.5459 -0.0523  0.5876
 3937SOL    HW223274   2.818   0.147   6.333  0.0804  0.4584  0.2771
 3938SOL     OW23275   1.684   2.849  15.505  0.2621 -0.4799 -0.3868
 3938SOL    HW123276   1.731   2.795  15.442  0.4842  1.0814 -1.5563
 3938SOL    HW223277   1.608   2.889  15.461  1.0456  0.6144 -0.7438
 3939SOL     OW23278   0.981   1.494  12.115 -0.0308  0.1720  0.6425
 3939SOL    HW123279   1.035   1.498  12.036 -2.5474 -2.2968 -1.2312
 3939SOL    HW223280   0.907   1.446  12.077  1.3586 -2.2755  0.9901
 3940SOL     OW23281   4.108   2.767  12.212  0.5263 -0.0540 -0.2480
 3940SOL    HW123282   4.046   2.709  12.256 -1.0632  0.4152 -1.8532
 3940SOL    HW223283   4.060   2.783  12.130  0.3225 -0.8941 -0.2963
 3941SOL     OW23284   3.988   0.678   2.810  0.5231 -0.1716 -0.0471
 3941SOL    HW123285   3.912   0.645   2.858  1.6837 -0.5610  1.5148
 3941SOL    HW223286   4.025   0.603   2.763  1.9151  1.3020 -1.2895
 3942SOL     OW23287   2.988   0.970   3.638 -0.3143 -0.1164  0.1421
 3942SOL    HW123288   3.035   0.990   3.558 -2.2055  0.0578 -0.9289
 3942SOL    HW223289   3.015   1.043   3.694 -1.1917 -0.6591  1.2986
 3943SOL     OW23290   0.321   4.409   2.238  0.1116 -0.3006  0.1083
 3943SOL    HW123291   0.276   4.362   2.307 -1.3781 -0.4252 -0.9503
 3943SOL    HW223292   0.398   4.434   2.289 -0.0316 -0.0186  0.1837
 3944SOL     OW23293   4.133   3.909  12.782  0.5396  0.1233  0.1090
 3944SOL    HW123294   4.102   3.945  12.700  1.4388  1.3052  0.2852
 3944SOL    HW223295   4.153   3.819  12.757  0.1802 -0.3037  1.3498
 3945SOL     OW23296   0.325   4.259  10.971  0.5736  0.0150 -0.0747
 3945SOL    HW123297   0.371   4.181  11.003  0.1355  0.4267  1.5780
 3945SOL    HW223298   0.240   4.232  10.937 -0.7990  1.5009  2.1588
 3946SOL     OW23299   0.901   4.589   3.427 -0.6717  0.0522  0.3301
 3946SOL    HW123300   0.883   4.665   3.482 -0.0574 -0.2885  0.9948
 3946SOL    HW223301   0.993   4.613   3.415 -0.2468 -2.0091 -0.5668
 3947SOL     OW23302   3.871   0.797   5.104  0.4801  0.3146  0.2248
 3947SOL    HW123303   3.865   0.887   5.138  0.6072  0.0479  0.9451
 3947SOL    HW223304   3.962   0.771   5.120  0.2921  0.0505  0.8304
 3948SOL     OW23305   1.958   2.586   8.593 -0.2313  0.2109 -0.3578
 3948SOL    HW123306   2.031   2.585   8.532  0.7219  0.4888  0.7744
 3948SOL    HW223307   1.967   2.677   8.624 -0.5848 -0.4062  1.5658
 3949SOL     OW23308   3.211   1.851  12.122 -0.0113 -0.6795 -0.0687
 3949SOL    HW123309   3.185   1.760  12.114 -1.5678 -0.2574  0.1564
 3949SOL    HW223310   3.153   1.885  12.190 -0.2512  0.0392 -0.6257
 3950SOL     OW23311   3.832   2.514  13.318  0.2024 -0.7640  0.3248
 3950SOL    HW123312   3.807   2.604  13.295  1.0230 -0.6148 -0.0025
 3950SOL    HW223313   3.812   2.463  13.240 -1.2663  0.6780 -0.2441
 3951SOL     OW23314   2.266   4.350   8.735 -0.7870  0.3066  0.5788
 3951SOL    HW123315   2.255   4.264   8.774  1.7647 -1.3193 -2.2131
 3951SOL    HW223316   2.175   4.364   8.709 -0.2100  0.6444 -1.3202
 3952SOL     OW23317   1.837   0.434  10.530 -0.2028 -0.3971  0.3853
 3952SOL    HW123318   1.916   0.381  10.519  1.0294  1.7606 -1.0255
 3952SOL    HW223319   1.768   0.369  10.520 -1.5698  1.0167  0.7219
 3953SOL     OW23320   0.003   2.623  17.678  0.5895 -0.0933  0.2158
 3953SOL    HW123321   4.640   2.586  17.682  0.8665 -0.7284  0.3504
 3953SOL    HW223322   0.016   2.671   0.061 -0.2189  1.0671 -0.3402
 3954SOL     OW23323   1.558   3.890   0.573  0.2967  0.3140  0.4969
 3954SOL    HW123324   1.647   3.861   0.596  0.7031  1.3009  0.1382
 3954SOL    HW223325   1.550   3.870   0.480  0.8639  1.0948  0.2822
 3955SOL     OW23326   4.240   2.741   3.256 -0.4655  0.0128  0.2580
 3955SOL    HW123327   4.192   2.670   3.300  0.2763 -0.9989 -0.5618
 3955SOL    HW223328   4.330   2.710   3.261 -0.8676 -1.3214 -0.9444
 3956SOL     OW23329   2.258   3.648  12.929  0.2071 -0.4080  0.6161
 3956SOL    HW123330   2.290   3.624  13.016  0.2239 -0.2993  0.6397
 3956SOL    HW223331   2.259   3.562  12.886 -1.7511  0.0450 -0.3127
 3957SOL     OW23332   3.366   2.226   4.167 -0.0594  0.1458  0.3903
 3957SOL    HW123333   3.274   2.223   4.193 -0.1437 -0.5874  0.0074
 3957SOL    HW223334   3.390   2.299   4.225 -1.0938 -1.3524  2.7044
 3958SOL     OW23335   4.168   1.599  11.524  0.1258  0.1266  0.1750
 3958SOL    HW123336   4.108   1.601  11.450  0.5046  2.1276 -0.0854
 3958SOL    HW223337   4.256   1.601  11.485 -0.1612  2.2047 -0.3621
 3959SOL     OW23338   3.911   0.595  12.067  0.1358 -0.2968  0.3550
 3959SOL    HW123339   3.918   0.532  11.996  0.0133 -0.2467  0.2979
 3959SOL    HW223340   3.891   0.674  12.016 -1.1657  1.0073  2.8873
 3960SOL     OW23341   1.024   0.577   0.605 -0.0373  0.0002 -0.3493
 3960SOL    HW123342   0.960   0.512   0.636  0.3925  0.4969  1.5806
 3960SOL    HW223343   1.071   0.576   0.688  2.0473  1.3272 -1.5228
 3961SOL     OW23344   4.230   1.769   4.606 -0.4559 -0.5409  0.4983
 3961SOL    HW123345   4.302   1.827   4.630 -0.1988 -0.6383 -0.0310
 3961SOL    HW223346   4.223   1.778   4.511  1.7520  2.0593  0.6027
 3962SOL     OW23347   1.854   3.356   5.862  0.5073 -0.6599 -0.1204
 3962SOL    HW123348   1.923   3.312   5.812  1.7672 -0.9885  1.9368
 3962SOL    HW223349   1.812   3.405   5.790  0.6792  0.3019  0.4329
 3963SOL     OW23350   2.470   2.280  11.792 -0.1051  0.0924  0.0587
 3963SOL    HW123351   2.552   2.264  11.841  0.4215  2.1464 -0.1855
 3963SOL    HW223352   2.444   2.369  11.813 -1.3098 -0.1738 -0.3526
 3964SOL     OW23353   3.203   4.612   0.471  0.0302 -0.1038  0.2400
 3964SOL    HW123354   3.208   4.626   0.566  0.9300  2.4125 -0.1984
 3964SOL    HW223355   3.285   4.567   0.450 -1.4825 -2.9217  0.3311
 3965SOL     OW23356   0.804   2.580   7.367 -0.0507  0.2658 -0.7535
 3965SOL    HW123357   0.729   2.639   7.367 -0.6508 -0.4874  0.1959
 3965SOL    HW223358   0.774   2.516   7.431  0.1842  2.0545  1.1468
 3966SOL     OW23359   0.004   0.690   4.552 -0.5411  0.0989 -0.2812
 3966SOL    HW123360   4.667   0.659   4.485 -2.0029  1.4904  0.4264
 3966SOL    HW223361   0.086   0.659   4.513 -0.9389  0.5207 -1.4728
 3967SOL     OW23362   0.679   0.653  10.031  0.0098  0.2512 -0.0143
 3967SOL    HW123363   0.584   0.657  10.020  0.1011 -0.9490 -1.2085
 3967SOL    HW223364   0.697   0.570  10.076  1.2465  1.5313  1.8712
 3968SOL     OW23365   1.976   1.856   3.646 -0.6920 -0.0824  0.3246
 3968SOL    HW123366   2.040   1.785   3.637 -0.8889 -0.1760 -0.3548
 3968SOL    HW223367   1.904   1.818   3.596  0.1863 -0.6943 -0.4927
 3969SOL     OW23368   3.462   3.529   0.150 -0.2693  0.4272 -0.5450
 3969SOL    HW123369   3.446   3.618   0.118  0.5067  0.8447  0.2276
 3969SOL    HW223370   3.372   3.499   0.141  0.1957 -0.8668 -0.9494
 3970SOL     OW23371   4.257   3.836  15.306 -0.6042 -0.3776 -0.7932
 3970SOL    HW123372   4.186   3.846  15.370  2.8628  1.9487  2.6524
 3970SOL    HW223373   4.219   3.780  15.238 -0.3951  1.3699 -2.3744
 3971SOL     OW23374   2.635   1.021   9.319  0.0084 -0.3887  0.7059
 3971SOL    HW123375   2.591   1.105   9.334 -0.5299 -0.7346  1.0416
 3971SOL    HW223376   2.576   0.946   9.311 -0.3998  0.0753 -0.7228
 3972SOL     OW23377   3.655   4.621  16.839  0.3375  0.0927  0.1261
 3972SOL    HW123378   3.563   4.609  16.860  0.1311  0.9913 -0.2415
 3972SOL    HW223379   3.661   4.554  16.770  1.3989  0.2817  0.0230
 3973SOL     OW23380   2.657   0.067   9.373  0.2776  0.2706 -0.0559
 3973SOL    HW123381   2.572   0.083   9.332 -1.1921 -1.4411  2.3404
 3973SOL    HW223382   2.658   0.152   9.417 -0.1498 -0.1626  0.7793
 3974SOL     OW23383   3.100   3.425   3.879  0.1904  0.3596  0.1136
 3974SOL    HW123384   3.109   3.520   3.885 -2.2672  0.6920 -1.4253
 3974SOL    HW223385   3.022   3.415   3.934 -0.2850  0.4769 -0.5446
 3975SOL     OW23386   3.970   4.196  15.040 -0.7402 -0.5811 -0.0824
 3975SOL    HW123387   3.883   4.216  15.005 -0.1413 -2.0202 -2.4602
 3975SOL    HW223388   4.014   4.272  15.002 -0.1150 -1.2392 -0.6807
 3976SOL     OW23389   1.164   1.533   3.573  0.2145  0.2471 -0.1681
 3976SOL    HW123390   1.097   1.465   3.578  0.5943  0.0883  3.1458
 3976SOL    HW223391   1.103   1.605   3.587  1.1268  1.6629 -3.6054
 3977SOL     OW23392   4.493   2.504   3.934 -0.5503  0.4208  0.7678
 3977SOL    HW123393   4.408   2.538   3.908 -0.7494  0.3371  1.3215
 3977SOL    HW223394   4.480   2.409   3.930  1.5031  0.2022 -0.9186
 3978SOL     OW23395   0.235   0.307   8.063 -0.0969 -0.2297 -0.2267
 3978SOL    HW123396   0.190   0.334   8.143  3.3122  1.2993  1.1683
 3978SOL    HW223397   0.169   0.252   8.021 -0.5313  0.5511 -0.5824
 3979SOL     OW23398   1.857   3.356   2.814 -0.1807  0.3183 -0.1619
 3979SOL    HW123399   1.835   3.353   2.907  4.2709  0.0654  0.8824
 3979SOL    HW223400   1.835   3.264   2.795  1.6698 -0.3200  0.7251
 3980SOL     OW23401   2.242   4.146   8.516 -0.6833 -0.3603  0.4937
 3980SOL    HW123402   2.309   4.104   8.569 -0.5332 -2.6517 -1.5261
 3980SOL    HW223403   2.281   4.233   8.507 -1.9846 -0.1743 -3.1679
 3981SOL     OW23404   4.137   3.355   7.014 -0.1466 -0.7341  0.0953
 3981SOL    HW123405   4.180   3.345   7.099  0.0029  0.1274  0.1188
 3981SOL    HW223406   4.086   3.435   7.026  0.9519 -0.3874  2.3699
 3982SOL     OW23407   4.444   3.449   0.681 -0.1661 -0.0651 -0.3428
 3982SOL    HW123408   4.449   3.538   0.714 -0.4742  0.0456 -0.5929
 3982SOL    HW223409   4.531   3.437   0.644 -0.6608  1.2503 -1.9113
 3983SOL     OW23410   0.106   1.061   8.546  0.3691 -0.2877  0.3828
 3983SOL    HW123411   0.190   1.090   8.579 -0.1962  0.9221  0.7443
 3983SOL    HW223412   0.082   1.132   8.487  0.0373 -0.3139  0.4841
 3984SOL     OW23413   2.761   2.475   9.582 -0.4231  0.5732 -0.0300
 3984SOL    HW123414   2.856   2.467   9.576 -0.5151  0.3722 -1.2443
 3984SOL    HW223415   2.742   2.528   9.660  2.9563  0.8749  0.5906
 3985SOL     OW23416   1.083   3.459   7.187 -0.6047  0.0665 -0.2801
 3985SOL    HW123417   1.167   3.502   7.173  0.0432 -0.4719  1.9548
 3985SOL    HW223418   1.046   3.499   7.266 -0.0279  1.0762 -0.5225
 3986SOL     OW23419   1.513   3.991   5.294  0.5124 -0.6274  0.1991
 3986SOL    HW123420   1.559   3.951   5.368  0.0060 -0.8825  0.3772
 3986SOL    HW223421   1.465   3.914   5.264 -1.2089  0.6178 -0.2435
 3987SOL     OW23422   1.144   2.167   7.513 -0.1364 -0.2484  0.6137
 3987SOL    HW123423   1.055   2.145   7.540 -0.3168 -0.8536 -0.4735
 3987SOL    HW223424   1.176   2.233   7.574  1.2561 -0.3840  0.0480
 3988SOL     OW23425   3.764   3.898   2.539  0.4101  0.2616  0.0015
 3988SOL    HW123426   3.835   3.905   2.476  1.8815 -0.0482  1.6099
 3988SOL    HW223427   3.756   3.803   2.552 -0.8070  0.3371 -0.2111
 3989SOL     OW23428   1.125   2.759  14.427  0.5545 -0.1528 -0.5365
 3989SOL    HW123429   1.174   2.827  14.382 -2.0851  1.6119 -0.7122
 3989SOL    HW223430   1.156   2.682  14.378  0.4424 -0.5225 -0.0302
 3990SOL     OW23431   0.723   1.506   3.378  0.6684 -0.0170 -0.5984
 3990SOL    HW123432   0.692   1.581   3.328  1.8325 -0.7518 -2.3892
 3990SOL    HW223433   0.726   1.436   3.313  1.5148  1.0456 -1.6997
 3991SOL     OW23434   4.140   2.933   5.994  0.1253 -0.6436 -0.5853
 3991SOL    HW123435   4.200   2.960   6.064 -2.2390  1.3922  0.6322
 3991SOL    HW223436   4.176   2.845   5.982  0.0642 -0.7490 -0.0071
 3992SOL     OW23437   0.131   0.096   7.863  0.2336  0.3978  0.5952
 3992SOL    HW123438   0.138   0.031   7.793 -2.8394  0.0214  0.6659
 3992SOL    HW223439   0.089   0.051   7.936  0.3588 -4.5376 -2.3374
 3993SOL     OW23440   2.211   0.026   2.933  0.3750 -0.9615  0.0061
 3993SOL    HW123441   2.266   0.098   2.964 -3.7674  1.2932  2.1449
 3993SOL    HW223442   2.158   0.011   3.011  0.3201 -1.8653 -0.2112
 3994SOL     OW23443   3.525   3.759  11.988 -0.2469 -0.6412  0.2063
 3994SOL    HW123444   3.530   3.724  12.077 -0.3907  1.9388  1.2385
 3994SOL    HW223445   3.591   3.708  11.941 -0.5688 -0.8260 -0.0441
 3995SOL     OW23446   2.420   3.235   4.751  0.1564 -0.5810  0.1425
 3995SOL    HW123447   2.385   3.169   4.811 -2.1911  2.7680  2.4904
 3995SOL    HW223448   2.374   3.310   4.790 -0.7201 -1.4549  0.7697
 3996SOL     OW23449   1.807   0.619   0.472  0.2879  0.1253  0.1156
 3996SOL    HW123450   1.804   0.690   0.408 -3.2139  0.8820  1.1229
 3996SOL    HW223451   1.847   0.662   0.548  0.7509 -2.4990  1.3436
 3997SOL     OW23452   4.428   0.498   5.740  0.4317  0.5714  0.4428
 3997SOL    HW123453   4.458   0.534   5.656  1.0576 -1.8847 -0.3896
 3997SOL    HW223454   4.510   0.472   5.781  0.5740  0.5308  0.1320
 3998SOL     OW23455   2.419   0.276   5.189  0.1777  0.1320 -0.4138
 3998SOL    HW123456   2.515   0.279   5.193  0.3236 -2.2727 -2.6389
 3998SOL    HW223457   2.404   0.184   5.209  0.1117  0.4345  0.9655
 3999SOL     OW23458   0.539   3.220   3.903  0.1937 -0.4309 -0.0793
 3999SOL    HW123459   0.617   3.240   3.954  0.9609  0.0781 -1.4483
 3999SOL    HW223460   0.465   3.224   3.964  1.2910  1.3614  1.1288
 4000SOL     OW23461   2.271   0.109   8.640 -0.1741  0.2087 -0.5751
 4000SOL    HW123462   2.261   0.191   8.593  0.8700  0.9210  0.4206
 4000SOL    HW223463   2.209   0.054   8.592  0.2521 -1.2394  0.5184
 4001SOL     OW23464   2.960   4.613   5.804 -0.0139  0.1272  0.5035
 4001SOL    HW123465   2.883   4.654   5.843 -2.7956 -3.1480 -1.4950
 4001SOL    HW223466   3.006   4.591   5.885 -3.4457 -0.8673  2.1858
 4002SOL     OW23467   3.997   4.013  11.630 -0.5824  0.6095  0.4225
 4002SOL    HW123468   3.945   4.025  11.709  1.2336  0.3294  1.6722
 4002SOL    HW223469   4.038   3.927  11.638 -2.6728 -0.6981 -3.0573
 4003SOL     OW23470   4.550   0.321   9.398 -0.3115 -0.1802 -0.3450
 4003SOL    HW123471   4.613   0.255   9.427 -1.1613 -1.0904 -0.5436
 4003SOL    HW223472   4.500   0.281   9.326  1.1124 -0.8244 -0.9944
 4004SOL     OW23473   1.171   1.625   8.445  0.4790  0.0819  0.0609
 4004SOL    HW123474   1.182   1.676   8.365  3.1855 -2.5168 -1.2224
 4004SOL    HW223475   1.232   1.663   8.508  1.2733  1.1243 -1.3361
 4005SOL     OW23476   0.655   4.128   7.866  0.3975 -0.1123  0.4366
 4005SOL    HW123477   0.576   4.158   7.910 -0.4764 -0.2618 -1.0580
 4005SOL    HW223478   0.660   4.194   7.797  0.7756 -1.3756 -0.7528
 4006SOL     OW23479   0.794   0.438  16.349 -0.2238 -0.2367 -0.0448
 4006SOL    HW123480   0.858   0.383  16.393  0.0050  0.5844  0.6566
 4006SOL    HW223481   0.721   0.391  16.390  0.3773 -1.5378 -0.4642
 4007SOL     OW23482   1.637   4.610   2.818  0.2618  0.7525  0.0536
 4007SOL    HW123483   1.722   4.648   2.841 -0.2206  2.2019 -0.6283
 4007SOL    HW223484   1.607   4.564   2.897  0.8485 -0.6450 -0.5443
 4008SOL     OW23485   2.150   0.449   7.619  0.3011 -0.6350  0.0821
 4008SOL    HW123486   2.100   0.376   7.655  0.8831 -1.6159 -1.0980
 4008SOL    HW223487   2.184   0.496   7.695  0.2108  0.8911 -0.8369
 4009SOL     OW23488   3.484   4.577   1.330  0.1454 -0.4340  0.1825
 4009SOL    HW123489   3.547   4.528   1.382 -0.4462 -0.1062  1.1996
 4009SOL    HW223490   3.540   4.627   1.270  3.2960 -1.4579  2.2795
 4010SOL     OW23491   4.646   1.368   3.784  0.3000  0.2613 -0.0815
 4010SOL    HW123492   4.614   1.370   3.874 -1.8411 -0.3365 -0.8188
 4010SOL    HW223493   0.009   1.329   3.793 -0.3418 -1.7123 -2.2029
 4011SOL     OW23494   4.396   2.396   1.719  0.1640 -0.2952 -0.4216
 4011SOL    HW123495   4.321   2.391   1.660 -0.0814 -0.0237 -0.1301
 4011SOL    HW223496   4.407   2.490   1.731  1.0074 -0.4630  0.1834
 4012SOL     OW23497   1.483   1.449   4.747 -0.5514  0.5416 -0.1809
 4012SOL    HW123498   1.423   1.523   4.741 -0.3402  0.7183 -0.1084
 4012SOL    HW223499   1.560   1.503   4.766 -1.0614  0.9105  0.7944
 4013SOL     OW23500   2.772   2.177   4.611 -0.4334  0.2249  0.1427
 4013SOL    HW123501   2.861   2.146   4.618  0.2988  2.4123  0.6815
 4013SOL    HW223502   2.790   2.248   4.549  2.1892  1.3870  2.2506
 4014SOL     OW23503   1.901   3.616   6.831  0.5580  0.0505 -0.2884
 4014SOL    HW123504   1.819   3.575   6.805  1.2928 -1.0440 -0.8748
 4014SOL    HW223505   1.902   3.700   6.784  1.5039  0.6422  0.8019
 4015SOL     OW23506   0.506   4.520  12.715  0.4821  0.5076 -0.3665
 4015SOL    HW123507   0.574   4.469  12.758  2.4564  3.1388 -0.3464
 4015SOL    HW223508   0.548   4.542  12.632 -1.1825 -0.1074 -1.3819
 4016SOL     OW23509   1.175   1.937  10.236 -0.1103  0.1444 -0.5922
 4016SOL    HW123510   1.261   1.977  10.226  0.3789 -0.3825  1.6247
 4016SOL    HW223511   1.203   1.859  10.283  0.1185  0.2591 -0.5388
 4017SOL     OW23512   1.348   4.138   4.626  0.0218 -0.0763 -0.2227
 4017SOL    HW123513   1.356   4.047   4.655  2.1322  0.5901  1.2827
 4017SOL    HW223514   1.357   4.183   4.711 -1.6581 -0.7077  0.2851
 4018SOL     OW23515   1.087   0.442   8.999  0.7579 -0.3298  0.0066
 4018SOL    HW123516   1.053   0.525   8.967  1.1022 -0.8789 -1.7994
 4018SOL    HW223517   1.099   0.462   9.092 -0.1169  1.9940 -0.3973
 4019SOL     OW23518   2.078   3.070  12.179  0.1409 -0.3089 -0.1126
 4019SOL    HW123519   2.146   3.104  12.237 -0.4468  0.6270  0.0292
 4019SOL    HW223520   2.014   3.024  12.233  0.0658  0.5756  0.5518
 4020SOL     OW23521   1.335   2.532   2.572 -0.4020 -0.6393 -0.2218
 4020SOL    HW123522   1.252   2.571   2.598 -0.1067 -1.4241  1.9019
 4020SOL    HW223523   1.350   2.468   2.642  1.2151 -0.1760 -0.1446
 4021SOL     OW23524   4.483   0.908   1.985  0.0449 -0.5444 -0.3807
 4021SOL    HW123525   4.554   0.938   2.041  2.8976 -1.3922 -3.5821
 4021SOL    HW223526   4.405   0.920   2.039 -1.1498 -0.9744 -2.0028
 4022SOL     OW23527   3.890   4.612  15.087 -0.0558 -0.1941 -0.8664
 4022SOL    HW123528   3.845   4.599  15.171  0.9951 -0.2836 -0.3053
 4022SOL    HW223529   3.903   4.706  15.083 -0.1744 -0.2627 -2.4835
 4023SOL     OW23530   4.032   0.236   8.901  0.1846  0.1651  0.4818
 4023SOL    HW123531   4.120   0.199   8.900 -0.4794 -1.4207  1.3970
 4023SOL    HW223532   4.005   0.205   8.815 -0.3079 -1.0401  1.0726
 4024SOL     OW23533   3.126   1.413   5.550 -0.0503 -0.3437  0.3232
 4024SOL    HW123534   3.205   1.388   5.502  0.8592 -0.8047  2.0727
 4024SOL    HW223535   3.071   1.462   5.489  0.6067 -0.6895 -0.5471
 4025SOL     OW23536   3.912   4.026   4.343  0.4455 -0.6114  0.1531
 4025SOL    HW123537   3.889   4.101   4.398 -0.1711 -1.1411  0.6100
 4025SOL    HW223538   3.880   3.954   4.397  0.8959  0.2790  1.5897
 4026SOL     OW23539   3.106   4.477   4.165 -0.3750  0.6639  0.9770
 4026SOL    HW123540   3.018   4.440   4.151  1.2811 -3.0393  0.2961
 4026SOL    HW223541   3.149   4.466   4.080 -0.1760  1.9489  0.9229
 4027SOL     OW23542   3.557   3.540   3.415  0.0990  0.4786  0.0189
 4027SOL    HW123543   3.490   3.533   3.347 -1.3687  0.7496  1.4374
 4027SOL    HW223544   3.576   3.633   3.407 -1.2349  0.6804 -0.8493
 4028SOL     OW23545   3.751   1.058   8.753  0.9214  0.2652  0.5327
 4028SOL    HW123546   3.747   1.136   8.809 -1.1264  1.5193 -1.3516
 4028SOL    HW223547   3.698   0.995   8.800  0.7935 -1.0973 -1.4147
 4029SOL     OW23548   1.931   0.530   1.519  0.3020  0.0699 -0.2748
 4029SOL    HW123549   1.937   0.625   1.525 -1.4222  0.2460 -1.5155
 4029SOL    HW223550   1.940   0.503   1.611  3.3137 -3.4425 -1.5821
 4030SOL     OW23551   1.180   1.950   8.655 -0.8530 -0.1157 -0.7372
 4030SOL    HW123552   1.216   1.972   8.570 -2.2289  0.1137 -1.2653
 4030SOL    HW223553   1.215   1.862   8.658 -0.6848 -0.0673 -1.4198
 4031SOL     OW23554   4.112   4.583   6.366 -0.4130 -0.4794  0.8967
 4031SOL    HW123555   4.164   4.571   6.287  2.4010  0.2724  2.6193
 4031SOL    HW223556   4.028   4.554   6.329 -0.1946  0.4057 -0.3018
 4032SOL     OW23557   3.518   3.392   6.998  0.6876  0.1213  0.0063
 4032SOL    HW123558   3.493   3.320   7.055 -1.2626 -1.2575 -2.5368
 4032SOL    HW223559   3.429   3.416   6.969  0.6307 -0.6489 -0.4620
 4033SOL     OW23560   1.521   2.398   8.703  0.4418 -0.0408  0.1685
 4033SOL    HW123561   1.592   2.453   8.736 -1.1298  2.4964 -0.6516
 4033SOL    HW223562   1.552   2.378   8.614  1.8467  1.7448  0.2485
 4034SOL     OW23563   0.668   2.024  10.244  0.4094  0.3794  0.3887
 4034SOL    HW123564   0.658   2.036  10.338  1.1594  0.9319  0.3909
 4034SOL    HW223565   0.753   2.059  10.220  1.0284 -2.1309 -1.1917
 4035SOL     OW23566   3.059   2.299   9.031 -0.0648  0.4026 -0.6185
 4035SOL    HW123567   3.096   2.374   9.078  1.2500  0.6536 -2.0497
 4035SOL    HW223568   3.049   2.237   9.103 -0.1582  1.3546  0.2029
 4036SOL     OW23569   3.954   0.849   7.894  0.1541 -0.1275 -0.0863
 4036SOL    HW123570   3.865   0.881   7.907 -0.5041 -0.9486 -2.6197
 4036SOL    HW223571   4.005   0.927   7.872 -0.8334  0.7054  0.6017
 4037SOL     OW23572   1.967   2.307  10.261 -0.8516  0.6963  0.1966
 4037SOL    HW123573   1.948   2.233  10.204  0.2330 -0.3195  1.1710
 4037SOL    HW223574   2.058   2.323  10.235 -0.9587 -2.0196 -1.8404
 4038SOL     OW23575   4.417   2.003   3.902 -0.2213  0.6065  0.0967
 4038SOL    HW123576   4.424   1.980   3.995  1.8723  0.9495  0.0325
 4038SOL    HW223577   4.453   1.925   3.859 -3.2740  0.1501 -1.6219
 4039SOL     OW23578   2.950   4.629  10.516  0.4630 -0.3544  0.4056
 4039SOL    HW123579   2.993   4.593  10.594  0.6816 -2.1510 -0.5568
 4039SOL    HW223580   2.869   4.578  10.514  1.0618 -1.1479 -3.2443
 4040SOL     OW23581   4.107   1.584  10.609  0.6982 -0.3934 -0.1315
 4040SOL    HW123582   4.124   1.577  10.703 -1.0900  0.3328  0.2457
 4040SOL    HW223583   4.186   1.632  10.585  1.7782 -3.5065 -2.8103
 4041SOL     OW23584   1.208   3.366   3.418  0.1205 -0.1585  0.7953
 4041SOL    HW123585   1.302   3.376   3.432  0.4772 -0.1899 -1.6575
 4041SOL    HW223586   1.208   3.309   3.341  1.3431 -1.2874  1.6407
 4042SOL     OW23587   1.249   0.108   7.221  0.4269 -0.4983  0.2127
 4042SOL    HW123588   1.245   0.036   7.284 -0.7058  1.6015  2.5359
 4042SOL    HW223589   1.232   0.178   7.283 -1.2773 -0.7158 -0.0035
 4043SOL     OW23590   4.556   2.279  13.212  0.8140 -0.5357 -0.2229
 4043SOL    HW123591   4.505   2.238  13.142  1.1626  0.2368 -0.9175
 4043SOL    HW223592   4.613   2.341  13.168  0.2754  1.8990  2.5085
 4044SOL     OW23593   1.227   2.129   2.943 -0.1048  0.4557  0.7777
 4044SOL    HW123594   1.289   2.062   2.973 -1.0859 -0.2156  1.3053
 4044SOL    HW223595   1.208   2.103   2.853 -3.3400 -0.1245  1.6358
 4045SOL     OW23596   3.364   4.682   8.701  0.3068 -0.1443 -0.2078
 4045SOL    HW123597   3.316   4.610   8.659  0.5512  0.5620 -1.7237
 4045SOL    HW223598   3.453   4.653   8.681  0.9913  0.2062  2.3753
 4046SOL     OW23599   0.961   2.652  12.644 -0.2873  0.4938 -0.6090
 4046SOL    HW123600   0.992   2.586  12.707 -0.3971 -0.5780 -1.6743
 4046SOL    HW223601   0.897   2.598  12.597 -0.4852 -0.6781  0.9879
 4047SOL     OW23602   0.063   1.692   3.663  0.2935  0.0693  0.1188
 4047SOL    HW123603   0.111   1.608   3.665  1.9840  1.0043 -0.6515
 4047SOL    HW223604   0.025   1.693   3.575  3.6804  0.0183 -1.3521
 4048SOL     OW23605   2.782   0.745   7.908  0.0085 -0.7300 -0.2152
 4048SOL    HW123606   2.728   0.700   7.843 -0.6683  1.1840 -0.9710
 4048SOL    HW223607   2.721   0.791   7.966  2.3750  0.9021  0.9476
 4049SOL     OW23608   3.618   1.876   5.377 -0.1152 -0.6620 -0.0083
 4049SOL    HW123609   3.662   1.801   5.336  1.2030 -0.1811  0.5215
 4049SOL    HW223610   3.572   1.925   5.309  0.1650 -1.0611 -0.4892
 4050SOL     OW23611   1.788   0.055   5.845  0.5969 -0.2106  0.4750
 4050SOL    HW123612   1.882   0.068   5.860  0.0590  3.5150  0.5696
 4050SOL    HW223613   1.773   4.690   5.877  0.2880 -0.6146 -0.8165
 4051SOL     OW23614   3.918   3.486   8.246 -0.1259 -0.2128 -0.2322
 4051SOL    HW123615   3.936   3.431   8.322 -0.3787 -2.2622 -1.6370
 4051SOL    HW223616   3.832   3.520   8.271  0.7225  0.6490  1.4744
 4052SOL     OW23617   2.437   1.689  12.037  0.5644 -0.1176 -0.6514
 4052SOL    HW123618   2.402   1.767  11.993 -0.7434  0.0296  0.6415
 4052SOL    HW223619   2.400   1.695  12.125  0.5141  0.3089 -0.6989
 4053SOL     OW23620   4.538   3.493   4.885  0.2526 -0.0226 -0.0340
 4053SOL    HW123621   4.588   3.574   4.895 -0.5485  0.4802 -0.0952
 4053SOL    HW223622   4.497   3.491   4.971  1.0844 -1.4565  0.3355
 4054SOL     OW23623   3.853   4.037   2.079  0.8191  0.1724 -0.1126
 4054SOL    HW123624   3.795   4.004   2.011  0.8986  2.1974 -1.1689
 4054SOL    HW223625   3.909   4.099   2.033 -0.3283  0.0243 -1.7136
 4055SOL     OW23626   3.514   3.847   6.413 -0.6069  0.2346 -0.3689
 4055SOL    HW123627   3.463   3.858   6.494  2.1804 -0.0165  1.4217
 4055SOL    HW223628   3.601   3.826   6.447 -0.4967  1.0097 -0.1835
 4056SOL     OW23629   0.482   3.151  10.073  0.3578  0.2187  1.0219
 4056SOL    HW123630   0.416   3.087  10.045  1.2187  0.2146 -0.9551
 4056SOL    HW223631   0.565   3.115  10.041 -0.7747 -0.3323 -1.2739
 4057SOL     OW23632   3.900   1.703  12.461  0.3291 -0.3005 -0.4056
 4057SOL    HW123633   3.886   1.736  12.373 -2.7533  0.8339  0.5078
 4057SOL    HW223634   3.853   1.770  12.511  1.6093  1.2881 -1.3122
 4058SOL     OW23635   3.592   4.359   6.858 -0.1686 -0.2952  0.4573
 4058SOL    HW123636   3.534   4.429   6.828  1.1317 -0.5368 -2.6329
 4058SOL    HW223637   3.614   4.312   6.778  1.1581 -0.2052  0.7717
 4059SOL     OW23638   4.228   1.801   2.986  0.2167 -0.2329 -0.0850
 4059SOL    HW123639   4.287   1.732   2.956 -1.7288 -1.9729  0.0460
 4059SOL    HW223640   4.272   1.815   3.070  0.3296 -0.5698 -0.0888
 4060SOL     OW23641   3.729   3.652   6.007  0.1688  0.0154  0.1062
 4060SOL    HW123642   3.786   3.594   6.056  2.7306 -1.1874 -4.2433
 4060SOL    HW223643   3.658   3.677   6.066  2.2818  1.6526  1.9755
 4061SOL     OW23644   0.364   2.539   7.454 -0.1749  0.4046 -0.4286
 4061SOL    HW123645   0.294   2.584   7.407 -0.1061  0.1210 -0.8024
 4061SOL    HW223646   0.337   2.554   7.544 -3.2247  1.1394 -1.4701
 4062SOL     OW23647   3.367   3.533   8.751  0.0131  0.0902  0.0723
 4062SOL    HW123648   3.381   3.627   8.752  0.9656 -0.0715  1.3156
 4062SOL    HW223649   3.360   3.514   8.845  0.1370  0.6897  0.2051
 4063SOL     OW23650   4.442   4.284   0.717  0.6052  0.2313  0.3181
 4063SOL    HW123651   4.402   4.256   0.799 -0.1490  2.3346  0.6716
 4063SOL    HW223652   4.501   4.355   0.745  0.8560  0.3587 -0.5278
 4064SOL     OW23653   3.244   1.583  10.488 -0.2675  0.2960  0.5472
 4064SOL    HW123654   3.278   1.551  10.571 -1.8939 -0.9613  0.7112
 4064SOL    HW223655   3.219   1.673  10.510 -1.2598 -0.0685  0.9231
 4065SOL     OW23656   2.538   2.643   6.195  0.2570  0.1926  0.3041
 4065SOL    HW123657   2.591   2.565   6.179 -0.0735  0.7707 -3.5113
 4065SOL    HW223658   2.518   2.674   6.107  1.5310 -1.2352 -0.4726
 4066SOL     OW23659   3.144   3.002   1.742 -0.2353  0.7346  0.3166
 4066SOL    HW123660   3.147   2.995   1.838 -1.2977 -0.8469  0.2364
 4066SOL    HW223661   3.050   2.988   1.730  0.1371 -2.1398  0.5320
 4067SOL     OW23662   2.546   2.512   2.428  0.3041 -0.5934  0.1889
 4067SOL    HW123663   2.458   2.545   2.408  0.1549  0.0874  1.9589
 4067SOL    HW223664   2.608   2.567   2.380  0.4977 -0.2362  0.8368
 4068SOL     OW23665   0.016   1.137   4.016 -0.1390 -0.0588 -0.6176
 4068SOL    HW123666   4.720   1.222   4.053  0.4567  0.7852 -2.2446
 4068SOL    HW223667   4.666   1.109   3.964 -0.7589 -0.2820  0.3865
 4069SOL     OW23668   1.183   3.934   5.657 -0.1904 -0.0856 -0.2164
 4069SOL    HW123669   1.135   3.950   5.738 -1.3315 -0.1403 -0.8761
 4069SOL    HW223670   1.266   3.913   5.699 -1.2740 -0.5607  1.6673
 4070SOL     OW23671   4.413   2.789   8.883 -0.3317  0.5444 -0.0201
 4070SOL    HW123672   4.321   2.812   8.897 -0.6394 -1.3612  1.1266
 4070SOL    HW223673   4.411   2.784   8.787  0.8019  2.6072 -0.1594
 4071SOL     OW23674   1.347   4.705  16.238 -0.2590 -0.0427 -0.1782
 4071SOL    HW123675   1.379   4.657  16.162 -0.5642  0.0248 -0.3507
 4071SOL    HW223676   1.257   4.672  16.240 -0.3239  0.0205 -2.2044
 4072SOL     OW23677   4.582   0.103   4.078  0.0221 -0.2015  0.2799
 4072SOL    HW123678   4.640   0.171   4.043 -1.1124 -0.9078 -2.9825
 4072SOL    HW223679   4.627   0.022   4.052  2.1091  1.1508 -0.3345
 4073SOL     OW23680   0.032   3.282   6.048 -0.3146  0.4443  0.2865
 4073SOL    HW123681   4.711   3.268   6.131  1.6844 -0.7022  1.1895
 4073SOL    HW223682   0.013   3.373   6.025 -2.1768 -0.2324 -0.8951
 4074SOL     OW23683   4.272   4.053   6.264  0.2536 -0.3380  0.2543
 4074SOL    HW123684   4.364   4.076   6.256  0.6671 -2.0407  0.2536
 4074SOL    HW223685   4.245   4.053   6.172 -2.2470  1.8738  0.9675
 4075SOL     OW23686   0.400   2.168   3.458  0.3646 -0.0910  0.4694
 4075SOL    HW123687   0.468   2.172   3.525  1.1236 -0.4193 -0.2822
 4075SOL    HW223688   0.427   2.243   3.405 -1.0972 -0.6780 -1.1101
 4076SOL     OW23689   0.212   2.313   4.205  0.5811  0.3946  0.1606
 4076SOL    HW123690   0.203   2.323   4.110  1.4722 -1.3470 -0.1134
 4076SOL    HW223691   0.292   2.259   4.206 -0.1865 -0.7647 -1.0536
 4077SOL     OW23692   4.274   0.198   4.805 -0.0338  0.0159  0.4228
 4077SOL    HW123693   4.340   0.242   4.752  0.5414 -0.7233  0.5187
 4077SOL    HW223694   4.238   0.150   4.731 -0.8691  1.0903  0.1498
 4078SOL     OW23695   2.867   3.985   7.588  0.5437 -0.2352 -0.6287
 4078SOL    HW123696   2.797   3.941   7.539 -0.8838  0.5751  0.6890
 4078SOL    HW223697   2.821   4.068   7.599 -0.2217 -0.6781 -0.4413
 4079SOL     OW23698   0.675   3.875   6.558 -0.1042  0.1200 -0.1636
 4079SOL    HW123699   0.653   3.949   6.501  2.3400  0.4751 -0.6574
 4079SOL    HW223700   0.654   3.915   6.642 -0.7941 -0.4275 -0.0762
 4080SOL     OW23701   3.584   1.077   6.570 -0.0477 -0.0043  0.6324
 4080SOL    HW123702   3.513   1.123   6.525  0.3679 -0.3527 -0.3728
 4080SOL    HW223703   3.551   0.987   6.571 -3.4846  1.2675  1.7832
 4081SOL     OW23704   1.915   0.421   9.479  0.4814 -0.0300 -0.0675
 4081SOL    HW123705   2.010   0.409   9.483  0.1387 -2.7093  0.1389
 4081SOL    HW223706   1.908   0.492   9.415 -1.6537  0.0904  0.3257
 4082SOL     OW23707   1.092   0.975  11.126  0.1625  0.4827  0.4189
 4082SOL    HW123708   1.089   1.030  11.205 -1.2038  3.2334 -1.5724
 4082SOL    HW223709   1.179   0.934  11.127  1.5239  3.3576  2.3666
 4083SOL     OW23710   0.673   3.897   1.110  0.0391  0.3198 -0.0937
 4083SOL    HW123711   0.678   3.950   1.189  2.7246  1.8531 -1.2994
 4083SOL    HW223712   0.750   3.842   1.125 -1.2789 -0.7663  2.6383
 4084SOL     OW23713   2.537   0.342   6.696 -0.0842  0.1017 -0.8191
 4084SOL    HW123714   2.491   0.417   6.735 -0.5782 -0.6146 -0.0180
 4084SOL    HW223715   2.585   0.384   6.625  0.2991  0.1122 -0.5537
 4085SOL     OW23716   0.468   0.877   3.626  0.5761 -0.7268  0.4586
 4085SOL    HW123717   0.403   0.812   3.651 -1.6758  0.0625 -3.2764
 4085SOL    HW223718   0.515   0.844   3.549 -2.1615 -0.6972 -1.2429
 4086SOL     OW23719   3.481   3.889   0.271  0.7474 -0.0197 -0.4283
 4086SOL    HW123720   3.440   3.956   0.218  0.7243  0.8138  0.6463
 4086SOL    HW223721   3.412   3.823   0.263  2.0339 -1.0958 -2.6767
 4087SOL     OW23722   1.248   2.484  15.253  0.1825 -0.2099 -0.2191
 4087SOL    HW123723   1.222   2.545  15.185  1.2641 -1.0346 -1.3623
 4087SOL    HW223724   1.202   2.405  15.225  0.4427 -1.4972  2.9851
 4088SOL     OW23725   0.974   0.841   8.534 -0.3516 -0.1832 -0.4344
 4088SOL    HW123726   1.029   0.834   8.612 -0.6471  1.0843 -0.1111
 4088SOL    HW223727   0.983   0.757   8.488  0.7126  0.8393 -2.1075
 4089SOL     OW23728   3.942   3.303   3.521 -0.3654  0.5093 -0.0592
 4089SOL    HW123729   3.933   3.366   3.451 -0.8802 -0.0674 -0.5090
 4089SOL    HW223730   4.033   3.308   3.553 -0.1034  0.2413 -0.7637
 4090SOL     OW23731   3.259   0.783   2.386 -0.4144 -0.5479 -0.7450
 4090SOL    HW123732   3.289   0.729   2.312  1.2388  2.2713 -2.1028
 4090SOL    HW223733   3.199   0.840   2.337  0.8357  0.9591 -0.5136
 4091SOL     OW23734   2.310   2.802   8.504  0.5706  0.0066  0.2448
 4091SOL    HW123735   2.403   2.798   8.483  0.3250 -0.9221 -0.6754
 4091SOL    HW223736   2.315   2.896   8.522  1.4756 -0.0065  0.0379
 4092SOL     OW23737   3.067   4.561  16.046  0.4849 -0.9717 -0.1455
 4092SOL    HW123738   3.002   4.520  15.990 -1.2775  2.4203 -0.5572
 4092SOL    HW223739   3.117   4.611  15.982  0.4332  1.0440  1.3783
 4093SOL     OW23740   3.135   2.412  12.690  0.0748 -0.2315 -0.0639
 4093SOL    HW123741   3.200   2.344  12.703  0.5201 -0.0614 -1.4847
 4093SOL    HW223742   3.202   2.480  12.700 -1.9014  1.8015 -0.5024
 4094SOL     OW23743   1.874   2.367   4.912  0.3329  0.2124 -0.0591
 4094SOL    HW123744   1.817   2.290   4.902  0.9834 -0.1383 -1.0291
 4094SOL    HW223745   1.815   2.403   4.978  0.4445 -2.5556  1.5468
 4095SOL     OW23746   2.079   1.865   4.341 -0.0620  0.4025 -0.2856
 4095SOL    HW123747   2.051   1.943   4.293  1.1443  0.8898 -0.1961
 4095SOL    HW223748   2.037   1.801   4.283  2.0603 -0.9175 -0.3596
 4096SOL     OW23749   1.859   1.964   7.245 -0.1163  0.0823 -0.0871
 4096SOL    HW123750   1.790   1.999   7.302 -0.1275 -0.4277  0.2146
 4096SOL    HW223751   1.937   1.966   7.301  0.5056 -0.3332 -0.9529
 4097SOL     OW23752   1.569   2.658   9.056  0.1197  0.0061  0.4662
 4097SOL    HW123753   1.594   2.733   9.002  1.1280  0.2879  1.3140
 4097SOL    HW223754   1.523   2.702   9.128 -2.0208  0.9564 -1.5147
 4098SOL     OW23755   3.764   3.298   2.917 -0.3059  0.4472 -0.5072
 4098SOL    HW123756   3.760   3.326   3.008 -1.2263 -2.6161  0.4180
 4098SOL    HW223757   3.672   3.279   2.898 -0.5763  0.5063  0.7289
 4099SOL     OW23758   1.037   0.363   6.894 -0.2809  0.1273  0.6404
 4099SOL    HW123759   1.096   0.439   6.893 -0.4654  0.2656 -0.1979
 4099SOL    HW223760   1.026   0.350   6.799 -3.0681 -1.7485  1.2019
 4100SOL     OW23761   0.758   4.397   4.132 -0.1660 -0.0960 -0.1983
 4100SOL    HW123762   0.840   4.374   4.177  0.4424 -1.6189 -2.1119
 4100SOL    HW223763   0.787   4.484   4.106 -0.9801  0.0560 -0.6040
 4101SOL     OW23764   2.165   1.702   1.777 -0.5835  0.6990 -0.2738
 4101SOL    HW123765   2.095   1.643   1.749  0.6148 -0.8038 -0.0570
 4101SOL    HW223766   2.200   1.664   1.857 -2.8895  0.1243  0.4441
 4102SOL     OW23767   1.121   3.569   1.821  0.5569 -0.3334  0.4706
 4102SOL    HW123768   1.115   3.513   1.744  3.2387  0.2501 -0.1639
 4102SOL    HW223769   1.214   3.585   1.834  0.6391 -0.0039 -0.5631
 4103SOL     OW23770   0.633   2.616  14.460 -0.0666  0.2907 -0.7357
 4103SOL    HW123771   0.697   2.563  14.412  0.6399  0.4767 -0.0007
 4103SOL    HW223772   0.648   2.599  14.553  1.2218  1.7143 -0.6978
 4104SOL     OW23773   4.478   3.478   7.788 -0.3775 -0.9274 -0.2244
 4104SOL    HW123774   4.474   3.513   7.699 -1.5901  1.7353  0.8784
 4104SOL    HW223775   4.569   3.452   7.802 -1.0427 -1.8726  2.2437
 4105SOL     OW23776   0.962   3.899  10.962  0.0988  0.3872 -0.0874
 4105SOL    HW123777   0.940   3.821  11.012 -2.9660  0.7908 -0.8280
 4105SOL    HW223778   1.050   3.877  10.931 -0.3098  1.2182 -1.8567
 4106SOL     OW23779   1.298   3.947   8.184  0.1652  0.4284  0.3120
 4106SOL    HW123780   1.226   3.995   8.142  0.5134 -2.2130 -3.2472
 4106SOL    HW223781   1.373   3.995   8.149  0.9671 -0.2470  1.1132
 4107SOL     OW23782   1.331   2.693  11.898 -0.1623 -0.3116  0.1913
 4107SOL    HW123783   1.369   2.759  11.956 -2.2899 -1.5497  2.9681
 4107SOL    HW223784   1.286   2.750  11.836 -0.4936 -0.7352  0.0380
 4108SOL     OW23785   0.527   0.326  15.324  0.1958 -0.1581 -0.1565
 4108SOL    HW123786   0.500   0.376  15.247  0.2263  0.4066  0.2038
 4108SOL    HW223787   0.482   0.242  15.312  1.8609 -0.8859 -1.3936
 4109SOL     OW23788   3.144   0.774   8.558  0.4158 -0.8057  0.2956
 4109SOL    HW123789   3.052   0.751   8.550  0.4846 -0.5534 -1.3668
 4109SOL    HW223790   3.184   0.700   8.511 -0.6486 -0.3793 -1.2967
 4110SOL     OW23791   0.544   3.774  15.176  0.2196  0.5899 -0.0249
 4110SOL    HW123792   0.510   3.845  15.121 -2.1098 -1.1432 -0.8513
 4110SOL    HW223793   0.613   3.820  15.224  3.7067 -2.0698 -2.4679
 4111SOL     OW23794   2.690   4.079   2.720 -0.1812  0.2765  0.6162
 4111SOL    HW123795   2.667   3.990   2.748 -1.2156 -0.0924 -1.3292
 4111SOL    HW223796   2.602   4.116   2.713 -0.2483 -0.2224 -1.3481
 4112SOL     OW23797   0.596   4.665   9.563  0.0751  0.4152 -0.2845
 4112SOL    HW123798   0.527   4.639   9.502 -1.9551 -0.4715  2.4001
 4112SOL    HW223799   0.569   4.633   9.649  0.8737  1.0473  0.1973
 4113SOL     OW23800   3.647   0.334   9.867 -0.2039  0.1080  0.0873
 4113SOL    HW123801   3.690   0.335   9.952  0.7412  0.4854 -0.3929
 4113SOL    HW223802   3.692   0.267   9.815  0.4111  1.7000 -1.4530
 4114SOL     OW23803   2.593   4.282  14.081  0.1136 -0.1414  0.2057
 4114SOL    HW123804   2.679   4.315  14.109  0.2342 -0.7137  0.5011
 4114SOL    HW223805   2.573   4.213  14.145 -2.0405 -1.3495 -1.7824
 4115SOL     OW23806   0.359   3.270   1.952 -0.2737 -0.0687  0.5563
 4115SOL    HW123807   0.297   3.249   2.022  0.9540 -1.1063  1.3437
 4115SOL    HW223808   0.389   3.350   1.996  2.6395 -0.6978 -0.2963
 4116SOL     OW23809   0.349   1.678   2.450  0.0986 -0.5467 -0.4471
 4116SOL    HW123810   0.398   1.713   2.524  1.8825 -0.5876 -1.6108
 4116SOL    HW223811   0.377   1.745   2.387  0.1797 -0.9432 -0.8320
 4117SOL     OW23812   0.290   0.731   3.804 -0.5266 -0.3746 -0.0683
 4117SOL    HW123813   0.204   0.769   3.787  0.4096  0.8800 -2.0134
 4117SOL    HW223814   0.311   0.659   3.746  1.6799 -2.5166  3.3945
 4118SOL     OW23815   0.402   4.471  11.123  0.4674 -0.4860 -0.4573
 4118SOL    HW123816   0.383   4.402  11.060  0.9116 -0.6915 -0.3722
 4118SOL    HW223817   0.424   4.414  11.197  0.4681  1.6254  1.1843
 4119SOL     OW23818   0.666   4.352   0.421  0.1557  0.3320 -0.2011
 4119SOL    HW123819   0.651   4.371   0.329 -2.5789 -0.5948  0.0452
 4119SOL    HW223820   0.579   4.325   0.448  1.3760 -1.8817  1.5651
 4120SOL     OW23821   3.422   1.383   7.778 -0.3438 -0.3064  0.1018
 4120SOL    HW123822   3.392   1.309   7.726 -1.1668 -0.5172  0.8730
 4120SOL    HW223823   3.379   1.381   7.863 -1.1961 -0.5609 -0.3312
 4121SOL     OW23824   1.281   0.769  11.344  0.2090  0.0295  0.3087
 4121SOL    HW123825   1.333   0.813  11.411  1.8159 -1.5402  0.0823
 4121SOL    HW223826   1.195   0.773  11.386 -1.1477  1.2077 -2.5347
 4122SOL     OW23827   0.859   4.611   8.746  0.1026  0.3245  0.6735
 4122SOL    HW123828   0.817   4.697   8.739 -0.7818 -0.3094 -1.6313
 4122SOL    HW223829   0.946   4.641   8.772  0.2971  0.3883 -0.0587
 4123SOL     OW23830   2.854   3.505  13.454  0.5541  0.1588  0.0470
 4123SOL    HW123831   2.796   3.556  13.398  1.2935 -1.4509 -2.1727
 4123SOL    HW223832   2.939   3.503  13.410  0.3142 -3.0125 -0.2911
 4124SOL     OW23833   1.434   3.474   2.488  0.4884 -0.2686 -0.1632
 4124SOL    HW123834   1.475   3.538   2.545  0.7165  0.0981 -0.7421
 4124SOL    HW223835   1.454   3.389   2.528 -1.0891 -0.1080  0.9488
 4125SOL     OW23836   0.014   0.609  12.670 -0.7696 -0.1373 -0.2598
 4125SOL    HW123837   0.056   0.667  12.733  0.3274 -1.8699  0.6198
 4125SOL    HW223838   4.686   0.676  12.627  0.4582  1.5090  0.8214
 4126SOL     OW23839   2.800   1.411  11.257  0.3851  0.2055  0.2243
 4126SOL    HW123840   2.858   1.436  11.329  1.0421 -0.7684  0.0374
 4126SOL    HW223841   2.747   1.340  11.293  2.8292 -2.2220 -1.0136
 4127SOL     OW23842   1.163   0.604  12.209 -0.0514  0.1863  0.1181
 4127SOL    HW123843   1.212   0.612  12.291 -0.7993 -0.1633  0.5931
 4127SOL    HW223844   1.134   0.694  12.192 -0.3915 -0.0857 -0.7458
 4128SOL     OW23845   2.444   4.563  14.126  0.3652 -0.5228 -0.2957
 4128SOL    HW123846   2.414   4.634  14.069 -0.0900 -1.4668 -1.2248
 4128SOL    HW223847   2.529   4.547  14.085  0.3147  0.6781 -0.8564
 4129SOL     OW23848   3.806   1.627   1.628  0.0120 -0.0601  0.9271
 4129SOL    HW123849   3.766   1.671   1.703  0.6667 -2.5931  2.7366
 4129SOL    HW223850   3.821   1.539   1.663 -1.7523  0.2010  2.3450
 4130SOL     OW23851   2.652   2.363   6.587  0.3028 -0.1316 -0.2334
 4130SOL    HW123852   2.698   2.435   6.628  1.2431 -1.1372  0.4601
 4130SOL    HW223853   2.593   2.402   6.522 -1.5426 -0.2003  1.3933
 4131SOL     OW23854   2.711   3.994   0.574  0.3852  0.8691  0.0739
 4131SOL    HW123855   2.785   4.054   0.587 -0.6773  1.7646  1.8540
 4131SOL    HW223856   2.754   3.908   0.578 -0.0189  0.6755  0.1832
 4132SOL     OW23857   1.487   0.439   8.777  0.2658  0.3108  1.0317
 4132SOL    HW123858   1.415   0.383   8.746  0.2323 -0.1817  2.0048
 4132SOL    HW223859   1.459   0.413   8.865 -0.2856 -0.1021  0.7297
 4133SOL     OW23860   3.791   3.556   9.714 -0.4630  0.5573  0.2910
 4133SOL    HW123861   3.695   3.558   9.703 -0.6341 -1.5825  1.4735
 4133SOL    HW223862   3.799   3.462   9.733  1.1297  0.7951  0.7105
 4134SOL     OW23863   3.900   1.920   3.464 -0.5093  0.0776 -0.2484
 4134SOL    HW123864   3.853   1.998   3.491  0.1746 -0.0923  1.4556
 4134SOL    HW223865   3.988   1.950   3.488 -1.0101  0.9658  0.4427
 4135SOL     OW23866   1.549   3.728   9.412  0.6772 -0.3243 -0.1218
 4135SOL    HW123867   1.454   3.724   9.425  0.3338  0.4578 -2.4145
 4135SOL    HW223868   1.562   3.790   9.340  0.4339  0.1924  0.2725
 4136SOL     OW23869   0.230   2.995   7.191 -0.0379  0.0627 -0.1249
 4136SOL    HW123870   0.219   2.999   7.096 -1.3580 -0.1594  0.0207
 4136SOL    HW223871   0.325   2.990   7.183  0.2235  1.6982  2.1010
 4137SOL     OW23872   3.708   3.886  17.050  0.1225  0.5717  0.0406
 4137SOL    HW123873   3.736   3.802  17.014 -0.5067  0.8543 -1.0909
 4137SOL    HW223874   3.614   3.873  17.036 -0.2847  0.2994  2.9027
 4138SOL     OW23875   4.519   4.344   8.661 -0.4213 -0.5970 -0.0086
 4138SOL    HW123876   4.592   4.284   8.671 -1.8413 -2.5881 -1.5250
 4138SOL    HW223877   4.565   4.421   8.628 -1.9401  0.4115  0.1993
 4139SOL     OW23878   2.483   3.599   7.973  0.3912 -0.1362 -0.0629
 4139SOL    HW123879   2.558   3.582   8.031 -1.4131  0.3695  2.4419
 4139SOL    HW223880   2.470   3.692   7.990 -2.7338 -0.8762  1.6097
 4140SOL     OW23881   0.542   3.638   0.196  0.4679  0.2225  0.0472
 4140SOL    HW123882   0.512   3.553   0.230 -1.0915 -0.1064 -2.1955
 4140SOL    HW223883   0.584   3.620   0.112  2.0728  1.8282  0.4930
 4141SOL     OW23884   3.672   3.109   8.879  0.4601  0.1489 -0.1273
 4141SOL    HW123885   3.694   3.074   8.965 -0.9904 -0.4238  0.0084
 4141SOL    HW223886   3.749   3.072   8.835 -0.7442 -1.5864 -0.7673
 4142SOL     OW23887   1.138   4.270   2.840 -0.3547 -0.2566 -0.2720
 4142SOL    HW123888   1.178   4.244   2.756 -1.0838  2.3841 -1.4322
 4142SOL    HW223889   1.070   4.325   2.801  1.3006  2.5025  0.8063
 4143SOL     OW23890   2.258   1.316  15.571 -0.3961  0.1104 -0.2373
 4143SOL    HW123891   2.328   1.368  15.609  1.4535 -2.2785 -0.4324
 4143SOL    HW223892   2.305   1.313  15.488  0.6515  3.0711  0.2632
 4144SOL     OW23893   1.129   4.273   5.240 -0.3367  0.0605 -0.3237
 4144SOL    HW123894   1.055   4.219   5.212 -0.7087 -0.7132  2.1483
 4144SOL    HW223895   1.131   4.267   5.336  0.0285  2.0215 -0.1987
 4145SOL     OW23896   1.119   1.399   4.584  0.4884 -0.0288  0.1348
 4145SOL    HW123897   1.154   1.371   4.668  0.1166 -0.7918  0.0320
 4145SOL    HW223898   1.123   1.322   4.527 -0.6264 -0.5647  0.8003
 4146SOL     OW23899   3.831   1.928  14.792  0.0208  0.6269 -0.0855
 4146SOL    HW123900   3.765   1.996  14.806 -0.8281 -0.5097  1.4364
 4146SOL    HW223901   3.834   1.895  14.881 -1.3571  1.9371  0.4532
 4147SOL     OW23902   1.733   2.682   2.815 -0.1693  0.2471  0.0183
 4147SOL    HW123903   1.735   2.643   2.727  1.0111 -2.0521  1.0658
 4147SOL    HW223904   1.797   2.635   2.868  0.3671  0.8553 -0.0913
 4148SOL     OW23905   1.148   2.055   8.165  0.0392  0.1006 -0.3924
 4148SOL    HW123906   1.159   1.984   8.103  0.2719  0.2889 -0.5681
 4148SOL    HW223907   1.177   2.126   8.108  0.2122  0.2602 -0.1092
 4149SOL     OW23908   1.492   4.438   4.316  0.3062 -0.4901 -0.6982
 4149SOL    HW123909   1.430   4.373   4.349 -1.5451  1.3351 -0.5705
 4149SOL    HW223910   1.439   4.476   4.246  0.2028  0.8679  0.1216
 4150SOL     OW23911   3.884   2.283  11.038 -0.2965  0.3002 -0.4081
 4150SOL    HW123912   3.854   2.346  10.973 -0.3234 -0.9039 -1.5582
 4150SOL    HW223913   3.978   2.285  11.018 -0.3397  2.8980 -0.3335
 4151SOL     OW23914   0.095   4.573  14.277 -0.9251  0.1671 -0.1252
 4151SOL    HW123915   0.132   4.602  14.361  0.2908  0.1182 -0.6585
 4151SOL    HW223916   0.017   4.533  14.317  0.4882  0.2717  2.7629
 4152SOL     OW23917   2.816   0.531   3.017 -0.0086  0.3911  0.3544
 4152SOL    HW123918   2.858   0.558   3.098  0.6572  1.1799 -0.2647
 4152SOL    HW223919   2.889   0.488   2.973  1.0696 -0.1823  2.7385
 4153SOL     OW23920   2.463   4.405   3.296  0.1696 -0.9747 -0.3493
 4153SOL    HW123921   2.407   4.350   3.242  0.8283 -1.2203 -0.7864
 4153SOL    HW223922   2.405   4.430   3.368  2.2668 -0.6588  1.2516
 4154SOL     OW23923   2.329   1.986   3.803 -0.1439  0.1086  0.6121
 4154SOL    HW123924   2.416   1.944   3.801 -0.8494 -1.2811 -0.7613
 4154SOL    HW223925   2.298   1.954   3.888 -2.1396  0.8210  0.1438
 4155SOL     OW23926   0.286   2.399   1.338  0.2680  0.1565  0.7798
 4155SOL    HW123927   0.346   2.460   1.383  0.5984 -1.0534  1.9775
 4155SOL    HW223928   0.228   2.451   1.283  0.2208 -1.9512 -1.1415
 4156SOL     OW23929   0.311   0.716  16.130 -0.2362  0.0966 -0.0490
 4156SOL    HW123930   0.397   0.735  16.167  0.3487 -1.2610 -0.7132
 4156SOL    HW223931   0.326   0.746  16.040 -0.9627  1.9135  0.4362
 4157SOL     OW23932   1.086   2.274   6.603  0.6892 -0.8975 -0.0632
 4157SOL    HW123933   1.077   2.273   6.698 -3.3410 -0.0320 -0.4330
 4157SOL    HW223934   0.993   2.270   6.580 -0.0922  1.2783  2.6929
 4158SOL     OW23935   2.150   4.652   6.422  0.1681 -0.0240  0.4566
 4158SOL    HW123936   2.135   4.650   6.517  0.7902  1.3796  0.5909
 4158SOL    HW223937   2.152   4.559   6.400 -0.1068  0.2536 -0.7218
 4159SOL     OW23938   1.390   0.079   4.895  0.3055  0.7108 -0.1868
 4159SOL    HW123939   1.354   0.020   4.961 -1.8826  3.0764  0.7573
 4159SOL    HW223940   1.429   0.019   4.833  0.4100  1.0621 -0.4632
 4160SOL     OW23941   0.311   4.612   1.984  0.1763  0.5677 -0.1190
 4160SOL    HW123942   0.231   4.633   2.033  0.5741  0.8937  0.3929
 4160SOL    HW223943   0.355   4.695   2.002 -1.3981  2.0197 -2.9993
 4161SOL     OW23944   2.280   4.469   3.475  0.0936 -0.4308 -0.0983
 4161SOL    HW123945   2.279   4.385   3.521  1.2928  0.7215  2.0535
 4161SOL    HW223946   2.290   4.528   3.550  2.7364 -0.8092 -0.1579
 4162SOL     OW23947   1.627   1.100   7.526  0.1096 -0.1590  0.5592
 4162SOL    HW123948   1.606   1.033   7.461 -1.3548  1.3624 -0.5470
 4162SOL    HW223949   1.712   1.139   7.507  0.6809 -0.9220  1.5533
 4163SOL     OW23950   3.368   4.006   6.945  0.5616 -0.4826  0.3202
 4163SOL    HW123951   3.310   4.081   6.931  1.0643 -0.3935 -1.3025
 4163SOL    HW223952   3.430   4.048   7.004  1.1538 -0.5514 -0.2472
 4164SOL     OW23953   4.374   1.174   1.927 -0.3640  0.0578  0.0997
 4164SOL    HW123954   4.301   1.116   1.908 -2.1501  2.1573  0.4737
 4164SOL    HW223955   4.447   1.121   1.958 -0.4196  0.4440  0.8995
 4165SOL     OW23956   0.093   4.154   6.185  0.7043  0.3642 -0.0633
 4165SOL    HW123957   0.155   4.157   6.257  1.2541 -1.7292 -0.4287
 4165SOL    HW223958   0.116   4.241   6.152 -0.5508  0.6732 -0.1232
 4166SOL     OW23959   2.292   1.350  15.916  0.7626  0.2898 -0.1881
 4166SOL    HW123960   2.265   1.260  15.937 -1.0604  1.3261  1.9839
 4166SOL    HW223961   2.286   1.390  16.003  1.0682 -1.5266  0.6816
 4167SOL     OW23962   4.444   1.792  10.272 -0.6279  0.3144 -0.5427
 4167SOL    HW123963   4.386   1.773  10.346  0.5642  0.7592  0.5145
 4167SOL    HW223964   4.420   1.880  10.244 -2.7564 -0.4685 -1.1297
 4168SOL     OW23965   1.014   0.981   0.629 -0.2135  0.1557  0.4363
 4168SOL    HW123966   1.087   1.032   0.595 -0.6081 -0.6992 -1.6798
 4168SOL    HW223967   1.002   0.912   0.564 -1.1769  0.9601 -0.2558
 4169SOL     OW23968   2.678   4.500   3.570 -0.3848 -0.7209 -0.2914
 4169SOL    HW123969   2.741   4.428   3.556 -1.2126 -1.4182 -0.4316
 4169SOL    HW223970   2.682   4.553   3.491 -0.1757  0.8105  0.7618
 4170SOL     OW23971   1.854   3.569   4.320  0.6573 -0.1106  0.3089
 4170SOL    HW123972   1.776   3.532   4.362 -0.5479  1.3496 -0.6674
 4170SOL    HW223973   1.836   3.663   4.324  1.6831  0.1519 -1.5284
 4171SOL     OW23974   3.991   2.448   8.847 -0.0973 -0.5764 -0.2290
 4171SOL    HW123975   4.064   2.457   8.786  0.4999  1.4996  0.8171
 4171SOL    HW223976   3.999   2.521   8.908  1.5488 -0.5529 -0.4948
 4172SOL     OW23977   0.258   3.001  14.285  0.2380  0.8867 -0.3787
 4172SOL    HW123978   0.338   3.003  14.337 -1.1643 -0.6156  1.8235
 4172SOL    HW223979   0.253   3.093  14.258 -0.4331  0.9368 -0.0690
 4173SOL     OW23980   0.257   0.056   4.962  0.4605 -0.7391  0.1852
 4173SOL    HW123981   0.316   0.107   5.016 -0.5466  2.2386 -1.4924
 4173SOL    HW223982   0.257   4.696   5.007  0.1543  0.2108  1.9478
 4174SOL     OW23983   3.158   4.215   9.313 -0.0722  0.5619  0.0122
 4174SOL    HW123984   3.186   4.287   9.257  0.3813 -0.0895 -0.5999
 4174SOL    HW223985   3.145   4.264   9.395  0.4993  0.5333  0.1183
 4175SOL     OW23986   2.803   2.249   7.777  0.5221  0.4636 -0.3267
 4175SOL    HW123987   2.799   2.210   7.864 -0.0769  0.7999 -0.2122
 4175SOL    HW223988   2.896   2.271   7.778  1.0401 -1.4843 -2.6163
 4176SOL     OW23989   1.041   2.598  13.016 -0.1058  0.2947 -0.0251
 4176SOL    HW123990   1.098   2.671  12.990  1.7475 -0.5893  1.5199
 4176SOL    HW223991   1.066   2.588  13.108 -1.3282 -2.0232  0.0400
 4177SOL     OW23992   0.361   2.764   4.019  0.5307 -0.4143  0.2824
 4177SOL    HW123993   0.371   2.685   4.072  0.3698  0.7960  2.1473
 4177SOL    HW223994   0.445   2.807   4.039  0.6666 -0.2225 -0.7152
 4178SOL     OW23995   2.818   2.186   8.942  0.1712 -0.7103  0.4153
 4178SOL    HW123996   2.792   2.259   8.885  0.7093 -2.3112 -1.8818
 4178SOL    HW223997   2.914   2.190   8.950  0.2239  0.4147 -0.6525
 4179SOL     OW23998   1.347   3.694   3.534  0.4825 -0.4809 -0.3379
 4179SOL    HW123999   1.302   3.755   3.476 -0.0942 -0.5670  0.0222
 4179SOL    HW224000   1.432   3.678   3.493  0.3840 -0.1115 -0.6839
 4180SOL     OW24001   1.478   3.557   0.320 -0.2571  0.5055 -0.4092
 4180SOL    HW124002   1.547   3.623   0.325  0.5522 -0.5731  2.5884
 4180SOL    HW224003   1.532   3.481   0.303  3.8024  3.2108  0.4217
 4181SOL     OW24004   0.804   3.574  17.113  0.0833 -0.0925  0.1052
 4181SOL    HW124005   0.843   3.613  17.035  2.5477 -1.0837  0.8366
 4181SOL    HW224006   0.720   3.552  17.073  0.2948 -1.1530  0.2340
 4182SOL     OW24007   0.122   2.065   6.983  0.1615  0.0807  0.0437
 4182SOL    HW124008   0.159   1.989   6.940 -1.4449 -0.7840  0.1757
 4182SOL    HW224009   0.189   2.132   6.967  0.9380 -1.1147 -1.6781
 4183SOL     OW24010   4.209   4.413   3.240  0.3592  0.3050  0.2680
 4183SOL    HW124011   4.255   4.487   3.280 -0.9431  1.8990 -1.1713
 4183SOL    HW224012   4.288   4.375   3.202 -0.7543  0.5325 -2.2888
 4184SOL     OW24013   4.162   0.751   3.806 -0.6501 -0.4526 -0.7178
 4184SOL    HW124014   4.127   0.836   3.781 -0.7846 -0.4096 -0.3783
 4184SOL    HW224015   4.121   0.693   3.741  1.0586 -2.2711 -0.1801
 4185SOL     OW24016   4.490   0.368   8.792 -0.1075  0.2334  0.5505
 4185SOL    HW124017   4.410   0.391   8.839 -0.9401 -1.3894 -0.0692
 4185SOL    HW224018   4.487   0.273   8.781 -0.2898  0.2508  0.4527
 4186SOL     OW24019   2.100   0.110   3.348 -0.0827  0.3985  0.3346
 4186SOL    HW124020   2.196   0.116   3.352  0.0102  0.2028 -1.5658
 4186SOL    HW224021   2.096   0.021   3.312  0.8166  0.1441  0.8493
 4187SOL     OW24022   0.135   0.327   0.656 -0.4704 -0.6443  0.0012
 4187SOL    HW124023   0.169   0.341   0.744 -1.5436 -0.9536  0.4749
 4187SOL    HW224024   0.211   0.310   0.601  1.4714  3.0175  1.5516
 4188SOL     OW24025   2.352   3.085   5.856  0.3253 -0.1681  0.1341
 4188SOL    HW124026   2.331   3.146   5.926  0.4711 -1.3115  1.1630
 4188SOL    HW224027   2.419   3.134   5.808 -0.1110 -1.6503 -1.9781
 4189SOL     OW24028   1.510   3.039   5.144  0.0543  0.0676 -0.3855
 4189SOL    HW124029   1.585   3.095   5.161 -1.1557  1.7545 -0.6455
 4189SOL    HW224030   1.483   3.012   5.231  1.5517 -4.1348 -1.1784
 4190SOL     OW24031   2.021   2.639  17.193  0.0687 -0.1079  0.2064
 4190SOL    HW124032   1.995   2.552  17.223  1.6895 -1.4021 -2.2083
 4190SOL    HW224033   1.933   2.678  17.194  0.3392  0.4207  3.3086
 4191SOL     OW24034   1.230   1.830  13.832  0.2782 -0.3006  0.9950
 4191SOL    HW124035   1.211   1.798  13.744 -0.0956 -0.9709  1.3254
 4191SOL    HW224036   1.230   1.742  13.867  1.7462 -0.4074  0.7328
 4192SOL     OW24037   3.488   3.715   6.898 -0.4016 -0.4254  0.1876
 4192SOL    HW124038   3.547   3.654   6.943 -0.0471 -0.1879  0.0465
 4192SOL    HW224039   3.481   3.789   6.958  0.6134 -1.4863  1.6221
 4193SOL     OW24040   2.791   1.226   5.494  0.8066 -0.5581 -0.0844
 4193SOL    HW124041   2.851   1.259   5.427  1.0720  0.1196  0.4872
 4193SOL    HW224042   2.716   1.188   5.448  0.9488 -1.0278  0.0713
 4194SOL     OW24043   3.172   3.308  10.391  0.0445  0.4562 -0.3214
 4194SOL    HW124044   3.251   3.345  10.431  0.1556  2.4406 -2.3555
 4194SOL    HW224045   3.117   3.317  10.469  1.1347 -0.6971  0.5899
 4195SOL     OW24046   0.876   3.113   2.514  0.6571  0.5355 -0.8044
 4195SOL    HW124047   0.788   3.118   2.551  0.7842 -1.1152 -0.2703
 4195SOL    HW224048   0.858   3.084   2.425 -3.5662  0.0127  0.2026
 4196SOL     OW24049   2.089   1.464   8.698 -0.0144 -0.5154 -0.0521
 4196SOL    HW124050   2.183   1.461   8.719  0.1749 -1.7814 -1.0824
 4196SOL    HW224051   2.075   1.558   8.683  2.2597 -0.2174 -0.3605
 4197SOL     OW24052   2.502   4.704   6.495 -0.3175  0.2581 -0.1989
 4197SOL    HW124053   2.543   4.630   6.450  2.0906  0.8975  0.9342
 4197SOL    HW224054   2.517   4.686   6.588  0.4767  0.9631 -0.1886
 4198SOL     OW24055   0.952   4.310   3.119 -0.1974  0.2044 -0.3819
 4198SOL    HW124056   0.955   4.381   3.055  0.5148  0.8455  0.3772
 4198SOL    HW224057   1.019   4.338   3.181  1.7360 -2.0703 -1.4537
 4199SOL     OW24058   3.623   4.078   2.970  0.9401 -0.3043 -0.5270
 4199SOL    HW124059   3.668   4.090   2.887  0.5895 -0.3084 -0.7165
 4199SOL    HW224060   3.691   4.027   3.015 -2.3825 -3.4490  0.9648
 4200SOL     OW24061   2.295   3.666   6.368  0.4996  0.1935  0.0277
 4200SOL    HW124062   2.349   3.617   6.306 -0.1807  0.5328 -0.8321
 4200SOL    HW224063   2.213   3.616   6.372 -0.1579  1.2275 -0.5551
 4201SOL     OW24064   3.217   4.402   9.108  0.4213  0.2934  0.5720
 4201SOL    HW124065   3.306   4.367   9.115 -0.4211 -1.6474  1.6041
 4201SOL    HW224066   3.230   4.443   9.022  0.4389 -1.1967 -0.1371
 4202SOL     OW24067   2.819   4.387  14.186  0.1759 -0.1525  0.2555
 4202SOL    HW124068   2.848   4.478  14.185 -1.4504  0.3660 -0.4864
 4202SOL    HW224069   2.893   4.341  14.147  0.9980  2.5507 -1.3789
 4203SOL     OW24070   4.608   1.448   8.333  0.0053 -0.1483  0.2169
 4203SOL    HW124071   4.650   1.533   8.321 -2.1734  0.8898 -0.0280
 4203SOL    HW224072   4.526   1.451   8.283  0.6349  1.8101 -0.7049
 4204SOL     OW24073   0.839   2.130   6.595  0.3735 -0.1820 -0.4256
 4204SOL    HW124074   0.797   2.134   6.681  0.9090 -3.1862 -0.0120
 4204SOL    HW224075   0.772   2.114   6.528 -2.6346 -2.1908  3.1239
 4205SOL     OW24076   0.053   0.675   9.655 -0.2480 -0.1385 -0.3817
 4205SOL    HW124077   0.023   0.766   9.656 -0.1082 -0.1046  0.5943
 4205SOL    HW224078   4.707   0.627   9.611 -0.0315 -1.5542  0.7989
 4206SOL     OW24079   2.238   0.321   6.865  0.0077 -0.5631  0.0444
 4206SOL    HW124080   2.258   0.283   6.779 -1.5860 -1.1940 -0.0447
 4206SOL    HW224081   2.176   0.255   6.896 -0.6453  0.6228  1.2320
 4207SOL     OW24082   0.887   2.762   9.463 -0.1054 -0.6512 -0.3181
 4207SOL    HW124083   0.819   2.804   9.515  0.4299  0.7441 -0.7382
 4207SOL    HW224084   0.956   2.826   9.483 -0.5209 -0.5479  0.8201
 4208SOL     OW24085   3.821   2.183   9.178 -0.4148 -0.1783  0.4269
 4208SOL    HW124086   3.848   2.092   9.189  1.1250  0.0044 -2.0169
 4208SOL    HW224087   3.815   2.208   9.271 -0.2092 -0.8756  0.6242
 4209SOL     OW24088   3.541   0.538   8.088 -0.6617 -0.5270  0.0470
 4209SOL    HW124089   3.545   0.627   8.124 -5.2848 -0.6750  1.0447
 4209SOL    HW224090   3.451   0.529   8.056 -0.2241 -0.7107 -1.0953
 4210SOL     OW24091   2.155   3.745   1.134  0.1229 -0.2577  0.0773
 4210SOL    HW124092   2.064   3.738   1.106 -0.0783  2.1092  0.1235
 4210SOL    HW224093   2.208   3.733   1.055  1.6054 -0.3691  1.0887
 4211SOL     OW24094   0.233   0.338   6.250 -0.1526 -0.2777 -0.2386
 4211SOL    HW124095   0.202   0.426   6.272 -1.7367 -0.3035 -2.3273
 4211SOL    HW224096   0.324   0.365   6.261  0.6696 -2.7942 -0.9579
 4212SOL     OW24097   2.834   4.701   0.303  0.1730 -0.0163  0.5097
 4212SOL    HW124098   2.768   0.038   0.336  0.4797 -0.3909  1.8143
 4212SOL    HW224099   2.785   4.619   0.296  0.9005 -0.3930 -0.1692
 4213SOL     OW24100   4.160   0.511   4.929  0.0605  0.3055 -0.5629
 4213SOL    HW124101   4.214   0.432   4.924 -3.2938 -1.8883 -1.8043
 4213SOL    HW224102   4.073   0.473   4.915 -0.1110  1.0531 -1.4788
 4214SOL     OW24103   3.042   1.009   8.202  0.5547 -0.2524  0.5365
 4214SOL    HW124104   3.098   0.940   8.237 -0.8419 -1.4347  0.4192
 4214SOL    HW224105   3.083   1.035   8.119  2.2908 -0.4561  1.3261
 4215SOL     OW24106   0.178   3.063   0.907 -0.1604  0.4165 -0.1684
 4215SOL    HW124107   0.240   3.044   0.977  0.3125 -0.8750 -0.9153
 4215SOL    HW224108   0.175   2.980   0.858 -0.6961  0.3919 -0.0929
 4216SOL     OW24109   0.394   0.187   1.999  0.2192  0.3305 -0.0501
 4216SOL    HW124110   0.304   0.218   1.990 -0.1399 -0.1324  1.9187
 4216SOL    HW224111   0.396   0.165   2.092 -0.3757  2.9203  0.5517
 4217SOL     OW24112   0.487   1.850  15.297 -0.1342 -0.0412  0.2909
 4217SOL    HW124113   0.421   1.815  15.237  0.8050 -2.3976  0.6781
 4217SOL    HW224114   0.518   1.929  15.253 -0.9595  0.8243  1.2586
 4218SOL     OW24115   2.919   4.636  14.063  0.5623 -0.5288  0.0699
 4218SOL    HW124116   2.910   4.703  13.995  2.3904 -0.4514 -0.0903
 4218SOL    HW224117   3.008   4.643  14.099  0.2579 -0.0932  0.7448
 4219SOL     OW24118   2.379   2.754   3.253 -0.0305  0.4525  0.1346
 4219SOL    HW124119   2.456   2.798   3.215  0.0223  0.7327  0.5618
 4219SOL    HW224120   2.416   2.678   3.298  0.8280  0.7300 -0.0830
 4220SOL     OW24121   1.594   2.972   5.803  0.0951 -0.5543  0.4298
 4220SOL    HW124122   1.610   2.908   5.734 -0.8689 -0.7883  0.4330
 4220SOL    HW224123   1.521   3.022   5.767  0.2282  0.5326  1.6304
 4221SOL     OW24124   3.176   1.026  11.959  0.0525 -0.0799  0.4284
 4221SOL    HW124125   3.218   1.112  11.956 -1.5131  0.6961  1.0149
 4221SOL    HW224126   3.100   1.045  11.904  0.2470 -0.3898  0.0492
 4222SOL     OW24127   0.145   4.574  12.955 -0.1184 -0.0747 -0.0618
 4222SOL    HW124128   0.162   4.620  12.873 -0.3966 -2.2857 -1.3680
 4222SOL    HW224129   0.181   4.487  12.935 -1.3344 -0.4560 -0.5739
 4223SOL     OW24130   1.242   1.531   5.991 -0.3385  0.0572 -0.0661
 4223SOL    HW124131   1.271   1.452   6.037 -1.1635  0.0952  0.5310
 4223SOL    HW224132   1.310   1.556   5.929  1.0234  1.6921  2.0707
 4224SOL     OW24133   1.577   2.166  13.458  0.1171 -0.3375 -0.0724
 4224SOL    HW124134   1.492   2.210  13.461  0.4217  0.3885 -1.9451
 4224SOL    HW224135   1.591   2.133  13.547  1.8741  0.5404 -0.0177
 4225SOL     OW24136   4.650   2.560   2.808  0.2272  0.0483  0.3399
 4225SOL    HW124137   4.688   2.635   2.853 -0.6664 -0.0097  1.2009
 4225SOL    HW224138   4.581   2.546   2.874 -2.0175 -2.5098 -2.5759
 4226SOL     OW24139   0.744   3.164   7.001 -0.0345 -0.0106 -0.3152
 4226SOL    HW124140   0.731   3.071   7.020  0.0131  0.2376  0.9839
 4226SOL    HW224141   0.815   3.153   6.938 -1.6190  1.9402 -2.3903
 4227SOL     OW24142   2.566   4.663   2.652  0.1469 -0.3032 -0.0009
 4227SOL    HW124143   2.601   4.604   2.718 -0.0362  0.8624  1.1297
 4227SOL    HW224144   2.644   4.674   2.597 -0.2126 -2.3720 -0.9200
 4228SOL     OW24145   0.678   2.039   7.818  0.0979  0.2601  0.0650
 4228SOL    HW124146   0.634   2.080   7.892 -0.1981  0.9488 -0.4856
 4228SOL    HW224147   0.675   1.949   7.850 -0.4971  0.7666  1.4395
 4229SOL     OW24148   2.805   1.702   3.779 -0.0605 -0.3352 -0.2403
 4229SOL    HW124149   2.873   1.687   3.713  0.4669  0.7557  0.0621
 4229SOL    HW224150   2.839   1.789   3.801 -1.8320  1.1836 -3.4126
 4230SOL     OW24151   0.468   3.129   3.013  0.4874 -0.2983 -0.2435
 4230SOL    HW124152   0.418   3.167   2.941  1.0007 -0.9300 -0.9411
 4230SOL    HW224153   0.455   3.194   3.081  0.1387 -0.3091 -0.2971
 4231SOL     OW24154   2.458   1.503   7.749  0.9167 -0.6096 -0.1640
 4231SOL    HW124155   2.464   1.593   7.717 -0.0974  0.2081  1.9251
 4231SOL    HW224156   2.374   1.508   7.796  1.0249  1.0204 -0.1415
 4232SOL     OW24157   4.061   3.676   2.711 -0.1851 -0.1399 -0.6001
 4232SOL    HW124158   4.047   3.594   2.759  1.9223 -0.5546 -0.6856
 4232SOL    HW224159   4.079   3.646   2.622 -0.9782  1.8462 -1.4075
 4233SOL     OW24160   0.528   3.537   1.557  0.0239  0.4954 -0.2604
 4233SOL    HW124161   0.610   3.497   1.528  0.8687  1.9504  0.1554
 4233SOL    HW224162   0.477   3.512   1.479 -0.2850  0.6988 -0.1257
 4234SOL     OW24163   2.039   1.378   0.593 -0.0112  0.3412 -0.1626
 4234SOL    HW124164   1.974   1.308   0.585  0.1882  0.2841 -1.2774
 4234SOL    HW224165   2.020   1.413   0.680  2.3872  1.5552 -0.1401
 4235SOL     OW24166   0.599   0.603   6.761 -0.1343 -0.3313 -0.0286
 4235SOL    HW124167   0.549   0.684   6.754 -0.7124 -0.7372 -0.5642
 4235SOL    HW224168   0.635   0.610   6.849  1.8903  0.1522 -0.8702
 4236SOL     OW24169   4.723   2.906   2.728  0.0099  0.4585 -0.7338
 4236SOL    HW124170   4.676   2.839   2.679  1.3130 -0.9174 -0.0793
 4236SOL    HW224171   4.715   2.966   2.654 -0.3664  1.0952 -0.1838
 4237SOL     OW24172   1.753   3.105   5.404  0.1763  0.0870 -0.6101
 4237SOL    HW124173   1.749   3.102   5.309 -1.0052 -1.2224 -0.5278
 4237SOL    HW224174   1.764   3.014   5.432 -0.7310 -0.6631 -2.7428
 4238SOL     OW24175   1.444   3.812   6.108  0.3216 -0.3836  0.8351
 4238SOL    HW124176   1.461   3.864   6.030  3.3221 -0.7143  1.2831
 4238SOL    HW224177   1.507   3.741   6.102  1.0112  0.1767  1.3968
 4239SOL     OW24178   3.298   1.350   4.102  0.2625 -0.2645  0.6816
 4239SOL    HW124179   3.308   1.421   4.038  0.3999  0.9360  2.0400
 4239SOL    HW224180   3.380   1.302   4.106 -0.8152 -1.9509  2.1456
 4240SOL     OW24181   3.551   3.402   4.481  0.2794  0.3055 -0.1068
 4240SOL    HW124182   3.464   3.423   4.514  1.0395  1.2918  1.2782
 4240SOL    HW224183   3.553   3.462   4.406 -0.5062 -1.1492 -1.2884
 4241SOL     OW24184   4.606   4.313   3.766 -0.5481  0.6772  0.1448
 4241SOL    HW124185   4.593   4.274   3.853 -1.5338  1.7302  0.4703
 4241SOL    HW224186   4.668   4.250   3.730 -1.6837 -0.5950  0.4108
 4242SOL     OW24187   3.217   1.214  15.148  0.4206 -0.1869  0.1084
 4242SOL    HW124188   3.166   1.230  15.069  1.5642  2.5283 -0.0945
 4242SOL    HW224189   3.200   1.123  15.174 -1.0163  0.1507  0.3150
 4243SOL     OW24190   4.304   1.439   4.067  0.2035 -0.0161 -0.3822
 4243SOL    HW124191   4.332   1.476   3.983 -2.6284  1.2619 -0.7477
 4243SOL    HW224192   4.251   1.370   4.028 -1.8873  1.4887 -0.1772
 4244SOL     OW24193   3.738   4.582   6.480 -0.0223 -0.0300  0.4386
 4244SOL    HW124194   3.676   4.655   6.476  0.3293  0.2024 -0.7250
 4244SOL    HW224195   3.815   4.632   6.509 -0.0142 -0.7782  1.6975
 4245SOL     OW24196   0.894   3.445   0.777  0.3327 -0.0383  0.4887
 4245SOL    HW124197   0.960   3.415   0.715 -0.0377 -0.9396  0.5137
 4245SOL    HW224198   0.852   3.362   0.802  0.4811  0.2764  1.7490
 4246SOL     OW24199   2.426   3.359  15.377 -0.4705 -0.5716 -0.4312
 4246SOL    HW124200   2.336   3.383  15.357 -0.9585 -0.2797  2.0628
 4246SOL    HW224201   2.444   3.423  15.446 -2.7756  2.1368 -2.3771
 4247SOL     OW24202   0.078   0.599  15.566  0.0945  0.0169 -0.1180
 4247SOL    HW124203   0.163   0.580  15.605  0.4407  1.5994 -0.1229
 4247SOL    HW224204   0.051   0.675  15.618 -4.2336 -1.2872 -0.3969
 4248SOL     OW24205   0.562   1.385  11.364  0.2708 -0.4266 -0.1563
 4248SOL    HW124206   0.520   1.464  11.398  0.8097 -1.9374  4.1121
 4248SOL    HW224207   0.582   1.413  11.275  0.5278  0.3880  0.1532
 4249SOL     OW24208   1.721   2.568   5.467 -0.5820 -0.4868 -0.1410
 4249SOL    HW124209   1.798   2.521   5.501  0.7296  0.4883 -1.7390
 4249SOL    HW224210   1.673   2.498   5.423 -2.1340 -0.4741  1.5381
 4250SOL     OW24211   0.231   1.563   8.436  0.2978  0.1716 -0.3176
 4250SOL    HW124212   0.150   1.579   8.386  0.7648  1.0686 -0.7815
 4250SOL    HW224213   0.233   1.655   8.462 -2.5063 -0.2674  1.5394
 4251SOL     OW24214   1.903   3.973  12.821 -0.1769 -0.0324  0.0103
 4251SOL    HW124215   1.818   3.961  12.865  0.9163  0.7979  2.3573
 4251SOL    HW224216   1.941   3.888  12.843 -0.0623  0.8492  3.3211
 4252SOL     OW24217   2.850   1.397   5.762 -0.3954  0.4765 -0.3073
 4252SOL    HW124218   2.884   1.357   5.682  0.4703 -1.5206  1.0628
 4252SOL    HW224219   2.928   1.452   5.773 -0.2102  0.0542  0.4735
 4253SOL     OW24220   1.107   0.863   8.055 -0.0892 -0.5803 -0.2400
 4253SOL    HW124221   1.185   0.915   8.036 -0.0087 -0.4833  0.3427
 4253SOL    HW224222   1.065   0.849   7.970 -1.6409  2.9159 -0.0684
 4254SOL     OW24223   4.131   4.486  15.092 -0.4581 -0.3626  0.6476
 4254SOL    HW124224   4.134   4.494  15.187  0.2726  0.4087  0.5552
 4254SOL    HW224225   4.058   4.545  15.078  0.9799  0.8228 -1.9304
 4255SOL     OW24226   2.062   0.132   5.957 -0.0245 -0.2400  0.2872
 4255SOL    HW124227   2.143   0.183   5.950 -1.0385  1.4819  0.8892
 4255SOL    HW224228   2.054   0.123   6.052  1.3428 -1.9114  0.2407
 4256SOL     OW24229   2.472   1.731  14.819  0.3091  0.2187  0.5637
 4256SOL    HW124230   2.391   1.697  14.779  0.2258  1.4892 -0.3390
 4256SOL    HW224231   2.445   1.821  14.837  0.9964  1.0246 -2.4851
 4257SOL     OW24232   3.730   3.393  14.654  0.0853 -0.6188 -0.4123
 4257SOL    HW124233   3.683   3.312  14.634 -0.9519  0.2026 -1.3402
 4257SOL    HW224234   3.791   3.401  14.581  0.5655 -0.9034 -0.0377
 4258SOL     OW24235   4.007   1.203   3.368 -0.2146 -0.3380 -0.3022
 4258SOL    HW124236   4.029   1.193   3.275  0.6081 -0.4193 -0.0981
 4258SOL    HW224237   3.929   1.147   3.367  0.9180 -1.9004 -2.8675
 4259SOL     OW24238   1.958   3.667   5.370  0.4014  0.3199  0.4023
 4259SOL    HW124239   1.959   3.659   5.274  0.1006  3.3455  0.1585
 4259SOL    HW224240   1.943   3.574   5.390  2.1164 -0.6817 -2.9807
 4260SOL     OW24241   3.805   3.783   7.350 -0.1078  0.2710 -0.8903
 4260SOL    HW124242   3.749   3.763   7.425  1.6599 -0.5127  0.2200
 4260SOL    HW224243   3.773   3.867   7.317  0.5629  1.8642  2.5934
 4261SOL     OW24244   0.123   4.668   7.617 -0.0551  0.0085 -0.7175
 4261SOL    HW124245   0.166   0.003   7.557  0.6652  0.2054 -0.0052
 4261SOL    HW224246   0.160   4.581   7.600 -0.1205 -0.5147  1.8189
 4262SOL     OW24247   0.926   0.250   8.877 -0.1468 -1.0115  0.4693
 4262SOL    HW124248   0.863   0.257   8.948  0.4090  2.9467  0.5310
 4262SOL    HW224249   0.988   0.314   8.913 -1.9534  0.7839  0.3500
 4263SOL     OW24250   3.196   2.516   4.895  0.3732 -0.3097  0.0104
 4263SOL    HW124251   3.161   2.590   4.945 -2.0897 -0.1535 -1.9939
 4263SOL    HW224252   3.232   2.462   4.966  1.7029 -0.6442 -0.9098
 4264SOL     OW24253   1.427   2.070   6.249  0.3961 -0.0233 -0.4647
 4264SOL    HW124254   1.337   2.101   6.247  0.2039 -0.6038 -0.7954
 4264SOL    HW224255   1.408   1.984   6.211 -4.5570  0.1887  1.5245
 4265SOL     OW24256   1.647   1.167   8.734  0.0913  0.3797 -0.0963
 4265SOL    HW124257   1.604   1.229   8.793  1.8000  1.6995 -0.2225
 4265SOL    HW224258   1.659   1.228   8.661  3.6856  3.3908  2.9918
 4266SOL     OW24259   1.543   4.593   6.698 -0.1776  0.6349 -0.4406
 4266SOL    HW124260   1.590   4.675   6.688  1.5633 -0.1465  1.4088
 4266SOL    HW224261   1.491   4.595   6.618 -0.0779  1.9213 -0.4770
 4267SOL     OW24262   2.534   1.848  15.191 -0.1126  0.0793  0.0799
 4267SOL    HW124263   2.463   1.911  15.177 -0.4486 -0.1046  0.9835
 4267SOL    HW224264   2.528   1.817  15.281 -0.1026 -0.2281 -0.0263
 4268SOL     OW24265   2.936   1.920   2.787 -0.1514  0.6029  0.1627
 4268SOL    HW124266   2.843   1.901   2.777  0.2914 -1.2220 -0.4868
 4268SOL    HW224267   2.971   1.831   2.785 -1.1259  0.2451 -1.0729
 4269SOL     OW24268   4.441   4.027   4.370  0.5175  0.4216  0.1894
 4269SOL    HW124269   4.499   4.088   4.324  1.8383 -2.8252 -2.4501
 4269SOL    HW224270   4.494   3.951   4.393 -0.3770 -1.0855 -2.8162
 4270SOL     OW24271   3.155   3.217  11.584  0.1845 -0.1441  0.1040
 4270SOL    HW124272   3.092   3.262  11.641  1.1753  0.2137  0.9198
 4270SOL    HW224273   3.189   3.286  11.527  0.3193  0.3913  0.8329
 4271SOL     OW24274   4.110   3.905   3.777  0.2182  0.1153  0.5673
 4271SOL    HW124275   4.063   3.963   3.837 -1.0142  0.6956 -0.9854
 4271SOL    HW224276   4.037   3.854   3.743  1.4502 -1.0328 -0.3366
 4272SOL     OW24277   1.811   0.769   2.815 -0.3171  0.3191  0.1694
 4272SOL    HW124278   1.829   0.749   2.723 -1.3217  1.4715 -0.2729
 4272SOL    HW224279   1.822   0.864   2.811  0.6333  0.2112  0.1294
 4273SOL     OW24280   0.653   2.893   9.585 -0.3119  0.0628  0.0995
 4273SOL    HW124281   0.586   2.869   9.648 -0.9510 -0.1649 -0.6701
 4273SOL    HW224282   0.686   2.971   9.632  0.0186  0.5994 -1.0208
 4274SOL     OW24283   0.131   4.153   3.197  0.7682 -0.1538 -0.1330
 4274SOL    HW124284   0.099   4.159   3.107  0.5353 -2.6099 -0.2136
 4274SOL    HW224285   0.225   4.147   3.183  1.0841  1.5173  1.2000
 4275SOL     OW24286   0.369   2.420   4.722  0.6190  0.1576 -0.1304
 4275SOL    HW124287   0.314   2.375   4.657  2.4541 -0.8961 -0.9496
 4275SOL    HW224288   0.308   2.425   4.796  1.2025  3.1647  0.1519
 4276SOL     OW24289   4.518   1.262   8.565 -0.0566 -0.0228  0.3325
 4276SOL    HW124290   4.530   1.257   8.659  0.8842  0.2522  0.2297
 4276SOL    HW224291   4.507   1.357   8.556 -0.1802  0.0173  0.9109
 4277SOL     OW24292   4.395   2.700   8.304 -0.0961  0.1185 -0.4690
 4277SOL    HW124293   4.310   2.725   8.267 -0.9087  0.5741  1.6934
 4277SOL    HW224294   4.459   2.770   8.292  0.3785 -0.3799 -0.8074
 4278SOL     OW24295   4.305   0.297   2.146 -0.0175 -0.1045  0.1843
 4278SOL    HW124296   4.277   0.229   2.206 -2.5434  0.3746 -0.4458
 4278SOL    HW224297   4.305   0.248   2.064 -2.4038  0.6600 -0.2827
 4279SOL     OW24298   1.568   1.080   0.000 -0.2237 -0.4883  0.6448
 4279SOL    HW124299   1.524   1.105   0.081 -3.1987 -1.3061 -0.6928
 4279SOL    HW224300   1.514   1.007  17.668  1.7383 -1.1245 -1.2429
 4280SOL     OW24301   0.349   2.556   8.222 -0.1824  0.2336  0.2276
 4280SOL    HW124302   0.301   2.638   8.221  0.8119  0.8409  2.2715
 4280SOL    HW224303   0.308   2.517   8.299 -1.5817  1.4151  0.0618
 4281SOL     OW24304   0.097   4.177  11.669 -0.1970 -0.1638 -0.4300
 4281SOL    HW124305   0.133   4.193  11.582 -0.4216 -1.5324 -0.7704
 4281SOL    HW224306   0.126   4.254  11.718 -0.2388 -1.1911  1.2133
 4282SOL     OW24307   4.051   4.655   3.991 -0.2737 -0.2726 -0.2251
 4282SOL    HW124308   4.093   4.699   4.064 -0.7038 -1.0650  0.4904
 4282SOL    HW224309   3.960   4.649   4.020 -0.0315  0.0631  0.5868
 4283SOL     OW24310   4.001   3.320   6.526 -0.0069 -0.2753  0.0242
 4283SOL    HW124311   4.081   3.344   6.478  0.2726 -2.6609 -0.7039
 4283SOL    HW224312   3.980   3.399   6.575 -0.9121 -0.3375 -0.2720
 4284SOL     OW24313   1.329   0.427   6.042  0.1118  0.3256  0.3563
 4284SOL    HW124314   1.321   0.511   6.088  1.7589 -0.0288  1.3135
 4284SOL    HW224315   1.395   0.397   6.104  0.0391 -0.8812 -0.1568
 4285SOL     OW24316   1.066   2.981   6.221 -0.0817 -0.4121 -0.1122
 4285SOL    HW124317   1.001   3.051   6.217  1.6019  0.9716 -3.7783
 4285SOL    HW224318   1.059   2.955   6.313 -1.5473  0.3211 -0.0201
 4286SOL     OW24319   0.533   1.546   4.207 -0.4060 -0.5075 -0.2808
 4286SOL    HW124320   0.620   1.507   4.194  0.2907  1.0673 -0.3042
 4286SOL    HW224321   0.486   1.522   4.127  1.0935 -0.5495 -1.1562
 4287SOL     OW24322   4.204   2.536   3.979  0.0069 -0.7563  0.0102
 4287SOL    HW124323   4.233   2.569   4.064 -0.4072  1.5588 -0.7680
 4287SOL    HW224324   4.130   2.595   3.965  0.9884  0.0700 -1.7923
 4288SOL     OW24325   0.312   1.800   5.272  0.4297 -0.4133 -0.0651
 4288SOL    HW124326   0.368   1.840   5.205  1.9500 -1.8385  0.3419
 4288SOL    HW224327   0.342   1.710   5.276 -0.8134 -0.7526  1.4533
 4289SOL     OW24328   1.916   0.086   6.342 -0.0747  0.2736  0.0292
 4289SOL    HW124329   1.924   0.181   6.333 -0.7543  0.2963 -0.3420
 4289SOL    HW224330   1.983   0.065   6.407 -0.6082  1.7228  1.0346
 4290SOL     OW24331   2.375   1.196  11.323  0.1942  0.2175 -1.2200
 4290SOL    HW124332   2.302   1.241  11.281 -0.7986  0.2568  0.5706
 4290SOL    HW224333   2.324   1.153  11.390  3.7241  0.4818  1.6605
 4291SOL     OW24334   4.599   1.971   4.488 -0.5281 -0.2413  0.1611
 4291SOL    HW124335   4.648   1.890   4.499  2.6189  1.6492  0.2898
 4291SOL    HW224336   4.643   2.018   4.417 -1.4655 -0.4294 -0.5350
 4292SOL     OW24337   4.097   4.260  11.548  0.0335 -0.1349  0.1511
 4292SOL    HW124338   4.187   4.251  11.578  1.0051 -1.5858 -3.2529
 4292SOL    HW224339   4.058   4.175  11.566 -0.3690  0.4436  1.9909
 4293SOL     OW24340   0.621   2.157  11.866 -0.2789  0.1890  0.5832
 4293SOL    HW124341   0.550   2.135  11.806  1.0750 -1.9325 -0.2255
 4293SOL    HW224342   0.661   2.075  11.897 -1.0771  0.1342  1.4743
 4294SOL     OW24343   3.760   4.220   5.659 -0.7627 -0.2995 -0.1219
 4294SOL    HW124344   3.694   4.273   5.703  1.0855  0.2108  1.9993
 4294SOL    HW224345   3.784   4.288   5.596 -0.3346 -1.7573 -1.5259
 4295SOL     OW24346   0.322   3.181   4.074 -0.4890 -0.5245  0.3537
 4295SOL    HW124347   0.233   3.148   4.066 -0.4066 -0.9831  1.3244
 4295SOL    HW224348   0.341   3.137   4.157  1.0151  0.9221  0.7762
 4296SOL     OW24349   2.908   0.330   9.572  0.1427  0.2108 -0.0838
 4296SOL    HW124350   2.876   0.322   9.662 -1.1250  0.6385 -0.5119
 4296SOL    HW224351   3.002   0.313   9.583 -0.1461 -1.9517 -1.0097
 4297SOL     OW24352   2.245   0.036   8.233  0.5340  0.2620 -0.0289
 4297SOL    HW124353   2.257   0.003   8.145 -4.5228 -0.3354 -0.5280
 4297SOL    HW224354   2.325   0.022   8.283 -0.3690 -2.3961  0.6551
 4298SOL     OW24355   3.970   2.754  17.682 -0.1068 -0.0341  0.5614
 4298SOL    HW124356   3.915   2.828  17.655  0.2458 -0.4000 -1.1868
 4298SOL    HW224357   3.898   2.691  17.690  0.9244 -0.8649  3.0205
 4299SOL     OW24358   2.045   0.967  17.666  0.3519 -0.4119  0.3551
 4299SOL    HW124359   1.960   0.942   0.003  0.5177 -2.2179 -0.5167
 4299SOL    HW224360   2.024   1.050  17.623 -1.0053 -0.4721  0.9027
 4300SOL     OW24361   3.909   2.873   4.020 -0.5046 -0.5425 -0.2116
 4300SOL    HW124362   4.000   2.901   4.004  0.3406 -3.0251  0.1559
 4300SOL    HW224363   3.869   2.920   3.947 -1.9584  0.8091  1.4805
 4301SOL     OW24364   0.003   1.205  17.194  0.6164  0.0068 -0.4177
 4301SOL    HW124365   4.669   1.131  17.181  3.3666 -2.3664  0.5367
 4301SOL    HW224366   0.088   1.173  17.164  0.6047 -1.1746  0.8162
 4302SOL     OW24367   3.154   0.582  11.467  0.2972 -0.1349  0.5230
 4302SOL    HW124368   3.166   0.503  11.415  1.3012 -0.0645  0.6517
 4302SOL    HW224369   3.097   0.530  11.524 -1.4778 -0.4161 -1.5341
 4303SOL     OW24370   1.566   0.379   6.195 -0.2055  0.1720 -0.1438
 4303SOL    HW124371   1.582   0.466   6.232 -2.1021  0.3131  0.3544
 4303SOL    HW224372   1.588   0.323   6.270 -0.5457 -0.5343 -0.5820
 4304SOL     OW24373   1.895   4.706   2.854  0.4896 -0.2987  0.3554
 4304SOL    HW124374   1.902   0.035   2.776  0.7015  0.7487  1.0908
 4304SOL    HW224375   1.960   4.635   2.848  1.0026  0.2059  0.0043
 4305SOL     OW24376   1.786   1.524   0.618 -0.0371 -0.1190  0.5574
 4305SOL    HW124377   1.844   1.485   0.684  0.2374  1.2155  1.1209
 4305SOL    HW224378   1.800   1.617   0.638 -3.9074  0.3862  1.0612
 4306SOL     OW24379   2.487   1.878   0.179  0.6923 -0.7673 -0.8005
 4306SOL    HW124380   2.484   1.815   0.251 -0.7839 -0.4607 -0.5892
 4306SOL    HW224381   2.467   1.820   0.106  0.4102  0.7068 -1.8966
 4307SOL     OW24382   4.403   2.262   6.873  0.8543 -0.6452 -0.3564
 4307SOL    HW124383   4.441   2.240   6.959  1.0197 -2.6183 -0.9380
 4307SOL    HW224384   4.448   2.347   6.867  0.6116 -0.4107  1.0413
 4308SOL     OW24385   4.565   1.721   6.719  0.1788  0.3998 -0.2980
 4308SOL    HW124386   4.511   1.761   6.788  0.8483  0.5038  0.1672
 4308SOL    HW224387   4.624   1.796   6.711 -0.8864  1.1255 -1.2191
 4309SOL     OW24388   1.558   0.124  16.160 -0.4308  0.0089  0.1246
 4309SOL    HW124389   1.500   0.188  16.119  0.6276  0.3695 -0.8218
 4309SOL    HW224390   1.490   0.083  16.213 -0.5402  3.5595  2.7075
 4310SOL     OW24391   0.939   3.704   0.760 -0.4848 -0.9559  0.5760
 4310SOL    HW124392   0.897   3.722   0.844 -1.8907 -1.0031 -0.1031
 4310SOL    HW224393   0.925   3.610   0.764 -0.3597 -1.0502 -1.1538
 4311SOL     OW24394   2.461   2.164   5.851  0.4124 -0.3128  0.2404
 4311SOL    HW124395   2.421   2.223   5.915  1.2027 -0.5981  1.0082
 4311SOL    HW224396   2.470   2.084   5.902  0.6179  0.0921  0.8435
 4312SOL     OW24397   1.946   4.023   4.464 -0.4195  0.0680 -0.5750
 4312SOL    HW124398   1.953   4.109   4.422 -0.6029  0.5681  0.4318
 4312SOL    HW224399   2.039   3.999   4.467 -0.5159 -0.1849  0.2716
 4313SOL     OW24400   1.237   2.317   0.897  0.0239 -0.2307  0.3701
 4313SOL    HW124401   1.227   2.402   0.855  1.8507 -2.1727 -3.9761
 4313SOL    HW224402   1.280   2.265   0.829 -0.6771 -1.1180  0.6098
 4314SOL     OW24403   3.755   4.712   2.728 -0.6038 -0.1064 -0.2550
 4314SOL    HW124404   3.680   4.655   2.743  0.5523 -1.2424  1.1767
 4314SOL    HW224405   3.818   4.651   2.689 -0.3435  0.6937 -1.0963
 4315SOL     OW24406   1.413   3.745   0.063  0.1719 -0.4347 -0.0030
 4315SOL    HW124407   1.384   3.656   0.079  0.6271 -0.7857 -1.1072
 4315SOL    HW224408   1.385   3.796   0.139  2.4942  0.4470  0.2671
 4316SOL     OW24409   4.423   4.565   2.586  0.3534  0.0101  0.1951
 4316SOL    HW124410   4.394   4.495   2.528 -1.0775  0.5993  0.2047
 4316SOL    HW224411   4.350   4.578   2.646  0.4595  0.0916  0.3059
 4317SOL     OW24412   1.615   2.086   6.976 -0.8128  0.2752  0.6028
 4317SOL    HW124413   1.635   1.994   6.959  1.2172  1.2554 -2.1992
 4317SOL    HW224414   1.527   2.075   7.013 -1.3443 -0.7256 -0.9733
 4318SOL     OW24415   3.325   4.525   4.345  0.4569  0.0009  0.1874
 4318SOL    HW124416   3.339   4.439   4.305  0.4761 -0.1343  0.4888
 4318SOL    HW224417   3.239   4.549   4.313  0.7268 -0.1702 -0.6741
 4319SOL     OW24418   3.146   2.436   2.476  0.1995 -0.6039 -0.2558
 4319SOL    HW124419   3.101   2.490   2.542 -0.3065 -2.1316  0.6387
 4319SOL    HW224420   3.191   2.379   2.538 -0.5854 -3.6177 -2.4747
 4320SOL     OW24421   4.009   3.514   3.225 -0.0466  0.4960  0.5566
 4320SOL    HW124422   4.054   3.583   3.176 -1.0583  0.0658 -0.9794
 4320SOL    HW224423   4.076   3.484   3.287 -0.0746  0.0860  0.3845
 4321SOL     OW24424   1.957   2.154   8.158 -0.2079  0.8518 -0.1369
 4321SOL    HW124425   1.902   2.092   8.205  0.7236  0.5994  0.6286
 4321SOL    HW224426   1.896   2.204   8.104  0.0263  2.5613  1.1638
 4322SOL     OW24427   3.925   0.287   2.042 -0.0618  0.3011 -0.1586
 4322SOL    HW124428   3.863   0.256   2.109 -0.3176  2.1014  0.4359
 4322SOL    HW224429   3.909   0.223   1.973  0.6408  1.5864 -1.4987
 4323SOL     OW24430   3.873   4.318   7.215  0.0475 -0.5411  0.2078
 4323SOL    HW124431   3.932   4.341   7.143  0.6935 -1.3653  0.4790
 4323SOL    HW224432   3.931   4.270   7.273  1.6326  1.2380  0.0820
 4324SOL     OW24433   2.942   4.367   4.619 -0.0799  0.1769  0.4296
 4324SOL    HW124434   2.959   4.369   4.713 -0.4537 -2.1964  0.5489
 4324SOL    HW224435   2.942   4.458   4.589 -1.5898  0.1152  0.2437
 4325SOL     OW24436   1.564   1.571  10.049 -0.0025  0.6521  0.3512
 4325SOL    HW124437   1.566   1.558   9.954 -3.5006 -0.6016  0.4722
 4325SOL    HW224438   1.567   1.666  10.053  1.2096  0.6443 -0.0542
 4326SOL     OW24439   0.346   0.196   5.905 -0.2438  0.1886 -0.4486
 4326SOL    HW124440   0.318   0.166   5.992 -0.6482  1.5722 -0.0927
 4326SOL    HW224441   0.384   0.116   5.870 -2.3144 -1.2040  0.5081
 4327SOL     OW24442   2.445   0.898   6.004  0.3127  0.4263  0.4530
 4327SOL    HW124443   2.379   0.884   5.936 -0.0446  0.5550  0.7710
 4327SOL    HW224444   2.524   0.863   5.964 -0.5709 -0.7973 -0.2405
 4328SOL     OW24445   4.695   4.374   3.268 -0.6036 -0.4415 -0.2070
 4328SOL    HW124446   0.045   4.315   3.275 -0.9182 -0.4529  2.7522
 4328SOL    HW224447   0.007   4.432   3.202  1.3018 -0.0612  1.2083
 4329SOL     OW24448   2.342   2.362   3.076  0.0156  0.8181  0.3246
 4329SOL    HW124449   2.280   2.300   3.115  0.3229 -0.9204 -1.9359
 4329SOL    HW224450   2.278   2.431   3.054  0.7879  2.2082  2.4538
 4330SOL     OW24451   0.991   3.497  14.134 -0.2378  0.3894 -0.1267
 4330SOL    HW124452   0.969   3.424  14.191  2.4763 -0.6311 -0.4343
 4330SOL    HW224453   1.024   3.555  14.203 -1.8287  0.0514  0.9314
 4331SOL     OW24454   0.856   2.107   3.740 -0.6582 -0.2617 -0.1642
 4331SOL    HW124455   0.777   2.054   3.750 -2.6184  3.0603  2.0066
 4331SOL    HW224456   0.834   2.176   3.678  2.2091 -0.1305 -1.0647
 4332SOL     OW24457   1.262   3.002   6.757  0.0335 -0.4275  0.2051
 4332SOL    HW124458   1.259   2.934   6.823 -0.7893 -3.0510 -2.5214
 4332SOL    HW224459   1.260   2.939   6.685 -2.2160  1.2210 -1.2052
 4333SOL     OW24460   3.235   3.517  16.846  0.1439 -0.3044 -0.0926
 4333SOL    HW124461   3.319   3.476  16.869  0.6063  0.3286 -0.6476
 4333SOL    HW224462   3.198   3.459  16.779  1.4914  0.0821 -1.1958
 4334SOL     OW24463   4.270   1.251  10.938  0.0080 -0.5708  0.4373
 4334SOL    HW124464   4.353   1.285  10.904 -0.7971 -0.4890 -1.4541
 4334SOL    HW224465   4.275   1.301  11.019 -0.2652 -2.1013  1.3891
 4335SOL     OW24466   2.527   1.275   6.781  0.3547 -0.8663  0.1933
 4335SOL    HW124467   2.446   1.323   6.801 -0.7254 -1.6066 -2.3318
 4335SOL    HW224468   2.486   1.206   6.729 -1.9866  0.4902  0.2358
 4336SOL     OW24469   3.280   0.838   9.771 -0.4089  0.6890 -0.1413
 4336SOL    HW124470   3.205   0.859   9.827  0.1333 -0.5228  1.0426
 4336SOL    HW224471   3.269   0.893   9.693 -0.8253 -2.4915 -2.3361
 4337SOL     OW24472   2.581   1.182   3.095 -0.2220 -0.4396 -0.1534
 4337SOL    HW124473   2.569   1.090   3.069  0.0165 -0.1718 -1.2083
 4337SOL    HW224474   2.658   1.205   3.042  0.4925  0.4993  1.3039
 4338SOL     OW24475   2.361   3.665   5.028  0.5744  0.3359  0.0124
 4338SOL    HW124476   2.313   3.735   4.985 -0.1200 -1.1373 -1.5978
 4338SOL    HW224477   2.338   3.671   5.121  2.4817 -1.6425  0.6176
 4339SOL     OW24478   1.318   0.744   5.392 -0.9429 -0.0152  0.2119
 4339SOL    HW124479   1.279   0.814   5.340  1.0577  0.1608 -1.0770
 4339SOL    HW224480   1.402   0.787   5.409 -0.9041 -0.5386  1.3028
 4340SOL     OW24481   0.861   2.522   7.086  0.1238 -0.4048 -0.2562
 4340SOL    HW124482   0.824   2.512   7.173  0.3940 -0.3093 -0.1283
 4340SOL    HW224483   0.941   2.470   7.091  0.1249 -0.2331  1.3713
 4341SOL     OW24484   2.888   3.370  16.515 -0.1511 -0.5127 -0.0520
 4341SOL    HW124485   2.806   3.322  16.505 -0.2059 -0.3908 -0.1874
 4341SOL    HW224486   2.942   3.344  16.440  0.6019 -0.6456  0.5397
 4342SOL     OW24487   2.000   4.635  11.907 -0.3021 -0.3651  0.8004
 4342SOL    HW124488   1.915   4.612  11.945 -0.2533 -2.0595 -0.1171
 4342SOL    HW224489   2.061   4.629  11.980  0.2258 -0.8617  0.3148
 4343SOL     OW24490   3.446   0.300   5.170 -1.0872 -0.0066  0.0664
 4343SOL    HW124491   3.419   0.258   5.252  0.4030  0.4167  0.7751
 4343SOL    HW224492   3.466   0.229   5.108  0.6849  0.3612  0.2075
 4344SOL     OW24493   0.655   0.709   9.235 -0.3320  0.5717  0.5455
 4344SOL    HW124494   0.667   0.644   9.166  1.8039  0.6134  0.8738
 4344SOL    HW224495   0.560   0.718   9.235 -0.4255 -0.4728  0.4346
 4345SOL     OW24496   3.154   2.865  11.020  0.1001  0.0594  0.0003
 4345SOL    HW124497   3.075   2.911  11.048  0.7222 -0.0990  2.0181
 4345SOL    HW224498   3.213   2.934  10.990 -0.1694  0.5986  0.7224
 4346SOL     OW24499   1.080   4.411   1.580  0.2198 -0.4529 -0.1314
 4346SOL    HW124500   1.117   4.330   1.614 -4.2264 -2.6916 -0.5574
 4346SOL    HW224501   1.106   4.411   1.488 -0.2089  2.4776 -0.2479
 4347SOL     OW24502   4.071   3.110   2.492  0.0037 -0.2234  0.5958
 4347SOL    HW124503   4.059   3.161   2.572  1.7227  0.3598  0.4697
 4347SOL    HW224504   3.998   3.152   2.446 -1.1414 -1.2521  1.4514
 4348SOL     OW24505   2.702   2.983  14.051 -0.7567 -0.2925 -0.0946
 4348SOL    HW124506   2.702   2.888  14.063  0.8896 -0.4330 -1.1731
 4348SOL    HW224507   2.789   3.010  14.081 -0.6388 -0.2310 -0.4873
 4349SOL     OW24508   1.205   0.150  16.943  0.1267  0.3472  0.0408
 4349SOL    HW124509   1.264   0.165  17.017 -0.2266  1.1461  0.1630
 4349SOL    HW224510   1.267   0.134  16.872 -2.6209 -2.4997 -1.7082
 4350SOL     OW24511   4.641   0.912   4.674 -0.4417 -0.0046 -0.6011
 4350SOL    HW124512   4.654   0.835   4.620 -3.3159 -1.1082  0.2907
 4350SOL    HW224513   4.665   0.983   4.615  0.3404  0.2406  0.0129
 4351SOL     OW24514   4.372   3.961   9.622 -0.0075 -0.7193  0.3603
 4351SOL    HW124515   4.355   4.051   9.653  3.0738 -0.3797  1.0515
 4351SOL    HW224516   4.432   3.969   9.548  0.1688  1.0092  0.6921
 4352SOL     OW24517   2.377   0.381  16.269  0.3849 -0.4582  0.0275
 4352SOL    HW124518   2.418   0.439  16.205 -1.3295  2.3760  1.5040
 4352SOL    HW224519   2.453   0.332  16.301  2.3987  3.5392  1.3318
 4353SOL     OW24520   1.661   1.601   6.827  0.1889 -0.4509 -0.2940
 4353SOL    HW124521   1.660   1.592   6.732 -0.1876  2.7367 -0.5941
 4353SOL    HW224522   1.744   1.561   6.853  0.2994 -0.3281 -0.4597
 4354SOL     OW24523   3.245   4.421   8.317  0.1642 -0.0882  0.1779
 4354SOL    HW124524   3.232   4.516   8.318 -0.0619 -0.1223  2.3388
 4354SOL    HW224525   3.314   4.414   8.251  0.4606  0.4072  0.4299
 4355SOL     OW24526   4.338   4.432   2.371 -0.2559 -0.3473  0.1386
 4355SOL    HW124527   4.390   4.354   2.391  0.3467 -0.2357 -1.0014
 4355SOL    HW224528   4.384   4.471   2.296  1.0089  1.2794  1.7661
 4356SOL     OW24529   0.806   0.608  15.863  0.2340 -0.2802 -0.3436
 4356SOL    HW124530   0.712   0.589  15.866 -0.4111  2.7072 -1.7258
 4356SOL    HW224531   0.836   0.602  15.953  3.1335 -1.2719 -1.3595
 4357SOL     OW24532   3.388   4.354   3.970 -0.1939 -0.1308  0.6866
 4357SOL    HW124533   3.316   4.415   3.953  1.6294  1.4984 -1.3069
 4357SOL    HW224534   3.422   4.335   3.883 -0.2953 -1.9022  1.0401
 4358SOL     OW24535   1.089   1.258   3.354 -0.3517 -0.1870 -0.0001
 4358SOL    HW124536   1.142   1.223   3.425 -0.7753 -2.7240 -0.9224
 4358SOL    HW224537   1.016   1.290   3.407  0.7395 -0.0942  1.4412
 4359SOL     OW24538   2.150   3.603   5.852 -0.1823 -0.2710  0.0956
 4359SOL    HW124539   2.064   3.641   5.870 -1.2347 -1.6441 -2.1109
 4359SOL    HW224540   2.196   3.669   5.800  0.5886 -2.6106 -2.1996
 4360SOL     OW24541   4.286   1.617   0.597 -0.0048  0.0480  1.1310
 4360SOL    HW124542   4.300   1.710   0.614  2.1506 -0.4238  2.0313
 4360SOL    HW224543   4.335   1.570   0.665 -1.3300 -3.0674 -0.0780
 4361SOL     OW24544   3.142   3.517  12.657 -0.4137  0.0893 -0.0497
 4361SOL    HW124545   3.067   3.505  12.599 -0.1571  1.0968 -0.5842
 4361SOL    HW224546   3.182   3.593  12.614  0.3920  0.7284  1.7885
 4362SOL     OW24547   1.624   0.879   7.054  0.5159 -0.2471 -0.1051
 4362SOL    HW124548   1.617   0.836   6.969 -1.3878  0.6755 -0.4065
 4362SOL    HW224549   1.675   0.956   7.032  1.5758 -0.5480  1.3003
 4363SOL     OW24550   1.324   0.975  13.379 -0.1316  0.0361  0.2482
 4363SOL    HW124551   1.350   0.897  13.429 -0.9053 -0.7577 -0.5769
 4363SOL    HW224552   1.378   1.044  13.418 -0.6801  0.7932 -0.3314
 4364SOL     OW24553   0.567   0.638   2.814 -0.5308  0.5241  0.1322
 4364SOL    HW124554   0.524   0.553   2.817  3.5511 -1.6445 -2.0981
 4364SOL    HW224555   0.505   0.707   2.838 -3.5310 -1.8232 -0.8526
 4365SOL     OW24556   3.897   1.440   2.074 -0.0690 -0.1457  0.0609
 4365SOL    HW124557   3.931   1.354   2.097  2.3885  0.2212 -2.2070
 4365SOL    HW224558   3.809   1.412   2.051 -0.2281  0.5155 -0.1559
 4366SOL     OW24559   4.554   3.214   4.193  0.0500  0.4034 -0.4174
 4366SOL    HW124560   4.461   3.191   4.188  0.4451 -0.9633 -1.1718
 4366SOL    HW224561   4.560   3.309   4.182 -0.3223  0.8201  2.8958
 4367SOL     OW24562   1.595   2.378   0.754 -0.0065  0.0929  0.1405
 4367SOL    HW124563   1.545   2.327   0.690  1.0110 -1.4336  0.5399
 4367SOL    HW224564   1.563   2.464   0.729  1.1351 -0.1562 -2.2009
 4368SOL     OW24565   1.838   0.609   3.780 -0.0646 -0.1086 -0.4638
 4368SOL    HW124566   1.917   0.632   3.730  0.1481  1.6055  0.6791
 4368SOL    HW224567   1.765   0.610   3.718  0.4385 -1.0160 -1.0802
 4369SOL     OW24568   0.166   1.071  17.418 -0.0265  0.0751 -0.3098
 4369SOL    HW124569   0.143   1.002  17.482 -1.9708  0.6963 -0.3242
 4369SOL    HW224570   0.091   1.059  17.359  0.1615  2.2614 -0.9871
 4370SOL     OW24571   2.433   2.605   7.808  0.4579 -0.7107  0.3975
 4370SOL    HW124572   2.491   2.530   7.800 -0.7233 -1.9098  3.2539
 4370SOL    HW224573   2.482   2.667   7.861  1.2165 -1.1848  0.2424
 4371SOL     OW24574   3.032   3.911   0.560 -0.0168 -0.0206  0.0579
 4371SOL    HW124575   2.993   3.993   0.590  0.5786 -0.1658  1.2096
 4371SOL    HW224576   2.958   3.851   0.547  0.6584 -0.5378 -1.4345
 4372SOL     OW24577   2.237   3.955   2.200  0.1950 -0.1386  0.7083
 4372SOL    HW124578   2.305   4.019   2.181 -0.1179 -0.1011 -0.2444
 4372SOL    HW224579   2.172   3.986   2.137  2.3119 -1.4759 -2.1227
 4373SOL     OW24580   0.378   0.522  10.045 -0.7516 -0.3498  0.3072
 4373SOL    HW124581   0.403   0.607  10.082 -0.4875  0.5478 -1.9430
 4373SOL    HW224582   0.349   0.465  10.116 -1.8116 -3.0344 -2.2748
 4374SOL     OW24583   1.104   2.483  10.396  0.9909  0.1919  0.1543
 4374SOL    HW124584   1.150   2.542  10.337 -0.6656  1.8442  0.5281
 4374SOL    HW224585   1.168   2.492  10.467 -1.6080  0.2765  2.4880
 4375SOL     OW24586   1.241   3.291  14.300 -0.0090  0.0824  0.4072
 4375SOL    HW124587   1.243   3.371  14.354 -0.0475 -0.8562  1.8086
 4375SOL    HW224588   1.150   3.286  14.270  0.2274  3.7392 -0.9360
 4376SOL     OW24589   2.012   2.080   4.724 -0.2928  0.1685 -0.7230
 4376SOL    HW124590   2.040   2.002   4.676 -1.4165 -0.1907 -0.8136
 4376SOL    HW224591   1.918   2.087   4.703 -0.3141 -0.7673 -0.9457
 4377SOL     OW24592   1.034   0.184   9.634 -0.0805  0.0123 -0.3734
 4377SOL    HW124593   0.958   0.242   9.642 -0.7824 -0.6043 -2.5474
 4377SOL    HW224594   1.107   0.224   9.681 -0.5115  0.0068  0.3010
 4378SOL     OW24595   3.835   0.972   5.400 -0.3575  0.2124 -0.3828
 4378SOL    HW124596   3.872   0.886   5.418 -0.3075 -0.2830 -2.8258
 4378SOL    HW224597   3.878   1.025   5.467  1.6064 -1.3977 -0.3830
 4379SOL     OW24598   1.119   4.164  12.127 -0.0097 -0.1100 -0.5084
 4379SOL    HW124599   1.116   4.199  12.037  0.4212  0.3942 -0.3261
 4379SOL    HW224600   1.214   4.156  12.137  0.1123  0.0444 -1.4871
 4380SOL     OW24601   4.343   3.548   5.057 -0.0668 -0.4683 -0.6937
 4380SOL    HW124602   4.377   3.588   5.137 -1.1941 -1.3522  0.2254
 4380SOL    HW224603   4.281   3.488   5.100 -0.6537  1.6158  1.3282
 4381SOL     OW24604   2.161   2.348   3.616 -0.0565 -0.7540 -0.4435
 4381SOL    HW124605   2.130   2.262   3.643  3.1592 -1.7725 -0.0162
 4381SOL    HW224606   2.248   2.346   3.654 -1.1090 -1.0484  1.9400
 4382SOL     OW24607   2.662   4.563  12.738 -0.3850  0.1327 -0.2547
 4382SOL    HW124608   2.720   4.488  12.747 -0.6271 -0.2905 -2.2411
 4382SOL    HW224609   2.616   4.539  12.658 -0.0908 -1.0421 -0.0741
 4383SOL     OW24610   0.642   3.378   4.766  0.3026 -0.5567 -0.3818
 4383SOL    HW124611   0.672   3.287   4.756 -0.1517 -0.7416 -0.0943
 4383SOL    HW224612   0.732   3.408   4.757  0.6021 -0.7017  2.0243
 4384SOL     OW24613   2.506   0.657  12.511  0.2029 -0.0747 -0.3551
 4384SOL    HW124614   2.572   0.642  12.443  0.2494 -0.9365 -0.1184
 4384SOL    HW224615   2.538   0.600  12.580 -1.0171  1.3457  1.3694
 4385SOL     OW24616   3.386   0.210   5.686 -0.3771  0.2773 -0.0635
 4385SOL    HW124617   3.302   0.178   5.719 -0.4485 -0.2560 -0.7514
 4385SOL    HW224618   3.451   0.147   5.717  1.3415  1.4804 -1.2113
 4386SOL     OW24619   0.464   2.729   6.843  0.4708  0.1957  0.5526
 4386SOL    HW124620   0.395   2.664   6.858 -0.2779  1.0203  0.6994
 4386SOL    HW224621   0.481   2.729   6.749  0.5423 -3.3410  0.5391
 4387SOL     OW24622   2.705   3.238   7.218 -0.0380 -0.6339 -0.0741
 4387SOL    HW124623   2.670   3.256   7.305 -2.2355 -3.6553 -0.3489
 4387SOL    HW224624   2.698   3.143   7.212  0.3032 -0.6019 -0.9267
 4388SOL     OW24625   2.656   0.753   8.535 -0.3399 -0.4392 -0.5951
 4388SOL    HW124626   2.619   0.766   8.623  1.1409  1.7398 -0.2993
 4388SOL    HW224627   2.664   0.657   8.533  1.4687 -0.2632 -2.3786
 4389SOL     OW24628   0.127   4.232   6.892 -0.0105  0.2557 -0.8809
 4389SOL    HW124629   0.212   4.220   6.934 -0.3141 -1.1385 -0.6949
 4389SOL    HW224630   0.140   4.197   6.804  0.8607  2.1182 -1.4979
 4390SOL     OW24631   2.217   0.457   2.385 -0.0642 -0.2899 -0.0024
 4390SOL    HW124632   2.309   0.467   2.407 -0.5695  3.2925  0.4533
 4390SOL    HW224633   2.180   0.540   2.415  0.1766 -0.7736  1.6484
 4391SOL     OW24634   0.063   3.963   5.018 -0.6709  0.7336  0.0062
 4391SOL    HW124635   0.123   4.037   5.012 -0.7357  0.8150  0.3242
 4391SOL    HW224636   4.711   4.003   4.976 -0.4695  1.5138  0.3712
 4392SOL     OW24637   2.598   2.103   2.636  0.3922  0.4246 -0.2240
 4392SOL    HW124638   2.587   2.081   2.729  2.9099  2.5182  0.5465
 4392SOL    HW224639   2.692   2.088   2.632  0.5843  2.2606 -2.3468
 4393SOL     OW24640   0.802   2.672  13.114 -0.2330 -0.6493 -0.3528
 4393SOL    HW124641   0.855   2.646  13.190  2.0224  2.3165 -0.9496
 4393SOL    HW224642   0.867   2.677  13.044  1.5783 -1.8801  1.2426
 4394SOL     OW24643   3.577   1.231   5.711  0.1991 -0.7490  0.5693
 4394SOL    HW124644   3.531   1.284   5.775  1.7973  0.6216  0.5966
 4394SOL    HW224645   3.522   1.154   5.695 -1.9201  0.3086  2.9480
 4395SOL     OW24646   4.581   0.088   5.884 -0.4979 -0.3543 -0.5230
 4395SOL    HW124647   4.632   0.135   5.818  1.1420 -0.4051  0.7216
 4395SOL    HW224648   4.506   0.064   5.830 -0.8382 -2.1434  0.7703
 4396SOL     OW24649   4.319   0.881   8.576  0.7442 -0.3479  0.1719
 4396SOL    HW124650   4.410   0.901   8.552  1.3994 -2.3621  1.0357
 4396SOL    HW224651   4.322   0.898   8.670 -2.2398 -0.2406  0.2350
 4397SOL     OW24652   3.534   0.364  10.176  0.2934 -0.2125  0.5183
 4397SOL    HW124653   3.493   0.278  10.182 -0.3255  0.0522  0.0406
 4397SOL    HW224654   3.449   0.405  10.192  1.3608  2.2566 -0.1792
 4398SOL     OW24655   4.384   2.927   3.861  0.7467  0.0364 -0.3320
 4398SOL    HW124656   4.398   2.995   3.794 -0.8720  3.6097  2.9380
 4398SOL    HW224657   4.446   2.863   3.826  0.7055 -0.1949  0.0244
 4399SOL     OW24658   3.888   1.914   5.423 -0.4529 -0.3051 -0.4413
 4399SOL    HW124659   3.894   1.934   5.516 -1.5165 -1.6832 -0.0758
 4399SOL    HW224660   3.794   1.902   5.408 -0.5428 -0.6490  0.4257
 4400SOL     OW24661   4.032   3.842   8.726 -0.3140 -0.2060  0.5306
 4400SOL    HW124662   4.091   3.776   8.763 -0.8172 -0.0777  1.5870
 4400SOL    HW224663   3.994   3.869   8.810 -0.7339  1.0087 -0.0609
 4401SOL     OW24664   3.876   3.359   9.420  0.1942  0.2365  0.1440
 4401SOL    HW124665   3.799   3.385   9.370 -0.3798  1.1086  1.4490
 4401SOL    HW224666   3.917   3.439   9.454  1.4240 -0.7652  1.0143
 4402SOL     OW24667   1.700   3.288  13.602 -0.0831  0.5975 -0.2638
 4402SOL    HW124668   1.771   3.323  13.656  0.5889  1.2223 -1.5691
 4402SOL    HW224669   1.670   3.215  13.657  0.8029  1.9899  2.0773
 4403SOL     OW24670   0.126   1.535   1.357 -0.1254  0.1911  0.0853
 4403SOL    HW124671   0.135   1.502   1.447 -0.0731  0.4049  0.1598
 4403SOL    HW224672   0.136   1.629   1.374 -1.5838  0.2845  0.3690
 4404SOL     OW24673   0.195   2.596   9.583  0.6533  0.2276 -0.5017
 4404SOL    HW124674   0.144   2.649   9.645 -0.6208 -2.5977  0.8375
 4404SOL    HW224675   0.150   2.639   9.510  1.1986  0.1493 -0.8812
 4405SOL     OW24676   0.349   4.556   8.493 -0.2507  0.1907 -0.1583
 4405SOL    HW124677   0.324   4.464   8.503 -0.1692 -0.0241 -2.0758
 4405SOL    HW224678   0.382   4.569   8.582 -2.5683  1.0789  0.5830
 4406SOL     OW24679   0.960   4.055   5.185  0.2543 -0.3894  0.4348
 4406SOL    HW124680   0.962   3.995   5.260  1.6946  0.3839  1.0083
 4406SOL    HW224681   0.879   4.026   5.143 -0.1266  0.1925  0.7737
 4407SOL     OW24682   3.090   3.719   8.041  0.1534  0.1177 -0.0403
 4407SOL    HW124683   3.003   3.721   8.081 -0.7219  1.8649 -2.0515
 4407SOL    HW224684   3.072   3.759   7.956  1.6483  1.4366  0.2408
 4408SOL     OW24685   2.211   1.569  13.307 -0.1895 -0.0700 -0.0922
 4408SOL    HW124686   2.285   1.509  13.295 -1.4377 -1.3823 -1.2715
 4408SOL    HW224687   2.192   1.590  13.216 -0.6266 -1.4947 -0.3333
 4409SOL     OW24688   4.198   3.291  14.830 -0.3851 -0.2391 -0.1275
 4409SOL    HW124689   4.284   3.316  14.864  0.1136  1.6327 -2.8603
 4409SOL    HW224690   4.224   3.201  14.811  0.8896 -0.2087  1.4196
 4410SOL     OW24691   2.135   0.812  16.938  0.3084  0.3859  0.1144
 4410SOL    HW124692   2.081   0.821  16.860 -1.6053 -1.7423  1.1871
 4410SOL    HW224693   2.203   0.762  16.893 -0.7364 -0.4140 -0.5755
 4411SOL     OW24694   2.314   4.646   7.680 -0.0915  0.0352 -0.2864
 4411SOL    HW124695   2.329   4.552   7.670 -0.4719 -0.0464 -0.0903
 4411SOL    HW224696   2.315   4.674   7.588 -1.4306 -1.7820 -0.8546
 4412SOL     OW24697   2.033   2.358  17.122 -0.2141  0.3261  0.0892
 4412SOL    HW124698   1.983   2.286  17.083 -0.0522  2.1162 -3.3881
 4412SOL    HW224699   2.031   2.421  17.050 -3.3458 -0.5614 -0.5991
 4413SOL     OW24700   2.387   2.521  11.884  0.2401 -0.1750 -0.0103
 4413SOL    HW124701   2.300   2.481  11.891 -0.0660  0.4481 -0.2534
 4413SOL    HW224702   2.413   2.527  11.976 -1.3917  0.3461  0.4206
 4414SOL     OW24703   3.206   0.387   3.746  0.6666 -0.3219  0.0030
 4414SOL    HW124704   3.135   0.376   3.683 -1.5125  0.1378  2.3598
 4414SOL    HW224705   3.152   0.443   3.802  1.2454  0.6332 -0.3957
 4415SOL     OW24706   1.634   2.055  12.097 -0.1305  0.1483 -0.3836
 4415SOL    HW124707   1.616   2.053  12.191 -0.6576 -0.1599 -0.4859
 4415SOL    HW224708   1.725   2.027  12.086 -0.3358  0.2016 -2.2806
 4416SOL     OW24709   0.985   0.712   8.902 -0.2945  0.0264  0.8405
 4416SOL    HW124710   0.900   0.689   8.865  0.5307 -1.0530 -0.3621
 4416SOL    HW224711   0.957   0.761   8.980 -0.8848 -0.1808  0.7596
 4417SOL     OW24712   2.888   0.270   4.363 -0.8300  0.0706  0.4715
 4417SOL    HW124713   2.938   0.347   4.337  0.5223 -1.2304 -0.8138
 4417SOL    HW224714   2.809   0.303   4.320 -0.6558  0.5998  0.5619
 4418SOL     OW24715   2.168   0.204   4.501  0.2380  0.1065 -0.2993
 4418SOL    HW124716   2.235   0.256   4.457  2.3720 -1.6084  0.8963
 4418SOL    HW224717   2.083   0.231   4.466  1.0652  1.7902 -1.0204
 4419SOL     OW24718   3.497   1.219   4.768 -0.5225 -0.2580  0.9892
 4419SOL    HW124719   3.473   1.287   4.830 -2.7166 -1.2822  1.2785
 4419SOL    HW224720   3.550   1.168   4.828  0.1959  0.8755  1.3014
 4420SOL     OW24721   2.804   1.785   7.993 -0.1137  0.6839  0.3147
 4420SOL    HW124722   2.781   1.734   7.915  0.4805  0.7962  0.0658
 4420SOL    HW224723   2.760   1.738   8.064 -0.4600 -0.4855 -0.6699
 4421SOL     OW24724   1.868   3.789  16.796 -0.3296 -0.0642 -0.2466
 4421SOL    HW124725   1.900   3.860  16.741  0.6325 -1.0532 -0.9657
 4421SOL    HW224726   1.889   3.711  16.745  0.7100  0.6793 -0.9577
 4422SOL     OW24727   4.463   3.014  10.187 -0.4006 -0.1594 -0.0405
 4422SOL    HW124728   4.458   3.083  10.253 -2.4440 -2.0750  1.7638
 4422SOL    HW224729   4.451   3.061  10.104 -0.4148  0.9401  0.5910
 4423SOL     OW24730   4.132   3.682  15.107  0.1926 -0.2903 -0.5317
 4423SOL    HW124731   4.192   3.639  15.046  0.3070  1.2385 -1.4686
 4423SOL    HW224732   4.115   3.770  15.075 -1.2616 -0.9563 -1.5873
 4424SOL     OW24733   4.563   2.735  12.724 -0.7197  0.2105 -0.1532
 4424SOL    HW124734   4.624   2.731  12.797  1.4387 -0.7516 -2.0052
 4424SOL    HW224735   4.548   2.829  12.714 -2.5868 -0.0031  0.6404
 4425SOL     OW24736   4.340   3.600  14.935  0.4375 -0.0532 -0.0849
 4425SOL    HW124737   4.376   3.515  14.911  0.9719  0.0755  0.2682
 4425SOL    HW224738   4.382   3.671  14.886  2.5550 -1.9696 -1.0085
 4426SOL     OW24739   3.206   0.670   6.130  0.2537  0.4477  0.0361
 4426SOL    HW124740   3.294   0.638   6.151  0.1879  1.2646  1.5623
 4426SOL    HW224741   3.224   0.761   6.110 -0.9707  0.2741 -1.8809
 4427SOL     OW24742   4.721   4.292   5.417  0.8891  0.1590  0.4311
 4427SOL    HW124743   0.053   4.246   5.478  0.4077  0.4601  1.0966
 4427SOL    HW224744   0.019   4.382   5.439  1.5062 -0.2566  1.5031
 4428SOL     OW24745   2.937   4.084   7.929 -0.3573  0.1069 -0.9721
 4428SOL    HW124746   2.944   4.171   7.891  0.4408  1.2484  1.7828
 4428SOL    HW224747   3.030   4.074   7.946 -0.2756 -0.1852 -1.6044
 4429SOL     OW24748   2.696   3.950  16.429  0.1819  0.4867  0.1279
 4429SOL    HW124749   2.612   3.905  16.419 -0.2165  1.2704 -0.0948
 4429SOL    HW224750   2.743   3.886  16.482  1.3459 -0.7300 -2.3909
 4430SOL     OW24751   2.415   3.459   8.253  0.1321 -0.1001 -0.5951
 4430SOL    HW124752   2.495   3.470   8.304 -0.0002 -1.1789 -0.1433
 4430SOL    HW224753   2.354   3.524   8.286  2.5489  1.5793  0.5067
 4431SOL     OW24754   2.646   4.437   8.930  0.0069  0.1498  0.0493
 4431SOL    HW124755   2.737   4.423   8.956  0.2670  1.2732 -0.2479
 4431SOL    HW224756   2.624   4.367   8.869  0.6682 -0.1867  0.2035
 4432SOL     OW24757   0.544   0.447  17.464  0.6123 -0.3099  0.6299
 4432SOL    HW124758   0.512   0.372  17.414 -0.8728  0.1919  0.8195
 4432SOL    HW224759   0.559   0.416  17.553  1.8268 -2.8880 -0.4831
 4433SOL     OW24760   3.230   2.697   5.497 -0.6059 -0.0550  0.3145
 4433SOL    HW124761   3.202   2.788   5.486 -1.8505 -0.2728  1.6845
 4433SOL    HW224762   3.235   2.657   5.410  2.4520  0.9507  0.0340
 4434SOL     OW24763   1.888   2.757  10.526 -0.0740  0.4342 -0.1453
 4434SOL    HW124764   1.820   2.786  10.466  1.5202  1.7828 -1.3128
 4434SOL    HW224765   1.925   2.684  10.475  1.1426  1.0142 -0.1124
 4435SOL     OW24766   0.929   1.088   6.913  0.1553 -0.4425 -0.1636
 4435SOL    HW124767   0.949   0.995   6.919 -0.7919 -0.6956 -0.8869
 4435SOL    HW224768   0.991   1.119   6.847 -0.2150  0.8816  0.1134
 4436SOL     OW24769   0.680   1.724   7.175  0.0270 -0.4855  0.2411
 4436SOL    HW124770   0.659   1.683   7.092 -0.6348  0.4484 -0.0649
 4436SOL    HW224771   0.677   1.818   7.157  0.9275 -0.1102  2.0511
 4437SOL     OW24772   1.783   3.514   0.408  0.1915 -0.3130 -0.0461
 4437SOL    HW124773   1.811   3.473   0.489 -1.4979 -1.1867  0.1090
 4437SOL    HW224774   1.757   3.440   0.352 -1.7080  0.5348 -0.2983
 4438SOL     OW24775   0.036   4.273   0.911  0.8868  0.5099 -0.1143
 4438SOL    HW124776   0.013   4.199   0.967  1.1665 -0.7826 -1.7017
 4438SOL    HW224777   4.706   4.262   0.833  2.6660 -0.4473 -1.2140
 4439SOL     OW24778   2.989   1.910  13.952 -0.5547  0.3798  0.1155
 4439SOL    HW124779   2.895   1.927  13.965 -0.3866  0.1989  1.5197
 4439SOL    HW224780   3.034   1.961  14.019  0.0309 -0.5705  0.4358
 4440SOL     OW24781   3.858   1.944  15.064 -0.6575 -0.1081  0.5490
 4440SOL    HW124782   3.933   2.002  15.056  0.7470 -1.8527  1.1383
 4440SOL    HW224783   3.788   2.004  15.037 -1.9343 -1.0887  1.6476
 4441SOL     OW24784   1.499   3.521  15.515  0.0502  0.3688  0.1489
 4441SOL    HW124785   1.489   3.476  15.599 -2.6427 -0.5127 -0.6370
 4441SOL    HW224786   1.592   3.505  15.506  0.1462  0.1621  1.4452
 4442SOL     OW24787   4.325   1.501   2.600  0.0314 -0.9276  0.0609
 4442SOL    HW124788   4.402   1.460   2.560  0.5687 -0.4838  0.6436
 4442SOL    HW224789   4.328   1.593   2.574  0.9427 -1.1878 -0.7680
 4443SOL     OW24790   1.906   0.494   4.910  0.3963 -0.0653 -0.0841
 4443SOL    HW124791   1.897   0.486   5.004 -1.1977 -1.0476 -0.3222
 4443SOL    HW224792   1.896   0.589   4.899  1.3419  0.1017  0.5341
 4444SOL     OW24793   3.388   1.495  15.210 -0.4316  0.0438  0.3787
 4444SOL    HW124794   3.465   1.475  15.264 -0.2552 -0.8534 -0.2079
 4444SOL    HW224795   3.413   1.476  15.120  0.9427 -1.3326  1.0543
 4445SOL     OW24796   1.478   3.892   4.676  0.6326  0.1790 -0.1403
 4445SOL    HW124797   1.543   3.863   4.739 -0.4186  0.0526  0.8869
 4445SOL    HW224798   1.528   3.885   4.594 -0.8712  1.3683 -1.1549
 4446SOL     OW24799   3.323   0.057   7.942  0.0953  0.0699  0.9992
 4446SOL    HW124800   3.296   0.112   7.869  0.6731  0.2456  0.9166
 4446SOL    HW224801   3.243   0.063   7.994  1.4739 -3.7948  3.5764
 4447SOL     OW24802   1.961   1.099   2.976  0.3057  0.1742 -0.7610
 4447SOL    HW124803   1.888   1.073   3.033  0.3289  0.5762 -0.5447
 4447SOL    HW224804   1.978   1.188   3.007  1.5618  0.1638 -1.4025
 4448SOL     OW24805   3.886   3.783   9.655 -0.1662 -0.0731 -0.1919
 4448SOL    HW124806   3.906   3.833   9.735  0.3327 -3.0272  1.5174
 4448SOL    HW224807   3.858   3.696   9.685  0.7431  0.4068  2.1102
 4449SOL     OW24808   4.706   3.038   4.327  0.0953 -0.2194 -0.2223
 4449SOL    HW124809   4.661   3.089   4.260  1.9294 -0.7622 -1.8688
 4449SOL    HW224810   0.004   3.116   4.379  0.1908 -1.6036  1.8301
 4450SOL     OW24811   4.154   3.802  13.287  0.0327 -0.4498 -0.0540
 4450SOL    HW124812   4.065   3.809  13.322  0.1413 -1.7542  0.4727
 4450SOL    HW224813   4.186   3.875  13.340 -0.8620  0.6816 -1.0490
 4451SOL     OW24814   3.355   4.437  14.250 -0.2610  0.2339  0.1013
 4451SOL    HW124815   3.349   4.377  14.175  1.5702  2.0498 -1.4814
 4451SOL    HW224816   3.451   4.445  14.255 -0.4602  2.1422  0.6023
 4452SOL     OW24817   0.695   4.009  14.958 -0.3633  0.0322  0.1397
 4452SOL    HW124818   0.725   4.100  14.965  1.4042 -0.4801 -0.9414
 4452SOL    HW224819   0.766   3.962  15.002  0.0364 -0.3038 -0.8759
 4453SOL     OW24820   3.122   0.780   6.476 -0.4562 -0.0885  0.7068
 4453SOL    HW124821   3.066   0.842   6.521  0.4113  0.6401  0.7901
 4453SOL    HW224822   3.148   0.834   6.401  2.0578  1.1091  2.4174
 4454SOL     OW24823   0.093   3.839   7.405 -0.3088  0.3709 -0.1104
 4454SOL    HW124824   0.129   3.842   7.317  2.7165  1.2092  1.1590
 4454SOL    HW224825   0.164   3.866   7.463  1.0036 -1.2701 -0.9733
 4455SOL     OW24826   1.360   2.815   3.653  0.0912  0.3847 -0.4194
 4455SOL    HW124827   1.389   2.825   3.743  0.1313  1.5577 -0.5590
 4455SOL    HW224828   1.426   2.753   3.621 -0.4405 -0.9849  1.1510
 4456SOL     OW24829   0.901   1.462   3.800 -0.4081 -0.5496 -0.6111
 4456SOL    HW124830   0.954   1.395   3.757 -0.1345 -0.3202 -0.6299
 4456SOL    HW224831   0.814   1.456   3.761 -1.6510  1.3368  1.8722
 4457SOL     OW24832   2.287   4.357   4.398  0.1853  0.0366  0.0695
 4457SOL    HW124833   2.360   4.380   4.341  0.0021 -1.0356 -0.6014
 4457SOL    HW224834   2.320   4.298   4.466  1.0486  0.2037 -0.2061
 4458SOL     OW24835   3.176   3.463   7.297  0.1763 -0.1908  0.3592
 4458SOL    HW124836   3.093   3.468   7.345 -1.6431  0.1226 -2.7880
 4458SOL    HW224837   3.179   3.369   7.282  0.3787 -0.2527  0.8155
 4459SOL     OW24838   2.139   0.292   8.278  0.3281 -0.0549 -0.3335
 4459SOL    HW124839   2.196   0.313   8.204  0.9328  1.5489  0.5924
 4459SOL    HW224840   2.148   0.196   8.275 -0.4685 -0.1062 -1.1847
 4460SOL     OW24841   3.415   2.300   6.402 -0.1491 -0.1707 -0.0167
 4460SOL    HW124842   3.489   2.272   6.456 -0.6170  0.8600  1.1614
 4460SOL    HW224843   3.368   2.217   6.403 -1.7622  0.7406 -0.2220
 4461SOL     OW24844   3.022   0.118   9.273  0.1313  0.2908 -0.3790
 4461SOL    HW124845   2.948   0.061   9.253  0.5486 -0.5146  0.3670
 4461SOL    HW224846   3.093   0.083   9.220 -0.1921  0.9919 -1.2779
 4462SOL     OW24847   1.510   3.075   4.079 -0.4447 -0.3044  0.2346
 4462SOL    HW124848   1.517   2.998   4.135 -0.6394 -0.2257  0.3643
 4462SOL    HW224849   1.517   3.144   4.144 -1.1730 -0.3952  0.4096
 4463SOL     OW24850   0.658   0.886   3.396 -0.3825 -0.9266 -0.0727
 4463SOL    HW124851   0.576   0.862   3.353 -1.3006  3.0515 -0.4817
 4463SOL    HW224852   0.642   0.980   3.403 -1.7879 -1.2079  0.4352
 4464SOL     OW24853   1.638   2.791   0.405 -0.4854 -0.1190 -0.2897
 4464SOL    HW124854   1.554   2.797   0.360 -1.6583 -1.8690  1.6735
 4464SOL    HW224855   1.634   2.863   0.469 -1.4979 -0.0902 -0.3904
 4465SOL     OW24856   1.178   0.387  11.095  0.0583  0.2606 -0.3869
 4465SOL    HW124857   1.226   0.464  11.066 -3.0252  1.7082 -1.6701
 4465SOL    HW224858   1.189   0.398  11.190  2.8417 -1.0412 -0.5625
 4466SOL     OW24859   4.380   1.498   9.211  0.4342  0.0810  0.5533
 4466SOL    HW124860   4.348   1.569   9.266  2.3120 -0.9107  2.9519
 4466SOL    HW224861   4.467   1.528   9.184  0.2284  0.9078  0.8085
 4467SOL     OW24862   3.735   3.929   5.596 -0.4363  0.2117 -0.3291
 4467SOL    HW124863   3.771   4.018   5.604 -0.8993  0.4147 -0.5393
 4467SOL    HW224864   3.788   3.890   5.665  2.1186  2.2331 -1.1357
 4468SOL     OW24865   3.532   3.271   0.857  0.0209  0.5293  0.1724
 4468SOL    HW124866   3.536   3.187   0.903  0.4106  1.1209  1.2242
 4468SOL    HW224867   3.570   3.243   0.774 -0.8463 -0.8372  0.2475
 4469SOL     OW24868   0.393   3.293   5.644 -0.3875 -0.4723  0.5230
 4469SOL    HW124869   0.478   3.288   5.600 -1.7697 -0.7720 -2.1235
 4469SOL    HW224870   0.407   3.227   5.712  0.3000 -0.0930  0.7464
 4470SOL     OW24871   2.569   2.003   5.477 -0.2418  0.2637  1.0899
 4470SOL    HW124872   2.632   2.065   5.440  0.0995 -0.8701 -0.2277
 4470SOL    HW224873   2.486   2.039   5.446  0.7806  1.3561 -0.3846
 4471SOL     OW24874   0.995   3.183   6.465 -0.8172 -0.5026  0.0956
 4471SOL    HW124875   1.072   3.220   6.422 -1.8425  0.4590 -0.9035
 4471SOL    HW224876   1.030   3.101   6.499 -0.8598 -0.2073  0.8619
 4472SOL     OW24877   3.079   4.478  16.317 -0.2021 -0.0857 -0.5735
 4472SOL    HW124878   3.131   4.545  16.363 -2.8268  0.2853  1.8236
 4472SOL    HW224879   3.079   4.520  16.231  0.4375  1.0404 -0.0288
 4473SOL     OW24880   4.167   0.093   7.605 -0.4127  0.0963 -0.1450
 4473SOL    HW124881   4.187   0.053   7.689  1.2333 -0.0912 -0.6200
 4473SOL    HW224882   4.259   0.100   7.578 -0.5202  1.2386 -0.1992
 4474SOL     OW24883   2.414   2.627  12.143 -0.5153 -0.6047  0.2241
 4474SOL    HW124884   2.399   2.539  12.178  3.0623 -0.5151  1.9123
 4474SOL    HW224885   2.412   2.690  12.215  3.5644  0.6676 -0.7471
 4475SOL     OW24886   3.896   4.691   7.651  0.0632  0.6280  0.3655
 4475SOL    HW124887   3.938   0.052   7.643  1.2545 -0.0394 -0.6551
 4475SOL    HW224888   3.918   4.653   7.736  0.5294 -0.5475 -0.2803
 4476SOL     OW24889   2.526   4.125  15.153 -0.2162  0.4256 -0.3507
 4476SOL    HW124890   2.467   4.170  15.214  0.4650  0.6657  0.1317
 4476SOL    HW224891   2.562   4.201  15.107  0.7709  0.8824  1.1980
 4477SOL     OW24892   2.094   1.615   3.633  0.4953 -0.4214  0.0134
 4477SOL    HW124893   2.179   1.605   3.676 -0.5045 -0.7123  1.9117
 4477SOL    HW224894   2.112   1.610   3.539  0.9419  1.1185  0.0178
 4478SOL     OW24895   2.162   0.987   4.976 -0.0397 -0.0671  0.6679
 4478SOL    HW124896   2.121   1.038   4.906  1.8532  0.2569 -0.2265
 4478SOL    HW224897   2.092   0.926   4.998  2.7565 -3.0201  1.4947
 4479SOL     OW24898   0.091   4.591  11.733  0.3937  0.2570 -0.7164
 4479SOL    HW124899   0.079   4.659  11.667 -0.3829  0.0412 -0.7937
 4479SOL    HW224900   0.014   4.597  11.789 -0.5982  1.6719 -2.2713
 4480SOL     OW24901   0.490   4.711   5.811  0.3204 -0.6251  0.0722
 4480SOL    HW124902   0.497   4.618   5.789  3.1520  0.1980 -2.4265
 4480SOL    HW224903   0.577   0.016   5.784 -0.1505 -0.6503 -1.4543
 4481SOL     OW24904   4.270   2.163   5.000  0.1511  0.6653 -0.4696
 4481SOL    HW124905   4.179   2.161   4.972  0.3054 -0.0203 -0.9189
 4481SOL    HW224906   4.270   2.208   5.085  0.4721 -1.0799  0.4553
 4482SOL     OW24907   3.336   1.190  11.374  0.0693 -0.1196 -0.1159
 4482SOL    HW124908   3.278   1.207  11.448 -0.9241  2.2457 -1.4260
 4482SOL    HW224909   3.376   1.104  11.391  2.2042  0.6105 -1.4371
 4483SOL     OW24910   2.346   2.912  16.817  0.0466  0.3677  0.6338
 4483SOL    HW124911   2.366   2.873  16.903  1.1824  0.9735  0.6505
 4483SOL    HW224912   2.371   3.003  16.829 -0.9637  0.4407  2.2481
 4484SOL     OW24913   0.102   4.575   9.465  0.7389  0.1756  0.0180
 4484SOL    HW124914   0.061   4.489   9.459  1.1879 -0.0471  0.1043
 4484SOL    HW224915   0.159   4.561   9.541  2.2616 -1.5742 -1.4269
 4485SOL     OW24916   3.002   3.007   7.889 -0.9413  0.6179 -0.3412
 4485SOL    HW124917   3.025   3.092   7.926  3.0197 -0.9662  0.8674
 4485SOL    HW224918   3.078   2.993   7.833 -0.6268 -1.7426  0.6403
 4486SOL     OW24919   2.143   1.129   6.811  0.1552  0.6793  0.2797
 4486SOL    HW124920   2.068   1.129   6.752 -1.6233 -0.1997  2.5490
 4486SOL    HW224921   2.106   1.066   6.873  2.5761  0.2388  1.3139
 4487SOL     OW24922   1.968   0.280   7.008  0.2860 -0.0018  0.6581
 4487SOL    HW124923   1.919   0.238   7.079  1.1083 -0.4300  0.9754
 4487SOL    HW224924   2.026   0.332   7.063  0.0653 -0.6961  1.5400
 4488SOL     OW24925   1.712   3.224   3.277 -0.0494 -0.0764  0.2834
 4488SOL    HW124926   1.726   3.130   3.289 -1.2795 -0.0273  2.0659
 4488SOL    HW224927   1.638   3.239   3.336  0.0024 -0.5612  0.4751
 4489SOL     OW24928   2.635   0.100  13.677  0.0404 -0.1358  0.4728
 4489SOL    HW124929   2.724   0.085  13.708  0.1158  0.3416  0.4773
 4489SOL    HW224930   2.646   0.178  13.623 -2.8509  0.2236  0.3761
 4490SOL     OW24931   3.947   4.598   8.791  0.5039  0.2700  0.7333
 4490SOL    HW124932   3.989   4.533   8.735  0.3686  0.4676  0.4004
 4490SOL    HW224933   3.952   4.678   8.739  0.7392  0.5762  1.2224
 4491SOL     OW24934   2.717   1.693   0.010 -0.2014 -0.0103  0.1751
 4491SOL    HW124935   2.722   1.755   0.083 -0.8607  1.3529 -0.9257
 4491SOL    HW224936   2.624   1.671   0.013  0.6527 -3.2649  2.4059
 4492SOL     OW24937   4.186   3.578  14.654 -0.1100  0.2322 -0.4032
 4492SOL    HW124938   4.271   3.553  14.618  0.0554  1.2960 -0.7696
 4492SOL    HW224939   4.222   3.605  14.738  0.7304 -0.3846 -0.5585
 4493SOL     OW24940   1.641   3.530   6.497 -0.3988 -0.0973  0.1874
 4493SOL    HW124941   1.652   3.530   6.593 -0.2696  1.8655  0.1910
 4493SOL    HW224942   1.566   3.472   6.496  2.1655 -3.4069  0.2071
 4494SOL     OW24943   0.304   1.835   6.908  0.0937  0.3145 -0.0147
 4494SOL    HW124944   0.358   1.914   6.899  0.5458  0.1539  1.4383
 4494SOL    HW224945   0.348   1.782   6.841 -0.5370 -2.5527  1.8510
 4495SOL     OW24946   4.492   3.658   8.752 -0.5250 -0.2759 -0.3793
 4495SOL    HW124947   4.553   3.659   8.826 -0.6765 -2.6172 -0.2274
 4495SOL    HW224948   4.527   3.596   8.688 -0.4222 -0.5859 -0.0175
 4496SOL     OW24949   0.040   3.210  10.287  0.0735  0.2746 -0.1656
 4496SOL    HW124950   0.063   3.243  10.201 -0.7133 -1.5243 -1.0761
 4496SOL    HW224951   0.121   3.165  10.312 -0.3541 -0.2988  0.2143
 4497SOL     OW24952   0.951   4.312   1.155 -0.0824  0.2644 -0.5615
 4497SOL    HW124953   0.916   4.293   1.067 -0.3739  0.1536 -0.4234
 4497SOL    HW224954   0.874   4.351   1.197  1.8323  3.6782 -0.2076
 4498SOL     OW24955   1.503   2.533  11.755 -0.0790  0.3060 -0.0536
 4498SOL    HW124956   1.473   2.447  11.784 -2.2201  1.4844  1.2505
 4498SOL    HW224957   1.438   2.583  11.805 -2.9515 -1.0542 -2.4112
 4499SOL     OW24958   0.217   2.820  15.705 -0.2622 -0.1807  0.1698
 4499SOL    HW124959   0.306   2.800  15.675 -0.5937 -0.5136 -0.6062
 4499SOL    HW224960   0.244   2.862  15.786  0.3813  1.8219 -1.0883
 4500SOL     OW24961   0.667   2.164   5.733 -0.1516 -0.0265  0.2799
 4500SOL    HW124962   0.685   2.243   5.784  1.2102 -1.0792  1.4603
 4500SOL    HW224963   0.586   2.133   5.773 -0.2548  1.4148  1.1747
 4501SOL     OW24964   3.750   3.872   0.720  0.3624  0.0072 -0.0739
 4501SOL    HW124965   3.811   3.800   0.734  1.6707  1.9071  3.8032
 4501SOL    HW224966   3.675   3.845   0.773 -0.1011  1.2122 -0.1159
 4502SOL     OW24967   4.218   0.041   9.730 -0.1592 -0.1615 -0.0186
 4502SOL    HW124968   4.183   0.117   9.778 -1.4193  0.1390 -1.3889
 4502SOL    HW224969   4.174   0.047   9.645 -2.8714 -1.4144  1.3010
 4503SOL     OW24970   0.534   0.312  17.000 -0.0995 -0.6571  0.1548
 4503SOL    HW124971   0.483   0.299  16.920  0.0867 -2.9076  0.3972
 4503SOL    HW224972   0.620   0.335  16.964 -0.2477  1.6479  1.2978
 4504SOL     OW24973   4.572   3.171  15.814  0.3653 -0.3899  0.6652
 4504SOL    HW124974   4.601   3.238  15.876 -2.7222  2.0831 -0.5702
 4504SOL    HW224975   4.575   3.094  15.871 -0.8729 -0.9097  0.0150
 4505SOL     OW24976   2.401   1.747   3.038 -0.1200  0.1247  0.6207
 4505SOL    HW124977   2.378   1.774   2.949 -0.2604  2.4005  1.3268
 4505SOL    HW224978   2.431   1.660   3.014 -0.2645  0.1004  0.5260
 4506SOL     OW24979   4.237   4.644   3.727 -0.0947 -0.1919 -0.2873
 4506SOL    HW124980   4.275   4.563   3.695 -2.7574 -1.2704 -0.7342
 4506SOL    HW224981   4.236   4.615   3.819  0.2473  0.5520 -0.0458
 4507SOL     OW24982   3.788   3.807  10.779  0.0837  0.0182  0.6775
 4507SOL    HW124983   3.819   3.717  10.770  0.5190  0.1735  0.6482
 4507SOL    HW224984   3.770   3.831  10.688  0.7236  2.1345  1.1137
 4508SOL     OW24985   1.887   4.515   4.217  0.1362  0.2645  0.0784
 4508SOL    HW124986   1.864   4.454   4.287 -0.4900 -0.3613 -0.6722
 4508SOL    HW224987   1.807   4.567   4.212  0.6175  0.9936 -0.0719
 4509SOL     OW24988   3.112   2.098  13.574  0.3709  0.3280 -0.0427
 4509SOL    HW124989   3.039   2.123  13.631  0.9941 -0.9190  1.3212
 4509SOL    HW224990   3.160   2.181  13.572  0.5046  0.2341 -0.8179
 4510SOL     OW24991   4.717   0.998   1.179  0.3855  0.6035 -0.2401
 4510SOL    HW124992   4.715   1.057   1.104 -0.0133  0.5215 -0.2978
 4510SOL    HW224993   4.635   0.950   1.163  0.1303  0.9238  0.1108
 4511SOL     OW24994   0.738   3.036  10.035  0.3505  0.8542 -0.3514
 4511SOL    HW124995   0.753   2.942  10.047 -0.0292  0.7255 -0.8885
 4511SOL    HW224996   0.743   3.045   9.940  0.2558  0.9857 -0.3436
 4512SOL     OW24997   0.607   2.384   7.042  0.3154 -0.8382 -0.0777
 4512SOL    HW124998   0.543   2.351   7.104  0.6097 -0.1866  0.5729
 4512SOL    HW224999   0.683   2.335   7.073  1.2375  1.7317  1.7422
 4513SOL     OW25000   3.551   3.357  15.215  0.3147  0.6516 -0.3023
 4513SOL    HW125001   3.535   3.266  15.237  0.8418  0.1691 -1.8999
 4513SOL    HW225002   3.538   3.408  15.295  2.4285  0.0541  0.4353
 4514SOL     OW25003   0.490   3.299  16.927 -0.2350 -0.3336  0.0407
 4514SOL    HW125004   0.441   3.325  16.849  1.2485  0.9243 -0.4579
 4514SOL    HW225005   0.538   3.374  16.962  0.6892 -1.1868  0.5865
 4515SOL     OW25006   1.106   0.769   3.710  0.5163  0.5726 -0.0686
 4515SOL    HW125007   1.074   0.683   3.737 -1.6621  1.1194 -0.9009
 4515SOL    HW225008   1.045   0.794   3.641 -0.3604  0.8493  0.8115
 4516SOL     OW25009   3.256   1.761   8.279 -0.2920 -0.5543  0.4218
 4516SOL    HW125010   3.294   1.810   8.206 -2.2199  0.9729  0.4375
 4516SOL    HW225011   3.263   1.669   8.255 -0.9109 -0.8370  1.3120
 4517SOL     OW25012   0.116   1.720   9.564  0.3262 -0.2275 -0.5793
 4517SOL    HW125013   0.203   1.759   9.576 -0.9823  2.6784 -0.4468
 4517SOL    HW225014   0.075   1.734   9.649 -0.5636 -0.8499 -0.9129
 4518SOL     OW25015   1.183   3.880   6.086  0.1490  0.1169 -0.5148
 4518SOL    HW125016   1.144   3.822   6.151 -1.7688  1.7718 -0.1677
 4518SOL    HW225017   1.268   3.891   6.127 -1.3501  0.5487  2.5020
 4519SOL     OW25018   2.237   2.292   4.789 -0.3922  0.1485 -0.0019
 4519SOL    HW125019   2.147   2.260   4.780 -0.9563  1.7065  0.1354
 4519SOL    HW225020   2.278   2.237   4.722  1.0556  3.8988 -2.1742
 4520SOL     OW25021   0.361   3.388  10.480 -0.3977  0.0652 -0.3740
 4520SOL    HW125022   0.304   3.352  10.413  0.9145  1.1450 -2.0830
 4520SOL    HW225023   0.447   3.380  10.438 -0.8070 -0.8984 -1.0051
 4521SOL     OW25024   2.726   3.942   3.613 -0.5034 -0.4708 -0.3150
 4521SOL    HW125025   2.813   3.978   3.630 -0.7512  0.6959 -1.4781
 4521SOL    HW225026   2.724   3.879   3.685 -0.2863  0.5121  0.5455
 4522SOL     OW25027   3.515   1.843   2.887  0.1253  0.1431 -0.1034
 4522SOL    HW125028   3.440   1.818   2.833  0.2451  2.6463 -1.4293
 4522SOL    HW225029   3.496   1.805   2.973  0.2578 -0.7192 -0.4573
 4523SOL     OW25030   1.723   2.745   1.226  0.4092 -0.4062  0.2895
 4523SOL    HW125031   1.667   2.764   1.301 -0.9835  0.8682 -1.0878
 4523SOL    HW225032   1.787   2.697   1.279 -0.2155 -1.4717  0.0738
 4524SOL     OW25033   4.710   4.505   2.604 -0.6182  0.2125 -0.1603
 4524SOL    HW125034   0.079   4.493   2.623 -0.3321  2.9378  0.1921
 4524SOL    HW225035   4.693   4.598   2.589 -0.5331  0.0863 -1.0846
 4525SOL     OW25036   1.906   4.445   3.936  0.2638 -0.2052  0.3084
 4525SOL    HW125037   1.858   4.363   3.949 -0.2977  0.2006  0.8024
 4525SOL    HW225038   1.921   4.483   4.022  0.4711 -0.2533  0.2933
 4526SOL     OW25039   1.976   1.985   6.992 -0.2060  0.8430  0.4188
 4526SOL    HW125040   2.045   2.045   7.021 -0.0448  1.4387 -1.1734
 4526SOL    HW225041   1.912   2.002   7.061 -0.0686  0.1880  0.7037
 4527SOL     OW25042   4.555   2.859   5.140  0.1259 -0.2829  0.8043
 4527SOL    HW125043   4.512   2.894   5.218 -2.8170 -0.5804 -0.6874
 4527SOL    HW225044   4.510   2.908   5.072  2.1207 -1.8257 -1.6100
 4528SOL     OW25045   1.551   1.279  13.310  0.2875  0.0815 -0.5303
 4528SOL    HW125046   1.494   1.236  13.246 -2.4023 -1.7792  3.1128
 4528SOL    HW225047   1.526   1.235  13.391 -3.0242  2.0178 -0.5132
 4529SOL     OW25048   3.516   4.092   1.902 -0.0037  0.8499 -0.2990
 4529SOL    HW125049   3.498   4.033   1.829 -0.9066  0.5140  0.2012
 4529SOL    HW225050   3.459   4.057   1.970 -0.3473  1.3360 -0.3357
 4530SOL     OW25051   3.792   0.675  17.179  0.1244  0.1949  0.0777
 4530SOL    HW125052   3.761   0.585  17.187 -2.6890  1.2442  0.8050
 4530SOL    HW225053   3.888   0.666  17.178  0.0755 -0.5147  2.2429
 4531SOL     OW25054   2.722   3.336   5.994  0.3253 -0.8626  0.1709
 4531SOL    HW125055   2.799   3.291   5.958  0.3652  0.2597 -1.1272
 4531SOL    HW225056   2.698   3.256   6.042  1.7479 -1.3337  0.0993
 4532SOL     OW25057   0.516   2.091  17.096 -0.6835  0.6574  0.4477
 4532SOL    HW125058   0.490   2.107  17.187 -0.7269 -0.8192  0.7048
 4532SOL    HW225059   0.464   2.155  17.049  0.1565  0.1945 -1.1021
 4533SOL     OW25060   2.479   3.519   6.648  0.3886  0.0887 -0.3321
 4533SOL    HW125061   2.431   3.442   6.677 -1.6130  1.0739 -0.9987
 4533SOL    HW225062   2.433   3.585   6.699 -0.0736 -2.6282  2.7403
 4534SOL     OW25063   4.241   1.184  16.044  0.6887  0.6834  0.3420
 4534SOL    HW125064   4.240   1.157  15.952  1.5421  0.0157  0.5223
 4534SOL    HW225065   4.147   1.179  16.061  0.3345  0.8953 -1.6043
 4535SOL     OW25066   2.942   2.574   6.906  0.3906 -0.1741  0.1217
 4535SOL    HW125067   2.893   2.508   6.954 -0.6857  0.3792 -0.2158
 4535SOL    HW225068   2.973   2.629   6.978  1.3431 -0.5679  0.0240
 4536SOL     OW25069   2.953   3.895   5.620  0.4142  0.3921  0.1505
 4536SOL    HW125070   2.950   3.799   5.619 -3.9718  0.6210 -4.8432
 4536SOL    HW225071   3.043   3.910   5.651  1.1398  0.8885 -2.2332
 4537SOL     OW25072   4.536   3.988   5.898 -0.0289 -0.0992 -0.2253
 4537SOL    HW125073   4.562   4.010   5.809 -3.7027 -0.7501 -1.4853
 4537SOL    HW225074   4.605   3.926   5.922  2.3225  2.1865 -1.0651
 4538SOL     OW25075   4.442   1.356  16.266  0.1265  0.7853 -0.3031
 4538SOL    HW125076   4.495   1.381  16.342 -1.1622 -0.0211  0.8627
 4538SOL    HW225077   4.460   1.262  16.268 -0.6017  0.6998  2.2377
 4539SOL     OW25078   2.195   3.448   5.238  0.8807  0.1931 -0.1162
 4539SOL    HW125079   2.123   3.503   5.208  0.3161  0.5391  1.8431
 4539SOL    HW225080   2.147   3.365   5.238 -0.2403  0.8402 -1.5915
 4540SOL     OW25081   3.353   0.247   5.421 -0.1654 -0.4725 -0.1556
 4540SOL    HW125082   3.357   0.270   5.514  2.7309 -0.1691 -0.3374
 4540SOL    HW225083   3.259   0.253   5.403  0.0508  2.0514 -0.3778
 4541SOL     OW25084   4.141   0.925   9.914 -0.0757 -0.0120 -0.4857
 4541SOL    HW125085   4.068   0.986   9.924 -0.6018 -0.6646 -0.3317
 4541SOL    HW225086   4.105   0.856   9.858  0.7240 -1.5856  0.9325
 4542SOL     OW25087   2.400   0.495   0.157  0.3707  0.6772 -0.4125
 4542SOL    HW125088   2.395   0.469   0.249 -1.4834 -1.7977 -1.2215
 4542SOL    HW225089   2.491   0.482   0.129  0.3680 -0.0949 -0.0660
 4543SOL     OW25090   1.643   3.479   6.770 -0.6950 -0.0179 -0.3133
 4543SOL    HW125091   1.604   3.472   6.857  0.8972  1.0538  0.4856
 4543SOL    HW225092   1.636   3.386   6.751  0.0537 -0.2720  0.6776
 4544SOL     OW25093   4.011   0.456   8.544 -0.2303 -1.1155 -0.1765
 4544SOL    HW125094   4.065   0.536   8.543 -0.7120 -0.7714  2.4738
 4544SOL    HW225095   3.971   0.471   8.630 -0.6771  2.9873 -1.1150
 4545SOL     OW25096   0.349   3.976  15.034  0.3410  0.1920 -0.5451
 4545SOL    HW125097   0.349   4.066  15.002  1.8042  0.2483 -0.3948
 4545SOL    HW225098   0.260   3.942  15.019  0.9444 -1.7457  0.2217
 4546SOL     OW25099   3.885   3.609  15.222 -0.5326  0.4813 -0.2929
 4546SOL    HW125100   3.846   3.530  15.186 -1.2669  1.6997 -2.1558
 4546SOL    HW225101   3.956   3.642  15.167 -1.3835  2.2010 -0.3513
 4547SOL     OW25102   3.640   4.658  11.848  0.1298 -0.0432 -1.0194
 4547SOL    HW125103   3.551   4.636  11.819  0.8087 -1.6242 -1.9038
 4547SOL    HW225104   3.681   4.571  11.844 -0.5207 -0.3981 -0.1206
 4548SOL     OW25105   0.115   1.740   7.069 -0.0309 -0.0450  0.8361
 4548SOL    HW125106   0.177   1.782   7.009 -1.6652  1.3515  0.1263
 4548SOL    HW225107   0.129   1.803   7.139  2.5566 -2.0434  2.1332
 4549SOL     OW25108   2.809   2.151   6.602  0.1996 -0.6043  0.9696
 4549SOL    HW125109   2.740   2.214   6.577  0.7076 -0.3884  0.0844
 4549SOL    HW225110   2.814   2.170   6.695 -1.4560 -0.3777  1.0084
 4550SOL     OW25111   4.094   3.928   6.603  0.0830 -0.2132 -0.3188
 4550SOL    HW125112   4.074   4.021   6.611  0.2214 -0.1468 -0.7734
 4550SOL    HW225113   4.065   3.903   6.515  0.7695 -1.3733 -0.2218
 4551SOL     OW25114   3.812   1.164   7.460  0.2564 -0.3592  0.0494
 4551SOL    HW125115   3.905   1.178   7.444 -0.0120  0.2088 -0.9820
 4551SOL    HW225116   3.771   1.152   7.375  1.3416  1.2532 -0.7031
 4552SOL     OW25117   1.794   0.437   3.080  0.3199 -0.3943  0.2090
 4552SOL    HW125118   1.754   0.476   3.157 -0.0291  0.8209 -0.5906
 4552SOL    HW225119   1.720   0.403   3.030  1.3488 -0.0498 -1.5577
 4553SOL     OW25120   3.674   1.800   7.456  0.1579  0.3060  0.4702
 4553SOL    HW125121   3.754   1.776   7.504 -0.6941 -0.1775  1.6560
 4553SOL    HW225122   3.668   1.895   7.462  0.0187  0.3219  0.0588
 4554SOL     OW25123   3.454   3.580   8.201 -0.1715 -0.2294 -0.0631
 4554SOL    HW125124   3.372   3.622   8.227  0.0286 -0.7025  1.2861
 4554SOL    HW225125   3.439   3.573   8.106 -3.5997  1.2919  0.3602
 4555SOL     OW25126   2.455   3.812   9.418 -0.4241  0.0347  0.0877
 4555SOL    HW125127   2.520   3.874   9.451 -0.9876  0.9155 -0.4797
 4555SOL    HW225128   2.379   3.868   9.406 -0.2316 -0.0237 -1.3993
 4556SOL     OW25129   3.720   4.392  15.118 -0.4284 -0.0665 -0.1003
 4556SOL    HW125130   3.719   4.396  15.214  1.1742  0.0379 -0.0889
 4556SOL    HW225131   3.781   4.462  15.097 -0.4625  0.1316  0.4627
 4557SOL     OW25132   2.567   1.097   5.635  0.6319 -0.4189  0.6197
 4557SOL    HW125133   2.647   1.045   5.621 -0.3484 -1.1251 -2.4947
 4557SOL    HW225134   2.588   1.149   5.712  1.1203 -0.9965  0.8814
 4558SOL     OW25135   2.792   2.914   7.354  0.7665  0.3353  0.2521
 4558SOL    HW125136   2.768   2.931   7.263 -1.4341  0.4667  0.8676
 4558SOL    HW225137   2.714   2.864   7.376  2.0019 -1.6645  0.1674
 4559SOL     OW25138   0.982   0.821   6.468 -0.3588  0.6324 -0.2164
 4559SOL    HW125139   0.986   0.812   6.563 -1.3584  0.5497 -0.1804
 4559SOL    HW225140   0.932   0.903   6.472  2.3739  2.2567  0.6909
 4560SOL     OW25141   3.969   4.170   5.819  0.9223 -1.4131  0.2558
 4560SOL    HW125142   3.985   4.264   5.805  0.8340 -1.0215  2.8179
 4560SOL    HW225143   3.939   4.142   5.732  3.9790  0.8920 -1.5249
 4561SOL     OW25144   4.472   1.599  14.205 -0.5417 -0.3107  0.0847
 4561SOL    HW125145   4.392   1.616  14.155  0.0512  1.6390 -0.2159
 4561SOL    HW225146   4.438   1.599  14.294 -0.0908  0.1482  0.2628
 4562SOL     OW25147   2.549   1.525   2.932 -0.0214 -0.7498  0.3706
 4562SOL    HW125148   2.553   1.514   2.837 -0.6800  1.9133  0.0101
 4562SOL    HW225149   2.620   1.464   2.951 -0.1669 -1.8519 -2.5713
 4563SOL     OW25150   0.442   4.074   5.468  0.0452 -0.4773  0.0812
 4563SOL    HW125151   0.405   4.066   5.556  2.5307  1.5156  1.3234
 4563SOL    HW225152   0.495   3.994   5.468  0.6189 -0.0858  1.4059
 4564SOL     OW25153   1.273   3.234   7.028 -0.6677  0.6979  0.5037
 4564SOL    HW125154   1.191   3.192   7.057  0.1648 -1.9939 -0.9502
 4564SOL    HW225155   1.272   3.185   6.945  0.0890  1.3340  0.1158
 4565SOL     OW25156   4.356   1.572   5.808 -0.1348  0.0683 -0.2786
 4565SOL    HW125157   4.381   1.480   5.797  2.2778  1.1530 -3.7656
 4565SOL    HW225158   4.382   1.605   5.722  2.7592  1.3139  1.0721
 4566SOL     OW25159   4.073   3.964   8.978  0.2980  0.2621  0.0489
 4566SOL    HW125160   4.140   3.966   9.046 -1.2306 -1.4914  1.5830
 4566SOL    HW225161   3.991   3.995   9.015 -0.6799 -2.3006 -0.0019
 4567SOL     OW25162   4.574   3.911   8.625  0.2887  0.1947  0.4860
 4567SOL    HW125163   4.620   3.829   8.647 -0.2125 -0.0698  0.5407
 4567SOL    HW225164   4.488   3.897   8.665  0.9988  1.3982  2.4342
 4568SOL     OW25165   2.607   2.864   3.127 -0.4250  0.1347  0.0186
 4568SOL    HW125166   2.584   2.829   3.042  0.6790  1.0599 -0.6608
 4568SOL    HW225167   2.692   2.904   3.108  0.0471 -0.1088  1.5582
 4569SOL     OW25168   2.285   4.549  15.508  0.5300  0.1700  0.2403
 4569SOL    HW125169   2.363   4.603  15.521 -0.2647  1.5758 -0.8250
 4569SOL    HW225170   2.269   4.522  15.599 -0.8841 -0.3848 -0.1720
 4570SOL     OW25171   2.860   1.096  11.223 -0.0283  0.1466  0.4876
 4570SOL    HW125172   2.770   1.077  11.196  0.1533  0.2039 -0.1665
 4570SOL    HW225173   2.911   1.099  11.142  0.0698  0.6408  0.5656
 4571SOL     OW25174   4.332   4.597   3.384  0.2542 -0.1369  0.1874
 4571SOL    HW125175   4.375   4.531   3.438 -0.8131  1.1504  2.5963
 4571SOL    HW225176   4.410   4.614   3.332  1.0571  1.0553  1.7865
 4572SOL     OW25177   3.167   3.194   7.277  0.0711 -0.1568 -0.2369
 4572SOL    HW125178   3.139   3.121   7.333 -0.2403  0.9469  1.0719
 4572SOL    HW225179   3.163   3.158   7.189 -0.9261  4.7713 -2.1658
 4573SOL     OW25180   3.364   3.119  14.262 -0.7605 -0.1442  0.1491
 4573SOL    HW125181   3.372   3.210  14.291  0.4758 -0.0747 -0.4127
 4573SOL    HW225182   3.306   3.136  14.187  0.5219 -5.2337 -2.0212
 4574SOL     OW25183   4.004   1.120   3.118 -0.4332  0.1885 -0.2110
 4574SOL    HW125184   4.060   1.176   3.064 -0.0742  1.3166  1.3354
 4574SOL    HW225185   4.015   1.034   3.077 -1.5148 -0.9754  1.9795
 4575SOL     OW25186   1.164   2.944   4.385  0.7784 -0.0560 -0.3201
 4575SOL    HW125187   1.160   3.034   4.353  3.7432 -0.0352 -0.6266
 4575SOL    HW225188   1.248   2.948   4.431  0.7741 -2.5284 -0.0579
 4576SOL     OW25189   2.001   1.173   0.249  0.0996  0.3783 -0.1693
 4576SOL    HW125190   1.947   1.168   0.170 -0.1245 -2.0919  0.1535
 4576SOL    HW225191   2.018   1.079   0.255 -0.2851  0.1352 -2.9810
 4577SOL     OW25192   3.372   1.698   6.859 -0.1549  0.3017  0.0278
 4577SOL    HW125193   3.450   1.725   6.908 -0.4262  0.4286  0.3830
 4577SOL    HW225194   3.370   1.604   6.875  1.9441  0.4133  0.9320
 4578SOL     OW25195   4.182   1.820  10.789  0.1772 -0.0059 -0.6339
 4578SOL    HW125196   4.260   1.764  10.788  1.6117  2.0049 -1.4620
 4578SOL    HW225197   4.224   1.901  10.759  0.6022  0.8415  2.2279
 4579SOL     OW25198   0.820   3.422   7.416  0.3651 -0.7154 -0.1683
 4579SOL    HW125199   0.808   3.367   7.492  1.1782  0.6917  0.9812
 4579SOL    HW225200   0.775   3.503   7.440  1.4750 -0.6731  1.8058
 4580SOL     OW25201   0.825   3.307   7.660 -0.1368 -0.2601 -0.1086
 4580SOL    HW125202   0.791   3.246   7.725  2.1144 -2.0340 -0.5965
 4580SOL    HW225203   0.911   3.316   7.700 -0.6024 -1.0454  1.0560
 4581SOL     OW25204   2.852   4.323  11.797  0.4388 -0.1336  0.3086
 4581SOL    HW125205   2.940   4.359  11.811  0.9816 -1.7894  1.1314
 4581SOL    HW225206   2.802   4.405  11.799 -1.2441 -1.1267 -1.0367
 4582SOL     OW25207   2.040   2.664   4.783  0.4252  0.2578 -0.4275
 4582SOL    HW125208   1.953   2.681   4.820  1.8760  0.7398  2.8374
 4582SOL    HW225209   2.074   2.604   4.850 -4.4863 -0.3126  1.5398
 4583SOL     OW25210   3.226   4.487   8.572  0.8141  0.0818  0.4720
 4583SOL    HW125211   3.251   4.452   8.486 -1.5708 -1.4679  0.4081
 4583SOL    HW225212   3.150   4.541   8.550  0.2006 -0.4893  1.2165
 4584SOL     OW25213   1.943   3.586   3.394 -0.2331 -0.4022 -0.2796
 4584SOL    HW125214   1.852   3.603   3.419  0.6254  1.0052  1.8243
 4584SOL    HW225215   1.962   3.507   3.444  0.7686 -1.0624 -1.7081
 4585SOL     OW25216   4.550   2.228   8.411 -0.2328  0.6445  0.3705
 4585SOL    HW125217   4.606   2.269   8.476  0.2717  0.3624  0.1177
 4585SOL    HW225218   4.496   2.292   8.364 -1.5743 -1.6170 -1.2219
 4586SOL     OW25219   1.843   1.063   3.251  0.1263  0.2820 -0.2136
 4586SOL    HW125220   1.919   1.121   3.259  1.3644 -1.4146  0.1487
 4586SOL    HW225221   1.781   1.124   3.292 -0.8311 -0.6498 -0.2826
 4587SOL     OW25222   3.861   1.951   1.773 -0.2156 -0.1171 -0.4800
 4587SOL    HW125223   3.766   1.936   1.768 -0.3437  1.4719 -2.7011
 4587SOL    HW225224   3.879   1.927   1.682  0.4581 -0.5744 -0.2289
 4588SOL     OW25225   2.031   2.551   5.711  0.0731 -0.2050  0.1316
 4588SOL    HW125226   2.096   2.495   5.753  1.0677 -0.1233 -1.3025
 4588SOL    HW225227   1.995   2.476   5.664 -0.4686  1.1089 -1.5096
 4589SOL     OW25228   2.941   3.973  11.344 -0.2632 -0.0517 -0.3530
 4589SOL    HW125229   2.910   4.060  11.369 -0.9284  0.0194 -1.4636
 4589SOL    HW225230   2.934   3.919  11.423 -0.0061 -0.9681 -0.9497
 4590SOL     OW25231   3.815   3.000  15.055  0.2191  0.8060 -0.2019
 4590SOL    HW125232   3.859   3.026  14.974  0.1986 -0.6328 -0.6658
 4590SOL    HW225233   3.736   3.051  15.037  0.7971  1.6540 -0.3478
 4591SOL     OW25234   1.819   4.338  10.990 -0.1999  0.1936 -0.7404
 4591SOL    HW125235   1.836   4.420  11.035  2.6545 -1.5840  1.3756
 4591SOL    HW225236   1.802   4.366  10.900  1.0059 -1.0383 -1.3470
 4592SOL     OW25237   3.861   0.339  17.199  0.0566  0.3994 -0.1657
 4592SOL    HW125238   3.946   0.318  17.238 -0.0324 -1.2244 -0.8575
 4592SOL    HW225239   3.810   0.266  17.235 -0.7662 -0.8108 -3.7841
 4593SOL     OW25240   2.898   1.335   4.851  0.9240 -0.1479 -0.2622
 4593SOL    HW125241   2.981   1.339   4.805  1.0923 -0.1771  0.0394
 4593SOL    HW225242   2.896   1.428   4.872 -0.9145 -0.6018  1.5525
 4594SOL     OW25243   3.235   3.315  15.861  0.3125  0.0734 -0.0161
 4594SOL    HW125244   3.285   3.280  15.787 -1.4379 -0.8117 -0.7811
 4594SOL    HW225245   3.239   3.240  15.920  0.7682  0.8725  0.9800
 4595SOL     OW25246   0.210   1.820   7.371  0.5864 -0.0817 -0.0550
 4595SOL    HW125247   0.183   1.898   7.419 -1.7135 -0.8015 -0.1771
 4595SOL    HW225248   0.299   1.815   7.404 -0.4826 -4.1496  2.1985
 4596SOL     OW25249   4.224   3.942  17.442 -0.0893  0.4591  0.2246
 4596SOL    HW125250   4.269   4.015  17.485 -0.9092  0.3374  1.2823
 4596SOL    HW225251   4.283   3.868  17.455  1.3251  1.4804 -0.4176
 4597SOL     OW25252   3.029   3.275   6.697 -0.2852  0.0613 -0.1490
 4597SOL    HW125253   2.943   3.235   6.686 -0.6227  0.6756  0.2629
 4597SOL    HW225254   3.019   3.361   6.657 -0.3222 -0.3258 -0.9909
 4598SOL     OW25255   2.675   4.183   6.860  0.8989  0.0513 -0.1978
 4598SOL    HW125256   2.699   4.197   6.768  0.6857 -0.1385 -0.2816
 4598SOL    HW225257   2.750   4.224   6.904  2.8876 -2.1425 -1.5351
 4599SOL     OW25258   4.300   3.130   6.784  0.1599 -0.2969 -0.6536
 4599SOL    HW125259   4.236   3.128   6.856  0.4050  0.5628 -0.4171
 4599SOL    HW225260   4.304   3.224   6.765 -0.5982 -0.5777 -2.2518
 4600SOL     OW25261   2.874   3.398   4.026  0.0138  0.4186 -0.2429
 4600SOL    HW125262   2.869   3.483   4.071  1.7359  0.3991  0.0202
 4600SOL    HW225263   2.882   3.351   4.108 -1.3563 -0.9233 -0.8918
 4601SOL     OW25264   0.891   4.618  10.434  0.0506  0.1078 -0.0427
 4601SOL    HW125265   0.952   4.643  10.504  1.1977 -1.7989 -0.3592
 4601SOL    HW225266   0.890   4.523  10.445  0.4973  0.0355 -0.5999
 4602SOL     OW25267   4.405   0.667   4.843 -0.0705 -0.5810 -0.2839
 4602SOL    HW125268   4.317   0.667   4.880  0.2760 -1.3582  0.5461
 4602SOL    HW225269   4.386   0.614   4.766  1.2174 -0.7414 -0.4812
 4603SOL     OW25270   0.969   0.853  13.669 -0.4459 -0.1926  0.0945
 4603SOL    HW125271   1.049   0.810  13.700  0.3292  1.0446 -0.1723
 4603SOL    HW225272   1.005   0.890  13.588  1.5412 -0.4131  0.8616
 4604SOL     OW25273   1.095   3.337   7.814 -0.0356  0.7815 -0.2899
 4604SOL    HW125274   1.186   3.313   7.797 -0.4757 -0.2919 -1.0916
 4604SOL    HW225275   1.091   3.301   7.902 -0.6992  1.2553 -0.1279
 4605SOL     OW25276   2.220   3.085   6.774  0.0402  0.1476  0.1363
 4605SOL    HW125277   2.131   3.122   6.769 -0.6657 -1.6673 -0.5286
 4605SOL    HW225278   2.207   2.990   6.772  1.5490 -0.0480  0.2212
 4606SOL     OW25279   4.330   2.450   6.664  0.2092 -0.2583  0.4200
 4606SOL    HW125280   4.331   2.358   6.687 -3.3282 -1.0643 -2.5226
 4606SOL    HW225281   4.237   2.473   6.654  0.3461  0.1661  0.1071
 4607SOL     OW25282   4.105   2.992  11.717 -0.0093  0.0204 -0.4280
 4607SOL    HW125283   4.060   2.947  11.645  1.9941 -1.3117 -0.8385
 4607SOL    HW225284   4.034   3.012  11.778 -0.0099  0.5515 -0.6022
 4608SOL     OW25285   2.902   4.681   4.753 -0.1061 -0.0668  0.1412
 4608SOL    HW125286   2.821   4.662   4.706  1.0353 -0.0916 -1.8130
 4608SOL    HW225287   2.964   4.657   4.685 -1.2676  2.0072 -1.6389
 4609SOL     OW25288   4.468   1.037  11.612 -0.1435 -0.0670  0.3028
 4609SOL    HW125289   4.448   1.033  11.519  0.7679  1.2343  0.0622
 4609SOL    HW225290   4.401   0.978  11.648  0.7684 -0.5514  1.2051
 4610SOL     OW25291   4.349   2.572   2.110  0.0870  0.5274 -0.0415
 4610SOL    HW125292   4.320   2.518   2.183 -2.5338  1.8700 -0.0820
 4610SOL    HW225293   4.374   2.649   2.161  1.1396  0.1016  0.0936
 4611SOL     OW25294   3.797   1.769  13.785 -0.1416 -0.0677 -0.0553
 4611SOL    HW125295   3.736   1.726  13.725  1.7114 -1.7633 -0.7489
 4611SOL    HW225296   3.796   1.708  13.859 -1.5743 -0.4994 -0.4213
 4612SOL     OW25297   1.422   1.767   2.339 -0.3579  0.0764 -0.4367
 4612SOL    HW125298   1.397   1.809   2.422  0.0683  0.2871 -0.4151
 4612SOL    HW225299   1.352   1.706   2.317 -0.8305  0.4252  0.1068
 4613SOL     OW25300   0.530   4.589   6.931  0.2480 -0.0559 -0.5283
 4613SOL    HW125301   0.439   4.574   6.956  0.1574  1.8737  0.3117
 4613SOL    HW225302   0.538   4.678   6.964 -0.1749  0.1504 -0.9780
 4614SOL     OW25303   2.152   4.360   7.801  0.4976  0.2246  0.1819
 4614SOL    HW125304   2.066   4.387   7.768  1.3581 -0.0075 -2.2321
 4614SOL    HW225305   2.201   4.351   7.719 -0.2931  2.0766 -0.5123
 4615SOL     OW25306   1.302   2.409   6.464 -0.2621  0.0489  0.7248
 4615SOL    HW125307   1.386   2.366   6.451  0.0332  1.3352 -1.6359
 4615SOL    HW225308   1.247   2.339   6.497 -0.6218  1.0666  2.2999
 4616SOL     OW25309   1.005   0.243  16.409 -0.1951 -0.5619  0.2417
 4616SOL    HW125310   1.069   0.314  16.403  0.1649 -0.6189  3.4195
 4616SOL    HW225311   1.043   0.203  16.487  1.2705  0.4006  0.0138
 4617SOL     OW25312   0.907   3.771  16.924  0.0832  0.0183 -0.1365
 4617SOL    HW125313   0.978   3.829  16.897  0.4066 -0.9638 -1.4104
 4617SOL    HW225314   0.835   3.798  16.867  0.5581  1.9690  0.1824
 4618SOL     OW25315   2.287   3.432   3.480  0.6090  0.1150  0.1526
 4618SOL    HW125316   2.311   3.454   3.390  0.6284 -1.5150 -0.2331
 4618SOL    HW225317   2.305   3.515   3.525 -1.3334  0.7145 -0.1792
 4619SOL     OW25318   3.734   3.588   5.095  0.1235  0.1187 -0.3396
 4619SOL    HW125319   3.647   3.605   5.133  0.7018  0.8439  0.6516
 4619SOL    HW225320   3.723   3.638   5.014 -0.3528 -1.9379 -1.5441
 4620SOL     OW25321   3.894   0.272   9.146  0.2025 -0.4642 -0.4197
 4620SOL    HW125322   3.866   0.339   9.084 -0.1288 -0.7779 -0.6151
 4620SOL    HW225323   3.941   0.214   9.086  1.4932  1.0844 -0.8845
 4621SOL     OW25324   3.636   4.586   2.459 -0.0392 -0.0293  0.0820
 4621SOL    HW125325   3.575   4.644   2.414 -0.5875  0.3191  1.2716
 4621SOL    HW225326   3.570   4.534   2.506  1.1315 -1.1308  0.4999
 4622SOL     OW25327   4.630   2.964   8.906 -0.0655 -0.3440  0.0272
 4622SOL    HW125328   4.707   2.930   8.862 -0.0478 -0.3014  0.0256
 4622SOL    HW225329   4.575   2.887   8.887  0.3556 -0.8073  0.6938
 4623SOL     OW25330   0.705   1.214   5.197  0.3329 -0.1973 -0.1414
 4623SOL    HW125331   0.734   1.161   5.271 -0.7614  0.8664  1.0436
 4623SOL    HW225332   0.652   1.282   5.238  0.5096 -0.2847  0.2307
 4624SOL     OW25333   0.806   1.718  16.627 -0.0127 -0.2744  0.5737
 4624SOL    HW125334   0.891   1.745  16.592  0.5382 -2.2546  0.3848
 4624SOL    HW225335   0.750   1.721  16.550  0.9135  0.9294 -0.0611
 4625SOL     OW25336   4.016   4.275   6.309  0.5217  0.0674  0.1229
 4625SOL    HW125337   3.996   4.350   6.253 -0.3650 -1.9282 -2.2402
 4625SOL    HW225338   4.111   4.274   6.301  0.6089  1.4789  0.8670
 4626SOL     OW25339   0.706   2.496  13.667  0.2065  0.1712  0.6004
 4626SOL    HW125340   0.709   2.450  13.751 -1.1289  1.5691  1.4103
 4626SOL    HW225341   0.780   2.556  13.682 -0.1099  0.5257  0.7246
 4627SOL     OW25342   3.201   3.172   7.024 -0.0818  0.0829  1.0456
 4627SOL    HW125343   3.188   3.263   6.997  0.1207 -0.6956 -1.6124
 4627SOL    HW225344   3.225   3.138   6.938 -1.6862  1.1254  0.1929
 4628SOL     OW25345   3.871   0.841   7.297  0.0171  0.0133  0.5539
 4628SOL    HW125346   3.836   0.845   7.208  0.5434  2.0179  0.4395
 4628SOL    HW225347   3.807   0.897   7.340 -0.3830 -0.3009  0.3621
 4629SOL     OW25348   1.767   2.825  12.806  0.9652  0.0295 -0.0490
 4629SOL    HW125349   1.737   2.848  12.894 -0.6549 -2.6732  0.0906
 4629SOL    HW225350   1.741   2.893  12.745  2.6922  0.3674 -0.4275
 4630SOL     OW25351   2.838   4.608   4.307 -0.0136  0.1395  0.2576
 4630SOL    HW125352   2.746   4.599   4.331  0.4555 -2.0789  1.1899
 4630SOL    HW225353   2.837   4.654   4.223  0.0182 -0.4869 -0.0869
 4631SOL     OW25354   4.319   0.390   6.189  0.1950  0.6718 -0.0783
 4631SOL    HW125355   4.271   0.403   6.107  1.0255 -0.1812 -0.6948
 4631SOL    HW225356   4.294   0.301   6.216 -2.4146  1.7249  0.9056
 4632SOL     OW25357   3.507   1.430   6.792  0.0969 -0.0798 -0.4912
 4632SOL    HW125358   3.564   1.376   6.846  1.4040  0.8302 -0.9784
 4632SOL    HW225359   3.570   1.493   6.758  0.1837  1.1167  1.8775
 4633SOL     OW25360   0.487   0.328   8.179  0.0632  0.4558  0.5210
 4633SOL    HW125361   0.402   0.320   8.137 -0.6536  1.9967  1.6746
 4633SOL    HW225362   0.544   0.279   8.119 -0.1869  0.9850 -0.1460
 4634SOL     OW25363   4.481   2.544   4.205  0.0397  0.5886 -0.1763
 4634SOL    HW125364   4.489   2.549   4.110 -1.2760 -0.4457 -0.3406
 4634SOL    HW225365   4.575   2.549   4.222 -0.1528 -0.0352  1.0544
 4635SOL     OW25366   1.570   2.395   9.106  0.3206 -0.2907  0.0428
 4635SOL    HW125367   1.475   2.394   9.117  0.3058  2.0491  0.1272
 4635SOL    HW225368   1.578   2.485   9.076 -0.3891 -0.3094 -0.2019
 4636SOL     OW25369   3.492   2.199   8.347  0.0180 -0.1224 -0.5155
 4636SOL    HW125370   3.522   2.289   8.358 -0.3267 -0.1301  0.5554
 4636SOL    HW225371   3.400   2.202   8.374 -0.1339 -1.1985 -0.9160
 4637SOL     OW25372   3.742   2.709   3.272 -0.2762  0.3671  0.1657
 4637SOL    HW125373   3.816   2.769   3.266  2.5921 -3.1624 -0.2606
 4637SOL    HW225374   3.771   2.660   3.349  0.1239 -0.1769 -0.3232
 4638SOL     OW25375   1.322   1.289   9.580 -0.0615 -0.7479  0.2558
 4638SOL    HW125376   1.395   1.346   9.558  0.4349 -2.3015 -2.0968
 4638SOL    HW225377   1.271   1.286   9.498  0.0213 -0.5905  0.1996
 4639SOL     OW25378   4.082   1.606  12.997 -0.0096  0.0685  0.2957
 4639SOL    HW125379   4.167   1.619  12.955 -0.1995  1.7991  0.4619
 4639SOL    HW225380   4.091   1.675  13.063  1.3373 -0.2635  0.4603
 4640SOL     OW25381   3.383   0.854   4.999  0.6404 -0.0084  0.5024
 4640SOL    HW125382   3.457   0.821   5.051  1.1990 -0.8102 -0.7987
 4640SOL    HW225383   3.413   0.835   4.910  1.4204  1.6653  0.4117
 4641SOL     OW25384   4.041   2.612   8.418 -0.0656 -0.3353 -0.1892
 4641SOL    HW125385   4.081   2.540   8.466 -0.0426 -1.2734 -1.5900
 4641SOL    HW225386   3.983   2.640   8.489 -0.3408  3.3224 -1.8694
 4642SOL     OW25387   3.410   4.333  17.651  0.0206  0.0633 -0.1704
 4642SOL    HW125388   3.403   4.400   0.019  1.1249 -0.9612  0.9644
 4642SOL    HW225389   3.435   4.387  17.576 -1.0465  1.2561  0.3385
 4643SOL     OW25390   2.040   1.202   8.807  0.2310  0.0642  0.5387
 4643SOL    HW125391   1.961   1.237   8.848 -0.0500 -1.3036  1.1898
 4643SOL    HW225392   2.067   1.289   8.779  0.1875  0.5014  1.8443
 4644SOL     OW25393   1.635   0.277   5.927  0.3516  0.5775  0.0188
 4644SOL    HW125394   1.595   0.248   6.009  0.7556 -0.8184 -0.2841
 4644SOL    HW225395   1.674   0.195   5.897 -0.9890 -0.3612  0.8859
 4645SOL     OW25396   0.464   2.843   7.892  0.0646 -0.0704  0.0073
 4645SOL    HW125397   0.442   2.896   7.815  0.7588 -0.6982 -0.6250
 4645SOL    HW225398   0.407   2.879   7.960 -0.9734  0.1936 -1.0101
 4646SOL     OW25399   4.472   3.470   6.603 -0.0787  0.0816 -0.1970
 4646SOL    HW125400   4.398   3.433   6.652 -0.2609  0.4614 -0.1876
 4646SOL    HW225401   4.439   3.560   6.598 -0.0631  0.0336 -1.2344
 4647SOL     OW25402   3.202   3.818  17.180  0.6468 -0.5283  0.2420
 4647SOL    HW125403   3.262   3.825  17.255 -0.6691 -0.5210  1.2837
 4647SOL    HW225404   3.148   3.895  17.197 -1.1160 -1.6138 -0.5357
 4648SOL     OW25405   0.114   4.542   5.859 -0.0567  0.1346  0.2669
 4648SOL    HW125406   0.110   4.638   5.858  0.6067  0.1551 -0.4821
 4648SOL    HW225407   0.058   4.526   5.782  1.0079 -1.3317 -0.1904
 4649SOL     OW25408   0.462   1.958  13.681 -0.0501 -0.0048 -0.2761
 4649SOL    HW125409   0.443   1.864  13.688 -1.7130  0.1154 -3.0686
 4649SOL    HW225410   0.538   1.961  13.740  0.3281  3.0813 -0.9623
 4650SOL     OW25411   0.133   2.774   9.769  0.0326 -0.0841  0.0319
 4650SOL    HW125412   0.215   2.818   9.789  0.0929  0.6739 -1.9216
 4650SOL    HW225413   0.088   2.844   9.723 -3.1658 -2.6285 -0.7151
 4651SOL     OW25414   3.253   4.297  17.293 -0.0558  0.2565  0.2764
 4651SOL    HW125415   3.234   4.238  17.366  0.8959 -0.9451 -0.4516
 4651SOL    HW225416   3.227   4.384  17.322  0.1702  0.4416 -0.0818
 4652SOL     OW25417   3.361   2.993   9.016  0.0034 -0.6301 -0.5319
 4652SOL    HW125418   3.354   2.933   8.942  1.2406 -1.1924 -0.1992
 4652SOL    HW225419   3.390   2.921   9.072  0.7466  0.0908  0.0156
 4653SOL     OW25420   1.632   0.485   7.396  0.3848 -0.0759  0.0619
 4653SOL    HW125421   1.607   0.457   7.484  1.2736  2.3088  1.0577
 4653SOL    HW225422   1.715   0.523   7.424  0.6001 -0.1682 -0.4572
 4654SOL     OW25423   1.021   3.917   7.444 -0.4182  0.5463  0.2564
 4654SOL    HW125424   0.986   4.006   7.442  0.0338  0.7037 -0.7570
 4654SOL    HW225425   1.036   3.902   7.537  0.0666  0.8564  0.2284
 4655SOL     OW25426   3.160   3.302  16.688 -0.1898 -0.2970 -0.1317
 4655SOL    HW125427   3.214   3.224  16.704  0.0666 -0.0382  0.2560
 4655SOL    HW225428   3.133   3.289  16.597  0.1009 -0.6101 -0.1710
 4656SOL     OW25429   2.705   1.769   2.890 -0.0192  0.0450 -0.4269
 4656SOL    HW125430   2.690   1.695   2.949  0.4663 -0.1954 -0.6039
 4656SOL    HW225431   2.691   1.728   2.805 -0.3568  1.2995 -0.9733
 4657SOL     OW25432   3.680   4.483   3.917 -0.1843 -0.0684  0.1227
 4657SOL    HW125433   3.597   4.529   3.904  0.8698  0.5835 -4.2544
 4657SOL    HW225434   3.728   4.515   3.840  1.0898 -2.4261 -0.0564
 4658SOL     OW25435   1.344   1.282   0.195  0.3564  0.2773 -0.3838
 4658SOL    HW125436   1.343   1.375   0.218 -1.8255  0.1236  0.1193
 4658SOL    HW225437   1.263   1.259   0.150  0.9459  0.3741 -1.5161
 4659SOL     OW25438   1.973   4.002   8.188  0.0592  0.3868  0.1993
 4659SOL    HW125439   1.954   3.932   8.126 -0.6199  0.3353  0.4652
 4659SOL    HW225440   1.960   3.963   8.275 -0.1080  0.9540  0.4303
 4660SOL     OW25441   0.855   4.047   0.263  0.2198  0.2360 -0.2091
 4660SOL    HW125442   0.907   4.041   0.182 -1.9871 -2.1880 -1.4492
 4660SOL    HW225443   0.778   3.995   0.239  1.3528 -0.5422 -2.1741
 4661SOL     OW25444   3.948   2.997   9.574 -0.4914  0.1292 -0.9021
 4661SOL    HW125445   3.994   2.913   9.568 -2.7889 -1.2394  0.2788
 4661SOL    HW225446   3.859   2.964   9.561  0.7823 -1.8888 -4.4534
 4662SOL     OW25447   0.083   0.879  16.259  0.5199 -0.4476 -0.2778
 4662SOL    HW125448   0.133   0.797  16.263  0.0036 -0.5408  4.2972
 4662SOL    HW225449   0.108   0.904  16.170  0.8267  0.1659 -0.0193
 4663SOL     OW25450   0.141   3.780   3.772 -0.2204  0.2580  0.2046
 4663SOL    HW125451   0.215   3.722   3.755  0.6831  1.1861  0.9189
 4663SOL    HW225452   0.140   3.829   3.690  0.9057 -1.6682 -0.9630
 4664SOL     OW25453   3.065   3.265   9.264  0.2973 -0.3864  0.4681
 4664SOL    HW125454   2.999   3.269   9.333  0.4076  1.3439  0.4895
 4664SOL    HW225455   3.018   3.300   9.189  2.7324  1.7460 -0.0777
 4665SOL     OW25456   3.821   2.975  16.575 -0.1386  0.4445 -0.4364
 4665SOL    HW125457   3.909   2.984  16.610 -0.3160 -2.0110  0.6978
 4665SOL    HW225458   3.820   3.028  16.496  3.3165 -0.6120 -1.1564
 4666SOL     OW25459   1.031   2.488  13.572 -0.7969 -0.1898  0.7174
 4666SOL    HW125460   1.024   2.552  13.642  1.4841  0.3266  0.4622
 4666SOL    HW225461   1.090   2.422  13.608 -1.7339 -0.8548  1.0362
 4667SOL     OW25462   2.706   3.559   8.143 -0.4627 -0.4897  0.1986
 4667SOL    HW125463   2.697   3.498   8.216 -0.3375  0.0425  0.6563
 4667SOL    HW225464   2.749   3.632   8.187  1.8557 -1.7139 -0.0221
 4668SOL     OW25465   0.851   1.088   0.308  0.2314  0.0474  0.2565
 4668SOL    HW125466   0.827   1.001   0.341  1.5802  0.0876  1.3354
 4668SOL    HW225467   0.771   1.110   0.260 -0.4164 -0.5362  1.0678
 4669SOL     OW25468   1.212   1.856   4.070 -0.0315 -0.2620 -0.5581
 4669SOL    HW125469   1.140   1.856   4.133  1.3704  0.2689  1.0363
 4669SOL    HW225470   1.185   1.928   4.013 -1.4658 -0.9046 -0.6793
 4670SOL     OW25471   2.030   3.375   4.888  0.0521 -0.0669  0.0130
 4670SOL    HW125472   2.019   3.350   4.979 -0.1220  0.2252  0.0714
 4670SOL    HW225473   2.008   3.291   4.846  0.3875 -0.4228  0.5490
 4671SOL     OW25474   1.313   3.020   6.082  0.6146  0.3780  0.0706
 4671SOL    HW125475   1.318   2.941   6.028  0.7756  0.7929 -0.5203
 4671SOL    HW225476   1.228   3.007   6.123 -0.4015  0.8702 -1.8922
 4672SOL     OW25477   0.106   1.477   9.911 -0.6149 -0.6036  0.1030
 4672SOL    HW125478   0.148   1.429   9.839 -0.8461  1.4724 -1.4159
 4672SOL    HW225479   0.160   1.462   9.988 -0.9483  0.4708  0.5506
 4673SOL     OW25480   3.112   4.150   5.375  0.0197 -0.5142  0.2885
 4673SOL    HW125481   3.044   4.082   5.371  0.5984 -1.0215 -1.0099
 4673SOL    HW225482   3.122   4.161   5.470  1.2299  1.1785 -0.0434
 4674SOL     OW25483   3.436   1.066  15.866 -0.5155 -0.1150 -0.3223
 4674SOL    HW125484   3.487   1.145  15.885 -0.7994 -0.0501  0.1807
 4674SOL    HW225485   3.351   1.093  15.903 -0.0294 -0.2585  0.8911
 4675SOL     OW25486   3.440   1.840   0.520 -0.0320 -0.6607  0.4255
 4675SOL    HW125487   3.464   1.897   0.447 -0.5710 -0.1996  0.6059
 4675SOL    HW225488   3.346   1.858   0.511  0.4592  0.6072 -2.1478
 4676SOL     OW25489   4.217   3.013   2.834  0.6593 -0.0155 -0.1355
 4676SOL    HW125490   4.169   2.975   2.907 -0.6293 -0.6391 -1.3084
 4676SOL    HW225491   4.285   3.065   2.877  0.1998  1.3238 -1.0060
 4677SOL     OW25492   3.449   1.785   6.530  0.2501 -0.0058  0.2225
 4677SOL    HW125493   3.373   1.727   6.527 -1.2792  2.0173  0.7458
 4677SOL    HW225494   3.476   1.769   6.620  1.2760 -1.2186 -0.2797
 4678SOL     OW25495   2.628   0.081   6.736 -0.7544 -0.4516 -0.1984
 4678SOL    HW125496   2.723   0.089   6.736 -0.7792 -0.1731 -1.2848
 4678SOL    HW225497   2.592   0.158   6.693  0.1009 -0.2204 -0.4945
 4679SOL     OW25498   2.936   3.799  12.067  0.4140 -0.7558 -0.0412
 4679SOL    HW125499   2.883   3.801  12.146  1.7821  1.9670  0.8256
 4679SOL    HW225500   3.006   3.864  12.074  0.7279 -0.7379 -3.2868
 4680SOL     OW25501   2.671   0.776   9.884  0.2250 -0.5097 -0.1925
 4680SOL    HW125502   2.634   0.863   9.903 -1.8898 -0.0513 -6.5499
 4680SOL    HW225503   2.688   0.776   9.790  0.7790 -2.4504 -0.0755
 4681SOL     OW25504   1.160   4.277   6.810 -0.0334  0.6837  0.1511
 4681SOL    HW125505   1.210   4.258   6.890 -0.8411  0.9689  0.7304
 4681SOL    HW225506   1.208   4.351   6.772 -1.9261  0.8729 -1.8443
 4682SOL     OW25507   3.043   0.436   8.424  0.1554  0.3963 -0.6385
 4682SOL    HW125508   2.995   0.518   8.432 -0.7610 -0.2309  0.4161
 4682SOL    HW225509   3.125   0.467   8.462 -0.5628 -0.6482  1.8048
 4683SOL     OW25510   0.436   2.489   3.125  0.4962  0.2407 -0.6157
 4683SOL    HW125511   0.393   2.549   3.064 -2.7075 -0.9649  0.4303
 4683SOL    HW225512   0.524   2.481   3.089  0.3867 -2.4674 -0.2243
 4684SOL     OW25513   2.202   4.259   2.952 -0.1508 -0.3300 -0.8167
 4684SOL    HW125514   2.256   4.180   2.945  0.8396  0.0402  2.5995
 4684SOL    HW225515   2.140   4.245   2.881  1.4294  0.2924 -2.3046
 4685SOL     OW25516   3.376   1.223   1.454  0.0543  0.1482  0.3575
 4685SOL    HW125517   3.458   1.250   1.494  1.5500 -0.7948 -2.1326
 4685SOL    HW225518   3.373   1.128   1.462 -0.4257  0.1866  0.6696
 4686SOL     OW25519   0.854   4.380  15.170 -0.2940 -0.5303 -0.1648
 4686SOL    HW125520   0.859   4.358  15.078  0.2235 -1.0916 -0.0016
 4686SOL    HW225521   0.885   4.296  15.204 -0.3815  0.8273  3.3598
 4687SOL     OW25522   0.805   0.617  16.130 -0.0541  0.3148  0.3316
 4687SOL    HW125523   0.794   0.546  16.194 -4.2662  1.3864  0.7783
 4687SOL    HW225524   0.879   0.666  16.166  0.5728 -1.0661  0.9306
 4688SOL     OW25525   0.512   1.731  12.203 -0.1843 -0.1309  0.3646
 4688SOL    HW125526   0.503   1.756  12.111  3.0753  0.8049  0.2957
 4688SOL    HW225527   0.531   1.817  12.241 -1.4857  1.4348 -2.5086
 4689SOL     OW25528   3.490   3.052  10.695  0.6104  0.4372 -0.3226
 4689SOL    HW125529   3.572   3.012  10.722  0.6229  0.1654 -0.7558
 4689SOL    HW225530   3.476   2.985  10.629  0.4673 -1.3524  1.5460
 4690SOL     OW25531   1.613   1.727   7.202 -0.0269  0.5117  0.3438
 4690SOL    HW125532   1.627   1.632   7.212 -0.6462  0.3227 -0.6467
 4690SOL    HW225533   1.629   1.738   7.108 -0.6097  0.3165  0.2247
 4691SOL     OW25534   1.528   0.015   7.385  0.4082 -0.1221 -0.1537
 4691SOL    HW125535   1.595   4.671   7.385 -0.1855 -0.6911  1.0047
 4691SOL    HW225536   1.456   4.692   7.343  0.3447  0.3809 -0.6179
 4692SOL     OW25537   0.586   2.109  14.253 -0.3401 -0.4598  0.4158
 4692SOL    HW125538   0.647   2.086  14.182 -0.7856  2.0790 -0.7708
 4692SOL    HW225539   0.536   2.027  14.252  2.8306 -2.4035  2.3997
 4693SOL     OW25540   1.179   2.646   3.517  0.0856  0.1204  0.2483
 4693SOL    HW125541   1.200   2.708   3.586  1.3935  1.2581 -1.1596
 4693SOL    HW225542   1.134   2.699   3.451 -2.9089 -2.3803  0.2751
 4694SOL     OW25543   0.620   0.306  10.841  0.1136  0.1452  0.3192
 4694SOL    HW125544   0.597   0.391  10.877 -1.5530  0.1874 -0.8206
 4694SOL    HW225545   0.711   0.325  10.820 -0.0372 -0.5031 -0.9368
 4695SOL     OW25546   4.017   3.909   5.346 -0.5568 -0.1713 -0.4954
 4695SOL    HW125547   4.033   3.990   5.297  1.8860 -0.1314  0.3654
 4695SOL    HW225548   3.926   3.887   5.326 -0.8904  0.9273 -0.2120
 4696SOL     OW25549   0.929   1.451  11.689  0.1297  0.1183  0.1730
 4696SOL    HW125550   0.896   1.422  11.775  0.4058  0.0161  0.2465
 4696SOL    HW225551   0.874   1.401  11.629 -1.0579  1.7714 -0.0960
 4697SOL     OW25552   0.702   0.455   3.732  0.2483 -0.0734 -0.6909
 4697SOL    HW125553   0.697   0.506   3.651  0.2250  0.0832 -0.5903
 4697SOL    HW225554   0.793   0.429   3.722  0.6472  1.8732 -2.0377
 4698SOL     OW25555   3.958   3.456  13.398  0.6112  0.0198  0.1142
 4698SOL    HW125556   4.041   3.488  13.434  0.4307  0.8195 -0.2027
 4698SOL    HW225557   3.897   3.513  13.444  1.0056 -1.0243  1.9816
 4699SOL     OW25558   2.039   4.612   9.448  0.3711 -0.3981  0.0197
 4699SOL    HW125559   2.091   4.656   9.515 -0.1102  0.0484  0.1008
 4699SOL    HW225560   2.057   4.666   9.371 -3.2434 -0.0039 -0.5555
 4700SOL     OW25561   0.544   4.322   8.474 -0.0260 -0.2720  0.0213
 4700SOL    HW125562   0.616   4.330   8.536  1.0854  1.9168 -1.5441
 4700SOL    HW225563   0.468   4.311   8.531  0.3332  2.4272  1.0057
 4701SOL     OW25564   4.160   2.604   6.969  0.1988 -0.0835 -0.1254
 4701SOL    HW125565   4.185   2.644   6.886 -1.1179  1.5777  0.2687
 4701SOL    HW225566   4.188   2.674   7.028  0.6909  0.2121 -0.7125
 4702SOL     OW25567   1.910   3.310  13.362 -0.4866  0.7256  0.0038
 4702SOL    HW125568   1.819   3.281  13.367 -0.6286  1.0705 -0.5478
 4702SOL    HW225569   1.932   3.308  13.455 -0.6466 -0.5835  0.0196
 4703SOL     OW25570   2.620   2.414   5.293 -0.7548 -0.4525 -0.0637
 4703SOL    HW125571   2.584   2.423   5.205  0.2600  0.4526 -0.3782
 4703SOL    HW225572   2.699   2.467   5.300  0.1729 -1.6313 -1.9596
 4704SOL     OW25573   3.843   3.595   5.568  0.0053 -0.2821  0.1524
 4704SOL    HW125574   3.786   3.603   5.644 -1.0800 -1.7616 -0.5258
 4704SOL    HW225575   3.802   3.664   5.516 -0.8555 -0.1326  1.0282
 4705SOL     OW25576   3.090   1.441  15.309 -0.1427  0.0418 -0.0123
 4705SOL    HW125577   3.106   1.458  15.402 -1.7833 -0.5686  0.3809
 4705SOL    HW225578   3.179   1.438  15.274 -0.2053  0.9081 -0.2279
 4706SOL     OW25579   2.291   0.544   3.783  0.2368  0.5835 -0.0645
 4706SOL    HW125580   2.299   0.615   3.720  3.8773 -0.0903 -0.3571
 4706SOL    HW225581   2.201   0.521   3.758  0.5861 -0.0289 -0.7604
 4707SOL     OW25582   0.466   0.130   3.843  0.3457  0.1995  0.6084
 4707SOL    HW125583   0.550   0.095   3.811 -0.1116  0.4432 -0.8219
 4707SOL    HW225584   0.459   0.222   3.819  1.7246  0.2074  0.1982
 4708SOL     OW25585   0.446   2.894   4.827 -0.7932 -0.3946 -0.0028
 4708SOL    HW125586   0.430   2.819   4.885  0.8817 -1.3709 -0.8094
 4708SOL    HW225587   0.370   2.953   4.831  0.7374  1.6053 -0.4458
 4709SOL     OW25588   3.399   0.876   4.409  0.4269 -0.3288 -0.1446
 4709SOL    HW125589   3.370   0.909   4.324  3.3743 -0.9739 -1.4081
 4709SOL    HW225590   3.416   0.959   4.454 -0.7170  0.2761 -0.8412
 4710SOL     OW25591   3.947   1.918   9.612  0.3551 -0.0287  0.3909
 4710SOL    HW125592   4.018   1.954   9.558  1.0557  0.6019  1.7111
 4710SOL    HW225593   3.999   1.880   9.683 -0.7383 -0.2438  1.0689
 4711SOL     OW25594   0.450   4.617   6.096 -0.4190  0.0140 -0.0843
 4711SOL    HW125595   0.372   4.669   6.112  0.6217  1.7379 -0.6800
 4711SOL    HW225596   0.520   4.680   6.081 -0.2747 -0.2894 -0.6867
 4712SOL     OW25597   2.228   2.755   1.289  1.1064 -1.0685  0.7313
 4712SOL    HW125598   2.227   2.833   1.234 -0.5772 -0.0569  2.1835
 4712SOL    HW225599   2.241   2.792   1.377 -1.5638 -1.4167  1.2874
 4713SOL     OW25600   2.055   3.321   6.977  0.5543 -0.4499  0.4040
 4713SOL    HW125601   2.133   3.372   6.998 -1.2634  1.0425  3.6105
 4713SOL    HW225602   2.038   3.334   6.884  0.9988  0.3648  0.4411
 4714SOL     OW25603   3.944   0.802   0.842  0.0202 -0.2988  0.5478
 4714SOL    HW125604   4.001   0.802   0.765  0.5095  0.9169  0.9195
 4714SOL    HW225605   3.908   0.890   0.836  3.4727  1.0942 -0.0251
 4715SOL     OW25606   1.896   2.917   0.608 -0.1423  0.3165  0.4401
 4715SOL    HW125607   1.866   2.916   0.517 -0.8412 -0.6289  0.6766
 4715SOL    HW225608   1.840   2.845   0.636 -0.9402  1.2271  1.2184
 4716SOL     OW25609   1.335   2.802   5.931 -0.3462 -0.0230 -0.9498
 4716SOL    HW125610   1.315   2.713   5.901  0.3871 -1.0787  1.7245
 4716SOL    HW225611   1.430   2.805   5.944 -0.6112  1.2810  0.7368
 4717SOL     OW25612   3.568   2.064   6.683 -0.1558  0.3369  0.0414
 4717SOL    HW125613   3.589   2.055   6.590  0.0068  0.7145  0.0410
 4717SOL    HW225614   3.616   2.146   6.697 -1.0971  0.7116  0.9828
 4718SOL     OW25615   3.235   0.791   7.266 -0.5440 -0.1180 -0.3040
 4718SOL    HW125616   3.180   0.866   7.288  0.6618  0.8496 -0.5727
 4718SOL    HW225617   3.207   0.770   7.177  0.8391 -0.3056 -0.6920
 4719SOL     OW25618   0.231   2.921   6.936 -0.2545 -0.3559  0.3813
 4719SOL    HW125619   0.200   2.841   6.979  1.0385 -1.1968 -0.2397
 4719SOL    HW225620   0.305   2.892   6.882  0.2013  0.4659  0.5621
 4720SOL     OW25621   0.021   4.269   7.369 -0.0961  0.4109 -0.0976
 4720SOL    HW125622   4.676   4.321   7.328 -1.0349 -0.4377  0.4215
 4720SOL    HW225623   4.698   4.187   7.359  0.0577  0.3645 -0.4407
 4721SOL     OW25624   0.818   1.649   9.365 -0.0118  0.5736 -0.3929
 4721SOL    HW125625   0.786   1.738   9.375 -0.9709  0.3947 -1.8311
 4721SOL    HW225626   0.787   1.614   9.448 -1.7542 -0.7267 -1.5809
 4722SOL     OW25627   4.449   2.895   0.902 -0.0120  0.9038  0.0301
 4722SOL    HW125628   4.479   2.947   0.828 -1.4008 -0.9876 -1.8651
 4722SOL    HW225629   4.370   2.855   0.865  1.2783 -1.3947 -0.2281
 4723SOL     OW25630   1.313   3.315  17.565  0.2162  0.0864 -0.1689
 4723SOL    HW125631   1.225   3.335  17.597 -0.0685 -0.6678 -0.4693
 4723SOL    HW225632   1.293   3.302  17.472 -0.7943 -1.3327  0.2439
 4724SOL     OW25633   3.991   2.575  12.972  0.4244  0.1753  0.4725
 4724SOL    HW125634   4.008   2.660  12.931  0.6604 -0.2173 -0.2503
 4724SOL    HW225635   4.074   2.568  13.021  0.5559  0.3557  0.2731
 4725SOL     OW25636   2.114   3.238   5.523  0.0128  0.0497 -0.3735
 4725SOL    HW125637   2.086   3.191   5.601  1.4928  0.2855  0.2964
 4725SOL    HW225638   2.111   3.162   5.465 -0.0495 -2.1811  2.6255
 4726SOL     OW25639   2.406   1.259  12.456  0.3830 -0.6691  0.4104
 4726SOL    HW125640   2.417   1.169  12.427 -0.5353 -0.6043 -0.1355
 4726SOL    HW225641   2.452   1.303  12.384 -1.2606  1.2494  0.5386
 4727SOL     OW25642   2.358   1.518   0.635 -0.2360  0.3086  0.1006
 4727SOL    HW125643   2.270   1.483   0.643 -0.1790  0.1991  0.2672
 4727SOL    HW225644   2.383   1.449   0.573 -2.3681  0.8961 -1.3948
 4728SOL     OW25645   4.650   1.225   9.592 -0.3276  0.4748  0.3326
 4728SOL    HW125646   4.637   1.320   9.587  1.2448  0.5335 -2.7105
 4728SOL    HW225647   4.576   1.208   9.651 -0.2709  0.6735  0.4626
 4729SOL     OW25648   1.516   0.787   5.143  0.1848  0.6163  0.5746
 4729SOL    HW125649   1.600   0.745   5.163  1.3017  2.9311  0.7063
 4729SOL    HW225650   1.470   0.717   5.096  2.8229 -1.5753  1.2631
 4730SOL     OW25651   0.204   4.298   1.152  0.1520 -0.1044 -0.3985
 4730SOL    HW125652   0.221   4.204   1.155 -0.3670 -0.1999 -0.5622
 4730SOL    HW225653   0.136   4.317   1.087  1.7808 -1.3331 -2.4725
 4731SOL     OW25654   3.359   4.074  13.901 -0.9249  0.5713 -0.0702
 4731SOL    HW125655   3.293   4.022  13.855  1.6038 -2.4058 -0.3784
 4731SOL    HW225656   3.355   4.150  13.843 -0.2854  2.3370  2.2473
 4732SOL     OW25657   2.747   3.807   7.408 -0.7654 -0.2841  0.0651
 4732SOL    HW125658   2.657   3.829   7.382 -0.0083 -1.6533 -3.6708
 4732SOL    HW225659   2.746   3.714   7.430 -0.7047 -0.0505  1.0370
 4733SOL     OW25660   1.107   0.294  14.358  0.1928  0.5026 -0.2341
 4733SOL    HW125661   1.162   0.318  14.433  0.0694  0.9307 -0.2803
 4733SOL    HW225662   1.132   0.369  14.304  0.2548  2.9377  3.1941
 4734SOL     OW25663   3.697   3.828   1.906  0.3423  0.0757  0.3202
 4734SOL    HW125664   3.627   3.780   1.863 -0.8636  1.2007  1.0446
 4734SOL    HW225665   3.757   3.760   1.937  0.0443  1.2531  3.4620
 4735SOL     OW25666   2.535   3.038   2.184  0.3416 -0.1772  0.0888
 4735SOL    HW125667   2.512   3.037   2.277  0.0467 -1.0411  0.0077
 4735SOL    HW225668   2.516   3.129   2.163 -1.9515 -0.4902  0.7213
 4736SOL     OW25669   3.587   4.416  16.665 -0.0413  0.7545  0.3176
 4736SOL    HW125670   3.569   4.324  16.685  0.9821  0.6009  0.5315
 4736SOL    HW225671   3.512   4.422  16.606  0.7377 -1.3874 -0.8819
 4737SOL     OW25672   1.303   1.138   7.266 -0.7265 -0.1817  0.1605
 4737SOL    HW125673   1.317   1.060   7.321 -0.6471  1.1652  2.0675
 4737SOL    HW225674   1.302   1.209   7.330 -0.9142 -0.6620  0.6979
 4738SOL     OW25675   4.181   1.640   4.952 -0.1165 -0.0140 -0.5523
 4738SOL    HW125676   4.259   1.612   5.000 -0.2192  0.4486 -0.1113
 4738SOL    HW225677   4.196   1.735   4.945  2.6463 -0.6460 -3.0628
 4739SOL     OW25678   0.518   1.778   2.644 -0.4386  0.7759  0.1807
 4739SOL    HW125679   0.512   1.867   2.608  0.6570  0.6804 -0.2308
 4739SOL    HW225680   0.510   1.789   2.739  1.2929  2.5877  0.1293
 4740SOL     OW25681   0.086   2.076   8.853 -0.0769 -0.3095  0.2983
 4740SOL    HW125682   0.073   1.985   8.880 -1.9447  0.3428  1.5742
 4740SOL    HW225683   0.020   2.118   8.908  2.5718  1.9376  1.7449
 4741SOL     OW25684   3.391   0.214   9.923 -0.2482  0.4562  0.3457
 4741SOL    HW125685   3.473   0.263   9.920  1.0138 -1.7476 -0.7612
 4741SOL    HW225686   3.405   0.146   9.989 -0.2547  1.3246  1.2326
 4742SOL     OW25687   2.228   0.783   8.533 -0.0400 -0.1780  0.1325
 4742SOL    HW125688   2.171   0.769   8.609 -0.6997 -0.3019 -0.3901
 4742SOL    HW225689   2.231   0.878   8.548  1.7958 -0.4386  1.4301
 4743SOL     OW25690   4.008   0.538   4.623  0.3134  0.5431  0.2008
 4743SOL    HW125691   3.993   0.504   4.711  0.4385 -0.7728 -0.2835
 4743SOL    HW225692   3.938   0.603   4.623  0.2649  0.4848 -1.0792
 4744SOL     OW25693   2.843   1.599   8.751  0.6868  0.0555 -0.1640
 4744SOL    HW125694   2.815   1.674   8.803 -0.2894 -0.1086 -0.4601
 4744SOL    HW225695   2.895   1.555   8.819 -0.3169 -0.2790  0.3910
 4745SOL     OW25696   3.527   1.813   2.545  0.3720  0.1089 -0.3345
 4745SOL    HW125697   3.448   1.781   2.589  0.6835  1.2838  1.0636
 4745SOL    HW225698   3.543   1.748   2.477  0.5610  0.0765 -0.2569
 4746SOL     OW25699   4.596   2.402   0.583 -0.2736  0.3084  0.0727
 4746SOL    HW125700   4.558   2.391   0.670 -0.8750  0.1533 -0.2093
 4746SOL    HW225701   4.677   2.353   0.593 -1.5222 -1.1921  2.8444
 4747SOL     OW25702   1.946   0.699   2.563 -0.3421  0.5030 -0.2807
 4747SOL    HW125703   1.952   0.730   2.473  0.3200  1.3682  0.0643
 4747SOL    HW225704   1.918   0.610   2.541  1.1612 -0.3001  1.0789
 4748SOL     OW25705   1.087   3.470   6.583  0.3538  0.0879  0.3561
 4748SOL    HW125706   0.994   3.462   6.562  0.3382 -0.4066  0.6085
 4748SOL    HW225707   1.117   3.402   6.643 -2.0109 -1.0256  0.2889
 4749SOL     OW25708   4.152   1.124   7.859  0.1654 -0.5911 -0.3180
 4749SOL    HW125709   4.196   1.062   7.800  0.9102 -1.6164  1.3107
 4749SOL    HW225710   4.065   1.135   7.821  0.0719 -2.2443 -0.6010
 4750SOL     OW25711   0.738   3.689   9.295  0.3465  0.4005  0.0982
 4750SOL    HW125712   0.730   3.604   9.338  0.3197  0.2440 -0.2222
 4750SOL    HW225713   0.832   3.697   9.277 -0.2234  0.2905 -2.8844
 4751SOL     OW25714   0.962   2.941   3.786  0.2674  0.5249 -0.4403
 4751SOL    HW125715   0.977   2.852   3.752 -3.3556 -1.0441  2.0449
 4751SOL    HW225716   1.017   2.957   3.862  0.5311  1.5445 -0.8598
 4752SOL     OW25717   3.480   0.130   2.334  0.3045 -0.6070  0.2194
 4752SOL    HW125718   3.526   0.202   2.378 -0.0750 -0.1234 -0.1701
 4752SOL    HW225719   3.440   0.177   2.261 -0.8797 -2.3049 -0.2170
 4753SOL     OW25720   3.696   0.154   2.963  1.0862  0.0370 -0.2711
 4753SOL    HW125721   3.727   0.097   2.893 -3.4030 -1.1446 -1.2930
 4753SOL    HW225722   3.689   0.095   3.038 -0.2892 -0.6182 -0.9225
 4754SOL     OW25723   1.840   2.446  17.318 -0.2637  0.4419  0.5374
 4754SOL    HW125724   1.896   2.370  17.304  1.0665  1.2530  1.3390
 4754SOL    HW225725   1.823   2.448  17.412 -1.6392  3.5675  0.2174
 4755SOL     OW25726   0.063   2.074   5.375  0.7399 -0.8324  0.5021
 4755SOL    HW125727   4.702   2.086   5.333  1.8413  1.8695 -0.9683
 4755SOL    HW225728   0.063   2.149   5.436  0.9351 -0.4525  0.0356
 4756SOL     OW25729   3.067   3.621   0.699 -0.0312 -0.1976  0.1231
 4756SOL    HW125730   3.145   3.610   0.645 -0.9894  1.7634 -1.6880
 4756SOL    HW225731   2.990   3.588   0.652  0.1672 -2.0579  1.1260
 4757SOL     OW25732   1.622   2.495   7.545 -0.0622  0.3875 -0.1019
 4757SOL    HW125733   1.568   2.416   7.536  1.2074 -0.2937 -1.6554
 4757SOL    HW225734   1.622   2.506   7.640  2.1553 -0.9319  0.0590
 4758SOL     OW25735   1.471   0.133  17.374 -0.0744 -0.4265 -0.6688
 4758SOL    HW125736   1.530   0.126  17.299  1.3564 -1.7488  0.5939
 4758SOL    HW225737   1.388   0.090  17.359 -0.9082  1.1389 -0.5849
 4759SOL     OW25738   4.299   1.119   4.470 -0.1811 -0.9196 -0.0076
 4759SOL    HW125739   4.227   1.107   4.408  0.3679 -1.3216 -0.5727
 4759SOL    HW225740   4.292   1.210   4.499  0.3932 -0.7767 -0.3072
 4760SOL     OW25741   3.002   3.345  11.304 -0.2724  0.0499  0.4858
 4760SOL    HW125742   2.957   3.347  11.389 -0.0483  0.6816  0.5923
 4760SOL    HW225743   3.092   3.373  11.324 -0.4390  1.6325 -0.9825
 4761SOL     OW25744   2.364   4.689   5.187  0.3769 -0.5691 -0.1799
 4761SOL    HW125745   2.410   4.622   5.237 -0.1672 -0.3500  0.6163
 4761SOL    HW225746   2.272   4.677   5.212  0.5389  1.6936  1.5587
 4762SOL     OW25747   2.003   4.397   8.617  0.3034 -0.1736  0.3167
 4762SOL    HW125748   1.962   4.311   8.630  0.4326 -0.1876  0.6370
 4762SOL    HW225749   1.930   4.449   8.584 -1.0404 -0.9444  2.1116
 4763SOL     OW25750   4.230   0.127   5.921  0.0862 -0.2993  0.6163
 4763SOL    HW125751   4.214   0.221   5.927  0.3124 -0.2153 -0.0785
 4763SOL    HW225752   4.235   0.111   5.827 -1.4263  1.7054  0.1889
 4764SOL     OW25753   0.832   3.288   9.642  0.2205 -0.5019  0.3116
 4764SOL    HW125754   0.926   3.302   9.634 -0.2133  1.7176 -0.9926
 4764SOL    HW225755   0.830   3.348   9.717  0.9103 -0.1947  0.0843
 4765SOL     OW25756   3.730   3.676   2.338  0.1340  0.3510  0.3104
 4765SOL    HW125757   3.773   3.720   2.265 -1.1059  1.0458 -0.0049
 4765SOL    HW225758   3.639   3.706   2.350  0.7562  2.5162 -0.3536
 4766SOL     OW25759   1.203   3.987   5.086 -0.2793  0.2764  0.1351
 4766SOL    HW125760   1.112   4.003   5.110 -0.5693 -0.5350 -0.3962
 4766SOL    HW225761   1.192   3.963   4.994  0.5238 -0.9921  0.3609
 4767SOL     OW25762   1.312   3.062   3.501 -0.1264 -0.1626  0.1419
 4767SOL    HW125763   1.340   3.140   3.550 -1.1174 -0.4312  1.1443
 4767SOL    HW225764   1.345   2.992   3.557  3.0062  1.3461  0.1514
 4768SOL     OW25765   0.929   1.396   2.965  0.7774 -0.4477 -0.9523
 4768SOL    HW125766   0.966   1.308   2.955 -0.9984 -1.1017 -1.8546
 4768SOL    HW225767   0.962   1.408   3.053  0.3855  0.2644 -0.9032
 4769SOL     OW25768   1.790   0.860  14.973 -0.6912 -0.5369  0.2472
 4769SOL    HW125769   1.725   0.841  14.905 -0.6940  0.3657 -0.0027
 4769SOL    HW225770   1.860   0.808  14.935 -0.2052 -1.6527  2.6613
 4770SOL     OW25771   2.478   2.462   2.845 -0.5244  0.5514 -0.6557
 4770SOL    HW125772   2.422   2.389   2.820 -1.0467  0.3390  1.1205
 4770SOL    HW225773   2.469   2.453   2.940  3.2415 -2.8873 -0.5977
 4771SOL     OW25774   3.343   4.162   4.299 -0.1522  0.3772 -0.3021
 4771SOL    HW125775   3.332   4.144   4.393  0.0641 -2.7803 -0.9006
 4771SOL    HW225776   3.410   4.230   4.299 -0.7002  0.9502  2.4618
 4772SOL     OW25777   3.240   0.929   7.013 -0.1512 -0.4583 -0.0775
 4772SOL    HW125778   3.331   0.908   7.034  0.6858  3.1645 -0.0332
 4772SOL    HW225779   3.246   0.935   6.918  0.1545  1.5257  0.0539
 4773SOL     OW25780   4.632   1.060   7.208  0.6102 -0.7595  0.4827
 4773SOL    HW125781   4.649   1.076   7.300 -0.9889 -0.8210  0.7787
 4773SOL    HW225782   4.644   1.150   7.177  0.6106 -0.7415  0.5361
 4774SOL     OW25783   2.618   0.339   6.990  0.0529 -0.7766 -0.5223
 4774SOL    HW125784   2.621   0.266   6.928 -0.5148 -1.6325  0.4584
 4774SOL    HW225785   2.527   0.370   6.990 -0.1801 -1.4524 -0.8970
 4775SOL     OW25786   1.540   2.918   0.919  0.7000 -0.1274  0.3987
 4775SOL    HW125787   1.572   2.832   0.947  0.4934 -0.9136 -1.8125
 4775SOL    HW225788   1.454   2.894   0.884 -0.0948  0.1705  2.1186
 4776SOL     OW25789   0.280   3.952  14.640  0.0332 -0.0365 -0.6766
 4776SOL    HW125790   0.341   3.972  14.569  0.3580 -0.1829 -0.4401
 4776SOL    HW225791   0.262   4.043  14.666 -1.2955 -1.1792  2.3744
 4777SOL     OW25792   0.843   0.390  11.626  0.6060 -0.5327 -0.3221
 4777SOL    HW125793   0.867   0.307  11.668  0.6860  0.3147  1.2994
 4777SOL    HW225794   0.769   0.412  11.682  1.1278 -1.0130  0.5640
 4778SOL     OW25795   3.522   0.776   3.500  0.1629  0.6365 -0.5764
 4778SOL    HW125796   3.470   0.738   3.429  0.3935 -0.0361 -0.3913
 4778SOL    HW225797   3.592   0.711   3.508  1.4256  2.1728  0.9440
 4779SOL     OW25798   0.405   3.052   1.047  0.1825  0.1325  0.4280
 4779SOL    HW125799   0.476   3.031   0.986  0.8114 -0.8747  1.5024
 4779SOL    HW225800   0.394   3.143   1.020  3.6500  1.0153  1.9235
 4780SOL     OW25801   0.513   0.450   5.410  0.4331  0.4290 -0.1761
 4780SOL    HW125802   0.568   0.528   5.402  1.2120  0.0502  1.4217
 4780SOL    HW225803   0.562   0.404   5.478 -0.2922  0.8744  0.6520
 4781SOL     OW25804   4.410   1.435   7.686  0.1943  0.2561  0.0979
 4781SOL    HW125805   4.337   1.470   7.635  0.8038  0.5797 -0.5562
 4781SOL    HW225806   4.417   1.345   7.657  1.2118  0.1963  0.5329
 4782SOL     OW25807   0.450   2.573   3.654 -0.4002  0.3692 -0.3557
 4782SOL    HW125808   0.379   2.635   3.669  0.9669  1.5109  1.3104
 4782SOL    HW225809   0.528   2.627   3.647  0.1756 -0.1163  2.0808
 4783SOL     OW25810   2.280   2.156   0.727 -0.0062  0.0317  0.1773
 4783SOL    HW125811   2.232   2.228   0.769  1.0159 -0.0238  1.4436
 4783SOL    HW225812   2.277   2.180   0.634  1.5698  0.3434  0.2171
 4784SOL     OW25813   4.426   1.103   3.585 -0.0067  0.3625  0.0321
 4784SOL    HW125814   4.389   1.094   3.497  0.8487 -0.6798 -0.2170
 4784SOL    HW225815   4.452   1.195   3.590  1.2147 -0.0644  1.3746
 4785SOL     OW25816   0.789   1.625   7.414  0.5505 -0.3786 -0.6977
 4785SOL    HW125817   0.751   1.653   7.330  0.8330 -1.5380 -1.2042
 4785SOL    HW225818   0.772   1.532   7.420 -2.7988  0.3401  0.7800
 4786SOL     OW25819   0.672   4.105   9.101 -0.0032  0.4081 -0.2855
 4786SOL    HW125820   0.643   4.014   9.109  0.7010  0.1287 -0.9092
 4786SOL    HW225821   0.612   4.159   9.152  1.4987  0.0605  1.8236
 4787SOL     OW25822   1.976   0.336  12.524  0.5469  0.1366 -0.5319
 4787SOL    HW125823   1.931   0.277  12.464 -0.8836 -0.0429  0.7495
 4787SOL    HW225824   2.013   0.272  12.584  1.1453  1.6218  0.6792
 4788SOL     OW25825   1.422   2.463   3.320 -0.1679 -0.1605 -0.0459
 4788SOL    HW125826   1.425   2.559   3.317 -1.7427 -0.1536 -1.7963
 4788SOL    HW225827   1.470   2.444   3.400 -1.7758  0.8658  1.1542
 4789SOL     OW25828   3.371   0.971   8.546 -0.2530 -0.2562  0.2197
 4789SOL    HW125829   3.301   0.907   8.560 -2.7308  1.9934 -1.9018
 4789SOL    HW225830   3.327   1.042   8.592 -0.0120 -0.7139  1.1706
 4790SOL     OW25831   3.440   4.712   5.369 -0.1068  0.6897  0.0332
 4790SOL    HW125832   3.400   0.068   5.402 -1.7211  0.3570 -1.1377
 4790SOL    HW225833   3.364   4.684   5.319 -2.2043  1.1929  2.9159
 4791SOL     OW25834   0.587   2.865   4.140 -0.1008 -0.2461 -0.0636
 4791SOL    HW125835   0.621   2.923   4.072 -0.3889 -0.6154 -0.5258
 4791SOL    HW225836   0.668   2.824   4.171 -0.4301 -0.5726  0.3541
 4792SOL     OW25837   1.651   0.342   4.398 -0.8226 -0.1530  0.3070
 4792SOL    HW125838   1.580   0.289   4.433 -1.2890 -0.1361 -0.6225
 4792SOL    HW225839   1.645   0.325   4.304  0.2238  0.7857  0.0576
 4793SOL     OW25840   1.121   1.138   4.455 -0.0183 -0.0662 -0.1686
 4793SOL    HW125841   1.029   1.116   4.470 -0.1784 -0.3382 -1.5875
 4793SOL    HW225842   1.128   1.141   4.359 -0.5124  1.1432 -0.1659
 4794SOL     OW25843   1.662   1.577   5.513  0.0663 -0.4389  0.6345
 4794SOL    HW125844   1.653   1.572   5.418 -0.0559  2.3796  0.4926
 4794SOL    HW225845   1.747   1.539   5.536  0.5067  0.8240  1.0682
 4795SOL     OW25846   0.543   3.096   7.501 -0.1223  0.3774  0.3610
 4795SOL    HW125847   0.627   3.142   7.494 -0.0403  0.1153 -0.4109
 4795SOL    HW225848   0.508   3.103   7.412  1.7344  1.1162 -0.3235
 4796SOL     OW25849   2.270   2.779   6.799 -0.3477  0.0324 -0.1943
 4796SOL    HW125850   2.288   2.709   6.862 -2.4299 -1.0440 -0.7765
 4796SOL    HW225851   2.242   2.726   6.724 -0.9768  1.2839 -0.8543
 4797SOL     OW25852   4.533   3.309  12.628  0.4085  0.0428 -0.2989
 4797SOL    HW125853   4.619   3.284  12.593  0.1982  0.7067 -1.2883
 4797SOL    HW225854   4.559   3.356  12.707  1.2469  0.7682 -1.0208
 4798SOL     OW25855   3.807   1.886   6.550 -0.0499  0.1603  0.0264
 4798SOL    HW125856   3.775   1.875   6.639  0.1889 -1.0464 -0.0364
 4798SOL    HW225857   3.886   1.933   6.576  1.0283 -0.7851 -1.5067
 4799SOL     OW25858   0.272   1.072   3.630 -0.0618 -0.1144  0.1666
 4799SOL    HW125859   0.229   1.024   3.560  2.9291  1.1263 -2.5157
 4799SOL    HW225860   0.358   1.029   3.626 -1.2675 -2.5949  0.5574
 4800SOL     OW25861   2.229   1.467   4.264  0.2963 -0.1552 -0.2659
 4800SOL    HW125862   2.261   1.540   4.316  0.1741 -1.4246  1.5767
 4800SOL    HW225863   2.170   1.500   4.196  0.8521  1.6719  0.1604
 4801SOL     OW25864   3.423   2.672  12.005 -0.0179 -0.1751  0.1829
 4801SOL    HW125865   3.388   2.584  11.998 -0.6213  0.0799  0.0485
 4801SOL    HW225866   3.404   2.703  11.916  1.5195 -2.5897 -0.9872
 4802SOL     OW25867   2.197   2.365   2.505 -0.0677  0.1759 -0.1564
 4802SOL    HW125868   2.258   2.363   2.432  0.7338  0.2337  0.5098
 4802SOL    HW225869   2.115   2.336   2.465 -0.7963  0.6708  0.9869
 4803SOL     OW25870   2.467   0.841   2.638  0.0215 -0.1624 -0.0341
 4803SOL    HW125871   2.405   0.909   2.666 -0.8898 -1.0676  0.1152
 4803SOL    HW225872   2.484   0.853   2.544  0.8515 -1.1607 -0.0027
 4804SOL     OW25873   2.778   3.101   2.723  0.1778  0.2959 -0.0830
 4804SOL    HW125874   2.849   3.084   2.660 -0.3499 -0.5192 -0.4567
 4804SOL    HW225875   2.718   3.027   2.714  2.3692 -1.5210  0.1880
 4805SOL     OW25876   4.046   2.620   9.087 -0.6428  0.1798 -0.2461
 4805SOL    HW125877   4.068   2.642   9.177  1.5337  2.0211 -1.2302
 4805SOL    HW225878   4.020   2.529   9.104  2.6389 -0.5160  0.9541
 4806SOL     OW25879   3.463   2.419   8.723 -0.6139 -0.3977 -0.0186
 4806SOL    HW125880   3.558   2.408   8.711 -0.3775 -1.2636  2.7252
 4806SOL    HW225881   3.465   2.442   8.816 -0.8759 -0.7052  0.0635
 4807SOL     OW25882   0.571   3.517   0.573 -0.5046 -0.0654  0.2501
 4807SOL    HW125883   0.571   3.481   0.662 -1.3251  0.2591  0.3760
 4807SOL    HW225884   0.616   3.600   0.584  2.3631 -1.4747 -0.7229
 4808SOL     OW25885   4.599   3.503   1.046 -0.5716  0.3891 -0.0980
 4808SOL    HW125886   4.610   3.409   1.064 -0.7611  0.5424  0.8220
 4808SOL    HW225887   4.516   3.499   0.998 -0.6976  0.3117  0.1265
 4809SOL     OW25888   2.716   3.241   3.681 -0.2120 -0.9803 -0.7664
 4809SOL    HW125889   2.790   3.296   3.658 -1.0577  1.1489  1.7124
 4809SOL    HW225890   2.668   3.304   3.734  1.8805  1.1764 -1.4880
 4810SOL     OW25891   4.645   0.377   6.926  0.1347 -0.1282  0.0904
 4810SOL    HW125892   4.707   0.390   6.998 -0.4552  0.4470  0.5017
 4810SOL    HW225893   4.674   0.289   6.905  0.9746 -0.4493  2.5698
 4811SOL     OW25894   4.642   2.177   9.071  0.8115 -0.6382  0.4742
 4811SOL    HW125895   4.659   2.188   9.165  0.8126  1.3479  0.2478
 4811SOL    HW225896   4.597   2.094   9.080  0.8949 -0.6148  1.0955
 4812SOL     OW25897   0.711   1.913  11.905  0.1912 -0.4293  0.2787
 4812SOL    HW125898   0.755   1.844  11.855 -0.4199 -0.4334 -0.2604
 4812SOL    HW225899   0.623   1.876  11.910  0.6813 -1.6954 -0.5221
 4813SOL     OW25900   3.396   0.097  10.165  0.4980  0.3546  0.4257
 4813SOL    HW125901   3.316   0.100  10.219 -0.2083 -1.7594 -0.4909
 4813SOL    HW225902   3.452   0.031  10.205  0.4388  1.2780  2.0220
 4814SOL     OW25903   0.727   2.495   2.381  0.4697 -0.1922 -0.0040
 4814SOL    HW125904   0.811   2.460   2.410  1.9468  0.0143 -4.0278
 4814SOL    HW225905   0.764   2.561   2.322 -0.2510  1.7335  1.7118
 4815SOL     OW25906   2.884   1.309   3.277  0.0013  0.4233 -0.7121
 4815SOL    HW125907   2.834   1.341   3.201  0.6284 -0.4196 -1.4715
 4815SOL    HW225908   2.840   1.232   3.312  0.5966  1.0347  1.3854
 4816SOL     OW25909   4.021   4.037  10.636  0.1151 -0.3545  0.3617
 4816SOL    HW125910   4.066   4.020  10.553  0.2828  1.5856  0.0417
 4816SOL    HW225911   3.988   3.949  10.653  0.5457 -0.4861  0.5373
 4817SOL     OW25912   3.334   2.078   1.032  0.0863  0.0073 -0.6849
 4817SOL    HW125913   3.413   2.071   1.086 -0.5813  0.2287  0.3226
 4817SOL    HW225914   3.359   2.033   0.952  2.5076 -0.8465  0.5441
 4818SOL     OW25915   3.597   0.795   8.154 -0.4693 -0.2788 -0.4778
 4818SOL    HW125916   3.591   0.852   8.230 -0.6244 -0.6756 -0.1911
 4818SOL    HW225917   3.577   0.851   8.080  1.8752 -0.4727 -1.2569
 4819SOL     OW25918   4.165   1.508   7.575  0.3920 -0.0498 -0.0282
 4819SOL    HW125919   4.081   1.491   7.617  0.2288  0.8981  0.0265
 4819SOL    HW225920   4.161   1.439   7.508  1.4386 -1.6628  1.5574
 4820SOL     OW25921   3.263   0.844   5.804 -0.4013 -0.2099 -0.0463
 4820SOL    HW125922   3.223   0.799   5.730 -1.0406  0.2448  0.0263
 4820SOL    HW225923   3.192   0.833   5.867 -1.2749 -2.8496 -1.4950
 4821SOL     OW25924   3.682   2.972   7.658  0.4010 -0.3313  0.0753
 4821SOL    HW125925   3.604   2.967   7.604 -1.1542  0.5777  2.2127
 4821SOL    HW225926   3.655   3.020   7.736  0.2611 -1.3529  0.6637
 4822SOL     OW25927   3.644   2.064   7.549  0.3550  0.3861 -0.3163
 4822SOL    HW125928   3.639   2.149   7.594  0.7615  0.6378 -0.7492
 4822SOL    HW225929   3.732   2.059   7.512  0.6224  0.2766  0.3349
 4823SOL     OW25930   3.253   4.686  16.534 -0.2254  0.2913  0.9356
 4823SOL    HW125931   3.234   0.031  16.598  0.1243  0.5926  0.7151
 4823SOL    HW225932   3.254   0.017  16.456 -2.2534  0.3329  0.9187
 4824SOL     OW25933   0.356   1.100   5.227 -0.2183 -0.1516 -0.5056
 4824SOL    HW125934   0.340   1.189   5.258  0.9794  0.0716 -0.5120
 4824SOL    HW225935   0.376   1.109   5.134  1.7698  3.2965  0.2711
 4825SOL     OW25936   2.677   0.338   5.024 -0.6624 -0.2654  0.1467
 4825SOL    HW125937   2.712   0.355   5.111 -0.5993 -1.5276  0.3606
 4825SOL    HW225938   2.750   0.295   4.979 -0.9580 -0.3748 -0.2279
 4826SOL     OW25939   4.042   4.594  13.946  0.0605 -0.2899 -0.1416
 4826SOL    HW125940   4.049   4.613  13.852 -1.6782  1.5118  0.0791
 4826SOL    HW225941   4.134   4.582  13.970 -0.2300 -0.5532  0.8386
 4827SOL     OW25942   0.169   1.303   5.347  0.0804  0.3222 -0.3687
 4827SOL    HW125943   0.222   1.372   5.307 -0.2798 -1.3192 -3.6663
 4827SOL    HW225944   0.086   1.334   5.310 -1.3844 -2.9763  0.1766
 4828SOL     OW25945   2.935   2.157   2.684  0.4202  0.3702 -0.5269
 4828SOL    HW125946   2.996   2.136   2.613 -1.7397 -1.5749 -1.8212
 4828SOL    HW225947   2.930   2.073   2.730  2.4842  0.0002 -0.9871
 4829SOL     OW25948   3.446   1.976  12.845 -0.1456 -0.0210  0.1910
 4829SOL    HW125949   3.365   1.953  12.890 -0.2296 -2.6366 -1.3318
 4829SOL    HW225950   3.475   1.898  12.799 -1.1434 -1.7062  2.4069
 4830SOL     OW25951   1.078   0.310   6.121  0.5058 -0.4443 -0.0975
 4830SOL    HW125952   1.152   0.258   6.156  0.4558  0.8539  1.9367
 4830SOL    HW225953   1.114   0.393   6.090  0.8342 -0.6838 -0.3683
 4831SOL     OW25954   3.196   0.753   4.694  0.7482 -0.1723  0.0206
 4831SOL    HW125955   3.269   0.805   4.661  1.2737 -1.4199 -0.7318
 4831SOL    HW225956   3.243   0.675   4.722  1.0696  0.0660  0.1513
 4832SOL     OW25957   1.890   0.805   8.950 -0.2621  0.1451 -0.2878
 4832SOL    HW125958   1.902   0.869   9.020 -0.9458 -1.6171  1.4430
 4832SOL    HW225959   1.846   0.857   8.883  0.2950  0.7124 -0.2124
 4833SOL     OW25960   0.476   3.482   8.604 -0.2700 -0.0515 -0.5321
 4833SOL    HW125961   0.446   3.516   8.520 -0.6259 -0.6889 -0.6680
 4833SOL    HW225962   0.565   3.515   8.603 -0.7668  1.3246  1.0900
 4834SOL     OW25963   0.445   3.744   2.327  0.3013  0.3685  0.2390
 4834SOL    HW125964   0.519   3.769   2.382 -0.4456  0.0346  1.3872
 4834SOL    HW225965   0.412   3.661   2.363  0.7126  0.7553  1.4870
 4835SOL     OW25966   1.574   0.966   7.304 -0.1500 -0.5291 -0.1346
 4835SOL    HW125967   1.668   0.947   7.299  0.2970  0.4147  4.5581
 4835SOL    HW225968   1.547   0.967   7.213  1.8629 -0.2298 -0.7337
 4836SOL     OW25969   1.493   3.405  15.975  0.7638  0.1556 -0.5894
 4836SOL    HW125970   1.565   3.345  15.995  0.4736  0.2449  0.7618
 4836SOL    HW225971   1.466   3.418  16.066  0.7969 -1.2669 -0.3765
 4837SOL     OW25972   2.582   3.384  16.789 -0.0039  0.1671 -0.6288
 4837SOL    HW125973   2.664   3.417  16.828 -0.2978  1.9178 -1.4881
 4837SOL    HW225974   2.581   3.436  16.709 -0.3306  0.4706 -0.4286
 4838SOL     OW25975   0.157   2.003   4.029 -0.1730 -0.6044  0.4503
 4838SOL    HW125976   0.215   1.970   3.960 -0.7514  0.9740 -0.7985
 4838SOL    HW225977   0.099   2.053   3.971  2.3818  1.6097 -0.2183
 4839SOL     OW25978   3.493   2.257   7.851  0.7594  0.0195 -0.0095
 4839SOL    HW125979   3.489   2.315   7.775  1.2363 -0.8239 -0.6751
 4839SOL    HW225980   3.588   2.254   7.867  0.8724  1.2090 -0.4756
 4840SOL     OW25981   0.202   0.723   5.185  0.1682 -0.3018 -0.6876
 4840SOL    HW125982   0.172   0.797   5.133  1.0156  1.6656  1.6416
 4840SOL    HW225983   0.176   0.652   5.126 -2.0796 -1.2843  1.4399
 4841SOL     OW25984   0.373   4.578   6.608  0.1667 -0.4366 -0.2300
 4841SOL    HW125985   0.372   4.665   6.569  1.3522 -0.0515  0.5639
 4841SOL    HW225986   0.285   4.573   6.645  0.2123 -0.8364 -0.1787
 4842SOL     OW25987   2.403   0.512  11.958  0.0985 -0.5391  0.1969
 4842SOL    HW125988   2.420   0.422  11.931 -0.1550 -0.4749 -0.1715
 4842SOL    HW225989   2.488   0.525  12.001  0.4057 -1.3430 -0.1769
 4843SOL     OW25990   4.362   2.114  16.949  0.1025  0.4368  0.3288
 4843SOL    HW125991   4.349   2.188  17.008  3.0879  1.2655 -0.0615
 4843SOL    HW225992   4.271   2.087  16.961  0.3083 -0.7157 -0.6554
 4844SOL     OW25993   4.584   1.473   9.519 -0.1725 -0.8944  0.0085
 4844SOL    HW125994   4.503   1.524   9.516  0.7534  0.5841  0.3250
 4844SOL    HW225995   4.594   1.447   9.427  0.4398 -0.9508  0.0920
 4845SOL     OW25996   1.581   2.770  15.763 -0.0146 -0.8601  0.4189
 4845SOL    HW125997   1.618   2.794  15.678 -0.2016 -1.0597  0.2782
 4845SOL    HW225998   1.606   2.678  15.775  0.9966 -0.7052 -0.5244
 4846SOL     OW25999   4.179   1.506   1.240  0.4388 -0.2955 -0.2372
 4846SOL    HW126000   4.137   1.420   1.249 -1.6490  0.8455  0.8704
 4846SOL    HW226001   4.110   1.552   1.191  0.7420  1.3210  0.8651
 4847SOL     OW26002   2.685   4.333   5.104 -0.8075  0.3363  0.0245
 4847SOL    HW126003   2.772   4.304   5.079  0.3722  2.4453  1.6141
 4847SOL    HW226004   2.648   4.245   5.105 -0.0082 -0.0027 -0.4707
 4848SOL     OW26005   1.368   0.209   3.050  0.4596  0.2351  0.5379
 4848SOL    HW126006   1.339   0.198   2.959 -0.0571  0.6838  0.6550
 4848SOL    HW226007   1.457   0.173   3.054  0.2746  0.0352  2.6199
 4849SOL     OW26008   1.937   0.396   2.523  0.1259  0.0227  0.0409
 4849SOL    HW126009   1.903   0.366   2.438 -0.3681  0.7108 -0.0021
 4849SOL    HW226010   2.019   0.346   2.526 -1.0887 -2.0246 -0.8881
 4850SOL     OW26011   1.058   2.085  17.117  0.4796  0.7674  0.3277
 4850SOL    HW126012   1.042   1.997  17.149 -0.5633  0.5562 -0.7912
 4850SOL    HW226013   0.991   2.098  17.050  0.9903  0.4967 -0.2395
 4851SOL     OW26014   3.930   2.380   4.422  0.0271  0.7356  0.4061
 4851SOL    HW126015   4.002   2.428   4.465  1.2644 -1.3660  0.6655
 4851SOL    HW226016   3.992   2.307   4.419 -0.5467  0.3312 -1.2585
 4852SOL     OW26017   2.669   1.190  17.099  0.2325  0.6923  0.6517
 4852SOL    HW126018   2.626   1.147  17.025  0.6561  1.2100  0.0979
 4852SOL    HW226019   2.728   1.121  17.129 -1.6863 -1.0750  0.3376
 4853SOL     OW26020   2.387   4.415   7.220  0.5021 -0.7825 -0.3172
 4853SOL    HW126021   2.305   4.443   7.260  2.1823  1.0857  1.8279
 4853SOL    HW226022   2.369   4.345   7.157  0.1508  1.7706 -3.0172
 4854SOL     OW26023   3.453   4.517   0.401 -0.2738 -0.4308 -0.3982
 4854SOL    HW126024   3.404   4.439   0.374  2.1229 -2.3375  0.7457
 4854SOL    HW226025   3.520   4.518   0.333 -1.7316 -0.4816 -1.8331
 4855SOL     OW26026   4.286   4.494   4.706 -0.9393 -0.0659 -0.0417
 4855SOL    HW126027   4.222   4.458   4.644 -2.7787 -2.8070  3.4858
 4855SOL    HW226028   4.372   4.466   4.675 -0.8605 -0.5674  0.6320
 4856SOL     OW26029   4.146   1.637   0.966  0.3686  0.5222  0.4630
 4856SOL    HW126030   4.064   1.642   1.015  1.2506 -1.7887  2.1799
 4856SOL    HW226031   4.123   1.580   0.892  2.0874 -2.2909  2.0867
 4857SOL     OW26032   3.708   0.136  17.312 -0.0931 -0.1093 -0.7278
 4857SOL    HW126033   3.658   0.083  17.249 -0.0683 -1.3917  0.3385
 4857SOL    HW226034   3.673   0.111  17.397  0.2816 -0.7632 -0.7685
 4858SOL     OW26035   3.476   1.806   3.681 -0.5879  0.2359  0.1825
 4858SOL    HW126036   3.528   1.734   3.646 -1.3243 -0.8586  1.3775
 4858SOL    HW226037   3.536   1.833   3.750 -0.8282  0.1704  0.4174
 4859SOL     OW26038   0.610   0.845   4.087  0.3329  0.0505  0.1377
 4859SOL    HW126039   0.518   0.832   4.068  0.9485 -3.2310 -0.6089
 4859SOL    HW226040   0.618   0.931   4.127 -0.3916 -0.1707  0.7478
 4860SOL     OW26041   0.452   2.160  10.033 -0.1822  0.2668 -0.2330
 4860SOL    HW126042   0.529   2.103  10.045 -0.8425 -0.2654  1.5456
 4860SOL    HW226043   0.388   2.096  10.002  0.2697 -0.5902  0.5880
 4861SOL     OW26044   0.521   0.809   7.644  0.3833  0.0579  0.2611
 4861SOL    HW126045   0.587   0.855   7.591  1.2805 -1.7054 -0.1686
 4861SOL    HW226046   0.453   0.876   7.647  1.1670  0.8192  1.0442
 4862SOL     OW26047   4.067   4.353   7.761  0.1988  0.0598  0.1802
 4862SOL    HW126048   4.051   4.414   7.833 -2.4904 -0.0988 -0.3140
 4862SOL    HW226049   4.084   4.269   7.805  0.6125 -0.5950 -1.2388
 4863SOL     OW26050   1.408   4.223   5.743 -0.0849 -0.0078 -0.2707
 4863SOL    HW126051   1.482   4.275   5.773  0.6712 -0.6077 -1.1010
 4863SOL    HW226052   1.345   4.231   5.814 -0.2190  0.4496 -0.4443
 4864SOL     OW26053   1.731   3.386   4.822 -0.0043 -0.1966 -0.0062
 4864SOL    HW126054   1.707   3.370   4.731  0.4385  0.3443 -0.2163
 4864SOL    HW226055   1.733   3.298   4.858  0.4530 -0.3573 -0.4272
 4865SOL     OW26056   2.615   1.693   5.277  0.1494 -0.1886  0.1594
 4865SOL    HW126057   2.621   1.782   5.312 -0.6283 -0.1641  0.2376
 4865SOL    HW226058   2.584   1.715   5.189 -1.7682 -2.0414  0.3619
 4866SOL     OW26059   4.666   1.661   0.878  0.5287 -0.2306 -0.3914
 4866SOL    HW126060   0.019   1.615   0.909  0.1600 -1.2754 -1.0179
 4866SOL    HW226061   4.666   1.731   0.943 -2.4700  0.7800 -1.4411
 4867SOL     OW26062   2.129   1.947   1.676  0.8377  0.8716 -0.0171
 4867SOL    HW126063   2.161   1.968   1.588 -0.4600 -1.5615 -1.0486
 4867SOL    HW226064   2.162   1.859   1.693 -0.1222  0.3059 -1.0908
 4868SOL     OW26065   0.921   0.568  17.581  0.1500 -0.5215  0.4059
 4868SOL    HW126066   0.918   0.576  17.677 -2.4498  0.4710  0.2453
 4868SOL    HW226067   0.874   0.485  17.577  0.2054 -0.2922 -4.0788
 4869SOL     OW26068   0.877   2.983   8.200 -0.3232  0.4403  0.1358
 4869SOL    HW126069   0.818   2.964   8.127  0.2009 -0.9598  0.0707
 4869SOL    HW226070   0.954   2.936   8.169 -1.7348 -1.0146 -1.1568
 4870SOL     OW26071   2.089   3.561   1.459  0.2278 -0.2089  0.7254
 4870SOL    HW126072   2.179   3.575   1.490 -0.1208  1.0213  1.1663
 4870SOL    HW226073   2.089   3.519   1.373 -4.0410  0.3649  0.4304
 4871SOL     OW26074   4.614   1.750   1.703 -0.4612 -0.3798  0.0416
 4871SOL    HW126075   4.548   1.779   1.641  1.0370  0.6739 -1.0660
 4871SOL    HW226076   4.656   1.831   1.731  0.0763 -0.1134 -1.5461
 4872SOL     OW26077   4.172   0.425   6.416  0.0796  0.4601  0.3685
 4872SOL    HW126078   4.131   0.343   6.389  0.3269  1.0124 -1.7052
 4872SOL    HW226079   4.239   0.427   6.347 -1.3741  0.2451 -1.0700
 4873SOL     OW26080   1.690   3.506   5.690 -0.2706 -0.0360  0.5115
 4873SOL    HW126081   1.667   3.468   5.605 -0.8091  1.4733 -0.0227
 4873SOL    HW226082   1.612   3.487   5.742  0.5594 -2.7221  0.7646
 4874SOL     OW26083   2.991   0.150   3.135  0.8857  0.0286  0.4063
 4874SOL    HW126084   2.954   0.232   3.101 -0.4931  0.2172  2.4150
 4874SOL    HW226085   2.918   0.089   3.130  0.7170  0.2659 -0.0830
 4875SOL     OW26086   0.995   3.126  12.129 -0.6852 -0.1939  0.0821
 4875SOL    HW126087   1.035   3.191  12.187  1.5019 -1.3405 -0.1503
 4875SOL    HW226088   1.041   3.047  12.155  0.7656  0.5580 -0.1848
 4876SOL     OW26089   0.071   0.113   1.817  0.1143  0.4071  0.3231
 4876SOL    HW126090   0.116   0.164   1.884 -0.4631  2.2212 -0.6642
 4876SOL    HW226091   0.022   0.174   1.762  1.1888 -0.2232 -1.3322
 4877SOL     OW26092   3.806   3.299   5.580 -0.0342 -0.0400  0.9368
 4877SOL    HW126093   3.819   3.321   5.672 -0.3343 -0.0651  0.9879
 4877SOL    HW226094   3.819   3.389   5.550  2.5881 -0.8971 -0.4888
 4878SOL     OW26095   2.113   1.997  12.621 -0.9053 -0.1375 -0.0114
 4878SOL    HW126096   2.148   1.941  12.690 -1.8219  2.4879  2.6080
 4878SOL    HW226097   2.023   2.018  12.646 -0.8037 -2.4584  2.3213
 4879SOL     OW26098   4.471   0.369   5.001  0.2709  0.1756 -0.3187
 4879SOL    HW126099   4.500   0.362   4.910  0.0423 -4.8384  0.0016
 4879SOL    HW226100   4.444   0.461   5.004 -0.6099 -0.1463  1.5706
 4880SOL     OW26101   2.271   1.277   2.691 -0.0047 -0.1901  0.1487
 4880SOL    HW126102   2.357   1.234   2.695 -1.3950 -2.9989 -0.0719
 4880SOL    HW226103   2.256   1.289   2.785  1.4705 -0.7188  0.4497
 4881SOL     OW26104   3.282   0.088   3.226 -0.2660 -0.0645  0.2287
 4881SOL    HW126105   3.321   0.174   3.213 -0.5349 -0.1886 -1.4145
 4881SOL    HW226106   3.269   0.047   3.141  0.3736 -1.0606  0.6094
 4882SOL     OW26107   2.401   4.546   9.362  0.2476 -0.7100  0.0912
 4882SOL    HW126108   2.473   4.487   9.338  0.1209 -0.6823 -0.3469
 4882SOL    HW226109   2.376   4.492   9.437 -1.4475 -0.2582 -0.1565
 4883SOL     OW26110   0.575   2.677   6.573  0.0077 -0.1137 -0.0722
 4883SOL    HW126111   0.634   2.742   6.536 -0.0112  0.3012  0.6402
 4883SOL    HW226112   0.626   2.596   6.569 -1.2260 -0.9007 -0.0083
 4884SOL     OW26113   1.471   1.217  14.876 -0.9178 -0.4633 -0.3683
 4884SOL    HW126114   1.549   1.188  14.924 -1.3128  2.0778  1.8072
 4884SOL    HW226115   1.491   1.309  14.860  0.9612 -0.6746  0.8147
 4885SOL     OW26116   2.601   2.355   8.316 -0.3437  0.1101 -0.6467
 4885SOL    HW126117   2.524   2.410   8.301  0.1173  0.9938  0.2234
 4885SOL    HW226118   2.556   2.272   8.298  0.7720 -1.1981  2.4764
 4886SOL     OW26119   0.914   1.761  13.870  0.5211 -0.2768 -0.1838
 4886SOL    HW126120   0.895   1.689  13.810 -3.1802  0.3015  0.3046
 4886SOL    HW226121   0.957   1.707  13.936  0.5089  0.5933  0.5306
 4887SOL     OW26122   0.353   1.063   6.084 -0.0710 -0.1725 -0.5831
 4887SOL    HW126123   0.314   1.121   6.149 -2.4964 -0.3372 -1.8830
 4887SOL    HW226124   0.348   1.119   6.007 -1.5550 -1.0515 -1.1296
 4888SOL     OW26125   1.068   0.173   6.647 -0.3537  0.4847  0.4825
 4888SOL    HW126126   1.080   0.163   6.552 -2.2355 -1.5855  0.4730
 4888SOL    HW226127   0.976   0.199   6.653 -0.0119  1.4968  1.2341
 4889SOL     OW26128   2.827   2.984   3.013 -0.6573 -0.3736 -0.1911
 4889SOL    HW126129   2.858   3.017   2.929  1.4481 -0.9230  0.3730
 4889SOL    HW226130   2.912   2.987   3.058 -0.4186  3.3155 -0.9268
 4890SOL     OW26131   2.195   2.018   1.404  0.3908 -0.2123 -0.5520
 4890SOL    HW126132   2.155   2.062   1.329 -0.8800 -1.2900 -0.5024
 4890SOL    HW226133   2.200   1.927   1.375 -1.9112 -0.2087 -1.0268
 4891SOL     OW26134   0.498   3.740   3.343  0.5844 -0.0413 -0.0017
 4891SOL    HW126135   0.521   3.829   3.315  1.7885 -0.4330 -0.2783
 4891SOL    HW226136   0.561   3.680   3.303 -1.9678 -2.4895 -0.3444
 4892SOL     OW26137   4.089   3.434   6.024  0.1064  0.2830  0.0579
 4892SOL    HW126138   4.100   3.351   6.069 -2.4157  0.4172  0.9433
 4892SOL    HW226139   4.047   3.414   5.940  2.0259 -0.2494 -0.7797
 4893SOL     OW26140   2.501   0.258   8.973  0.2476 -0.6918 -0.0477
 4893SOL    HW126141   2.503   0.265   9.068 -0.7515  2.2309 -0.2397
 4893SOL    HW226142   2.441   0.184   8.962 -1.9808  0.9803  0.9668
 4894SOL     OW26143   0.435   3.110   7.741  0.5135 -0.1266  0.0660
 4894SOL    HW126144   0.357   3.062   7.716 -0.2412  2.3609 -2.3600
 4894SOL    HW226145   0.475   3.114   7.654  1.2301  3.2480  0.5161
 4895SOL     OW26146   1.430   4.645  12.710  0.5503  0.5706  0.6245
 4895SOL    HW126147   1.423   4.607  12.797 -0.8833 -2.2003 -0.7275
 4895SOL    HW226148   1.526   4.652  12.704  0.5267  1.4503  1.2671
 4896SOL     OW26149   3.315   0.571   3.040  0.3339 -0.8988  0.0980
 4896SOL    HW126150   3.230   0.570   2.996  1.5402 -2.1853 -2.2657
 4896SOL    HW226151   3.363   0.612   2.968  1.2124 -1.0736  0.5889
 4897SOL     OW26152   0.022   0.148   8.782  0.4276  0.0160  0.0357
 4897SOL    HW126153   4.698   0.121   8.704  0.7566 -0.7294  0.0850
 4897SOL    HW226154   0.081   0.205   8.733 -1.4746  1.2767 -0.7856
 4898SOL     OW26155   3.958   2.029   3.204  0.0079  0.1277  0.1149
 4898SOL    HW126156   3.930   1.964   3.268  1.6706  0.1970  0.9059
 4898SOL    HW226157   3.992   1.979   3.129  0.2483 -0.7600  0.8085
 4899SOL     OW26158   3.229   1.162   6.533  0.2261 -0.2515 -0.1635
 4899SOL    HW126159   3.238   1.124   6.446 -0.2772  0.5395 -0.5577
 4899SOL    HW226160   3.136   1.182   6.536  0.4735  0.4673  3.7131
 4900SOL     OW26161   2.968   0.173   7.538  0.4113 -0.0898  0.2012
 4900SOL    HW126162   2.914   0.165   7.459  0.3246  0.3908  0.2100
 4900SOL    HW226163   2.945   0.261   7.568  0.2385 -0.2479  0.5275
 4901SOL     OW26164   1.898   0.166   9.101 -0.2388  0.4051 -0.7491
 4901SOL    HW126165   1.938   0.251   9.085 -0.5900  0.7713  0.3324
 4901SOL    HW226166   1.825   0.197   9.154 -0.8263  1.3928 -2.1349
 4902SOL     OW26167   0.579   3.247   6.038  0.1004  0.4912  0.2574
 4902SOL    HW126168   0.536   3.194   5.971  0.3347  0.4983  0.1000
 4902SOL    HW226169   0.662   3.201   6.047  0.1054  0.0872 -1.7903
 4903SOL     OW26170   3.502   0.782   7.017  0.0983 -0.3947  0.2947
 4903SOL    HW126171   3.502   0.725   6.941  1.6616  0.2527 -0.1786
 4903SOL    HW226172   3.579   0.835   6.997 -1.4905  2.8018  2.7329
 4904SOL     OW26173   0.179   1.179  14.480 -0.1945 -0.8038 -0.0332
 4904SOL    HW126174   0.094   1.174  14.524 -0.0666  1.1623  0.4688
 4904SOL    HW226175   0.242   1.172  14.553 -0.2855 -2.7309 -0.1410
 4905SOL     OW26176   2.806   2.433   2.110  0.7541 -0.1344  0.2109
 4905SOL    HW126177   2.806   2.421   2.205  1.3650 -1.4226  0.0418
 4905SOL    HW226178   2.784   2.345   2.079  3.8682  0.4315 -3.6635
 4906SOL     OW26179   3.567   4.573   7.859 -0.2743 -0.1542  0.7244
 4906SOL    HW126180   3.593   4.626   7.934 -1.9186  1.9574 -0.1907
 4906SOL    HW226181   3.640   4.512   7.846 -0.8458 -0.5349 -0.7690
 4907SOL     OW26182   3.694   1.810  14.105 -0.0767  0.2535 -0.3066
 4907SOL    HW126183   3.630   1.784  14.038 -1.5129  2.2873  0.2915
 4907SOL    HW226184   3.699   1.905  14.094  2.2546  0.1980  0.4239
 4908SOL     OW26185   1.174   2.899  12.124 -0.1004  0.1932  0.3445
 4908SOL    HW126186   1.111   2.831  12.147  1.3542 -0.6218  1.8893
 4908SOL    HW226187   1.229   2.872  12.197  0.8633  0.4324 -0.2978
 4909SOL     OW26188   0.050   0.213   3.488 -0.0398 -0.4599  0.3594
 4909SOL    HW126189   0.144   0.203   3.468 -0.1119  1.1742 -0.7618
 4909SOL    HW226190   0.033   0.157   3.564 -0.2222  2.1406  2.2079
 4910SOL     OW26191   2.313   2.000   4.393 -0.3471  0.1006  0.9550
 4910SOL    HW126192   2.242   1.943   4.364  0.4577 -1.2473  1.6310
 4910SOL    HW226193   2.343   2.042   4.312 -1.9362  0.0410  0.3473
 4911SOL     OW26194   3.292   0.148   8.890  0.2054 -0.1720  0.9204
 4911SOL    HW126195   3.310   0.072   8.835 -2.3609  0.4375 -0.7257
 4911SOL    HW226196   3.325   0.224   8.842 -1.8057 -0.9647 -1.7324
 4912SOL     OW26197   1.036   1.297  17.057  0.1376  0.5359 -0.2658
 4912SOL    HW126198   1.022   1.275  17.150  3.3431 -0.1674  0.0562
 4912SOL    HW226199   1.130   1.281  17.056 -0.1254 -0.9810 -0.5437
 4913SOL     OW26200   4.031   4.088  17.657  0.1023  0.4968  0.1066
 4913SOL    HW126201   4.105   4.117  17.604 -0.0481  1.4641  0.4186
 4913SOL    HW226202   3.979   4.046  17.588  0.4717  0.3907 -0.1035
 4914SOL     OW26203   1.924   0.329  13.939 -0.4506 -0.5230  0.9099
 4914SOL    HW126204   1.927   0.421  13.914  2.9274 -1.7100 -3.0930
 4914SOL    HW226205   1.900   0.324  14.032 -0.2509  0.6589  1.0262
 4915SOL     OW26206   3.268   0.013   6.241  0.7333  0.0035 -0.1996
 4915SOL    HW126207   3.226   0.092   6.276 -1.5785 -0.3708 -2.1137
 4915SOL    HW226208   3.209   4.667   6.269  0.2359  1.1132  1.5438
 4916SOL     OW26209   4.349   1.624   7.884  0.9700  0.3231  0.2672
 4916SOL    HW126210   4.409   1.697   7.871 -2.6006  2.5822 -3.1898
 4916SOL    HW226211   4.380   1.566   7.814  0.4671  1.1236 -0.6084
 4917SOL     OW26212   0.689   4.369  13.316  0.0294  0.0215  0.2334
 4917SOL    HW126213   0.658   4.443  13.264  2.3253  0.3862 -0.6082
 4917SOL    HW226214   0.607   4.322  13.332  0.7260 -1.0845  0.5590
 4918SOL     OW26215   0.541   3.355   2.346  0.5927  0.1033 -0.0007
 4918SOL    HW126216   0.497   3.397   2.272 -1.0552 -0.2922  0.7677
 4918SOL    HW226217   0.630   3.362   2.311  0.6603 -0.4293  0.0684
 4919SOL     OW26218   0.624   1.476   3.920  0.4300  0.1473 -0.1188
 4919SOL    HW126219   0.544   1.524   3.898  0.8858  0.6149 -0.7372
 4919SOL    HW226220   0.595   1.388   3.897  1.6593 -0.5746  1.0954
 4920SOL     OW26221   4.633   2.137   6.243  0.8012 -0.0953  0.3686
 4920SOL    HW126222   4.647   2.132   6.149  2.2644  1.9477  0.4685
 4920SOL    HW226223   4.537   2.144   6.247  0.5262 -2.1987 -2.6324
 4921SOL     OW26224   1.298   0.502  11.372  0.1417 -0.1741 -0.1043
 4921SOL    HW126225   1.286   0.597  11.377 -2.5607 -0.5435  0.6164
 4921SOL    HW226226   1.377   0.501  11.318 -0.1165 -0.0489 -0.4870
 4922SOL     OW26227   0.177   1.016   4.433  0.7484 -0.1403  0.2084
 4922SOL    HW126228   0.101   0.986   4.382  1.2148 -0.7177 -0.1572
 4922SOL    HW226229   0.226   1.063   4.365 -1.8078 -1.5874 -2.6926
 4923SOL     OW26230   1.431   4.133   1.583 -0.9394  0.1500 -0.4471
 4923SOL    HW126231   1.498   4.166   1.642  0.1834 -0.1120 -1.5598
 4923SOL    HW226232   1.448   4.179   1.500 -2.1990  1.9354  0.2821
 4924SOL     OW26233   3.857   4.045  17.196  0.1870  0.6763  0.4985
 4924SOL    HW126234   3.827   3.975  17.139  2.6239 -1.2295  1.5167
 4924SOL    HW226235   3.823   4.117  17.144 -0.8897  0.8274  1.4159
 4925SOL     OW26236   4.431   1.782  17.289  0.1786  0.2321  0.2558
 4925SOL    HW126237   4.461   1.838  17.360  0.3934  0.3078  0.1053
 4925SOL    HW226238   4.428   1.832  17.207 -1.1073 -0.3795 -0.0671
 4926SOL     OW26239   3.381   3.924   7.800  0.0301 -0.2757  0.3086
 4926SOL    HW126240   3.455   3.872   7.832  0.5144  0.2231  0.0068
 4926SOL    HW226241   3.391   3.898   7.709 -1.3959  0.9760 -0.2031
 4927SOL     OW26242   3.212   2.813  11.265 -0.0886  0.6451  0.0211
 4927SOL    HW126243   3.196   2.832  11.172  2.8941 -2.3404 -1.0956
 4927SOL    HW226244   3.135   2.856  11.301 -0.4439  0.5687 -0.6438
 4928SOL     OW26245   1.375   3.480   6.153 -0.2428  0.4527 -0.5060
 4928SOL    HW126246   1.450   3.495   6.212 -0.0107 -1.9758 -0.1693
 4928SOL    HW226247   1.376   3.384   6.154 -0.0194  0.4569  0.3567
 4929SOL     OW26248   1.920   3.648  15.760  0.5105 -0.4770  0.1319
 4929SOL    HW126249   1.891   3.736  15.783  0.0310 -0.6187  0.0754
 4929SOL    HW226250   1.896   3.625  15.670  0.5013  0.8137 -0.1949
 4930SOL     OW26251   4.631   0.709   9.310 -0.0833 -0.2724 -0.4227
 4930SOL    HW126252   4.711   0.745   9.349  0.1291  1.7197 -2.6970
 4930SOL    HW226253   4.575   0.693   9.386 -0.4915  0.4717 -0.5606
 4931SOL     OW26254   3.814   3.882   6.434  0.0491  0.0478 -0.8351
 4931SOL    HW126255   3.806   3.964   6.385 -1.6732  1.8110  2.3569
 4931SOL    HW226256   3.891   3.842   6.394  1.7593  2.1028  0.3783
 4932SOL     OW26257   3.327   0.932   9.271 -0.0038 -0.2344 -0.2483
 4932SOL    HW126258   3.258   0.867   9.284  1.5741 -1.4578  2.0026
 4932SOL    HW226259   3.399   0.884   9.231 -0.2811 -0.7457 -0.1304
 4933SOL     OW26260   3.973   0.175  12.445  0.5013 -0.1660 -0.1628
 4933SOL    HW126261   3.991   0.267  12.428 -3.0296  0.7864  1.3166
 4933SOL    HW226262   3.932   0.192  12.530  1.6701  0.6633  0.2305
 4934SOL     OW26263   3.671   3.226  12.336 -0.1724 -0.4811  0.0871
 4934SOL    HW126264   3.688   3.188  12.250  1.5755  2.7585 -0.9821
 4934SOL    HW226265   3.706   3.314  12.325  1.0791 -0.6717  2.5478
 4935SOL     OW26266   1.257   1.012   9.015  0.7440  0.2848 -0.0749
 4935SOL    HW126267   1.216   1.061   8.943  0.7997 -0.2325 -0.4648
 4935SOL    HW226268   1.345   1.001   8.977  0.5718  0.9175 -0.6580
 4936SOL     OW26269   3.700   3.543   1.618 -0.3891 -0.1916  0.4627
 4936SOL    HW126270   3.786   3.585   1.612 -0.3391  0.0583  2.8683
 4936SOL    HW226271   3.668   3.586   1.697 -1.1955 -1.1348  0.6431
 4937SOL     OW26272   2.355   2.047   9.820  1.1302  0.4048  0.1547
 4937SOL    HW126273   2.377   2.057   9.728  1.7217  1.7595  0.4474
 4937SOL    HW226274   2.441   2.041   9.863  1.4555 -0.2762 -0.5904
 4938SOL     OW26275   3.227   3.711   8.421  0.0223  0.1268 -0.1727
 4938SOL    HW126276   3.309   3.728   8.468  0.1889  0.3917 -0.5665
 4938SOL    HW226277   3.231   3.775   8.350  1.4310  0.9671  0.6655
 4939SOL     OW26278   2.593   0.161   8.007  0.9095  0.4213 -0.2733
 4939SOL    HW126279   2.580   0.207   7.924  1.0373  1.0529  0.0529
 4939SOL    HW226280   2.562   0.077   7.974 -1.4492  0.8090  1.0006
 4940SOL     OW26281   1.037   1.690   5.681  0.3308  0.4867  0.4478
 4940SOL    HW126282   1.039   1.669   5.774  0.8835  0.7713  0.5016
 4940SOL    HW226283   1.079   1.621   5.629 -2.4321 -1.0570  0.2696
 4941SOL     OW26284   2.552   2.257   0.552  0.1169 -0.0769  0.3110
 4941SOL    HW126285   2.622   2.284   0.612  0.4551 -1.1868  0.4168
 4941SOL    HW226286   2.531   2.167   0.577 -2.1197  0.8823  1.9301
 4942SOL     OW26287   1.937   2.963  12.367 -0.0611  0.1175  0.0382
 4942SOL    HW126288   1.941   2.983  12.461  1.3449  2.1607 -0.4729
 4942SOL    HW226289   1.842   2.966  12.353  0.2346 -0.7735 -2.1131
 4943SOL     OW26290   1.073   3.117   1.225  1.0739 -0.1077  0.1170
 4943SOL    HW126291   1.074   3.194   1.168 -2.9578 -1.6786 -2.0368
 4943SOL    HW226292   1.039   3.047   1.170  1.3801  0.0145 -0.2274
 4944SOL     OW26293   0.657   1.248   8.456 -0.4053  0.2774  0.3897
 4944SOL    HW126294   0.596   1.202   8.398  0.0104  1.2749 -0.8381
 4944SOL    HW226295   0.732   1.191   8.442 -0.7518  0.0257 -0.4594
 4945SOL     OW26296   0.261   2.733   3.772  0.3354  0.1520 -0.1655
 4945SOL    HW126297   0.198   2.687   3.828  0.8036 -2.3919 -1.7122
 4945SOL    HW226298   0.319   2.754   3.845 -1.8072  2.4201  0.8736
 4946SOL     OW26299   2.479   2.109  17.168 -0.0495 -0.4572 -0.0772
 4946SOL    HW126300   2.425   2.188  17.169  0.0620 -0.3216 -2.8562
 4946SOL    HW226301   2.409   2.043  17.170  0.5799 -1.2020 -2.2768
 4947SOL     OW26302   1.401   3.115  14.184 -0.0853  0.2167  0.3329
 4947SOL    HW126303   1.468   3.180  14.162 -1.0919  1.6520  1.4952
 4947SOL    HW226304   1.335   3.181  14.208  1.4688  1.2153  1.8868
 4948SOL     OW26305   3.677   2.220  13.447  0.0708 -0.4013 -0.4278
 4948SOL    HW126306   3.638   2.165  13.514 -1.2439 -0.1652 -0.9951
 4948SOL    HW226307   3.653   2.306  13.482 -1.0932 -0.6448 -0.6343
 4949SOL     OW26308   3.327   0.864  17.154 -0.7639  0.4032 -0.7866
 4949SOL    HW126309   3.418   0.880  17.130 -0.6116  1.3641  0.4071
 4949SOL    HW226310   3.311   0.924  17.227  2.1470  1.3783 -0.9528
 4950SOL     OW26311   0.937   2.508   4.400  0.0187  0.1877  0.2504
 4950SOL    HW126312   0.896   2.570   4.460 -0.2547  1.6750 -1.4729
 4950SOL    HW226313   1.030   2.529   4.408 -0.0705 -0.2723  2.4284
 4951SOL     OW26314   2.445   1.082   1.255 -0.1805  0.2236  0.2484
 4951SOL    HW126315   2.458   1.096   1.161 -0.5372  1.2399  0.3525
 4951SOL    HW226316   2.479   0.992   1.250  2.2345  1.3456 -3.3376
 4952SOL     OW26317   2.972   1.683   5.467  0.1912 -0.4678  0.1382
 4952SOL    HW126318   2.898   1.730   5.506  2.6160  0.5787  3.4331
 4952SOL    HW226319   3.014   1.750   5.414  0.5020 -1.0323 -0.3288
 4953SOL     OW26320   3.935   3.658   7.866 -0.2409  0.1841  0.7040
 4953SOL    HW126321   3.912   3.568   7.889 -2.5141  0.2705 -1.1301
 4953SOL    HW226322   4.029   3.660   7.881 -0.4123 -0.2298  1.8405
 4954SOL     OW26323   0.067   2.545  10.291  0.0679 -0.4261 -0.0033
 4954SOL    HW126324   4.697   2.545  10.274 -0.1339 -2.3528  1.1451
 4954SOL    HW226325   0.105   2.552  10.204  1.3064  0.1928  0.6029
 4955SOL     OW26326   2.915   2.912   3.437  0.1782  0.2145 -0.1887
 4955SOL    HW126327   3.007   2.887   3.441  0.4868  1.3005 -0.5235
 4955SOL    HW226328   2.913   2.977   3.366  1.0970  2.5233  1.8781
 4956SOL     OW26329   4.101   0.892   8.788  0.2072  0.3104  0.1375
 4956SOL    HW126330   4.131   0.944   8.862  0.3391 -1.7209  1.5128
 4956SOL    HW226331   4.043   0.957   8.748 -0.5255 -1.7457 -2.1449
 4957SOL     OW26332   0.598   2.738  15.905  0.4084  0.1750  0.1337
 4957SOL    HW126333   0.593   2.769  15.815 -0.1573 -1.0368 -0.2596
 4957SOL    HW226334   0.562   2.812  15.954 -1.9852  0.9604 -2.8189
 4958SOL     OW26335   3.762   1.764  16.913  0.7831  0.8039 -0.1449
 4958SOL    HW126336   3.721   1.774  16.998 -0.9653  0.1081 -0.9116
 4958SOL    HW226337   3.725   1.842  16.870  1.5310 -0.0354 -2.3306
 4959SOL     OW26338   2.150   2.650   4.298  0.8419  0.1848 -0.0547
 4959SOL    HW126339   2.146   2.715   4.368 -0.8352  0.2207 -0.1929
 4959SOL    HW226340   2.126   2.575   4.352  0.4093 -0.6115 -1.3595
 4960SOL     OW26341   3.233   1.214  16.029  0.1704  0.1272 -0.2722
 4960SOL    HW126342   3.169   1.189  16.096  0.4862  1.9420  0.7016
 4960SOL    HW226343   3.179   1.281  15.987 -0.6888 -1.4600 -1.6867
 4961SOL     OW26344   0.407   0.090  15.168 -0.3616 -1.1689  0.3334
 4961SOL    HW126345   0.312   0.093  15.158 -0.2109 -0.2947 -0.8832
 4961SOL    HW226346   0.428   0.058  15.080 -0.1137 -1.7827  0.6192
 4962SOL     OW26347   4.492   1.004  15.011 -0.5778 -0.2351 -0.7097
 4962SOL    HW126348   4.515   0.912  14.999 -0.6510 -0.5455  1.4140
 4962SOL    HW226349   4.448   1.026  14.929 -3.6092  0.7167  1.1491
 4963SOL     OW26350   1.606   1.550  13.366 -0.2899 -0.2642  0.0926
 4963SOL    HW126351   1.524   1.551  13.416 -1.5502  1.9232 -2.0430
 4963SOL    HW226352   1.628   1.458  13.384 -1.0997 -0.3777  0.4895
 4964SOL     OW26353   0.904   3.523   4.978 -0.6910 -0.5473  0.4401
 4964SOL    HW126354   0.889   3.616   4.961 -0.4998 -0.4449  0.8373
 4964SOL    HW226355   0.885   3.480   4.895  0.8849  0.4820 -0.4521
 4965SOL     OW26356   1.486   2.736   7.423 -0.4597  0.1146  0.6736
 4965SOL    HW126357   1.543   2.667   7.455 -1.6527 -2.2438 -2.3414
 4965SOL    HW226358   1.538   2.816   7.427 -2.4722  1.3831  1.3407
 4966SOL     OW26359   1.550   1.055   2.640  0.3928  0.2102 -0.1891
 4966SOL    HW126360   1.544   0.990   2.710  1.3400 -0.8678 -1.1145
 4966SOL    HW226361   1.465   1.097   2.652 -0.3951 -1.1061 -1.2344
 4967SOL     OW26362   0.277   1.547   4.092 -0.0990  0.2318 -0.2462
 4967SOL    HW126363   0.272   1.642   4.108 -0.8253  0.0500  0.6356
 4967SOL    HW226364   0.293   1.538   3.998  2.0403  0.5917  0.0973
 4968SOL     OW26365   2.872   4.311   7.794  0.3644 -0.2927  0.0030
 4968SOL    HW126366   2.808   4.250   7.758  0.6433 -0.7145  0.2306
 4968SOL    HW226367   2.817   4.362   7.854  0.6680 -1.2340  1.0779
 4969SOL     OW26368   4.417   3.604   6.983 -0.2966  0.0536 -0.3342
 4969SOL    HW126369   4.423   3.665   7.057  0.2571 -0.6307  0.1906
 4969SOL    HW226370   4.507   3.576   6.967  0.3260  0.9269  1.6400
 4970SOL     OW26371   2.053   0.797   1.529  1.2212 -0.3662 -0.4036
 4970SOL    HW126372   2.015   0.867   1.476 -1.5096 -0.0990  1.8542
 4970SOL    HW226373   2.084   0.846   1.605  1.5915  0.1775 -0.9152
 4971SOL     OW26374   3.784   4.308   4.113 -0.0550 -0.5184 -0.1331
 4971SOL    HW126375   3.863   4.345   4.152 -0.4538 -0.4470  0.6100
 4971SOL    HW226376   3.775   4.342   4.024  0.7211 -1.5241 -0.5953
 4972SOL     OW26377   4.409   0.186  14.393  0.1651  0.1926 -0.1014
 4972SOL    HW126378   4.338   0.124  14.379  0.5436 -0.4862  0.9930
 4972SOL    HW226379   4.482   0.134  14.358 -1.4612 -1.5819 -0.8023
 4973SOL     OW26380   3.516   1.982  15.692 -0.2473 -0.3271 -0.1340
 4973SOL    HW126381   3.481   2.067  15.666  2.2333  0.2986 -1.4660
 4973SOL    HW226382   3.476   1.972  15.779 -1.8488 -2.2686 -1.0968
 4974SOL     OW26383   0.509   4.080  11.047 -0.6112  0.4862  0.0511
 4974SOL    HW126384   0.577   4.045  10.990 -1.5167  0.9762 -1.3341
 4974SOL    HW226385   0.525   4.028  11.125  0.1850 -0.4501 -0.7427
 4975SOL     OW26386   1.498   4.440   6.264 -0.0353 -0.5385 -0.0870
 4975SOL    HW126387   1.565   4.504   6.239 -0.4145 -0.9068 -2.0393
 4975SOL    HW226388   1.441   4.433   6.187 -0.6264  2.7302  0.0317
 4976SOL     OW26389   2.173   0.868   6.250 -0.3638 -0.3854  0.3520
 4976SOL    HW126390   2.215   0.880   6.335  0.1853 -1.3669  0.2213
 4976SOL    HW226391   2.208   0.780   6.234  0.8247 -0.0269  1.0266
 4977SOL     OW26392   1.897   2.455   7.605  0.1150 -0.2881 -0.2422
 4977SOL    HW126393   1.933   2.369   7.580  2.6130  1.0550 -1.2825
 4977SOL    HW226394   1.817   2.466   7.554  1.1744  0.9064 -1.6340
 4978SOL     OW26395   1.608   2.674   3.583 -0.1532  0.3809  0.3377
 4978SOL    HW126396   1.696   2.691   3.549 -0.5512  0.7431 -0.5111
 4978SOL    HW226397   1.610   2.581   3.606  2.0143  0.3331 -0.0142
 4979SOL     OW26398   3.964   2.685   4.512  0.2118  0.6505  0.2332
 4979SOL    HW126399   4.017   2.739   4.453  0.4506 -0.2500 -0.3760
 4979SOL    HW226400   3.900   2.746   4.549  0.0486 -0.0918  1.1874
 4980SOL     OW26401   1.224   2.462   4.448  0.2219 -0.0436 -0.5385
 4980SOL    HW126402   1.181   2.405   4.385  1.7086 -1.7550 -0.0107
 4980SOL    HW226403   1.214   2.403   4.523 -0.1902 -1.4062 -1.6830
 4981SOL     OW26404   2.569   1.892  10.705 -0.0630 -0.1733  0.3631
 4981SOL    HW126405   2.631   1.927  10.769 -0.6078  2.5311 -0.6055
 4981SOL    HW226406   2.515   1.832  10.757 -1.0127 -1.0798 -1.6736
 4982SOL     OW26407   0.438   4.540   2.465 -0.0793 -0.1410 -0.0596
 4982SOL    HW126408   0.494   4.617   2.469 -0.4545  0.0482  1.3914
 4982SOL    HW226409   0.512   4.479   2.461 -0.3171 -0.4275 -0.0967
 4983SOL     OW26410   2.749   2.495  10.607  0.6272  0.3870 -0.1486
 4983SOL    HW126411   2.834   2.478  10.647  0.7391  1.4832  0.0925
 4983SOL    HW226412   2.767   2.509  10.514 -1.1037  0.6121 -0.4615
 4984SOL     OW26413   4.109   0.625  17.139  0.0924 -0.3137  0.2379
 4984SOL    HW126414   4.099   0.542  17.093  0.4455 -0.6491  0.7547
 4984SOL    HW226415   4.156   0.675  17.072  0.3393 -3.4311 -1.8947
 4985SOL     OW26416   3.847   2.136   8.627 -0.1508 -0.2456  0.2780
 4985SOL    HW126417   3.837   2.214   8.573  1.8818  0.1045  0.4196
 4985SOL    HW226418   3.862   2.184   8.709 -0.1605  1.1673 -0.5625
 4986SOL     OW26419   0.685   0.350   0.560 -0.2641 -0.2665 -0.3639
 4986SOL    HW126420   0.660   0.282   0.622  0.7893  0.4060  0.8035
 4986SOL    HW226421   0.767   0.368   0.606 -0.4774  0.6950 -0.3597
 4987SOL     OW26422   3.320   3.581   7.929  0.3759 -0.0127 -0.2790
 4987SOL    HW126423   3.263   3.621   7.995 -0.0800  0.3069 -0.8663
 4987SOL    HW226424   3.282   3.604   7.844  1.5440  0.2634 -0.7328
 4988SOL     OW26425   2.294   1.603   6.261  0.0210  0.2810  0.2920
 4988SOL    HW126426   2.328   1.587   6.173  0.6634 -2.0153  0.9722
 4988SOL    HW226427   2.297   1.515   6.296 -1.1578  0.1158 -0.0013
 4989SOL     OW26428   3.154   4.706   3.008 -0.5702  0.5868 -0.4606
 4989SOL    HW126429   3.097   0.058   3.016 -0.0756  0.7379  1.5098
 4989SOL    HW226430   3.088   4.638   2.991 -0.8259  0.7015  0.1015
 4990SOL     OW26431   2.439   2.494   3.306  0.0269  0.6658  0.4232
 4990SOL    HW126432   2.405   2.426   3.247  0.9521 -0.9901  1.7787
 4990SOL    HW226433   2.489   2.437   3.365  1.9494  1.5408 -0.3882
 4991SOL     OW26434   1.984   2.838   7.897 -0.4826 -0.5094  1.0995
 4991SOL    HW126435   2.056   2.882   7.850 -3.2591  3.0953  0.1407
 4991SOL    HW226436   1.914   2.845   7.832 -1.5387 -0.7609  2.2282
 4992SOL     OW26437   0.132   0.444   0.263 -0.6334 -0.0536  0.2080
 4992SOL    HW126438   0.168   0.422   0.177 -0.7101 -1.1313  0.4581
 4992SOL    HW226439   0.195   0.499   0.310  3.8724 -2.8244 -2.6180
 4993SOL     OW26440   0.903   2.462   8.989  0.0967 -0.0698 -0.1178
 4993SOL    HW126441   0.988   2.422   8.969  1.0893  1.9966 -0.0671
 4993SOL    HW226442   0.927   2.537   9.044  1.6255 -0.3407 -0.4069
 4994SOL     OW26443   3.859   4.118  15.436 -0.1043  0.0723 -0.2645
 4994SOL    HW126444   3.857   4.213  15.428  0.4707  0.0820 -0.2931
 4994SOL    HW226445   3.844   4.084  15.348  0.9487  0.2080 -0.4898
 4995SOL     OW26446   0.172   1.122   7.876  0.3359  0.4000  0.1676
 4995SOL    HW126447   0.119   1.148   7.801  0.1005  2.0628  0.9146
 4995SOL    HW226448   0.107   1.136   7.945 -2.8075 -1.9317 -2.3553
 4996SOL     OW26449   2.946   0.716   2.326 -0.0177 -0.1297  0.1814
 4996SOL    HW126450   2.858   0.747   2.348  0.3545  0.2571  1.1400
 4996SOL    HW226451   2.929   0.667   2.246 -0.7219 -0.9695  0.8467
 4997SOL     OW26452   2.875   3.333   2.137  0.2502 -0.0528 -0.0833
 4997SOL    HW126453   2.788   3.356   2.171  0.4773  0.9107 -0.1587
 4997SOL    HW226454   2.915   3.419   2.126 -0.2053 -0.0439 -1.6379
 4998SOL     OW26455   2.423   0.139   0.084 -0.1742 -0.0304  0.6652
 4998SOL    HW126456   2.432   0.173  17.695  0.4170  0.7810  1.0354
 4998SOL    HW226457   2.466   0.208   0.136 -0.0261 -0.3844  1.0157
 4999SOL     OW26458   4.328   4.390   3.699  0.0982 -0.2251  0.1170
 4999SOL    HW126459   4.376   4.336   3.762 -2.1608 -0.9533  1.1888
 4999SOL    HW226460   4.370   4.368   3.615  0.2335  1.1359 -0.1737
 5000SOL     OW26461   2.317   1.042   3.636  0.2275  0.0180  1.2931
 5000SOL    HW126462   2.390   1.024   3.577 -0.3787  3.1282 -0.4001
 5000SOL    HW226463   2.282   1.120   3.593  1.5193  1.3736  2.6968
 5001SOL     OW26464   1.300   4.231  10.784 -0.0837  0.3406  0.3380
 5001SOL    HW126465   1.251   4.205  10.862  0.9583 -1.6528  0.3282
 5001SOL    HW226466   1.291   4.149  10.735 -0.2158  1.6723 -1.8438
 5002SOL     OW26467   3.495   2.125  11.896  0.0855  0.0553 -0.1056
 5002SOL    HW126468   3.457   2.038  11.881 -0.2233  0.2959 -0.7192
 5002SOL    HW226469   3.431   2.163  11.956  1.4532 -0.5485  1.7350
 5003SOL     OW26470   0.015   3.105   3.452  0.6443 -0.5751 -0.3377
 5003SOL    HW126471   4.713   3.014   3.434 -0.1937 -0.6923  1.4872
 5003SOL    HW226472   0.039   3.124   3.361 -1.9550 -0.3559 -0.9663
 5004SOL     OW26473   4.348   4.670  16.786 -0.1149  0.1052 -0.2996
 5004SOL    HW126474   4.254   4.687  16.788 -0.5030 -1.9987 -0.4707
 5004SOL    HW226475   4.351   4.606  16.715  0.0438  0.4384 -0.5917
 5005SOL     OW26476   4.252   0.999  15.501  0.2205  0.2265 -0.4710
 5005SOL    HW126477   4.289   1.009  15.414  0.9632  0.3864 -0.1447
 5005SOL    HW226478   4.331   0.976  15.550  1.0029 -0.2199 -1.9439
 5006SOL     OW26479   0.656   0.133   6.997  0.2411  0.5027  0.0890
 5006SOL    HW126480   0.744   0.117   6.965 -0.6696 -3.0863 -0.7077
 5006SOL    HW226481   0.679   0.202   7.059 -1.1050  1.8740 -0.9490
 5007SOL     OW26482   2.564   3.653  15.449 -0.2377  0.1636 -0.1021
 5007SOL    HW126483   2.514   3.710  15.391 -0.1004 -0.7405 -1.1184
 5007SOL    HW226484   2.654   3.683  15.442  0.6747 -2.5708 -0.1617
 5008SOL     OW26485   3.664   0.430   5.624 -0.2388  0.7130 -0.3253
 5008SOL    HW126486   3.658   0.525   5.625 -1.2333  0.6418  0.1243
 5008SOL    HW226487   3.698   0.422   5.713  1.1480  0.4732 -0.8781
 5009SOL     OW26488   2.507   0.534   5.969  0.1886 -0.0030  0.0925
 5009SOL    HW126489   2.553   0.529   5.885 -2.0328 -0.9507 -1.0554
 5009SOL    HW226490   2.527   0.449   6.007  2.2401  0.8383  0.8950
 5010SOL     OW26491   4.532   0.324  11.509  0.4053  0.1630 -0.2446
 5010SOL    HW126492   4.555   0.386  11.577 -0.1014 -0.1889  0.2486
 5010SOL    HW226493   4.436   0.322  11.517  0.4407  1.0157  0.3764
 5011SOL     OW26494   0.239   1.282   2.728  0.0113 -0.4862 -0.4505
 5011SOL    HW126495   0.260   1.291   2.635  0.7343  0.3418 -0.2086
 5011SOL    HW226496   0.145   1.297   2.733  0.5123  3.0879 -1.5173
 5012SOL     OW26497   4.386   3.720  17.430  0.9358  0.4966 -0.2543
 5012SOL    HW126498   4.436   3.675  17.498  0.2748 -0.7612 -0.5972
 5012SOL    HW226499   4.313   3.659  17.420  1.2900  0.1451 -0.6523
 5013SOL     OW26500   0.307   3.765   7.165  0.1181  0.0684  0.2662
 5013SOL    HW126501   0.219   3.727   7.171  0.5738 -0.8963  0.7919
 5013SOL    HW226502   0.333   3.737   7.078  0.7854 -1.3618  0.9346
 5014SOL     OW26503   1.406   3.844   4.162 -0.3915  0.0790  0.3455
 5014SOL    HW126504   1.403   3.934   4.131  0.9827  0.6281  1.7811
 5014SOL    HW226505   1.314   3.819   4.167 -0.4949  0.2167 -0.9166
 5015SOL     OW26506   3.952   0.562   8.804 -0.4334  0.0416 -0.2726
 5015SOL    HW126507   3.884   0.526   8.861 -0.8649 -0.2684 -0.9894
 5015SOL    HW226508   3.928   0.655   8.805  0.0737  0.2158 -3.3377
 5016SOL     OW26509   4.562   0.586   4.367 -0.5494 -0.5310 -0.1232
 5016SOL    HW126510   4.591   0.582   4.276 -1.4129  0.0706 -0.4242
 5016SOL    HW226511   4.467   0.573   4.359 -0.7136  0.8662 -0.4575
 5017SOL     OW26512   3.037   2.538   1.977 -0.4413 -0.4538  0.2106
 5017SOL    HW126513   2.960   2.517   2.030  0.5696 -0.9310  1.4978
 5017SOL    HW226514   3.016   2.620   1.932  1.3326 -0.7088 -1.0766
 5018SOL     OW26515   1.268   3.189   9.142  0.2178 -0.5768  0.2230
 5018SOL    HW126516   1.178   3.219   9.158  0.0991  0.0998 -1.6821
 5018SOL    HW226517   1.328   3.230   9.204  1.5976 -1.0370 -0.8197
 5019SOL     OW26518   3.286   4.164   7.684 -0.1827  0.7023  0.4907
 5019SOL    HW126519   3.286   4.216   7.764 -0.0837  1.0287  0.2770
 5019SOL    HW226520   3.333   4.090   7.721 -0.2040 -0.1672 -1.2082
 5020SOL     OW26521   2.118   0.015   4.702 -0.3563  0.0650 -0.0157
 5020SOL    HW126522   2.173   0.080   4.657 -0.3446 -0.7159 -1.1199
 5020SOL    HW226523   2.038   0.020   4.650 -1.9249 -0.4517  2.3382
 5021SOL     OW26524   3.615   4.129   2.502  0.9772 -0.2759  0.3644
 5021SOL    HW126525   3.668   4.050   2.500 -1.5289 -1.9397 -0.4001
 5021SOL    HW226526   3.608   4.165   2.414  0.7989 -1.3515 -0.0622
 5022SOL     OW26527   4.335   3.318   7.991 -0.2035 -0.5693  0.2259
 5022SOL    HW126528   4.355   3.385   7.925 -2.4181 -1.0359 -0.9082
 5022SOL    HW226529   4.247   3.303   7.958  0.4530 -0.9662 -1.3392
 5023SOL     OW26530   4.144   1.822  13.532  0.0246 -0.0232 -0.1267
 5023SOL    HW126531   4.184   1.735  13.538  0.6355  0.2014 -0.9461
 5023SOL    HW226532   4.174   1.855  13.447  2.6381 -0.2590  0.6943
 5024SOL     OW26533   1.213   1.884   7.439  0.1920 -0.3017  0.0962
 5024SOL    HW126534   1.178   1.961   7.484  1.8071  0.4487  0.0473
 5024SOL    HW226535   1.263   1.845   7.510  0.0480  1.0025  0.9192
 5025SOL     OW26536   0.523   0.132   3.485  0.2180 -0.3573 -0.0384
 5025SOL    HW126537   0.474   0.211   3.508 -0.5333 -0.5071 -1.1807
 5025SOL    HW226538   0.466   0.089   3.422 -2.0375  1.3370  0.8459
 5026SOL     OW26539   1.840   3.621   1.102  0.9682 -0.0577 -0.2428
 5026SOL    HW126540   1.828   3.693   1.164 -2.3613 -0.6035 -0.2480
 5026SOL    HW226541   1.766   3.567   1.128 -0.1779  0.9202 -1.5161
 5027SOL     OW26542   1.308   0.266   5.806  0.1409 -0.1969 -0.1631
 5027SOL    HW126543   1.391   0.300   5.773  0.5908 -1.9652 -0.8466
 5027SOL    HW226544   1.308   0.315   5.888 -0.1051 -1.1139  0.3811
 5028SOL     OW26545   3.397   1.132   7.708  0.4576  0.2151  0.5747
 5028SOL    HW126546   3.478   1.110   7.661  1.1176  2.0970  0.8567
 5028SOL    HW226547   3.338   1.062   7.680 -0.9643  2.2328 -1.4558
 5029SOL     OW26548   4.031   2.078  16.353 -0.3228  0.1229  0.1121
 5029SOL    HW126549   4.110   2.131  16.349  0.7110 -1.3778  0.4657
 5029SOL    HW226550   4.009   2.086  16.446  1.1053  1.4291  0.3321
 5030SOL     OW26551   3.809   2.603  13.862 -0.3258 -0.1353 -0.0069
 5030SOL    HW126552   3.749   2.546  13.910 -1.6766 -0.2100 -1.7973
 5030SOL    HW226553   3.874   2.609  13.933 -0.5745  0.0014  0.2083
 5031SOL     OW26554   0.181   2.293   5.517  0.2489 -0.2176 -0.4406
 5031SOL    HW126555   0.241   2.334   5.455 -0.2914  0.0688 -0.7767
 5031SOL    HW226556   0.158   2.367   5.573  0.6323  1.1070 -2.0337
 5032SOL     OW26557   0.973   4.704  15.183  0.6431  0.6338 -0.6597
 5032SOL    HW126558   0.967   4.609  15.194  0.4872  0.9106  1.5597
 5032SOL    HW226559   1.062   4.720  15.152  0.0928  1.6033 -1.7151
 5033SOL     OW26560   1.011   0.583  15.514 -0.3232 -0.4439  0.3627
 5033SOL    HW126561   0.939   0.618  15.462  0.5266  0.2299 -0.3619
 5033SOL    HW226562   1.014   0.651  15.581  1.1680  1.5355 -1.7144
 5034SOL     OW26563   3.490   4.494   9.603  0.2592 -0.0558 -0.6892
 5034SOL    HW126564   3.426   4.563   9.585  0.3089 -0.2357 -1.5791
 5034SOL    HW226565   3.478   4.477   9.696 -3.1113  0.8446 -0.9788
 5035SOL     OW26566   0.248   3.367   8.554 -0.8265 -0.3090 -0.2276
 5035SOL    HW126567   0.195   3.445   8.537  0.2234  0.5416  0.3679
 5035SOL    HW226568   0.326   3.411   8.589  0.6254 -1.3890 -2.0806
 5036SOL     OW26569   1.079   1.176   8.841 -0.1412  0.1089 -0.1727
 5036SOL    HW126570   1.025   1.254   8.830 -0.0386  0.2361  0.2076
 5036SOL    HW226571   1.002   1.120   8.840  0.2242 -0.3973  0.0491
 5037SOL     OW26572   3.870   1.826   4.027  0.7456  0.2478  0.1511
 5037SOL    HW126573   3.944   1.886   4.034  1.8455 -1.0768 -0.0572
 5037SOL    HW226574   3.854   1.805   4.119  1.2305 -1.2759 -0.1108
 5038SOL     OW26575   0.632   4.303   4.487 -0.6532  0.7295 -0.4939
 5038SOL    HW126576   0.656   4.216   4.519 -0.2530  0.3731 -1.7386
 5038SOL    HW226577   0.639   4.291   4.392 -0.7455 -1.4831 -0.2177
 5039SOL     OW26578   4.117   0.227  15.720  0.2325  0.1200 -0.5140
 5039SOL    HW126579   4.104   0.156  15.782  1.8858 -0.7119 -1.1245
 5039SOL    HW226580   4.153   0.176  15.647 -0.4731 -2.0707  0.6983
 5040SOL     OW26581   3.247   3.766   4.960 -0.3156  0.7500 -0.3203
 5040SOL    HW126582   3.222   3.856   4.937  2.3038  1.0170 -2.1419
 5040SOL    HW226583   3.335   3.768   4.924 -0.4726 -1.7747 -0.8487
 5041SOL     OW26584   0.856   3.770   6.362 -0.1934  0.4882  0.2677
 5041SOL    HW126585   0.926   3.835   6.364  0.2226  0.0539 -0.3394
 5041SOL    HW226586   0.784   3.804   6.415 -0.1041  0.1121  0.6209
 5042SOL     OW26587   1.657   1.866   4.061 -0.0313  0.8166  0.1839
 5042SOL    HW126588   1.674   1.959   4.072  1.5107  0.6662 -0.9287
 5042SOL    HW226589   1.724   1.845   3.996  1.3498 -1.5612  2.3734
 5043SOL     OW26590   3.430   1.855  13.618 -0.2327  0.2335  0.1308
 5043SOL    HW126591   3.359   1.831  13.559 -1.4684  0.3142  1.5667
 5043SOL    HW226592   3.511   1.825  13.578  0.9096 -0.4615  2.9652
 5044SOL     OW26593   2.600   4.237   8.397  0.4266 -0.2479 -0.1002
 5044SOL    HW126594   2.544   4.307   8.430 -0.6757 -1.3433  0.3542
 5044SOL    HW226595   2.681   4.260   8.443  0.1476 -0.1716  0.3487
 5045SOL     OW26596   0.904   1.500  13.617 -0.0918 -0.4930 -0.5938
 5045SOL    HW126597   0.985   1.465  13.581 -0.3939 -1.0212 -0.7585
 5045SOL    HW226598   0.911   1.485  13.711  0.9116 -0.0930 -0.6106
 5046SOL     OW26599   0.721   3.134   9.249  0.4219 -0.4410 -0.4668
 5046SOL    HW126600   0.652   3.162   9.310  1.7615  0.2173  0.7289
 5046SOL    HW226601   0.712   3.038   9.251 -0.4353 -0.3462  0.2330
 5047SOL     OW26602   0.681   1.615  10.902  0.0062 -0.3913  0.1659
 5047SOL    HW126603   0.766   1.660  10.897  0.1536 -0.5011  1.6240
 5047SOL    HW226604   0.689   1.548  10.835  0.5944 -1.5492  1.3849
 5048SOL     OW26605   1.712   1.743  17.167  0.4797  0.5826 -0.0068
 5048SOL    HW126606   1.755   1.690  17.100  0.2327 -0.9030  1.0020
 5048SOL    HW226607   1.783   1.776  17.222 -0.5779  2.1176  0.4551
 5049SOL     OW26608   2.285   3.084   3.371  0.0804  0.2126 -0.4927
 5049SOL    HW126609   2.285   2.991   3.393  2.3625  1.0063  2.9220
 5049SOL    HW226610   2.375   3.107   3.395  0.3425 -0.8992 -0.3944
 5050SOL     OW26611   1.675   4.000   1.947  0.4135  0.3296 -0.0447
 5050SOL    HW126612   1.649   4.085   1.911 -1.7331 -0.3286 -0.0516
 5050SOL    HW226613   1.724   3.966   1.873  1.1212  1.1954  0.0141
 5051SOL     OW26614   0.638   3.576   1.898 -0.1198 -0.0910 -0.0247
 5051SOL    HW126615   0.725   3.615   1.909 -0.0449 -0.5193  0.9581
 5051SOL    HW226616   0.605   3.604   1.813 -1.1226 -1.8864 -0.2205
 5052SOL     OW26617   3.468   0.409   3.788 -0.1235 -0.1912 -0.0287
 5052SOL    HW126618   3.373   0.410   3.779 -0.2241  3.4499  1.3105
 5052SOL    HW226619   3.479   0.450   3.702  0.2996  1.8400  0.9913
 5053SOL     OW26620   0.123   4.199   4.178  0.0093 -0.4417  0.4378
 5053SOL    HW126621   0.166   4.213   4.093 -0.6603  2.3971  0.5628
 5053SOL    HW226622   0.155   4.277   4.224  0.7238 -0.4727  0.0085
 5054SOL     OW26623   0.141   3.844   6.374  0.1302  0.0146 -0.1433
 5054SOL    HW126624   0.173   3.916   6.320 -1.4706  0.5632 -0.3683
 5054SOL    HW226625   0.108   3.791   6.302  0.3439 -0.0602 -0.1861
 5055SOL     OW26626   3.353   4.089   0.127  0.1084  0.7147  0.6365
 5055SOL    HW126627   3.385   4.114   0.041 -1.0598 -2.6965 -0.8023
 5055SOL    HW226628   3.258   4.096   0.116  0.2246  2.0572  0.5822
 5056SOL     OW26629   1.694   2.954   6.750  0.4391  0.3063 -0.2987
 5056SOL    HW126630   1.669   2.955   6.658  2.6593 -3.4499 -0.9495
 5056SOL    HW226631   1.649   2.875   6.779 -2.0468  1.3966 -1.2311
 5057SOL     OW26632   4.467   2.975   7.495 -0.1947 -0.5433 -0.3325
 5057SOL    HW126633   4.459   2.956   7.402 -0.4135 -0.2012 -0.3848
 5057SOL    HW226634   4.381   3.015   7.514  1.9866  2.7298  2.7269
 5058SOL     OW26635   3.644   3.409  13.447  0.6648 -0.3429 -0.4045
 5058SOL    HW126636   3.655   3.438  13.537  1.6413  2.0816 -1.3011
 5058SOL    HW226637   3.556   3.372  13.450 -0.2114  1.9741  1.9427
 5059SOL     OW26638   2.464   4.171   8.168  0.0009  0.3428 -0.2354
 5059SOL    HW126639   2.406   4.234   8.211  0.1123  0.4111 -0.1859
 5059SOL    HW226640   2.534   4.195   8.229  0.7115 -2.5748  0.0864
 5060SOL     OW26641   0.177   3.131   7.610  0.0003  0.1501 -0.5203
 5060SOL    HW126642   0.223   3.215   7.610  1.3303 -0.5787 -1.0658
 5060SOL    HW226643   0.087   3.156   7.628  0.2651  1.7220 -1.2745
 5061SOL     OW26644   1.835   4.227   4.096 -0.4995 -0.2603 -0.0109
 5061SOL    HW126645   1.919   4.240   4.139 -1.0743 -1.0979  1.3576
 5061SOL    HW226646   1.779   4.273   4.159 -0.4217  0.7772 -0.6930
 5062SOL     OW26647   3.096   3.163  10.195  0.0528 -0.1277  1.0099
 5062SOL    HW126648   3.018   3.154  10.250  0.2247  1.4195  1.4951
 5062SOL    HW226649   3.142   3.223  10.253  1.9816 -0.2319 -0.4143
 5063SOL     OW26650   0.708   0.613   0.264 -0.3653 -0.6231 -0.3382
 5063SOL    HW126651   0.702   0.695   0.313  1.3871 -0.5213 -0.2889
 5063SOL    HW226652   0.803   0.607   0.258 -0.3129 -1.7702  1.6410
 5064SOL     OW26653   2.526   2.361   7.802  0.6250  0.4924 -0.0250
 5064SOL    HW126654   2.503   2.271   7.826 -0.6753  1.0544  0.8757
 5064SOL    HW226655   2.621   2.349   7.804  0.3683 -1.3075  1.5304
 5065SOL     OW26656   1.087   1.245   3.756 -0.7566  0.7482 -0.0470
 5065SOL    HW126657   1.081   1.176   3.822 -1.1070 -0.1478 -1.0127
 5065SOL    HW226658   1.129   1.203   3.681 -0.0121 -0.2836  0.9364
 5066SOL     OW26659   1.495   4.419   2.063 -0.2081  0.1730 -0.0838
 5066SOL    HW126660   1.482   4.506   2.025 -1.8092  1.0331  2.3738
 5066SOL    HW226661   1.543   4.448   2.141 -1.4666 -0.5311  0.9565
 5067SOL     OW26662   0.086   3.969  12.124 -0.7026  0.2959  0.1816
 5067SOL    HW126663   0.145   4.033  12.085  0.8203 -0.9984  0.3833
 5067SOL    HW226664   0.137   3.893  12.150  0.4716  1.3669  1.0354
 5068SOL     OW26665   3.222   3.839  13.399 -0.5243  0.0841 -0.2941
 5068SOL    HW126666   3.243   3.902  13.330  3.4401  0.9696  1.7187
 5068SOL    HW226667   3.310   3.812  13.422 -0.0541 -2.6552 -5.2673
 5069SOL     OW26668   1.548   3.394   8.810 -0.2061 -0.4689 -0.2240
 5069SOL    HW126669   1.480   3.461   8.802 -0.5747 -0.7890  0.2276
 5069SOL    HW226670   1.541   3.355   8.723 -2.0457  0.7125 -0.6227
 5070SOL     OW26671   4.612   0.373   3.661 -0.2172 -0.2229 -0.5838
 5070SOL    HW126672   4.645   0.311   3.597 -0.2560  0.4309 -1.2358
 5070SOL    HW226673   4.520   0.362   3.637 -0.2642  0.0624 -0.5360
 5071SOL     OW26674   3.272   1.193   8.730 -0.5638  0.0904 -0.0636
 5071SOL    HW126675   3.221   1.249   8.672 -1.5273 -1.2587 -0.5363
 5071SOL    HW226676   3.214   1.117   8.739 -1.4662  0.5770 -1.9072
 5072SOL     OW26677   3.886   3.594   6.598  0.0395 -0.0820  0.0668
 5072SOL    HW126678   3.793   3.598   6.622  0.1060 -0.7597  0.4334
 5072SOL    HW226679   3.890   3.612   6.504  0.2920  0.6909  0.2272
 5073SOL     OW26680   0.314   0.596   9.693  0.4962  0.0939  0.2854
 5073SOL    HW126681   0.386   0.647   9.731  0.5802 -0.2293  0.5624
 5073SOL    HW226682   0.238   0.653   9.686  0.1283 -0.2871  1.1878
 5074SOL     OW26683   1.476   0.686  11.815  0.0110  0.3847 -0.0288
 5074SOL    HW126684   1.489   0.628  11.740 -0.3416  0.0556  0.1680
 5074SOL    HW226685   1.560   0.672  11.857 -0.7943 -2.7907  0.4503
 5075SOL     OW26686   4.677   3.751   8.936 -0.1428  0.6154 -0.1701
 5075SOL    HW126687   0.043   3.718   8.934 -0.3392  0.2530 -2.4052
 5075SOL    HW226688   4.678   3.828   8.993  0.5075 -1.4334  2.5800
 5076SOL     OW26689   3.598   2.702   7.296 -0.3603  0.1917  0.3439
 5076SOL    HW126690   3.674   2.710   7.354  1.6192 -0.9239 -2.1107
 5076SOL    HW226691   3.600   2.794   7.268  0.0621  0.6157  1.7435
 5077SOL     OW26692   3.746   1.549   2.533 -0.3692  0.2433  0.5221
 5077SOL    HW126693   3.685   1.596   2.589 -1.2359  0.5982 -0.7304
 5077SOL    HW226694   3.702   1.464   2.526  1.9291 -0.8071 -1.3238
 5078SOL     OW26695   3.270   3.805  11.697  0.2184  0.4838 -0.4160
 5078SOL    HW126696   3.180   3.790  11.728  1.0888 -2.2046  0.8142
 5078SOL    HW226697   3.253   3.891  11.659 -0.6664  0.4451 -0.1289
 5079SOL     OW26698   0.019   3.620   2.451  0.2924  0.0858 -0.1144
 5079SOL    HW126699   4.656   3.639   2.416  1.2716  0.3281 -2.4627
 5079SOL    HW226700   0.016   3.530   2.482 -2.2634 -0.1540 -1.0362
 5080SOL     OW26701   3.613   0.854  17.189  0.0071  0.2555 -0.5631
 5080SOL    HW126702   3.623   0.906  17.109 -0.2387 -0.2949 -0.9549
 5080SOL    HW226703   3.687   0.794  17.176 -1.2723 -1.2398 -0.9087
 5081SOL     OW26704   1.418   4.169   6.636  0.4730  0.0256 -0.1104
 5081SOL    HW126705   1.459   4.118   6.706  1.1235  1.8000  0.8103
 5081SOL    HW226706   1.496   4.220   6.618  0.5609 -0.3346 -0.7262
 5082SOL     OW26707   2.078   2.767   0.931 -0.2203  0.6288 -0.1213
 5082SOL    HW126708   2.081   2.691   0.989  0.6020 -0.4497 -1.5778
 5082SOL    HW226709   2.026   2.832   0.978 -1.3859  0.0752 -0.6409
 5083SOL     OW26710   3.148   3.764   9.392 -0.2669  0.0865  0.3034
 5083SOL    HW126711   3.066   3.730   9.427  0.4647 -0.7168  1.2415
 5083SOL    HW226712   3.127   3.808   9.310 -0.4596 -0.8204 -0.1280
 5084SOL     OW26713   1.837   2.910  13.358 -0.0175 -0.1877  0.2969
 5084SOL    HW126714   1.923   2.892  13.395  0.0561  0.9806  0.6927
 5084SOL    HW226715   1.820   2.816  13.345  1.2151 -0.2226 -0.9381
 5085SOL     OW26716   2.223   3.709   1.866 -0.2991  0.3912  0.3898
 5085SOL    HW126717   2.242   3.778   1.930 -1.6398  1.8078 -0.7509
 5085SOL    HW226718   2.260   3.741   1.784  0.7157  0.8546  1.0311
 5086SOL     OW26719   2.552   0.151  16.291  0.1178 -0.2239 -0.4129
 5086SOL    HW126720   2.522   0.094  16.220  1.7476 -0.3994 -0.9662
 5086SOL    HW226721   2.647   0.142  16.285  0.3774  2.1034  0.2196
 5087SOL     OW26722   2.750   0.796   6.351  0.2849  0.0147  0.0877
 5087SOL    HW126723   2.748   0.890   6.334  1.4589 -0.1912 -1.2255
 5087SOL    HW226724   2.717   0.754   6.271  1.4856  1.1953 -1.0241
 5088SOL     OW26725   2.682   0.566  12.743  0.9253 -0.2938 -0.4379
 5088SOL    HW126726   2.721   0.493  12.791  0.2515 -0.7285 -0.5475
 5088SOL    HW226727   2.672   0.632  12.813  0.1155 -0.2194 -0.6212
 5089SOL     OW26728   0.260   0.575   4.440  0.3070  0.1045 -0.6027
 5089SOL    HW126729   0.274   0.576   4.346  0.4512  1.8704 -0.5694
 5089SOL    HW226730   0.304   0.500   4.479  0.3177  0.1525 -0.5205
 5090SOL     OW26731   0.662   2.875   9.271 -0.4507 -0.4121 -0.2128
 5090SOL    HW126732   0.597   2.807   9.252  0.0318 -0.1786 -2.6437
 5090SOL    HW226733   0.655   2.881   9.366  0.0915 -0.5063 -0.1710
 5091SOL     OW26734   4.614   4.102   9.196 -0.3114  0.3385 -0.6721
 5091SOL    HW126735   4.661   4.041   9.139  0.3899  1.2578 -1.0965
 5091SOL    HW226736   4.615   4.185   9.147  1.1587  0.6657 -0.0942
 5092SOL     OW26737   2.563   3.768  14.213  0.0482 -0.2135 -0.2131
 5092SOL    HW126738   2.568   3.674  14.232 -0.2969 -0.4184 -1.1398
 5092SOL    HW226739   2.640   3.766  14.156  0.6811  0.4355  0.6217
 5093SOL     OW26740   0.234   3.730  13.977  0.8670  0.4211  0.0728
 5093SOL    HW126741   0.269   3.792  14.041 -0.2874  1.4624 -0.3041
 5093SOL    HW226742   0.245   3.648  14.026  0.1793  0.1765 -0.1685
 5094SOL     OW26743   4.272   1.801   5.926  0.0912  0.3541 -0.1342
 5094SOL    HW126744   4.313   1.717   5.906  2.2903  1.5344 -0.5060
 5094SOL    HW226745   4.200   1.804   5.863 -0.1498 -0.8664  0.0668
 5095SOL     OW26746   4.475   3.781   8.098  0.2855 -0.0124  0.0763
 5095SOL    HW126747   4.518   3.721   8.037 -3.5477 -2.5777 -0.1504
 5095SOL    HW226748   4.542   3.811   8.159  1.6186  0.3170 -1.5606
 5096SOL     OW26749   4.365   0.901   7.932  0.0902 -0.0785  0.2834
 5096SOL    HW126750   4.310   0.924   8.008 -1.1340 -4.0018  0.5866
 5096SOL    HW226751   4.440   0.957   7.950  0.5546 -0.6574  0.1305
 5097SOL     OW26752   3.349   2.972   6.599  0.0627 -0.3564 -0.5634
 5097SOL    HW126753   3.401   2.893   6.614 -0.8873 -0.9504 -0.4129
 5097SOL    HW226754   3.370   2.997   6.509 -1.4691  2.3985 -0.1346
 5098SOL     OW26755   4.448   2.569  11.416 -0.1957  0.3529 -0.2181
 5098SOL    HW126756   4.505   2.638  11.449  0.8968 -0.0042 -1.3509
 5098SOL    HW226757   4.495   2.487  11.430 -1.7416 -0.5880 -0.4484
 5099SOL     OW26758   1.006   1.335   5.754  0.3852 -1.0131  0.3737
 5099SOL    HW126759   1.058   1.386   5.692 -1.8003  0.7445 -0.0232
 5099SOL    HW226760   0.964   1.272   5.695 -1.3729 -0.2265  0.7948
 5100SOL     OW26761   3.607   3.017   3.467 -0.2723  0.3504 -0.4386
 5100SOL    HW126762   3.590   3.110   3.457 -1.2025  0.0989 -1.2818
 5100SOL    HW226763   3.557   3.005   3.547 -0.0542  2.4426  0.0061
 5101SOL     OW26764   2.326   4.722   7.416 -0.2934  0.0724  0.0916
 5101SOL    HW126765   2.293   0.080   7.451  0.4190  1.2997 -2.0890
 5101SOL    HW226766   2.387   0.018   7.345 -0.9434  0.6098 -0.3071
 5102SOL     OW26767   3.290   2.967   5.503 -0.2208 -0.1968 -0.2290
 5102SOL    HW126768   3.343   3.028   5.452  0.4835 -1.8577 -1.5039
 5102SOL    HW226769   3.354   2.926   5.562 -0.3032  0.8732  0.6059
 5103SOL     OW26770   1.102   3.524  16.717 -0.3494 -0.9843  0.2688
 5103SOL    HW126771   1.032   3.585  16.696  1.0906  1.3368  2.2148
 5103SOL    HW226772   1.176   3.561  16.669 -0.5852  0.9652  1.4331
 5104SOL     OW26773   1.508   0.962   8.933 -0.2041 -0.1000 -0.1729
 5104SOL    HW126774   1.516   1.029   8.865  2.8233 -2.0731 -1.7575
 5104SOL    HW226775   1.574   0.995   8.995  0.8802 -1.6455 -0.5223
 5105SOL     OW26776   4.452   0.200  12.635 -0.2777  0.2844 -0.1538
 5105SOL    HW126777   4.526   0.158  12.591 -0.5167  0.6497 -0.9053
 5105SOL    HW226778   4.502   0.260  12.690  0.0880  0.9094 -1.1525
 5106SOL     OW26779   2.941   1.935   5.269 -0.2369  0.1797  0.1746
 5106SOL    HW126780   2.877   1.923   5.198  1.1914  0.3391 -1.1341
 5106SOL    HW226781   2.995   2.008   5.238  0.7192 -0.9603 -0.8561
 5107SOL     OW26782   0.347   2.157   4.896  0.3436  0.2563  0.8110
 5107SOL    HW126783   0.271   2.170   4.953 -0.0573  1.2677  0.0598
 5107SOL    HW226784   0.321   2.077   4.851  1.2979 -0.0251  0.7746
 5108SOL     OW26785   4.034   2.545   3.385 -0.4175 -0.3484 -0.4206
 5108SOL    HW126786   4.046   2.473   3.324  1.4093  0.3546 -0.9016
 5108SOL    HW226787   3.938   2.546   3.384 -0.4280 -0.4217  0.6064
 5109SOL     OW26788   0.458   2.544   7.972  0.4446  0.0046 -0.0933
 5109SOL    HW126789   0.421   2.515   8.056 -0.6960 -1.0775 -0.9553
 5109SOL    HW226790   0.433   2.635   7.954 -0.6040 -0.0375  1.1301
 5110SOL     OW26791   1.004   0.453   2.589  0.1436 -0.7686 -0.8540
 5110SOL    HW126792   0.992   0.440   2.495  0.8893 -0.4497 -0.9906
 5110SOL    HW226793   1.097   0.437   2.606 -0.1630 -0.2504  1.2886
 5111SOL     OW26794   1.023   3.191   5.596 -0.1061 -0.0474  0.1718
 5111SOL    HW126795   1.030   3.109   5.644  0.3073 -1.4013 -2.2075
 5111SOL    HW226796   1.093   3.244   5.634 -3.1949  0.3986  5.1819
 5112SOL     OW26797   4.218   4.109   4.554  0.2196  0.0986 -0.4972
 5112SOL    HW126798   4.311   4.107   4.531  0.0422 -1.7001 -1.0352
 5112SOL    HW226799   4.185   4.150   4.474 -2.3286 -2.5249 -0.7669
 5113SOL     OW26800   2.594   2.860   8.489 -0.0006 -0.1207 -0.1805
 5113SOL    HW126801   2.594   2.946   8.449 -0.8761  0.2832  0.6808
 5113SOL    HW226802   2.659   2.817   8.434  0.8070  0.7134  0.1319
 5114SOL     OW26803   2.279   4.027   1.811  0.3696 -0.0879  0.1941
 5114SOL    HW126804   2.313   4.106   1.769 -0.2204 -0.4517 -0.9672
 5114SOL    HW226805   2.273   3.976   1.730 -2.2796  2.2993 -1.1347
 5115SOL     OW26806   1.092   2.304  17.328  0.2658  0.4556  0.0901
 5115SOL    HW126807   1.020   2.362  17.304 -1.5502 -1.4003  1.0221
 5115SOL    HW226808   1.085   2.236  17.261  3.6606  1.7735 -1.5623
 5116SOL     OW26809   2.231   0.684   4.766  0.0237  0.2892  0.1089
 5116SOL    HW126810   2.204   0.592   4.756 -0.3267  0.5026 -0.9294
 5116SOL    HW226811   2.149   0.733   4.755 -0.1193 -0.1229 -0.6969
 5117SOL     OW26812   4.670   3.008   2.450 -0.4991  0.0328 -0.6725
 5117SOL    HW126813   4.576   3.024   2.451 -0.9145 -2.4609 -0.4755
 5117SOL    HW226814   4.665   2.935   2.388  1.9351 -0.1519 -0.6461
 5118SOL     OW26815   2.496   1.866   2.145  0.0340 -0.3386  0.1441
 5118SOL    HW126816   2.492   1.944   2.089 -0.3603  0.9300  1.9326
 5118SOL    HW226817   2.506   1.801   2.076 -0.6223  1.0056 -1.2274
 5119SOL     OW26818   3.626   2.387   2.598 -0.2750  1.1062  0.0679
 5119SOL    HW126819   3.672   2.353   2.674  2.9727  1.9506 -1.5386
 5119SOL    HW226820   3.619   2.307   2.546  2.1890 -0.1126  1.6131
 5120SOL     OW26821   2.857   2.696   2.475 -0.2042  0.0074  0.2781
 5120SOL    HW126822   2.880   2.635   2.544 -0.1516 -1.3778 -0.9569
 5120SOL    HW226823   2.904   2.773   2.508 -1.2758  0.9027 -0.2672
 5121SOL     OW26824   2.195   2.778   3.478 -0.6519 -0.4786  1.0821
 5121SOL    HW126825   2.250   2.795   3.402 -2.6809  2.8171  0.3655
 5121SOL    HW226826   2.258   2.762   3.549 -0.6279 -0.7801  0.9945
 5122SOL     OW26827   1.327   1.800   5.336 -0.2607 -0.2449 -0.2739
 5122SOL    HW126828   1.334   1.714   5.294  2.1369  0.3566 -1.0969
 5122SOL    HW226829   1.232   1.810   5.326 -0.4162 -1.2375  0.2314
 5123SOL     OW26830   2.161   1.517   4.801  0.3517 -0.2358  0.2469
 5123SOL    HW126831   2.212   1.448   4.759 -0.1005  0.3346 -1.2692
 5123SOL    HW226832   2.199   1.600   4.772  0.3288 -0.2042  0.3082
 5124SOL     OW26833   2.136   3.630   9.855 -0.5404 -0.3568  0.3591
 5124SOL    HW126834   2.047   3.648   9.825 -0.6903 -1.4913  0.1190
 5124SOL    HW226835   2.129   3.652   9.948  2.0881 -0.7192  0.6602
 5125SOL     OW26836   2.535   1.496   5.015  0.3176  0.4470 -0.2151
 5125SOL    HW126837   2.575   1.454   5.090  2.1023  0.2038 -1.3085
 5125SOL    HW226838   2.457   1.440   5.013  0.6941 -0.1019  0.4987
 5126SOL     OW26839   2.187   3.887   7.599 -0.2558  0.5153  0.0131
 5126SOL    HW126840   2.163   3.819   7.536  0.2617 -0.0308  0.4077
 5126SOL    HW226841   2.267   3.852   7.638 -0.2701  0.0385 -0.3981
 5127SOL     OW26842   0.469   3.370   4.334 -0.2368 -0.4689  0.5368
 5127SOL    HW126843   0.496   3.442   4.391  2.6330 -0.1082 -1.3090
 5127SOL    HW226844   0.414   3.326   4.398 -2.0078  2.3736  0.9907
 5128SOL     OW26845   2.996   1.864  12.301  0.3071  0.5241 -0.2120
 5128SOL    HW126846   2.917   1.912  12.325 -0.3431 -1.1700  1.0120
 5128SOL    HW226847   3.003   1.818  12.385  0.5404  1.2364  0.1558
 5129SOL     OW26848   0.727   3.536  12.864 -0.2576  0.2656  0.7765
 5129SOL    HW126849   0.673   3.582  12.799 -0.7164 -2.3614 -0.6939
 5129SOL    HW226850   0.747   3.454  12.819 -1.9849 -0.1193  0.7225
 5130SOL     OW26851   2.752   3.703   3.781 -0.2666  0.5734 -0.4324
 5130SOL    HW126852   2.739   3.621   3.828 -3.5565  1.7100  0.6526
 5130SOL    HW226853   2.727   3.669   3.695  0.4375 -0.8233 -0.0784
 5131SOL     OW26854   3.319   2.297   1.746  0.1490  0.5500 -0.9419
 5131SOL    HW126855   3.243   2.325   1.695 -1.8042  2.5047  3.0182
 5131SOL    HW226856   3.274   2.286   1.830  1.7849  1.3442  0.0481
 5132SOL     OW26857   2.514   1.610  11.068 -0.3967 -0.4345 -0.7637
 5132SOL    HW126858   2.527   1.515  11.069 -2.1231 -0.6657 -0.6077
 5132SOL    HW226859   2.426   1.617  11.105  0.7909  2.1681  1.6292
 5133SOL     OW26860   1.633   0.598  13.319  0.4042 -0.5949  0.2111
 5133SOL    HW126861   1.685   0.540  13.374  0.6250 -2.3255 -1.8159
 5133SOL    HW226862   1.584   0.530  13.273  0.5122  0.2665 -1.1850
 5134SOL     OW26863   2.923   1.492  14.624  0.6650  0.1070 -0.5716
 5134SOL    HW126864   2.833   1.494  14.655  0.5267  2.2507 -1.1837
 5134SOL    HW226865   2.918   1.430  14.551 -0.2912 -1.8547  1.1584
 5135SOL     OW26866   2.161   4.557   4.210 -0.3919  0.1583 -0.2656
 5135SOL    HW126867   2.199   4.504   4.280  0.1020  0.5363 -0.2468
 5135SOL    HW226868   2.069   4.537   4.228  0.6349 -3.0251  1.4082
 5136SOL     OW26869   2.745   3.878  12.269 -0.2914 -0.2351  0.7504
 5136SOL    HW126870   2.774   3.939  12.336  1.2721 -0.9538  0.7349
 5136SOL    HW226871   2.683   3.929  12.218 -0.5343 -1.7877 -0.5112
 5137SOL     OW26872   1.487   3.463   7.795  0.1530 -0.3532 -0.2247
 5137SOL    HW126873   1.521   3.433   7.879  0.2627  1.3147  0.3284
 5137SOL    HW226874   1.431   3.390   7.767 -0.6251  0.5886 -1.1167
 5138SOL     OW26875   4.681   2.745   0.241  0.4547  0.2275 -0.0397
 5138SOL    HW126876   4.635   2.827   0.262  0.0428 -0.2646  0.9930
 5138SOL    HW226877   4.690   2.714   0.331  0.7038  0.3336 -0.0275
 5139SOL     OW26878   4.561   0.807   7.119 -0.7845  0.1475  0.2332
 5139SOL    HW126879   4.588   0.898   7.133 -0.3416 -0.3102  2.3287
 5139SOL    HW226880   4.511   0.791   7.199 -2.6569  1.9163 -0.5832
 5140SOL     OW26881   3.969   0.579   6.141  0.5472 -0.0175  0.8642
 5140SOL    HW126882   3.946   0.640   6.072  3.1135  1.8009  1.6182
 5140SOL    HW226883   4.023   0.636   6.196  0.8572  1.0162 -0.5431
 5141SOL     OW26884   2.190   2.842  15.252 -0.1210 -0.6460  0.0432
 5141SOL    HW126885   2.162   2.926  15.215  0.6088 -0.2673  0.3378
 5141SOL    HW226886   2.282   2.867  15.259 -0.4036 -0.2406  2.2970
 5142SOL     OW26887   1.435   4.095   4.058  0.2581 -0.6326  0.2163
 5142SOL    HW126888   1.403   4.155   4.126 -1.0564 -0.6299 -0.4077
 5142SOL    HW226889   1.380   4.124   3.985  2.1012  2.0893 -0.0648
 5143SOL     OW26890   2.952   2.525  12.849  0.5001  0.4779 -0.8515
 5143SOL    HW126891   3.016   2.572  12.903 -0.1091  0.8585 -0.4609
 5143SOL    HW226892   3.013   2.482  12.789  1.5857 -0.7603  1.1300
 5144SOL     OW26893   0.263   4.134   4.492 -0.7410 -1.1427  0.5474
 5144SOL    HW126894   0.311   4.052   4.484  1.1921 -0.0907  1.3292
 5144SOL    HW226895   0.255   4.156   4.399 -1.6331  0.3824  0.9766
 5145SOL     OW26896   2.985   1.996   4.401 -0.9716  0.0203  0.8891
 5145SOL    HW126897   2.892   1.971   4.403 -0.6690 -1.0886  1.1360
 5145SOL    HW226898   3.035   1.917   4.422  1.6853  1.7871  1.0948
 5146SOL     OW26899   4.121   0.681   7.116 -0.5847 -0.0331  0.2008
 5146SOL    HW126900   4.068   0.618   7.067  0.1126 -0.3445 -0.1495
 5146SOL    HW226901   4.142   0.637   7.198 -2.1010  0.1392  0.6902
 5147SOL     OW26902   1.649   1.364   0.410 -0.4447 -0.2460 -0.4539
 5147SOL    HW126903   1.567   1.373   0.459  0.6156 -0.3802  1.3628
 5147SOL    HW226904   1.704   1.429   0.455 -1.5105 -0.7804  1.6272
 5148SOL     OW26905   4.718   0.236   5.713  0.7780 -0.0763  0.2759
 5148SOL    HW126906   0.064   0.251   5.650  1.1694  1.4813  1.0604
 5148SOL    HW226907   4.639   0.253   5.663  0.9306  2.4173  0.8471
 5149SOL     OW26908   4.313   0.497   5.262 -0.3802  0.6775  0.0877
 5149SOL    HW126909   4.222   0.525   5.256 -0.4929 -0.3108 -3.0876
 5149SOL    HW226910   4.361   0.531   5.187  1.3394  0.9041  1.2849
 5150SOL     OW26911   1.005   2.243   4.352 -0.0882  0.5883 -0.2277
 5150SOL    HW126912   0.935   2.181   4.332  0.6313 -0.0788 -0.6842
 5150SOL    HW226913   0.957   2.311   4.399  0.1559  0.2929  0.4430
 5151SOL     OW26914   0.905   2.395   2.709 -0.0341 -0.3295 -0.3166
 5151SOL    HW126915   0.912   2.467   2.646  3.0289 -1.1910 -0.9238
 5151SOL    HW226916   0.977   2.341   2.678 -0.3119  0.4071 -2.2727
 5152SOL     OW26917   0.650   0.992  13.629 -0.5223 -0.1299 -0.0480
 5152SOL    HW126918   0.724   1.047  13.605  0.3495 -0.4637  1.8669
 5152SOL    HW226919   0.623   1.043  13.705  0.1246 -0.6539  0.5323
 5153SOL     OW26920   3.424   4.492  11.716  0.4791  0.5003  1.4016
 5153SOL    HW126921   3.425   4.398  11.737 -2.5897 -0.0026 -0.8323
 5153SOL    HW226922   3.445   4.496  11.623  1.0023 -1.0859  1.4441
 5154SOL     OW26923   4.335   2.010   9.178 -0.3008 -0.3540  0.1354
 5154SOL    HW126924   4.365   2.081   9.235  3.3065 -1.8499  0.0440
 5154SOL    HW226925   4.287   1.961   9.246 -1.0629 -0.6872 -0.6441
 5155SOL     OW26926   3.184   0.106  14.410 -0.1339  0.0837 -0.1806
 5155SOL    HW126927   3.221   0.170  14.471  0.6489  2.1546 -2.8772
 5155SOL    HW226928   3.249   0.115  14.341 -3.2062  0.1306 -3.0404
 5156SOL     OW26929   4.606   1.532   2.211 -0.9498 -0.0565 -0.0156
 5156SOL    HW126930   4.606   1.600   2.279 -0.4262 -1.6415  1.5682
 5156SOL    HW226931   4.521   1.488   2.209 -0.6749 -0.5891  0.0722
 5157SOL     OW26932   1.575   2.389   0.445  0.2517 -0.2059  0.2684
 5157SOL    HW126933   1.659   2.430   0.424 -0.1287 -0.1538 -1.1395
 5157SOL    HW226934   1.548   2.363   0.357 -2.1672 -0.4940  1.1151
 5158SOL     OW26935   4.293   2.667   5.726  0.5736 -0.3166  0.2738
 5158SOL    HW126936   4.309   2.575   5.747  0.2931 -0.3497  0.3475
 5158SOL    HW226937   4.221   2.677   5.789 -0.2985  0.7856 -0.8888
 5159SOL     OW26938   2.233   2.330  15.219 -0.1953  0.2728  0.3508
 5159SOL    HW126939   2.217   2.424  15.216 -0.9133  0.0090 -3.3575
 5159SOL    HW226940   2.199   2.311  15.132 -0.7615 -1.3184  0.9246
 5160SOL     OW26941   2.670   0.451   0.081 -0.2353  0.0273  0.1071
 5160SOL    HW126942   2.701   0.361   0.075  0.3980  0.2573 -0.0664
 5160SOL    HW226943   2.743   0.505   0.051 -0.1716  0.3813  0.8931
 5161SOL     OW26944   1.748   0.064  15.026  0.0533 -0.2369  0.2443
 5161SOL    HW126945   1.772   0.028  14.941  1.0665 -0.6692  0.7133
 5161SOL    HW226946   1.698   4.719  15.069  0.2392  1.0924  2.6280
 5162SOL     OW26947   2.326   1.509  14.978 -0.0210 -0.2259 -0.9133
 5162SOL    HW126948   2.293   1.566  14.910  1.2440  1.5506 -0.0500
 5162SOL    HW226949   2.381   1.444  14.935 -0.4986 -2.7899  2.3109
 5163SOL     OW26950   1.864   0.664   6.884 -0.0282 -0.0996 -0.0534
 5163SOL    HW126951   1.786   0.629   6.842  0.2249 -0.7243  0.0017
 5163SOL    HW226952   1.934   0.608   6.851  1.1909  1.6054 -0.4036
 5164SOL     OW26953   0.710   1.358   5.606  0.6740 -0.0194 -0.7820
 5164SOL    HW126954   0.675   1.447   5.611 -0.2186 -0.5651  2.3212
 5164SOL    HW226955   0.795   1.368   5.648  0.6570  1.5795 -1.1175
 5165SOL     OW26956   0.624   1.505   8.872 -0.0131  0.3829 -0.1837
 5165SOL    HW126957   0.632   1.497   8.968 -1.8245 -0.5336 -0.0951
 5165SOL    HW226958   0.547   1.562   8.868 -1.2337 -1.3779 -1.9475
 5166SOL     OW26959   1.569   0.854  14.832  0.7256  0.0951 -0.2311
 5166SOL    HW126960   1.514   0.826  14.906  0.3321 -0.2373 -0.6455
 5166SOL    HW226961   1.496   0.880  14.776 -1.5427 -3.3751  1.0687
 5167SOL     OW26962   2.525   3.685   4.604 -0.9236 -0.1266 -0.4576
 5167SOL    HW126963   2.437   3.679   4.641 -0.6712 -0.0038  0.1594
 5167SOL    HW226964   2.543   3.592   4.614  1.3833  0.4286  0.6000
 5168SOL     OW26965   1.084   0.438   4.506 -0.0850 -0.2071 -0.4256
 5168SOL    HW126966   1.060   0.501   4.574  0.4398 -0.9578  0.4620
 5168SOL    HW226967   1.171   0.465   4.476 -1.2504 -0.0728 -3.6329
 5169SOL     OW26968   0.651   0.674  14.628  0.0155 -0.4207  0.1380
 5169SOL    HW126969   0.684   0.643  14.544  0.8940  1.6660 -0.2610
 5169SOL    HW226970   0.573   0.621  14.646 -1.9434  2.1471 -0.7348
 5170SOL     OW26971   2.390   1.651   8.132 -0.4632 -0.6522  0.3599
 5170SOL    HW126972   2.399   1.647   8.227  2.0936 -0.6438  0.1085
 5170SOL    HW226973   2.443   1.580   8.095 -0.1211  0.7092 -1.7432
 5171SOL     OW26974   3.963   1.106  16.026  0.6909  0.1227  0.0620
 5171SOL    HW126975   3.939   1.159  15.950 -0.9130 -1.0086 -0.2351
 5171SOL    HW226976   3.922   1.021  16.012  0.2307  0.3587 -0.0249
 5172SOL     OW26977   1.124   2.197  13.000 -0.1896  0.6452  0.0365
 5172SOL    HW126978   1.125   2.233  13.089  0.7399 -0.5695  0.5278
 5172SOL    HW226979   1.072   2.116  13.004 -0.3454  0.7711  0.6223
 5173SOL     OW26980   4.559   3.526   8.467 -0.2666 -0.1796 -0.3532
 5173SOL    HW126981   4.530   3.542   8.378 -2.7200  1.1695  0.6801
 5173SOL    HW226982   4.526   3.438   8.487  1.4696 -0.7536 -0.0216
 5174SOL     OW26983   2.213   1.433   8.231 -0.0922 -0.2831 -0.0606
 5174SOL    HW126984   2.259   1.436   8.314  0.4654 -0.7027 -0.3542
 5174SOL    HW226985   2.168   1.517   8.234  0.0173 -0.1990 -0.7487
 5175SOL     OW26986   2.069   2.779   5.586 -0.5087 -0.0000  0.2117
 5175SOL    HW126987   2.153   2.803   5.623 -0.8382 -0.4241  1.2362
 5175SOL    HW226988   2.067   2.703   5.643 -0.6410  1.9641  2.8257
 5176SOL     OW26989   3.979   1.678   3.001  0.6182 -0.1841  0.0496
 5176SOL    HW126990   4.061   1.709   2.963 -0.3689 -0.2486 -2.1365
 5176SOL    HW226991   3.909   1.699   2.940 -0.7896  0.3426  1.8615
 5177SOL     OW26992   0.081   1.245   9.003 -0.1757  0.1596  0.4668
 5177SOL    HW126993   0.124   1.170   9.043 -2.0088 -0.4299  1.3415
 5177SOL    HW226994   0.150   1.297   8.961 -0.7998  0.8438  0.2963
 5178SOL     OW26995   3.026   0.600   7.936  0.4383 -0.3496  0.5892
 5178SOL    HW126996   2.985   0.538   7.997  1.9341 -0.6524  1.2886
 5178SOL    HW226997   2.954   0.662   7.925 -0.9192 -1.9147  0.6203
 5179SOL     OW26998   2.858   4.723   2.793  0.0032  0.2648 -0.1590
 5179SOL    HW126999   2.926   4.656   2.801 -1.3008 -0.8895  1.1866
 5179SOL    HW227000   2.835   0.001   2.700 -0.8071 -1.0007  0.0069
 5180SOL     OW27001   3.998   2.704   5.592  0.3256  0.0427  0.1273
 5180SOL    HW127002   4.085   2.666   5.604  0.5225 -0.1958 -2.0206
 5180SOL    HW227003   3.994   2.766   5.665 -1.9148 -0.6685  0.6202
 5181SOL     OW27004   3.179   2.334   9.324 -0.5024 -0.0308  0.6547
 5181SOL    HW127005   3.140   2.286   9.398 -1.5340  0.3935  0.3845
 5181SOL    HW227006   3.102   2.379   9.289  0.6679  0.7422 -0.9223
 5182SOL     OW27007   2.996   0.604   3.202  0.1721  0.4349 -0.3363
 5182SOL    HW127008   3.068   0.543   3.212 -1.1731 -0.9786  0.6221
 5182SOL    HW227009   2.978   0.620   3.294 -0.4205  0.0121 -0.3822
 5183SOL     OW27010   1.483   4.092   8.022 -0.4938 -0.4981  0.4142
 5183SOL    HW127011   1.467   4.127   7.934  1.3074  0.5561  0.5220
 5183SOL    HW227012   1.558   4.144   8.049 -0.5075 -0.3924  0.2506
 5184SOL     OW27013   1.995   0.997   6.088  0.7779  0.4878 -0.4104
 5184SOL    HW127014   2.032   1.080   6.057  0.2195  1.2214  0.8421
 5184SOL    HW227015   2.066   0.953   6.133  0.3955 -0.9834 -1.2638
 5185SOL     OW27016   0.127   2.930   5.098 -0.1688  0.6754  0.0173
 5185SOL    HW127017   0.054   2.928   5.161  1.3052  0.9345  1.7370
 5185SOL    HW227018   0.128   2.851   5.045  2.9593  0.6516  0.1298
 5186SOL     OW27019   3.091   2.358   3.982  0.1485  0.2444 -0.1677
 5186SOL    HW127020   3.079   2.264   3.976 -1.1089  0.3273  0.9720
 5186SOL    HW227021   3.097   2.385   3.890  0.8993 -0.8748 -0.4439
 5187SOL     OW27022   0.322   2.913   2.552  0.2278 -0.0988  0.0036
 5187SOL    HW127023   0.274   2.859   2.489  0.6380 -2.0601  1.3653
 5187SOL    HW227024   0.342   2.989   2.498  1.2229 -2.0775 -2.4139
 5188SOL     OW27025   3.121   4.108   7.448 -0.3272  0.4861 -0.1080
 5188SOL    HW127026   3.063   4.049   7.495  0.8171 -1.2934 -0.9005
 5188SOL    HW227027   3.187   4.127   7.515  0.1267 -0.2877 -0.3338
 5189SOL     OW27028   2.587   0.161  16.720 -0.4271  0.2197  0.2337
 5189SOL    HW127029   2.571   0.068  16.735  1.4827 -0.1487  0.0246
 5189SOL    HW227030   2.580   0.201  16.807 -1.4503 -0.4823  0.4694
 5190SOL     OW27031   1.710   4.608  12.755 -0.0520  0.0388  0.8226
 5190SOL    HW127032   1.789   4.626  12.704 -0.6708 -0.6431 -0.3749
 5190SOL    HW227033   1.691   4.523  12.717 -0.6323  0.1962  0.7591
 5191SOL     OW27034   2.674   3.956   8.451 -0.3619  0.0512 -0.1720
 5191SOL    HW127035   2.631   3.968   8.366 -1.1253  0.9252  0.3379
 5191SOL    HW227036   2.743   4.022   8.452 -2.0419  1.8064 -0.0625
 5192SOL     OW27037   2.155   2.346   8.738  0.0869  0.0929 -0.2166
 5192SOL    HW127038   2.072   2.343   8.787 -0.3900  0.6129 -0.9955
 5192SOL    HW227039   2.175   2.440   8.747 -0.2779  0.4652 -3.5124
 5193SOL     OW27040   3.959   4.528   2.665 -0.0057  0.6226 -0.4451
 5193SOL    HW127041   3.973   4.468   2.592 -3.1902 -0.0352 -0.5123
 5193SOL    HW227042   3.977   4.476   2.744 -1.9009  0.0420 -0.3922
 5194SOL     OW27043   4.683   2.820  15.621  0.1921 -0.4156  0.1115
 5194SOL    HW127044   0.044   2.809  15.663  0.0484 -0.3541  0.4211
 5194SOL    HW227045   4.701   2.903  15.578 -2.8147 -0.4160 -1.1727
 5195SOL     OW27046   2.935   4.173   0.602  0.1090  0.6027 -0.5756
 5195SOL    HW127047   2.964   4.243   0.543 -2.8936  0.4226 -2.2904
 5195SOL    HW227048   2.919   4.231   0.676 -0.9901  0.8261 -0.9842
 5196SOL     OW27049   1.328   3.410  12.468 -0.8595  0.7546 -0.1605
 5196SOL    HW127050   1.261   3.397  12.535  1.1735 -0.4291  1.6664
 5196SOL    HW227051   1.357   3.501  12.471 -2.3372  1.1749  0.9733
 5197SOL     OW27052   2.434   4.564   8.060 -0.3900  0.2052  0.1157
 5197SOL    HW127053   2.479   4.553   7.976  0.3164  0.1699  0.4935
 5197SOL    HW227054   2.508   4.585   8.117  0.4094 -0.5978 -0.6378
 5198SOL     OW27055   4.534   4.698   3.200  0.2271 -0.2795 -0.2009
 5198SOL    HW127056   4.464   0.037   3.214 -1.1142 -2.0476  1.1339
 5198SOL    HW227057   4.595   0.035   3.159  0.1674  0.4056  0.7557
 5199SOL     OW27058   1.344   4.673  13.645 -0.4208 -0.3625 -0.2404
 5199SOL    HW127059   1.266   4.681  13.700 -0.9232  0.7439 -1.1134
 5199SOL    HW227060   1.306   4.691  13.559  2.2851  0.7313 -1.2029
 5200SOL     OW27061   4.319   1.689  12.895 -0.0334  0.4508  0.3755
 5200SOL    HW127062   4.401   1.675  12.943  0.6579  2.7521 -0.1176
 5200SOL    HW227063   4.331   1.621  12.829 -2.0886  0.8004 -0.3402
 5201SOL     OW27064   1.879   1.431   5.127 -0.4937 -0.1275 -0.0219
 5201SOL    HW127065   1.926   1.468   5.052 -0.9233 -2.7756 -1.5992
 5201SOL    HW227066   1.798   1.482   5.126 -0.4801 -0.0974  0.3817
 5202SOL     OW27067   2.964   1.566   8.203 -0.4574  0.2740  0.4782
 5202SOL    HW127068   2.895   1.628   8.227 -1.6071 -2.1070  3.3479
 5202SOL    HW227069   2.900   1.508   8.161  0.4616 -0.1970 -0.2696
 5203SOL     OW27070   0.086   3.023  11.455 -0.0592 -0.8019  0.4057
 5203SOL    HW127071   0.165   2.972  11.437 -0.0015 -0.2045 -1.0463
 5203SOL    HW227072   0.078   3.068  11.370 -0.5974 -1.9491 -0.1540
 5204SOL     OW27073   4.429   3.609   1.588  0.4254  0.1128  0.3490
 5204SOL    HW127074   4.453   3.690   1.543  0.9984  0.8010  1.8726
 5204SOL    HW227075   4.485   3.552   1.534 -1.9133 -2.2970  0.4711
 5205SOL     OW27076   2.223   3.884   1.377  0.5661 -0.1248 -0.1602
 5205SOL    HW127077   2.293   3.945   1.351 -0.2710 -0.2903 -2.8435
 5205SOL    HW227078   2.210   3.839   1.293 -2.9537 -0.0446  0.3492
 5206SOL     OW27079   3.358   0.692   3.296  0.9117 -0.1723 -0.2796
 5206SOL    HW127080   3.271   0.697   3.335  1.6227  4.8658  0.6245
 5206SOL    HW227081   3.337   0.653   3.211  0.5674  1.7757 -1.0917
 5207SOL     OW27082   2.243   1.654   7.144 -0.4193  0.1071  0.2709
 5207SOL    HW127083   2.303   1.649   7.218 -1.3041 -0.2111  0.9782
 5207SOL    HW227084   2.157   1.678   7.179 -0.4162 -0.9563  1.0236
 5208SOL     OW27085   1.993   1.399   2.959  0.1372  0.3751 -0.4025
 5208SOL    HW127086   2.006   1.440   2.873 -1.6951 -0.2082 -0.9571
 5208SOL    HW227087   1.979   1.479   3.009  0.5294  0.3830 -0.3040
 5209SOL     OW27088   4.145   0.661   3.521 -0.8304 -0.0255 -0.0077
 5209SOL    HW127089   4.156   0.753   3.498  1.3945 -0.2281  0.1989
 5209SOL    HW227090   4.063   0.636   3.479 -0.7286 -1.0191  0.3809
 5210SOL     OW27091   3.723   1.130  14.892  0.8072  0.5627 -0.5400
 5210SOL    HW127092   3.680   1.049  14.867 -1.6306  0.0936  5.2043
 5210SOL    HW227093   3.653   1.169  14.943  1.2975  0.1706  0.4327
 5211SOL     OW27094   2.993   0.917   6.822  0.7876 -0.3358 -0.1384
 5211SOL    HW127095   2.986   0.905   6.727  2.5746 -0.1046 -0.3019
 5211SOL    HW227096   3.085   0.944   6.824  0.6165  0.3414 -1.4727
 5212SOL     OW27097   3.185   1.680   6.305  0.8779 -0.2668  0.1584
 5212SOL    HW127098   3.103   1.728   6.303  0.6703 -0.4973  2.5429
 5212SOL    HW227099   3.208   1.661   6.396 -2.7297 -0.8069  0.9577
 5213SOL     OW27100   4.501   0.271   5.536  0.3370  0.0888  0.1183
 5213SOL    HW127101   4.419   0.319   5.530 -0.1109 -0.8397 -1.3583
 5213SOL    HW227102   4.545   0.288   5.453 -1.1668 -2.6404 -1.2324
 5214SOL     OW27103   0.323   4.300   4.725  0.1737 -0.7879  0.6975
 5214SOL    HW127104   0.231   4.294   4.750 -0.1620 -0.2970 -0.4232
 5214SOL    HW227105   0.323   4.241   4.650  2.0579  1.4876 -1.0913
 5215SOL     OW27106   2.273   4.664   3.220  1.0334 -0.1293 -0.0127
 5215SOL    HW127107   2.362   4.674   3.185  0.7296 -3.5319 -1.8173
 5215SOL    HW227108   2.242   4.573   3.224  0.5705 -0.0467 -1.5363
 5216SOL     OW27109   1.929   3.644   2.299 -0.1779 -0.3008  0.0506
 5216SOL    HW127110   1.972   3.654   2.384  1.2900 -2.2176 -0.4728
 5216SOL    HW227111   1.837   3.640   2.327 -0.0763  0.5874  0.5145
 5217SOL     OW27112   1.984   0.361   5.386 -0.3153  0.6399 -0.0188
 5217SOL    HW127113   2.039   0.359   5.308  2.1229 -1.7348  1.7705
 5217SOL    HW227114   1.900   0.390   5.349  0.2788  1.5240 -0.6641
 5218SOL     OW27115   2.769   1.531  10.330  0.0422  0.0092 -0.2190
 5218SOL    HW127116   2.707   1.535  10.403  0.2604  2.7612 -0.1964
 5218SOL    HW227117   2.843   1.500  10.382  0.8635  0.7234 -0.9594
 5219SOL     OW27118   1.079   3.445   1.586 -0.3865 -0.3309  0.2172
 5219SOL    HW127119   1.052   3.521   1.534  1.0836  0.5986  0.7915
 5219SOL    HW227120   1.109   3.384   1.518 -0.7563 -1.2562  0.9013
 5220SOL     OW27121   1.000   1.354   2.209 -0.8377 -1.2006 -0.2034
 5220SOL    HW127122   0.971   1.411   2.280  2.3306 -0.9408  0.8790
 5220SOL    HW227123   0.978   1.401   2.128  0.4135 -1.1025 -0.4832
 5221SOL     OW27124   1.594   0.644   2.486  0.6769  0.0901  0.6841
 5221SOL    HW127125   1.647   0.620   2.411  1.1803  2.1666  0.3886
 5221SOL    HW227126   1.603   0.739   2.485 -0.7052  0.2013 -0.5688
 5222SOL     OW27127   1.609   0.280   4.139  0.2181 -0.0248  0.7831
 5222SOL    HW127128   1.648   0.316   4.059 -1.6375  2.2913  0.9125
 5222SOL    HW227129   1.521   0.300   4.107  0.0708 -2.5114 -0.3855
 5223SOL     OW27130   4.510   2.649   1.086  0.1268 -0.1025  0.0442
 5223SOL    HW127131   4.484   2.691   1.168  0.7515  1.9907 -0.8205
 5223SOL    HW227132   4.511   2.717   1.019  0.6712 -1.2120 -1.0718
 5224SOL     OW27133   0.926   2.542  16.402  0.8232 -0.0076  0.8112
 5224SOL    HW127134   0.887   2.506  16.323  0.9426 -1.8797  1.6179
 5224SOL    HW227135   0.963   2.625  16.371  0.1882  0.4682  1.3132
 5225SOL     OW27136   4.085   3.836   4.873  0.2114  0.6703 -0.2664
 5225SOL    HW127137   4.161   3.808   4.823 -0.4209 -0.6129 -0.4939
 5225SOL    HW227138   4.083   3.929   4.848  1.1579  0.6480 -0.4036
 5226SOL     OW27139   4.671   3.945   4.522 -0.2901 -0.0107 -0.3136
 5226SOL    HW127140   4.722   3.868   4.548  0.2462  0.2181 -0.6878
 5226SOL    HW227141   0.014   4.000   4.482 -0.1123  0.6465  0.8819
 5227SOL     OW27142   0.419   2.395   5.032  0.1008 -0.2010 -0.3318
 5227SOL    HW127143   0.421   2.326   4.966 -0.3775  0.9817 -1.5945
 5227SOL    HW227144   0.355   2.356   5.092  1.6078  0.8187  1.9552
 5228SOL     OW27145   4.203   3.684   7.808  0.6163 -0.2046 -0.1887
 5228SOL    HW127146   4.286   3.651   7.772  0.4585  0.1922 -0.9210
 5228SOL    HW227147   4.205   3.780   7.798  3.3909 -0.2853 -0.5723
 5229SOL     OW27148   2.169   1.149  16.160  0.5929  0.5776  0.4946
 5229SOL    HW127149   2.185   1.234  16.202  0.5264  1.4470 -1.2442
 5229SOL    HW227150   2.103   1.117  16.222 -0.4771  0.1219 -0.8842
 5230SOL     OW27151   2.832   0.712  16.408  0.0539 -0.5295 -0.0950
 5230SOL    HW127152   2.818   0.630  16.455  1.3616  0.0120  1.2518
 5230SOL    HW227153   2.921   0.732  16.438 -0.3792  1.7986 -0.3865
 5231SOL     OW27154   0.327   0.957   2.199 -0.3175 -0.1537  0.5668
 5231SOL    HW127155   0.271   1.005   2.139  1.2209 -1.6608 -2.1038
 5231SOL    HW227156   0.267   0.893   2.238 -0.8153 -0.9303 -1.4892
 5232SOL     OW27157   1.415   2.562   8.372 -0.6236  1.1428  0.0431
 5232SOL    HW127158   1.467   2.490   8.407 -1.3313 -0.0026 -1.2793
 5232SOL    HW227159   1.438   2.629   8.436  1.4061  0.4173  0.0938
 5233SOL     OW27160   1.719   1.002  13.990  0.1457 -0.1514  0.0833
 5233SOL    HW127161   1.628   1.027  13.971 -0.1362 -1.6980 -0.5499
 5233SOL    HW227162   1.744   0.930  13.933 -1.0502 -0.8448  0.4260
 5234SOL     OW27163   4.352   2.087   6.299  0.1598  0.5160  0.2910
 5234SOL    HW127164   4.349   1.994   6.275 -0.5510  0.4002  0.8082
 5234SOL    HW227165   4.334   2.088   6.393  1.4524  1.5292  0.5301
 5235SOL     OW27166   1.311   2.895   3.234 -1.0192  0.1948  0.2287
 5235SOL    HW127167   1.227   2.866   3.269 -0.3052 -2.3977 -0.1344
 5235SOL    HW227168   1.334   2.951   3.308 -0.9146  1.8424 -1.0585
 5236SOL     OW27169   1.879   4.207  10.340 -0.3685  0.3814 -0.0295
 5236SOL    HW127170   1.943   4.140  10.367  0.2309  1.4714  1.2629
 5236SOL    HW227171   1.899   4.271  10.408 -2.7419  1.5989 -0.4873
 5237SOL     OW27172   4.522   0.312   9.735  0.0628  0.0654  0.1539
 5237SOL    HW127173   4.552   0.349   9.652  1.2041 -2.0633 -0.3720
 5237SOL    HW227174   4.528   0.221   9.705  1.8132  0.5199 -0.8733
 5238SOL     OW27175   2.391   3.445   2.758 -0.5165 -0.4535  0.0756
 5238SOL    HW127176   2.312   3.418   2.711  1.1368 -2.6718 -1.4516
 5238SOL    HW227177   2.348   3.449   2.844 -1.5259 -1.1699 -0.3929
 5239SOL     OW27178   1.937   3.942   6.059 -0.0105  0.3942  0.1403
 5239SOL    HW127179   1.851   3.974   6.033 -0.4902 -0.3490  0.7998
 5239SOL    HW227180   1.932   3.918   6.152 -2.1360  2.0280  0.4333
 5240SOL     OW27181   1.497   0.792   6.201  0.8231 -0.4024  0.3971
 5240SOL    HW127182   1.432   0.831   6.260 -1.8620  0.2795 -2.9996
 5240SOL    HW227183   1.569   0.790   6.264  0.9030  0.1575  0.3213
 5241SOL     OW27184   3.223   3.456  11.444  0.3901 -0.1818 -0.1076
 5241SOL    HW127185   3.238   3.540  11.402 -0.0306  1.3085  2.7467
 5241SOL    HW227186   3.313   3.422  11.439  0.7305  0.8170 -0.6759
 5242SOL     OW27187   4.203   3.654   8.800  0.4139 -0.3214  0.4208
 5242SOL    HW127188   4.181   3.561   8.801  0.7983 -0.4092  0.5001
 5242SOL    HW227189   4.280   3.658   8.744  0.1116 -0.8189 -0.0315
 5243SOL     OW27190   4.647   4.639   3.456 -0.0563  0.3649  0.2849
 5243SOL    HW127191   4.622   4.658   3.366 -0.5405 -1.0742  0.1175
 5243SOL    HW227192   0.001   4.589   3.436 -0.9357 -0.4891 -1.0017
 5244SOL     OW27193   3.487   0.229   1.773 -0.1471  0.3099  0.2464
 5244SOL    HW127194   3.410   0.286   1.774  0.3197  0.9412 -0.5085
 5244SOL    HW227195   3.537   0.281   1.710  0.9754 -2.8311 -1.4540
 5245SOL     OW27196   0.107   1.417   7.991  0.3943 -0.4218  0.2455
 5245SOL    HW127197   0.058   1.478   7.937  2.4391  1.1465  0.1836
 5245SOL    HW227198   0.181   1.393   7.935 -0.0811 -1.1593 -0.0611
 5246SOL     OW27199   1.259   3.219   6.328 -0.0807  0.3096 -0.0243
 5246SOL    HW127200   1.284   3.214   6.235 -2.1719  1.0796 -0.6177
 5246SOL    HW227201   1.297   3.138   6.361  0.1133  0.0870 -0.7988
 5247SOL     OW27202   4.529   3.959   3.660  0.9154  0.4320 -0.3129
 5247SOL    HW127203   4.508   3.980   3.569 -1.2734  0.7984  0.2626
 5247SOL    HW227204   4.457   4.006   3.703  1.5818  1.4987 -0.3567
 5248SOL     OW27205   0.686   4.408   8.770 -0.5082 -0.0025 -0.1989
 5248SOL    HW127206   0.733   4.333   8.806  2.7849  1.2838 -1.7531
 5248SOL    HW227207   0.759   4.470   8.778 -1.0461  0.6400 -0.2776
 5249SOL     OW27208   4.444   3.625   9.235 -0.5820  0.3673 -0.0256
 5249SOL    HW127209   4.417   3.555   9.177 -0.6441  0.6540 -0.3377
 5249SOL    HW227210   4.372   3.618   9.297 -0.9154 -0.4201 -0.5027
 5250SOL     OW27211   3.756   3.603  13.147  0.3041 -0.2435 -0.8114
 5250SOL    HW127212   3.733   3.553  13.225 -1.3659  3.1725  0.8573
 5250SOL    HW227213   3.792   3.684  13.184 -3.3523 -0.5465  3.3149
 5251SOL     OW27214   0.805   4.201   2.900  0.2266  0.0911  0.5194
 5251SOL    HW127215   0.897   4.224   2.885 -0.4722  2.4346 -0.1613
 5251SOL    HW227216   0.783   4.230   2.988 -1.6384  1.9515 -0.5563
 5252SOL     OW27217   1.994   3.399   9.421 -0.2464 -0.3567  0.3654
 5252SOL    HW127218   1.975   3.456   9.495 -0.1862  0.4188 -0.2114
 5252SOL    HW227219   2.038   3.325   9.464 -1.2833 -0.7046  0.8239
 5253SOL     OW27220   3.805   1.966   2.631  0.7687 -0.1650 -0.3160
 5253SOL    HW127221   3.761   2.047   2.655 -1.1496 -1.4688  0.5737
 5253SOL    HW227222   3.738   1.921   2.580  1.3977 -1.0215 -0.3865
 5254SOL     OW27223   3.032   1.187   2.322  0.4481 -0.0368 -0.5299
 5254SOL    HW127224   2.959   1.151   2.372 -0.1365  1.7295 -0.1041
 5254SOL    HW227225   3.036   1.117   2.257 -0.0207  1.4915 -2.1869
 5255SOL     OW27226   2.888   1.191  14.977  0.4110 -0.4379  0.5711
 5255SOL    HW127227   2.845   1.156  14.899 -1.3490  1.7618  0.5528
 5255SOL    HW227228   2.829   1.263  15.001  0.0151 -0.5133 -0.1674
 5256SOL     OW27229   0.969   0.882   3.247 -0.0267  0.1237  0.3630
 5256SOL    HW127230   0.928   0.796   3.247  1.2912 -0.5033 -1.1857
 5256SOL    HW227231   1.009   0.896   3.161 -0.3984  1.4287  0.3969
 5257SOL     OW27232   1.638   1.967   2.554 -0.1035  0.1146  0.2821
 5257SOL    HW127233   1.543   1.961   2.545 -0.3157  0.2472  2.2997
 5257SOL    HW227234   1.646   2.060   2.576 -1.6578 -0.2951  2.6797
 5258SOL     OW27235   3.017   0.091  15.820 -0.0687  0.1599 -0.5840
 5258SOL    HW127236   3.087   0.085  15.884 -0.7435 -1.3853  0.0148
 5258SOL    HW227237   3.043   0.019  15.763 -0.2945 -0.1907 -0.2458
 5259SOL     OW27238   4.467   0.611   5.478 -0.2801 -0.1614 -0.0450
 5259SOL    HW127239   4.546   0.627   5.425  1.0706  0.7674  2.2562
 5259SOL    HW227240   4.397   0.587   5.417  0.0968 -0.1728 -0.4738
 5260SOL     OW27241   4.592   1.060   1.444  0.4794  0.3822  0.0549
 5260SOL    HW127242   4.607   1.084   1.353 -1.2871 -0.7311 -0.5140
 5260SOL    HW227243   4.678   1.035   1.479  1.2825  1.3077 -1.2330
 5261SOL     OW27244   0.415   3.917  15.578 -0.3563 -0.1361 -0.8230
 5261SOL    HW127245   0.491   3.898  15.633 -1.3527  1.6210  1.1542
 5261SOL    HW227246   0.437   4.007  15.556  0.3513 -0.0662  0.2083
 5262SOL     OW27247   4.188   2.100   6.826 -0.0670 -0.2604  0.2489
 5262SOL    HW127248   4.135   2.096   6.906  2.7534  1.2501  2.1946
 5262SOL    HW227249   4.271   2.138   6.855  1.0602 -1.5014 -1.3579
 5263SOL     OW27250   1.704   2.132   7.416  0.7556  0.4022  0.0957
 5263SOL    HW127251   1.646   2.156   7.343 -0.6514 -0.1013  1.0523
 5263SOL    HW227252   1.657   2.166   7.492 -1.7781  0.9891 -1.6959
 5264SOL     OW27253   0.956   2.114   9.320  0.2074 -0.1935 -0.3305
 5264SOL    HW127254   0.929   2.112   9.229 -1.0686  2.8545 -0.0301
 5264SOL    HW227255   0.875   2.157   9.348  0.9553 -0.5306  2.3629
 5265SOL     OW27256   4.630   3.737  12.259  0.2710 -0.4775  0.6106
 5265SOL    HW127257   4.662   3.677  12.192 -1.0185 -0.4277 -0.0268
 5265SOL    HW227258   4.658   3.687  12.336  1.4796  0.4242  0.7722
 5266SOL     OW27259   2.109   4.360  15.319  0.8793  0.2776 -0.3381
 5266SOL    HW127260   2.162   4.423  15.271  2.9786 -0.4664  1.0415
 5266SOL    HW227261   2.069   4.416  15.385  2.3397  1.9874 -0.9369
 5267SOL     OW27262   1.989   0.726   3.616 -0.5351 -0.0740 -0.2428
 5267SOL    HW127263   1.974   0.697   3.526  0.8372 -2.0589  0.1572
 5267SOL    HW227264   2.083   0.747   3.622 -0.3506 -1.3744  1.6470
 5268SOL     OW27265   1.646   4.649   4.447  0.0924  0.2704  0.2744
 5268SOL    HW127266   1.661   4.682   4.358  1.4346  0.2026  0.4702
 5268SOL    HW227267   1.605   4.564   4.429  0.8115  0.2359 -1.2421
 5269SOL     OW27268   1.886   3.064   2.795 -0.0833 -0.4379  0.6204
 5269SOL    HW127269   1.921   2.988   2.748 -0.4898 -0.3801  0.2292
 5269SOL    HW227270   1.803   3.072   2.749  0.9707 -0.6960 -1.3504
 5270SOL     OW27271   0.098   0.044  15.089 -0.1187  0.1666 -0.3836
 5270SOL    HW127272   0.082   4.705  15.019  1.9774 -1.8849  0.9954
 5270SOL    HW227273   0.042   0.007  15.158 -0.1697  0.0712 -0.4750
 5271SOL     OW27274   3.029   2.129   2.397 -0.5315 -0.0102 -0.2009
 5271SOL    HW127275   2.993   2.072   2.328  0.5556 -2.0522  0.9139
 5271SOL    HW227276   2.965   2.200   2.394 -0.3090  0.2536  1.1705
 5272SOL     OW27277   3.671   2.735  12.111  0.7784 -0.3170  0.0437
 5272SOL    HW127278   3.667   2.807  12.174  1.8254 -0.7972  0.6539
 5272SOL    HW227279   3.593   2.751  12.059  1.1150 -0.1797 -0.4217
 5273SOL     OW27280   1.371   4.060   0.732 -0.3135  0.0892 -0.4343
 5273SOL    HW127281   1.302   4.049   0.666 -1.4055  0.7026  0.6014
 5273SOL    HW227282   1.408   3.971   0.730  0.7542  0.4738  2.7811
 5274SOL     OW27283   3.442   2.621   0.260  0.5790 -0.1739 -0.2984
 5274SOL    HW127284   3.531   2.599   0.288  1.0483  1.1888 -0.7092
 5274SOL    HW227285   3.394   2.625   0.342 -0.6075  0.9292 -1.0416
 5275SOL     OW27286   2.598   1.876   2.394 -0.1692  0.5540  0.0694
 5275SOL    HW127287   2.640   1.961   2.380  0.1527  0.2632 -0.7244
 5275SOL    HW227288   2.572   1.847   2.307  1.0290 -1.2694  0.3247
 5276SOL     OW27289   3.553   4.696  17.140 -1.0045 -0.4082 -0.2486
 5276SOL    HW127290   3.548   4.686  17.045  0.2063 -1.5798 -0.1970
 5276SOL    HW227291   3.547   4.609  17.180  0.9845  0.0262  0.9516
 5277SOL     OW27292   3.181   3.240   4.667 -0.0294 -0.0377  0.0600
 5277SOL    HW127293   3.103   3.291   4.688 -0.1339 -0.3031  0.3140
 5277SOL    HW227294   3.227   3.236   4.751 -1.1631 -0.0378  0.6736
 5278SOL     OW27295   4.026   3.648   2.427  0.5981  0.1499 -0.5147
 5278SOL    HW127296   4.102   3.695   2.392  0.3713  2.0142  1.4330
 5278SOL    HW227297   3.961   3.718   2.421 -0.4668 -0.7426  0.5604
 5279SOL     OW27298   4.206   0.027   6.558  0.0292  0.7707 -0.5223
 5279SOL    HW127299   4.173   4.690   6.493 -1.4981  0.0141  0.9573
 5279SOL    HW227300   4.227   0.098   6.497  0.1954 -0.4504 -1.8766
 5280SOL     OW27301   2.981   1.544   1.952  0.3756  0.1603 -0.1619
 5280SOL    HW127302   2.932   1.614   1.995  1.3733  0.7978 -0.0377
 5280SOL    HW227303   2.919   1.509   1.889  1.7456 -0.1595 -1.3396
 5281SOL     OW27304   4.184   2.015   1.264 -0.2276 -0.4082 -0.6647
 5281SOL    HW127305   4.217   2.006   1.175 -0.6053  1.3920 -0.9901
 5281SOL    HW227306   4.198   1.926   1.298 -0.1588  0.0149  0.4093
 5282SOL     OW27307   0.854   1.220  12.849 -0.1064 -0.1440 -0.4193
 5282SOL    HW127308   0.788   1.216  12.780 -0.5701  0.2201  0.0049
 5282SOL    HW227309   0.873   1.312  12.833  0.2466 -0.2412 -0.5613
 5283SOL     OW27310   1.842   1.775   3.866  0.4721  0.3539 -0.4687
 5283SOL    HW127311   1.796   1.739   3.791  0.4209  1.0548 -0.7816
 5283SOL    HW227312   1.922   1.817   3.834  1.6902 -0.3348  1.6674
 5284SOL     OW27313   1.001   0.825   9.471 -0.4062 -0.2810  0.5611
 5284SOL    HW127314   0.993   0.897   9.408  0.9978 -0.2493  0.4231
 5284SOL    HW227315   1.094   0.801   9.468 -0.3647  0.1025 -1.5500
 5285SOL     OW27316   1.190   2.296   5.466 -0.1793  0.7931  0.2798
 5285SOL    HW127317   1.230   2.285   5.380  0.6775  2.9755  0.4078
 5285SOL    HW227318   1.159   2.386   5.464 -2.0299  0.1585  0.0511
 5286SOL     OW27319   4.602   4.619   7.484  0.0270 -0.0078 -0.4326
 5286SOL    HW127320   4.609   4.566   7.564 -0.3214 -2.9256 -2.3231
 5286SOL    HW227321   4.693   4.651   7.481  0.1707 -0.7617 -4.2403
 5287SOL     OW27322   1.392   3.061  12.321  0.4767 -0.1791  0.6712
 5287SOL    HW127323   1.315   3.102  12.283  2.5696  2.8202 -0.3645
 5287SOL    HW227324   1.387   3.115  12.399  2.8940 -0.7079  1.1868
 5288SOL     OW27325   3.812   3.479  12.918  0.5255  0.7587  0.4507
 5288SOL    HW127326   3.807   3.523  13.003  1.7014 -3.0238  2.4687
 5288SOL    HW227327   3.883   3.524  12.872  1.4343 -1.4695 -0.3199
 5289SOL     OW27328   4.320   3.565   4.259 -0.1672 -0.3258  0.2394
 5289SOL    HW127329   4.280   3.643   4.297 -0.0454  1.1269 -2.6037
 5289SOL    HW227330   4.240   3.518   4.237  0.2866 -1.0012  0.0267
 5290SOL     OW27331   1.384   2.862   7.976  0.4349  0.0359  0.0875
 5290SOL    HW127332   1.348   2.844   8.063  1.5736  1.6295  0.8952
 5290SOL    HW227333   1.336   2.796   7.926  0.6364  1.8662 -2.5413
 5291SOL     OW27334   1.801   1.498   6.035  0.2512  0.0720 -0.1260
 5291SOL    HW127335   1.782   1.463   5.948  0.4563 -0.8535  0.2022
 5291SOL    HW227336   1.715   1.497   6.076 -0.1549 -0.7732 -1.0065
 5292SOL     OW27337   3.093   4.446   3.109 -0.1284  0.1797  0.5793
 5292SOL    HW127338   2.999   4.449   3.125 -0.1970 -0.3584  0.2881
 5292SOL    HW227339   3.089   4.355   3.078  0.8320  0.2368  0.3020
 5293SOL     OW27340   0.772   1.366   4.932  0.5338  0.7092 -0.2438
 5293SOL    HW127341   0.734   1.336   4.850  1.1163 -0.0462 -0.2338
 5293SOL    HW227342   0.755   1.288   4.984 -1.0395  1.3395  0.1810
 5294SOL     OW27343   0.887   3.487  11.762 -0.3979 -0.2008 -0.0283
 5294SOL    HW127344   0.943   3.419  11.798 -1.1584 -0.2172  1.1410
 5294SOL    HW227345   0.808   3.448  11.799 -0.0944 -0.7288  0.0564
 5295SOL     OW27346   0.976   2.578   6.820 -0.0066 -0.2365  0.2477
 5295SOL    HW127347   0.984   2.626   6.903 -0.2710  2.3614 -1.2399
 5295SOL    HW227348   0.881   2.568   6.824 -0.4030  3.7369  0.9099
 5296SOL     OW27349   3.291   1.216  13.068 -0.9881 -0.0097  0.2297
 5296SOL    HW127350   3.361   1.181  13.124  0.3803  0.0878 -1.4114
 5296SOL    HW227351   3.341   1.229  12.987 -2.3309 -0.2295 -0.6358
 5297SOL     OW27352   3.524   1.137   4.063  0.2009 -0.1224  0.3700
 5297SOL    HW127353   3.593   1.200   4.041 -0.7512 -0.5064 -3.7580
 5297SOL    HW227354   3.538   1.068   3.998  1.6522  1.3416 -0.8758
 5298SOL     OW27355   1.816   3.104   4.874  0.1552 -0.2928 -0.2675
 5298SOL    HW127356   1.784   3.044   4.807 -0.4640  0.2268 -0.4445
 5298SOL    HW227357   1.901   3.066   4.897  0.0006  0.0748  0.8970
 5299SOL     OW27358   2.021   2.231   5.912  0.2158  0.8678 -0.2117
 5299SOL    HW127359   2.068   2.153   5.941  1.4457  1.0570 -1.6657
 5299SOL    HW227360   1.964   2.189   5.847  1.0120  0.9214 -0.9518
 5300SOL     OW27361   0.683   4.283   7.624 -0.2903 -0.1945 -0.1509
 5300SOL    HW127362   0.709   4.367   7.585  0.5728 -1.6274 -2.6189
 5300SOL    HW227363   0.625   4.260   7.552  1.2116 -0.0603 -1.3779
 5301SOL     OW27364   3.057   2.558   5.154 -0.9176 -0.0756 -0.4595
 5301SOL    HW127365   3.124   2.493   5.134 -2.7457 -1.5080 -1.9484
 5301SOL    HW227366   3.106   2.638   5.171  0.7507 -1.2720  0.3873
 5302SOL     OW27367   1.113   4.676   4.759 -0.1380 -0.1619  0.1443
 5302SOL    HW127368   1.101   4.700   4.851 -0.6836 -0.5936  0.1877
 5302SOL    HW227369   1.031   4.705   4.720  0.6646  0.1127 -1.3165
 5303SOL     OW27370   2.961   2.752   4.098  0.0241 -0.2055 -0.2600
 5303SOL    HW127371   3.024   2.719   4.034  0.5095 -1.3065  0.7876
 5303SOL    HW227372   2.910   2.800   4.032  0.9763 -0.9920 -1.5609
 5304SOL     OW27373   2.932   2.808   8.622 -0.6416 -0.4490  0.2384
 5304SOL    HW127374   2.972   2.882   8.576  0.2653 -1.6773 -0.9181
 5304SOL    HW227375   2.859   2.789   8.563 -1.2834 -0.8600  1.1559
 5305SOL     OW27376   0.154   0.502   7.434 -0.2601 -0.2103 -0.0645
 5305SOL    HW127377   0.218   0.449   7.480 -1.7831 -2.4248 -0.5043
 5305SOL    HW227378   0.116   0.563   7.498 -2.7816 -1.6055 -0.2400
 5306SOL     OW27379   4.650   3.225   6.310  0.3228  0.1010 -0.1515
 5306SOL    HW127380   4.609   3.214   6.396 -0.3628 -0.7334 -0.5761
 5306SOL    HW227381   0.017   3.205   6.326  0.3315  0.0172 -0.3086
 5307SOL     OW27382   3.323   0.083  13.919  0.0008  0.4128  0.6116
 5307SOL    HW127383   3.281   0.169  13.913 -2.3997 -0.7182  1.3173
 5307SOL    HW227384   3.282   0.044  13.996  0.7264 -2.3131 -0.3940
 5308SOL     OW27385   4.225   1.355  15.573 -0.2270 -0.1690 -0.5644
 5308SOL    HW127386   4.267   1.375  15.489 -1.5480  0.8027 -1.0118
 5308SOL    HW227387   4.244   1.263  15.591  1.1134  0.4489  1.1095
 5309SOL     OW27388   3.799   3.257  13.290  0.2103  0.2222 -0.0987
 5309SOL    HW127389   3.876   3.308  13.315 -1.5312  2.2154  1.3165
 5309SOL    HW227390   3.726   3.310  13.323 -0.3293 -0.4301 -0.2488
 5310SOL     OW27391   0.047   1.994   1.811  0.1332  0.2310 -0.2208
 5310SOL    HW127392   4.715   2.065   1.840  1.1566 -0.2841  3.0246
 5310SOL    HW227393   0.080   2.031   1.729  0.0408  0.9012  0.0480
 5311SOL     OW27394   2.238   0.830   5.506 -0.9437 -0.0997 -0.6083
 5311SOL    HW127395   2.300   0.792   5.444 -1.4308  1.7032 -2.2101
 5311SOL    HW227396   2.158   0.822   5.454 -0.9986 -1.0224 -0.3919
 5312SOL     OW27397   2.278   4.077   8.803  0.0926  0.1761  0.1808
 5312SOL    HW127398   2.326   4.024   8.738  0.4144 -0.6377  1.0909
 5312SOL    HW227399   2.194   4.032   8.791  0.0132 -0.0783  1.7349
 5313SOL     OW27400   3.865   3.032  11.892  0.1693 -0.2432  0.2799
 5313SOL    HW127401   3.896   3.092  11.960  1.3276 -1.6990  1.0141
 5313SOL    HW227402   3.784   3.078  11.870  0.5909  1.4637  2.2859
 5314SOL     OW27403   0.090   4.505   8.783 -0.0704  0.1607 -0.0082
 5314SOL    HW127404   4.724   4.529   8.805 -0.5204 -0.7506 -0.8630
 5314SOL    HW227405   0.094   4.520   8.688  4.3636 -0.2428  0.1214
 5315SOL     OW27406   1.671   3.491   4.562 -0.5680 -0.2514 -0.0991
 5315SOL    HW127407   1.697   3.573   4.604  3.1535 -0.9795 -0.8883
 5315SOL    HW227408   1.757   3.448   4.558  1.3180  3.4187  0.7088
 5316SOL     OW27409   1.078   3.412  12.572 -0.4623  0.3436 -0.8339
 5316SOL    HW127410   1.020   3.483  12.541  0.7388  2.2878  1.3627
 5316SOL    HW227411   1.022   3.343  12.608  0.3587  0.7621  1.2572
 5317SOL     OW27412   2.764   0.311   3.281  0.4937 -0.0509 -0.2869
 5317SOL    HW127413   2.750   0.217   3.289  1.4951  0.0212  2.5161
 5317SOL    HW227414   2.819   0.331   3.357  1.9704  1.0108 -1.6385
 5318SOL     OW27415   0.154   1.765   6.503  0.4803 -0.1081  0.1245
 5318SOL    HW127416   0.105   1.843   6.476  0.1963 -0.9354 -1.7820
 5318SOL    HW227417   0.088   1.696   6.510  1.9803 -1.3333  2.0760
 5319SOL     OW27418   3.696   0.764   1.744 -0.5281 -0.2913  0.1274
 5319SOL    HW127419   3.725   0.673   1.752 -0.5276 -0.3362 -0.3493
 5319SOL    HW227420   3.605   0.755   1.717 -1.0208 -0.2666  1.7882
 5320SOL     OW27421   2.939   1.551  16.662 -0.1622  0.1910 -0.1168
 5320SOL    HW127422   3.030   1.581  16.666  0.0675 -0.3032 -1.4680
 5320SOL    HW227423   2.935   1.588  16.573 -0.5236  1.9952  0.6440
 5321SOL     OW27424   2.782   3.178   6.680 -0.1848 -0.1573 -0.0956
 5321SOL    HW127425   2.706   3.166   6.737 -0.1919  1.3059  0.2149
 5321SOL    HW227426   2.732   3.191   6.600 -1.4655 -2.3093  0.3663
 5322SOL     OW27427   3.953   1.718  10.898 -0.0269 -0.2650 -0.5407
 5322SOL    HW127428   4.028   1.753  10.849  0.1131 -0.6780 -0.6245
 5322SOL    HW227429   3.965   1.625  10.916 -1.2899 -0.8813 -2.7699
 5323SOL     OW27430   1.173   1.164   4.186  0.6228  0.3888  0.1589
 5323SOL    HW127431   1.231   1.235   4.160  0.0035  1.2525  1.1510
 5323SOL    HW227432   1.101   1.186   4.127  0.5453  3.4337  1.3896
 5324SOL     OW27433   2.418   4.189  13.832  0.2522  0.0051 -0.3179
 5324SOL    HW127434   2.508   4.222  13.831  0.0458  0.5428 -1.4047
 5324SOL    HW227435   2.403   4.189  13.926 -0.1548 -1.9944 -0.3789
 5325SOL     OW27436   0.520   4.444   5.730 -0.6135  0.3847  0.1165
 5325SOL    HW127437   0.589   4.380   5.745 -0.2853  0.3855 -1.3523
 5325SOL    HW227438   0.441   4.409   5.771 -0.6319 -1.0188 -1.0894
 5326SOL     OW27439   3.272   0.429   4.839  0.2962  0.0479 -0.2614
 5326SOL    HW127440   3.334   0.472   4.780  1.5834  1.5393  2.1856
 5326SOL    HW227441   3.298   0.475   4.918 -0.6754 -0.1631  0.1863
 5327SOL     OW27442   0.819   2.420  12.061 -0.3314  0.3037 -0.1346
 5327SOL    HW127443   0.814   2.515  12.072  1.7697  0.2851  0.9643
 5327SOL    HW227444   0.900   2.409  12.013 -0.1200  1.1372  0.0349
 5328SOL     OW27445   0.015   3.818   5.968  0.2910 -0.2652  0.3764
 5328SOL    HW127446   0.026   3.730   5.932  2.3423 -0.2512  0.9552
 5328SOL    HW227447   0.044   3.798   6.057  2.1152 -1.8943 -0.5922
 5329SOL     OW27448   4.690   3.720   9.275  0.4018  0.0647 -0.3007
 5329SOL    HW127449   0.006   3.634   9.264 -0.7035 -0.4677 -0.1595
 5329SOL    HW227450   4.605   3.697   9.240  0.4416 -2.4474  1.2963
 5330SOL     OW27451   0.055   2.383   6.323  0.6618 -0.1372  0.3578
 5330SOL    HW127452   0.068   2.291   6.300  3.0936  0.3507 -0.2300
 5330SOL    HW227453   4.687   2.381   6.295  0.3501 -0.7510  1.4437
 5331SOL     OW27454   0.798   4.403   6.321  0.0671  0.4953  0.0201
 5331SOL    HW127455   0.829   4.336   6.382 -0.5025 -1.1826 -1.5422
 5331SOL    HW227456   0.863   4.398   6.252  0.8266  0.9864  0.7009
 5332SOL     OW27457   0.656   0.200   5.254  0.2911  0.8579  0.3293
 5332SOL    HW127458   0.581   0.256   5.234 -0.9850 -0.9477  0.1100
 5332SOL    HW227459   0.702   0.195   5.170 -1.3960  1.4388 -0.6394
 5333SOL     OW27460   2.077   0.895  13.329 -0.0266 -0.1843 -0.0974
 5333SOL    HW127461   2.009   0.829  13.342  1.1616 -1.6251 -1.2702
 5333SOL    HW227462   2.053   0.956  13.399  1.6193  1.0690 -0.6317
 5334SOL     OW27463   0.003   2.673  16.598 -0.2580  0.5604  0.1726
 5334SOL    HW127464   0.082   2.636  16.636 -0.3306 -0.6251 -0.8098
 5334SOL    HW227465   0.050   2.739  16.548  1.5969 -1.9183 -1.3914
 5335SOL     OW27466   3.760   3.446   6.876 -0.6651 -0.1693  0.4649
 5335SOL    HW127467   3.667   3.446   6.896 -1.1878  1.9634 -1.9437
 5335SOL    HW227468   3.777   3.540   6.887  2.2051 -0.0184 -5.3140
 5336SOL     OW27469   3.300   2.818  16.730 -0.1517  0.2245  0.8056
 5336SOL    HW127470   3.297   2.904  16.687  2.2618 -0.0501  0.1335
 5336SOL    HW227471   3.353   2.769  16.668  2.0730  0.8846  2.2129
 5337SOL     OW27472   3.650   0.163   3.460  0.0938 -0.3677  0.2662
 5337SOL    HW127473   3.707   0.134   3.389 -1.1884 -2.5717  0.1479
 5337SOL    HW227474   3.690   0.123   3.537  2.9773  1.0564 -0.4865
 5338SOL     OW27475   1.179   3.629  16.970 -0.0838 -0.6496  0.0843
 5338SOL    HW127476   1.182   3.578  16.889 -2.2812 -0.5614 -0.0525
 5338SOL    HW227477   1.138   3.710  16.938  0.0482 -1.3187 -1.7874
 5339SOL     OW27478   3.350   0.692   8.311  0.2643  0.3361 -0.3344
 5339SOL    HW127479   3.415   0.762   8.310  1.6311 -0.9430  0.1633
 5339SOL    HW227480   3.344   0.676   8.217  1.2486 -1.9729  0.0078
 5340SOL     OW27481   0.387   1.207   6.991 -0.0406  0.2336 -0.7402
 5340SOL    HW127482   0.356   1.169   7.073 -1.3035  1.6914 -0.5402
 5340SOL    HW227483   0.480   1.185   6.995  0.0101  0.9967  2.3402
 5341SOL     OW27484   0.570   1.988   5.561 -0.0008  0.3183  0.0572
 5341SOL    HW127485   0.479   2.003   5.586  0.0873  0.9822 -0.0213
 5341SOL    HW227486   0.611   2.055   5.616 -1.4321  1.7715 -0.6537
 5342SOL     OW27487   1.830   3.663   3.763 -0.1786  0.1244  0.4722
 5342SOL    HW127488   1.921   3.653   3.734 -0.1665  1.0910  0.1803
 5342SOL    HW227489   1.844   3.649   3.857 -3.8624  0.5607  1.0673
 5343SOL     OW27490   0.851   4.644   9.519 -0.3674  0.0345  0.3981
 5343SOL    HW127491   0.762   4.649   9.551 -0.9938 -2.7999 -0.8915
 5343SOL    HW227492   0.838   4.689   9.435 -0.2781  1.1275  0.9625
 5344SOL     OW27493   3.389   3.659  15.897  0.7052 -0.4374 -0.4628
 5344SOL    HW127494   3.394   3.599  15.972 -1.2166  2.0143  1.6496
 5344SOL    HW227495   3.397   3.740  15.948 -0.6833 -1.5345  1.4934
 5345SOL     OW27496   2.528   1.811   6.303  0.0748 -0.0551  0.3349
 5345SOL    HW127497   2.435   1.827   6.288 -0.0182 -0.6196  0.3415
 5345SOL    HW227498   2.553   1.752   6.233 -0.3395 -1.3254  1.2619
 5346SOL     OW27499   3.012   2.120   9.211  0.7478  0.6342 -0.0471
 5346SOL    HW127500   2.933   2.067   9.224  0.7578 -0.2005 -3.3644
 5346SOL    HW227501   3.057   2.107   9.295 -1.6406  2.6943  1.5632
 5347SOL     OW27502   1.349   4.111   7.633  0.2406 -0.5823  0.4579
 5347SOL    HW127503   1.275   4.134   7.689 -0.4089  1.6047 -1.2858
 5347SOL    HW227504   1.325   4.025   7.598  4.7240 -2.0776  1.1029
 5348SOL     OW27505   4.415   1.256   1.526  0.3718  0.0419  0.2639
 5348SOL    HW127506   4.478   1.184   1.536  1.0230  0.9840  2.9150
 5348SOL    HW227507   4.442   1.293   1.441 -0.9723  0.9400  0.2384
 5349SOL     OW27508   0.194   1.293  14.219  0.6013  0.0636  0.6646
 5349SOL    HW127509   0.120   1.353  14.218 -0.1265 -0.7973  2.2546
 5349SOL    HW227510   0.197   1.274  14.313 -1.8405  0.3287  0.7954
 5350SOL     OW27511   0.339   0.214   0.477 -0.1936 -0.8204  0.1795
 5350SOL    HW127512   0.411   0.152   0.492 -0.2881 -0.6185  1.5101
 5350SOL    HW227513   0.359   0.254   0.392  0.2705  1.2298  1.2530
 5351SOL     OW27514   3.062   0.467   7.287 -0.0179 -0.1624  0.8299
 5351SOL    HW127515   2.998   0.432   7.225  0.1308  1.8154 -0.4427
 5351SOL    HW227516   3.129   0.506   7.230 -0.4923 -0.5250  0.0378
 5352SOL     OW27517   2.831   3.586   6.428  0.7410 -0.8140 -0.4612
 5352SOL    HW127518   2.855   3.562   6.518 -0.8892 -1.6131 -0.2467
 5352SOL    HW227519   2.858   3.503   6.388 -2.3065 -0.4076 -3.2784
 5353SOL     OW27520   3.673   3.405   9.232  0.1944 -0.6634 -0.2898
 5353SOL    HW127521   3.676   3.495   9.201 -3.2854 -0.6391 -0.5669
 5353SOL    HW227522   3.643   3.354   9.157 -1.2936 -0.2578  0.0260
 5354SOL     OW27523   2.033   0.535   6.629 -0.2651  0.7271  0.1530
 5354SOL    HW127524   2.124   0.552   6.602 -0.2608  1.1363  0.4378
 5354SOL    HW227525   1.980   0.598   6.580 -0.7439 -0.2911 -0.6524
 5355SOL     OW27526   3.085   1.301   7.417 -0.0952 -0.0166  0.2108
 5355SOL    HW127527   3.002   1.343   7.439  0.5087  0.3149  1.8418
 5355SOL    HW227528   3.073   1.272   7.326  1.8681  1.0616 -0.3876
 5356SOL     OW27529   3.265   1.713  10.910  0.0107 -0.0259 -0.3865
 5356SOL    HW127530   3.245   1.625  10.941 -0.6856  1.0445  2.2006
 5356SOL    HW227531   3.331   1.696  10.843 -2.1073  0.8687 -2.6830
 5357SOL     OW27532   1.035   4.153   5.571 -0.4458 -0.2252 -0.7807
 5357SOL    HW127533   1.089   4.077   5.597  2.3825  2.6259  1.7011
 5357SOL    HW227534   0.947   4.120   5.586 -0.4778  0.8333  1.3526
 5358SOL     OW27535   3.060   0.234   2.725  0.0344  0.5440  0.2741
 5358SOL    HW127536   3.008   0.312   2.705  0.1627  0.5788  0.0683
 5358SOL    HW227537   3.003   0.169   2.765  0.3014 -0.0090 -0.2372
 5359SOL     OW27538   1.937   3.411   0.612  0.2058  0.1416  0.5956
 5359SOL    HW127539   1.925   3.441   0.703 -1.0590  1.6258 -0.0659
 5359SOL    HW227540   1.977   3.326   0.631  2.1921  1.2889  1.5297
 5360SOL     OW27541   0.534   1.401   1.898 -0.1078 -0.1738  0.0534
 5360SOL    HW127542   0.454   1.439   1.862  1.3550  1.5145 -1.4101
 5360SOL    HW227543   0.521   1.306   1.888  0.1808 -0.2695  0.5813
 5361SOL     OW27544   0.797   1.341   7.402  0.1740  0.2469  0.1255
 5361SOL    HW127545   0.849   1.311   7.328  0.3535 -0.1757  0.4183
 5361SOL    HW227546   0.723   1.281   7.415  0.5831  0.1539  2.1086
 5362SOL     OW27547   2.948   4.596   3.736 -0.1452 -0.6193 -0.0058
 5362SOL    HW127548   2.923   4.504   3.749 -1.9456  0.1864  2.1086
 5362SOL    HW227549   3.012   4.573   3.668 -0.0912  0.4971 -0.3345
 5363SOL     OW27550   1.597   4.231   1.071 -0.0126 -0.0125  0.6845
 5363SOL    HW127551   1.526   4.239   1.008 -1.1095 -2.0583  1.6505
 5363SOL    HW227552   1.652   4.306   1.049 -0.1297 -0.3884 -0.8282
 5364SOL     OW27553   3.539   4.596   0.651  0.1221 -0.2999  0.0048
 5364SOL    HW127554   3.565   4.506   0.671 -0.0072  0.0920  1.9364
 5364SOL    HW227555   3.521   4.577   0.559  1.4012 -2.5116  0.2073
 5365SOL     OW27556   2.709   4.508   0.660 -0.2775 -0.1133 -0.5292
 5365SOL    HW127557   2.700   4.490   0.753  0.2533  1.2717 -0.2080
 5365SOL    HW227558   2.719   4.603   0.668 -3.3866  0.3089 -1.6605
 5366SOL     OW27559   1.321   2.182  11.588 -0.6854  0.0493 -0.3662
 5366SOL    HW127560   1.309   2.089  11.569  1.1004  0.2468 -2.5042
 5366SOL    HW227561   1.350   2.227  11.509  0.6740  0.2208  0.2213
 5367SOL     OW27562   2.269   4.638   3.684 -0.0846 -0.4228 -0.5056
 5367SOL    HW127563   2.218   4.583   3.743 -1.6731  3.8284  2.0531
 5367SOL    HW227564   2.354   4.644   3.728  0.1257  0.2026 -1.0089
 5368SOL     OW27565   4.219   2.499   2.707  0.2701  0.0831 -0.7788
 5368SOL    HW127566   4.306   2.462   2.716  0.1440  0.2027  0.9365
 5368SOL    HW227567   4.182   2.429   2.652  1.1577 -1.6164  0.8158
 5369SOL     OW27568   2.439   3.169  16.831 -0.4735 -0.6239  0.5433
 5369SOL    HW127569   2.487   3.248  16.806  1.3098 -2.7455 -2.8338
 5369SOL    HW227570   2.477   3.148  16.916 -0.9030 -2.2017  0.3485
 5370SOL     OW27571   1.746   0.904   8.427 -0.5393  0.1505 -0.3275
 5370SOL    HW127572   1.826   0.933   8.384 -0.6621  1.1271  0.0980
 5370SOL    HW227573   1.720   0.829   8.374 -3.4475  0.3355  0.8005
 5371SOL     OW27574   3.762   3.124   3.195  0.3408 -0.3765  0.1658
 5371SOL    HW127575   3.705   3.059   3.236  2.0319 -1.6518  0.4942
 5371SOL    HW227576   3.747   3.205   3.244 -0.2519 -0.5399  0.2602
 5372SOL     OW27577   0.647   0.897   4.820  0.1114 -0.3469  0.7361
 5372SOL    HW127578   0.619   0.809   4.798 -0.4177 -0.2809  1.1403
 5372SOL    HW227579   0.681   0.868   4.905  1.2562 -1.1763 -0.0079
 5373SOL     OW27580   1.849   2.794   9.295 -0.3486 -0.3462  0.0085
 5373SOL    HW127581   1.754   2.788   9.305 -0.4256  2.8896  1.2483
 5373SOL    HW227582   1.882   2.737   9.364  2.7271  1.9452  0.4620
 5374SOL     OW27583   2.679   4.217   6.245 -0.1417  0.5189 -0.2146
 5374SOL    HW127584   2.615   4.188   6.310 -1.7390 -0.9627 -2.4636
 5374SOL    HW227585   2.694   4.134   6.201  1.3489 -0.9190  3.0051
 5375SOL     OW27586   2.478   1.036   8.698  0.3876  0.1705  0.2229
 5375SOL    HW127587   2.412   0.975   8.732 -1.2368  1.7959 -0.0295
 5375SOL    HW227588   2.437   1.119   8.720 -0.6135  0.2802 -2.0509
 5376SOL     OW27589   1.011   3.034   7.885 -0.1143  0.6230 -0.0333
 5376SOL    HW127590   1.066   2.966   7.846  1.5844  2.5377 -0.9768
 5376SOL    HW227591   1.051   3.051   7.970 -1.2153 -0.3633  0.6813
 5377SOL     OW27592   3.700   3.730   8.678  0.2509  0.3395 -0.2343
 5377SOL    HW127593   3.718   3.807   8.733  1.7016  2.1317 -3.1772
 5377SOL    HW227594   3.778   3.716   8.625  1.6357  0.3886  1.7938
 5378SOL     OW27595   1.663   1.714  16.020 -0.5479 -0.6758 -0.3367
 5378SOL    HW127596   1.719   1.750  15.951 -1.0766 -0.0368 -0.4233
 5378SOL    HW227597   1.599   1.782  16.038  1.7837  0.7051  2.5929
 5379SOL     OW27598   4.082   3.596  13.769  0.2616  0.2297 -0.1340
 5379SOL    HW127599   4.099   3.684  13.733  1.2110  0.6515  1.3667
 5379SOL    HW227600   4.132   3.535  13.715  1.8956  0.5468  1.0283
 5380SOL     OW27601   2.107   3.350   1.032  0.2106 -0.2663 -0.1268
 5380SOL    HW127602   2.165   3.297   0.977  1.4646  1.2208 -0.2248
 5380SOL    HW227603   2.167   3.388   1.096  1.4947 -0.1178 -1.4119
 5381SOL     OW27604   0.105   4.085  15.539 -0.6165 -0.2609 -0.1409
 5381SOL    HW127605   0.085   4.141  15.465  1.4185  0.8515  0.1367
 5381SOL    HW227606   0.075   4.143  15.609 -0.2001 -0.2947  0.0676
 5382SOL     OW27607   3.797   3.419   7.445  0.7317 -0.2457 -0.4647
 5382SOL    HW127608   3.803   3.448   7.354 -1.4078  2.3764  0.2369
 5382SOL    HW227609   3.814   3.504   7.485 -3.3507 -0.3129  1.3368
 5383SOL     OW27610   0.327   0.264   8.424  0.5050 -0.2841  0.2439
 5383SOL    HW127611   0.392   0.259   8.354  1.3351 -3.0467  1.2020
 5383SOL    HW227612   0.384   0.298   8.493  0.3452 -0.2883  0.3793
 5384SOL     OW27613   1.976   1.289   4.514 -0.1845  0.4334 -0.2424
 5384SOL    HW127614   1.935   1.347   4.450  1.8047  1.6600 -0.4203
 5384SOL    HW227615   1.927   1.208   4.500 -1.4375  1.0919  0.3655
 5385SOL     OW27616   1.623   2.651   0.978 -0.5877  0.0354  0.2903
 5385SOL    HW127617   1.592   2.560   0.972 -0.6568 -0.0003  1.1493
 5385SOL    HW227618   1.623   2.664   1.073  0.3764 -1.2708  0.4673
 5386SOL     OW27619   2.155   3.735  11.392 -0.3588  0.3862 -0.8718
 5386SOL    HW127620   2.069   3.692  11.393  1.0315 -2.2553  1.1884
 5386SOL    HW227621   2.185   3.702  11.307  1.5504 -2.2201  0.8640
 5387SOL     OW27622   2.639   1.315  15.033 -0.2986 -0.4259 -0.1695
 5387SOL    HW127623   2.585   1.304  14.954 -0.1032 -0.7162 -0.2606
 5387SOL    HW227624   2.607   1.242  15.085  1.5032 -0.9583  0.1935
 5388SOL     OW27625   4.640   0.886   8.663  0.3155  0.2307 -0.2621
 5388SOL    HW127626   4.603   0.953   8.720 -1.5457 -2.3030  1.5287
 5388SOL    HW227627   4.711   0.934   8.620  0.2871  0.5885  0.0953
 5389SOL     OW27628   0.156   2.317   7.568  0.1483  0.0617 -0.2716
 5389SOL    HW127629   0.223   2.334   7.635 -1.4681  2.0217  0.8478
 5389SOL    HW227630   0.164   2.397   7.516 -1.9670  1.0704  0.9726
 5390SOL     OW27631   1.828   3.885  17.273 -0.8614 -0.5274 -0.2161
 5390SOL    HW127632   1.744   3.842  17.259 -0.2936 -3.0408  4.2190
 5390SOL    HW227633   1.832   3.868  17.367  2.6112  2.0316  0.1206
 5391SOL     OW27634   1.524   2.739   5.589 -0.4008 -0.0932 -0.1311
 5391SOL    HW127635   1.588   2.696   5.532 -0.1505 -1.2628  1.0213
 5391SOL    HW227636   1.473   2.664   5.621 -1.2584  0.8693  0.7462
 5392SOL     OW27637   1.213   3.870   8.567 -0.5067 -0.3021  0.2867
 5392SOL    HW127638   1.118   3.879   8.579 -0.5158  0.0928 -0.1100
 5392SOL    HW227639   1.249   3.839   8.651  2.0053 -0.1810 -0.7665
 5393SOL     OW27640   4.408   1.584   4.784 -0.6088 -0.8891  0.0435
 5393SOL    HW127641   4.341   1.640   4.746  0.8533  2.1903  1.9808
 5393SOL    HW227642   4.455   1.560   4.704  0.0454 -1.5141  0.6162
 5394SOL     OW27643   1.279   4.256   3.348  0.0617 -0.4252 -0.1319
 5394SOL    HW127644   1.249   4.291   3.264  0.3751 -3.1213 -1.3759
 5394SOL    HW227645   1.371   4.280   3.345  0.3018 -1.3195 -0.0674
 5395SOL     OW27646   0.593   0.379   4.295 -0.8025  0.1849  0.5412
 5395SOL    HW127647   0.685   0.400   4.280 -0.2786 -1.9895  0.7785
 5395SOL    HW227648   0.567   0.327   4.219 -0.7484  3.7220 -1.9070
 5396SOL     OW27649   0.707   3.955   6.203 -0.4436  0.2379 -0.1843
 5396SOL    HW127650   0.711   3.875   6.150  2.5783  0.3484 -0.1314
 5396SOL    HW227651   0.617   3.978   6.177 -0.0943 -0.1150 -1.7227
 5397SOL     OW27652   4.319   3.992   3.414 -0.9811 -0.1990 -0.2543
 5397SOL    HW127653   4.286   4.078   3.441  0.0595  0.8206 -2.2337
 5397SOL    HW227654   4.395   4.019   3.363 -1.0142 -0.1087 -0.2558
 5398SOL     OW27655   3.681   3.383   0.062 -0.6280  1.0812 -0.0530
 5398SOL    HW127656   3.750   3.450   0.063 -1.2273  1.6631  1.2211
 5398SOL    HW227657   3.603   3.431   0.088 -0.3247  2.2055 -1.1581
 5399SOL     OW27658   1.098   2.577   6.536  0.0355 -0.4394 -0.2227
 5399SOL    HW127659   1.067   2.588   6.626 -0.4960  2.0943 -0.7007
 5399SOL    HW227660   1.190   2.556   6.554 -0.2298 -1.0570  0.4021
 5400SOL     OW27661   4.341   4.178   6.746  0.2406 -0.2236  0.7007
 5400SOL    HW127662   4.249   4.196   6.766  0.7641  1.2237  1.7942
 5400SOL    HW227663   4.361   4.217   6.661 -2.9330 -3.3713 -1.4789
 5401SOL     OW27664   0.004   2.676   1.826 -0.0024 -0.7134  0.4278
 5401SOL    HW127665   4.722   2.628   1.908 -0.0639 -1.0168  0.2441
 5401SOL    HW227666   0.089   2.718   1.841  0.2671 -1.4905  1.0363
 5402SOL     OW27667   0.297   2.541   6.040 -0.2582  0.3877  0.0390
 5402SOL    HW127668   0.321   2.540   6.133  0.6901 -0.6621 -0.2093
 5402SOL    HW227669   0.211   2.584   6.041 -1.1684 -1.4152 -2.3703
 5403SOL     OW27670   1.410   2.022   7.988 -0.0958 -0.0554 -0.0051
 5403SOL    HW127671   1.375   2.108   8.012 -0.0760  0.5401 -2.0906
 5403SOL    HW227672   1.496   2.052   7.959  1.1292 -3.0421  0.5884
 5404SOL     OW27673   2.744   3.471   4.841 -0.1902 -0.1349 -0.0560
 5404SOL    HW127674   2.710   3.549   4.886 -0.4177  0.0864 -0.6183
 5404SOL    HW227675   2.696   3.478   4.759  0.9541 -0.5983 -0.7554
 5405SOL     OW27676   3.283   3.547   4.436 -0.5680  0.1879 -0.3802
 5405SOL    HW127677   3.347   3.574   4.370  0.5158 -2.8714 -0.5860
 5405SOL    HW227678   3.218   3.498   4.385  0.5185  1.9474 -3.4692
 5406SOL     OW27679   0.774   1.612   5.108 -0.5772  0.4986  0.3082
 5406SOL    HW127680   0.799   1.669   5.035 -1.4467 -0.8496 -1.0347
 5406SOL    HW227681   0.790   1.523   5.076 -0.7558  0.7102 -0.3853
 5407SOL     OW27682   1.349   3.529   9.763 -0.3284 -0.0278 -0.4256
 5407SOL    HW127683   1.434   3.572   9.773 -0.9446  0.2305  3.9857
 5407SOL    HW227684   1.314   3.524   9.853 -0.0210  1.6635 -0.2127
 5408SOL     OW27685   0.869   1.898   2.715 -0.3399  0.0027  0.4186
 5408SOL    HW127686   0.892   1.910   2.807 -0.2958 -1.0710  0.5405
 5408SOL    HW227687   0.867   1.803   2.715  2.7101 -0.0481  0.0370
 5409SOL     OW27688   4.639   0.067  14.286 -0.5043 -0.1629  0.1636
 5409SOL    HW127689   4.690   4.712  14.268 -0.9599 -0.2185 -0.8505
 5409SOL    HW227690   4.706   0.126  14.252 -0.0203 -0.9364 -0.2318
 5410SOL     OW27691   0.226   2.318   4.520  0.7538  0.7432  0.0079
 5410SOL    HW127692   0.220   2.223   4.514 -0.9594  0.9485 -1.6182
 5410SOL    HW227693   0.254   2.333   4.429  0.8048 -5.8242 -1.1008
 5411SOL     OW27694   0.302   3.766   1.245  0.1184  0.1620 -0.2031
 5411SOL    HW127695   0.366   3.706   1.207  1.8554  1.6182  0.4173
 5411SOL    HW227696   0.311   3.847   1.195  0.0470  0.7660  0.7613
 5412SOL     OW27697   4.520   1.373   1.751  0.8230 -0.2996  0.2055
 5412SOL    HW127698   4.482   1.315   1.817  2.8744 -0.8767  0.9018
 5412SOL    HW227699   4.476   1.339   1.674  1.4820  0.0979 -0.3459
 5413SOL     OW27700   3.237   3.282  14.080 -0.3634 -0.2444  0.1032
 5413SOL    HW127701   3.198   3.277  13.993  0.2766  1.5013 -0.2824
 5413SOL    HW227702   3.196   3.356  14.125 -0.3626 -0.6514  0.7735
 5414SOL     OW27703   4.419   2.159   4.395 -0.2147 -0.7050  0.2576
 5414SOL    HW127704   4.462   2.080   4.426  0.2989 -0.3682  0.4093
 5414SOL    HW227705   4.447   2.224   4.460  2.0725 -1.4135 -0.0264
 5415SOL     OW27706   1.233   0.678   6.071 -0.1552 -0.4153  0.1827
 5415SOL    HW127707   1.308   0.736   6.062 -0.2222 -0.2396  0.7528
 5415SOL    HW227708   1.177   0.736   6.123 -1.4025 -2.8148  1.4986
 5416SOL     OW27709   2.077   0.793  13.753 -0.1204  0.3775  0.1656
 5416SOL    HW127710   2.013   0.856  13.720  0.0590  0.8066  0.6361
 5416SOL    HW227711   2.127   0.828  13.827 -0.0512  0.6106  0.0077
 5417SOL     OW27712   4.435   0.840   7.641 -0.0621 -0.0411  0.4845
 5417SOL    HW127713   4.468   0.925   7.614  0.4387 -0.8810 -1.5059
 5417SOL    HW227714   4.380   0.864   7.716  0.3542  0.8366  0.5003
 5418SOL     OW27715   4.525   3.975   6.686 -0.4446 -0.2126  0.1419
 5418SOL    HW127716   4.504   3.882   6.681 -0.2716 -0.1272 -2.0182
 5418SOL    HW227717   4.452   4.013   6.737 -0.8592 -1.0397  0.1586
 5419SOL     OW27718   1.817   1.044   3.887 -0.3478 -0.1627 -0.6816
 5419SOL    HW127719   1.784   1.023   3.800 -1.6561 -1.7869  0.2233
 5419SOL    HW227720   1.863   1.126   3.867  0.5183 -0.2168  1.0229
 5420SOL     OW27721   3.720   2.585   9.140  0.1676  0.0257 -0.0002
 5420SOL    HW127722   3.720   2.577   9.235  0.5867  1.1206  0.0972
 5420SOL    HW227723   3.806   2.626   9.127  0.3255 -0.5314 -0.6782
 5421SOL     OW27724   2.980   3.782  13.525  0.5229  0.6398  0.2197
 5421SOL    HW127725   2.998   3.689  13.514  0.5343  0.6450  0.1929
 5421SOL    HW227726   3.050   3.803  13.463  0.5605  0.2982  0.1512
 5422SOL     OW27727   3.841   3.621  10.006 -0.2478 -0.5698  0.1528
 5422SOL    HW127728   3.751   3.593   9.989 -0.0621 -1.1934  0.1958
 5422SOL    HW227729   3.847   3.615  10.101 -1.0160 -0.6778  0.1907
 5423SOL     OW27730   0.136   4.182   8.831  0.3482  0.5958  0.2508
 5423SOL    HW127731   0.198   4.133   8.778  0.5001 -2.0929  2.9195
 5423SOL    HW227732   0.063   4.169   8.771  2.1191 -1.3446 -1.4672
 5424SOL     OW27733   1.632   3.906  16.831 -0.1205  0.2231  0.6632
 5424SOL    HW127734   1.596   3.868  16.912  0.5222 -1.9378 -0.0558
 5424SOL    HW227735   1.714   3.860  16.814 -0.4442 -0.0509 -0.1736
 5425SOL     OW27736   3.752   0.758   9.637  0.2433 -0.2685 -0.5343
 5425SOL    HW127737   3.667   0.761   9.592  0.0660  2.3571 -0.0282
 5425SOL    HW227738   3.811   0.744   9.563  0.6067  1.1288 -0.5156
 5426SOL     OW27739   1.034   1.095   2.273  0.2159 -0.2299  0.1417
 5426SOL    HW127740   1.014   1.189   2.269  1.6445  0.2171  3.5687
 5426SOL    HW227741   0.952   1.072   2.229 -1.7409  3.7440  1.7221
 5427SOL     OW27742   0.937   2.156  10.281  0.5594  0.1578  0.0602
 5427SOL    HW127743   1.028   2.159  10.252 -0.0884 -0.5313 -2.0168
 5427SOL    HW227744   0.942   2.202  10.365  0.9631  0.8354 -0.3345
 5428SOL     OW27745   0.438   0.707   6.450 -0.7673 -0.1290  0.3333
 5428SOL    HW127746   0.469   0.718   6.360  0.2353 -3.8951  0.2081
 5428SOL    HW227747   0.464   0.783   6.503  0.4070 -0.8508  0.8070
 5429SOL     OW27748   2.550   1.718   6.054 -0.0863  0.3182  0.2844
 5429SOL    HW127749   2.592   1.723   5.968  0.9821 -0.0553  0.7759
 5429SOL    HW227750   2.499   1.637   6.046 -0.5055  0.5726  0.4187
 5430SOL     OW27751   3.856   1.609  17.179 -0.0093 -0.1031 -0.1657
 5430SOL    HW127752   3.833   1.565  17.097 -0.0133 -1.5644  0.6329
 5430SOL    HW227753   3.887   1.536  17.233  1.0471  0.2598 -0.2837
 5431SOL     OW27754   2.199   3.948   4.435  0.3028  0.0480 -0.1757
 5431SOL    HW127755   2.176   3.905   4.353  0.8396 -0.2798 -0.1586
 5431SOL    HW227756   2.292   3.925   4.444  0.1685 -0.4080  0.0664
 5432SOL     OW27757   3.588   3.126  14.630 -0.1040 -0.3785  0.1934
 5432SOL    HW127758   3.517   3.065  14.611  0.9661 -0.5732 -3.2130
 5432SOL    HW227759   3.614   3.167  14.548 -0.7869 -0.0852  0.1287
 5433SOL     OW27760   1.130   1.498  11.883  0.2718 -0.6945 -0.3785
 5433SOL    HW127761   1.214   1.511  11.840 -0.5688  0.5055 -1.6687
 5433SOL    HW227762   1.086   1.445  11.816  0.8996 -1.1918 -0.3896
 5434SOL     OW27763   0.576   0.488   1.728  0.3603 -0.0148 -0.4348
 5434SOL    HW127764   0.571   0.428   1.802  2.2587  0.9593  0.4797
 5434SOL    HW227765   0.644   0.447   1.675 -1.5853 -3.3895 -0.3798
 5435SOL     OW27766   0.783   0.153   8.169  0.3479  0.1691 -0.3065
 5435SOL    HW127767   0.842   0.228   8.165 -0.7447  0.9940 -1.1168
 5435SOL    HW227768   0.724   0.161   8.094 -0.4148  1.2130  0.4129
 5436SOL     OW27769   4.016   1.385   3.588  0.5038  0.8324 -0.1536
 5436SOL    HW127770   4.014   1.326   3.513 -1.4468 -0.7165  1.1346
 5436SOL    HW227771   4.106   1.382   3.621 -0.5695 -0.3760  2.6381
 5437SOL     OW27772   1.183   4.256   1.810 -0.3261  0.1113  0.1276
 5437SOL    HW127773   1.222   4.270   1.896 -0.4013 -0.3964  0.2404
 5437SOL    HW227774   1.220   4.174   1.779  1.7466  1.3024 -0.5588
 5438SOL     OW27775   0.619   1.953   3.743  0.4521  0.5579  0.6912
 5438SOL    HW127776   0.654   1.889   3.805  1.9039 -0.6511 -1.3900
 5438SOL    HW227777   0.596   1.888   3.677  4.1837  0.8967 -0.9427
 5439SOL     OW27778   1.375   1.336   6.145  0.7096  0.3662  0.1980
 5439SOL    HW127779   1.454   1.343   6.198  0.5810  1.0595  0.3036
 5439SOL    HW227780   1.402   1.275   6.076 -1.8871  0.4269 -0.9142
 5440SOL     OW27781   0.906   4.406   4.673 -0.1411 -0.1375  0.1230
 5440SOL    HW127782   0.820   4.413   4.631  0.3478 -2.3439 -1.2211
 5440SOL    HW227783   0.944   4.485   4.636 -1.3720 -0.2458 -1.3940
 5441SOL     OW27784   2.226   0.897   1.333 -0.0623 -0.7768 -0.0311
 5441SOL    HW127785   2.154   0.958   1.316  1.1881 -0.0218 -2.7182
 5441SOL    HW227786   2.190   0.815   1.299  0.0209 -0.4148 -1.0224
 5442SOL     OW27787   3.749   1.102  12.022 -0.0658  0.2253 -0.7444
 5442SOL    HW127788   3.678   1.045  11.991 -3.0895  2.8315  1.4636
 5442SOL    HW227789   3.734   1.092  12.116  2.7077 -0.8984 -0.3966
 5443SOL     OW27790   3.998   3.685   9.096 -0.6730  0.0230  0.2314
 5443SOL    HW127791   4.058   3.728   9.157 -2.1258  1.6468  0.4804
 5443SOL    HW227792   4.052   3.716   9.023  1.3430 -2.5278  0.6195
 5444SOL     OW27793   3.869   2.388   1.794 -0.6154  0.4952  0.7067
 5444SOL    HW127794   3.820   2.470   1.801 -0.9582  0.5372 -2.3640
 5444SOL    HW227795   3.806   2.324   1.760 -0.1696  0.3058  0.2342
 5445SOL     OW27796   2.856   3.845   7.158 -0.1206  0.4511 -0.2105
 5445SOL    HW127797   2.813   3.819   7.239  0.3492 -1.4974 -0.5872
 5445SOL    HW227798   2.790   3.908   7.130 -0.4719 -0.3898 -1.2807
 5446SOL     OW27799   1.770   0.704   4.048  0.1780  0.1578 -0.2875
 5446SOL    HW127800   1.709   0.646   4.094 -2.7741  3.4739 -0.0433
 5446SOL    HW227801   1.792   0.647   3.975 -0.5736 -0.0706 -0.3392
 5447SOL     OW27802   4.411   1.621   0.349 -0.9345 -0.2914 -0.6882
 5447SOL    HW127803   4.386   1.603   0.440  0.0034 -1.5583 -0.6871
 5447SOL    HW227804   4.477   1.690   0.356 -2.7078  1.4993 -1.4258
 5448SOL     OW27805   0.121   3.315  12.962  0.5551  0.2849  0.3090
 5448SOL    HW127806   0.123   3.226  12.925  1.4467  0.4414 -0.0199
 5448SOL    HW227807   0.028   3.337  12.960  0.4124 -0.4783 -1.1903
 5449SOL     OW27808   2.392   0.925   5.159 -0.2009 -0.4758 -0.6114
 5449SOL    HW127809   2.324   0.947   5.095 -0.9554  1.7235  0.9444
 5449SOL    HW227810   2.408   0.836   5.127 -0.7072 -1.1754  1.1404
 5450SOL     OW27811   1.387   3.269   4.993  0.3600  0.1462 -0.5116
 5450SOL    HW127812   1.402   3.176   5.012  0.4355  0.3657  0.4692
 5450SOL    HW227813   1.377   3.306   5.080  2.1731 -1.6046  0.4424
 5451SOL     OW27814   4.014   4.375   8.631  0.1601 -0.6474  0.0463
 5451SOL    HW127815   4.107   4.353   8.629  0.4310  0.5403 -0.4536
 5451SOL    HW227816   4.024   4.434   8.556  1.2665  0.2932  0.9263
 5452SOL     OW27817   4.299   2.512  14.769 -0.1443 -0.1169  0.3724
 5452SOL    HW127818   4.301   2.429  14.722 -2.2468  0.7642 -1.2930
 5452SOL    HW227819   4.235   2.513  14.840  1.4270  1.9157  1.7562
 5453SOL     OW27820   2.408   1.171   6.037 -0.5033 -0.1285  0.4953
 5453SOL    HW127821   2.338   1.207   5.983  1.2266 -0.8434 -2.2308
 5453SOL    HW227822   2.432   1.085   6.003 -0.5410  0.3387 -0.7086
 5454SOL     OW27823   1.820   0.290  14.726 -0.3854 -0.0544 -0.6576
 5454SOL    HW127824   1.909   0.315  14.749  0.2726 -2.5668 -0.4304
 5454SOL    HW227825   1.766   0.324  14.797  0.3036 -0.5551  0.1036
 5455SOL     OW27826   1.493   2.090   4.425  0.3352  0.2636  0.3231
 5455SOL    HW127827   1.447   2.067   4.345  1.7301  0.9112 -0.6675
 5455SOL    HW227828   1.414   2.105   4.477  1.4814  1.6686  1.6667
 5456SOL     OW27829   3.796   3.020   6.794  0.2153 -0.4376  0.8915
 5456SOL    HW127830   3.725   3.072   6.757 -0.4902  0.0839  2.9683
 5456SOL    HW227831   3.859   3.091   6.804 -1.1871  1.0313 -0.7159
 5457SOL     OW27832   0.473   4.696   2.940 -0.4982 -0.0403  0.2548
 5457SOL    HW127833   0.489   4.623   2.999 -0.0613 -2.9211 -3.3992
 5457SOL    HW227834   0.468   0.042   3.003 -1.7540 -0.7613  0.9609
 5458SOL     OW27835   1.190   0.417  10.681 -0.0024 -0.0257  0.0543
 5458SOL    HW127836   1.158   0.386  10.597  0.2867 -0.1326 -0.0172
 5458SOL    HW227837   1.133   0.492  10.698  2.2384  1.8111 -0.5464
 5459SOL     OW27838   0.547   1.885   8.596 -0.2972  0.3681 -0.2738
 5459SOL    HW127839   0.513   1.901   8.684 -1.2089  3.3165 -1.1853
 5459SOL    HW227840   0.509   1.802   8.566 -0.1711 -0.4958  1.9056
 5460SOL     OW27841   3.680   2.004  16.838  0.0308 -0.0681 -0.3166
 5460SOL    HW127842   3.601   2.017  16.891  1.0246  2.0024  0.6381
 5460SOL    HW227843   3.732   2.081  16.862 -0.1815 -0.9517  3.0324
 5461SOL     OW27844   0.736   0.200   5.005  0.2877  0.2026  0.0296
 5461SOL    HW127845   0.765   0.190   4.915  1.3504  2.6126  0.1133
 5461SOL    HW227846   0.644   0.194   4.977 -0.4294  0.2216  2.3615
 5462SOL     OW27847   1.306   1.569   9.110  0.2802  0.2948  0.0112
 5462SOL    HW127848   1.220   1.576   9.068  1.2223 -3.3724 -2.5471
 5462SOL    HW227849   1.347   1.647   9.072 -0.3602 -0.1806 -1.6804
 5463SOL     OW27850   1.197   3.198   3.196  0.1667  0.1265  0.5099
 5463SOL    HW127851   1.288   3.192   3.168  0.2654 -1.6927  1.2064
 5463SOL    HW227852   1.151   3.227   3.117 -0.1584 -0.1551  0.5953
 5464SOL     OW27853   2.946   0.960   7.477  0.4173 -0.2241  0.2279
 5464SOL    HW127854   2.901   0.987   7.557  1.2598 -2.9123  1.5913
 5464SOL    HW227855   2.967   0.870   7.500  4.3423  0.1364 -1.9825
 5465SOL     OW27856   3.317   2.745   6.315  0.0316  0.2973  0.6129
 5465SOL    HW127857   3.269   2.703   6.385 -1.2834  1.3954  0.3711
 5465SOL    HW227858   3.402   2.766   6.354  0.3003  1.5806 -0.6503
 5466SOL     OW27859   3.751   1.763  14.615 -0.3330  0.0672 -0.2514
 5466SOL    HW127860   3.700   1.709  14.675 -1.4398  1.2625 -0.1170
 5466SOL    HW227861   3.790   1.824  14.677  1.7605  0.1299 -1.6591
 5467SOL     OW27862   4.709   1.447   0.335  0.2529 -0.2701  0.0636
 5467SOL    HW127863   0.070   1.474   0.301  1.2006 -0.4034  2.3480
 5467SOL    HW227864   4.666   1.411   0.258 -0.7481  1.4822 -0.2173
 5468SOL     OW27865   2.072   3.006   4.919  0.8924  0.5877  0.0526
 5468SOL    HW127866   2.062   2.914   4.895 -2.1881  1.1224 -0.6519
 5468SOL    HW227867   2.166   3.024   4.924  1.1278 -0.0085 -1.9745
 5469SOL     OW27868   3.184   4.582   4.861 -0.0237  0.0750  0.0098
 5469SOL    HW127869   3.104   4.532   4.845 -0.6954  0.9709  0.5446
 5469SOL    HW227870   3.245   4.509   4.857 -0.9912 -0.7231 -0.1847
 5470SOL     OW27871   3.335   0.644  10.967  0.0598 -0.0958  0.3360
 5470SOL    HW127872   3.290   0.642  11.052 -1.0463  1.9496 -0.1978
 5470SOL    HW227873   3.255   0.646  10.914  0.2077 -1.6882  0.0766
 5471SOL     OW27874   0.733   4.458   1.504  0.5127 -0.3501  0.2062
 5471SOL    HW127875   0.687   4.518   1.563  1.0075  2.0100 -1.8134
 5471SOL    HW227876   0.705   4.385   1.560  0.8979 -0.4636  0.2508
 5472SOL     OW27877   0.896   1.614   2.735  0.2828 -0.1762 -0.4321
 5472SOL    HW127878   0.815   1.562   2.728 -0.2776  0.7402 -0.7082
 5472SOL    HW227879   0.944   1.579   2.810 -0.8330  0.2488  0.4849
 5473SOL     OW27880   1.010   3.888   6.564 -0.2690 -0.3324 -0.7343
 5473SOL    HW127881   1.062   3.955   6.609 -0.2926  1.3297 -3.1723
 5473SOL    HW227882   0.951   3.844   6.624  1.7951  0.5743  1.9597
 5474SOL     OW27883   2.714   2.044   6.275  0.5763  0.5053 -0.1008
 5474SOL    HW127884   2.806   2.059   6.295 -0.1706  2.8440  1.5422
 5474SOL    HW227885   2.683   1.977   6.336 -0.6205 -0.0656 -1.3402
 5475SOL     OW27886   0.258   0.543   7.791 -0.0585 -0.5632  0.0321
 5475SOL    HW127887   0.214   0.587   7.864 -0.0682 -0.7123  0.1151
 5475SOL    HW227888   0.194   0.476   7.770  1.2915 -1.7659 -0.1861
 5476SOL     OW27889   3.456   2.091   4.943  0.3399 -0.3000 -0.1638
 5476SOL    HW127890   3.458   2.156   4.873  2.2078  0.1566  0.2980
 5476SOL    HW227891   3.549   2.071   4.950  1.1399  3.0089 -1.3100
 5477SOL     OW27892   0.480   1.761   2.930  0.2013 -0.7697  0.5107
 5477SOL    HW127893   0.485   1.689   2.993  2.1505 -0.7500  0.3908
 5477SOL    HW227894   0.518   1.835   2.977 -1.1351  0.3839 -0.2448
 5478SOL     OW27895   4.641   3.103   5.812  0.7269  0.1385 -0.3746
 5478SOL    HW127896   4.691   3.155   5.875  0.9500 -0.2425 -0.2372
 5478SOL    HW227897   4.681   3.017   5.821 -1.4385 -0.8383 -0.0513
 5479SOL     OW27898   2.410   2.250   3.725  0.3897  0.1339 -0.1119
 5479SOL    HW127899   2.367   2.169   3.752  0.1625 -0.3260 -1.8630
 5479SOL    HW227900   2.435   2.295   3.806 -2.3626 -1.0100  1.3817
 5480SOL     OW27901   4.423   2.429   8.266  0.1724  0.8322 -0.0875
 5480SOL    HW127902   4.428   2.524   8.270 -0.3411  0.8437  0.3031
 5480SOL    HW227903   4.451   2.413   8.176  0.5490  2.0017 -0.1839
 5481SOL     OW27904   0.636   3.955   7.550  0.1020  0.0614  0.0245
 5481SOL    HW127905   0.583   3.911   7.483  0.8788  0.9618 -1.1818
 5481SOL    HW227906   0.665   4.038   7.512  2.3875 -0.4240  0.7057
 5482SOL     OW27907   0.327   0.800   4.062 -0.2454 -0.1790 -0.2862
 5482SOL    HW127908   0.310   0.769   3.973 -2.1925 -1.3912  0.5299
 5482SOL    HW227909   0.334   0.721   4.114 -1.2848 -0.0947 -0.0215
 5483SOL     OW27910   1.355   4.527   7.322 -0.3384 -0.6218 -0.3238
 5483SOL    HW127911   1.374   4.437   7.350  2.2840 -0.1651 -0.6162
 5483SOL    HW227912   1.276   4.503   7.274 -0.5681 -1.6645  0.5631
 5484SOL     OW27913   1.305   4.529  17.466  0.0466 -0.1679 -0.9925
 5484SOL    HW127914   1.306   4.449  17.415  3.9377 -1.4008  1.0041
 5484SOL    HW227915   1.335   4.499  17.552  1.9840  4.3080 -0.0944
 5485SOL     OW27916   3.753   0.013   3.684  0.0046 -0.0034 -0.2122
 5485SOL    HW127917   3.830   0.067   3.664 -0.2666 -0.3772 -2.2099
 5485SOL    HW227918   3.787   4.650   3.702 -0.9949 -0.5647 -1.1041
 5486SOL     OW27919   3.566   2.030   9.072 -0.0649  0.1209  0.5625
 5486SOL    HW127920   3.648   2.065   9.039 -0.0348 -1.2173 -0.7384
 5486SOL    HW227921   3.566   1.963   9.004  1.2838  0.1536  0.5468
 5487SOL     OW27922   4.720   3.049  10.815 -0.2268  0.2990  0.2226
 5487SOL    HW127923   0.055   2.974  10.818  0.9978  1.2996  0.4502
 5487SOL    HW227924   4.666   3.037  10.737  0.3693  1.6574 -0.3953
 5488SOL     OW27925   3.064   3.315   7.973 -0.3504  0.1536 -0.3693
 5488SOL    HW127926   2.980   3.350   7.944 -0.5365  0.1962  0.2256
 5488SOL    HW227927   3.068   3.328   8.068  0.3897  2.0699 -0.6584
 5489SOL     OW27928   3.384   0.150  16.222 -0.2693  0.1081  0.0442
 5489SOL    HW127929   3.446   0.157  16.150 -1.5632  0.3213 -1.0451
 5489SOL    HW227930   3.436   0.187  16.294 -0.6289 -0.8057  0.7662
 5490SOL     OW27931   4.363   0.445   9.919  0.4295 -0.4946  0.2278
 5490SOL    HW127932   4.424   0.403   9.857  1.1267  2.3460 -0.9820
 5490SOL    HW227933   4.306   0.485   9.854  0.3451  1.3241  1.4390
 5491SOL     OW27934   1.930   3.843   6.308 -0.3640 -0.1933  0.1234
 5491SOL    HW127935   1.884   3.759   6.315 -1.1364  0.3821  1.8907
 5491SOL    HW227936   1.892   3.898   6.376  1.8068 -0.3861  1.4677
 5492SOL     OW27937   1.796   3.888  15.832  0.6504  0.4334 -0.4655
 5492SOL    HW127938   1.829   3.955  15.892  0.3328 -0.0901  0.2922
 5492SOL    HW227939   1.703   3.905  15.839  0.8881  0.6873  2.0683
 5493SOL     OW27940   4.604   3.891   8.315  0.1360 -0.2212  0.1934
 5493SOL    HW127941   4.575   3.860   8.401 -0.9920  4.6139  1.5612
 5493SOL    HW227942   4.601   3.987   8.317  0.7114 -0.1688 -1.5919
 5494SOL     OW27943   2.328   3.929  17.105  0.3418 -0.3395  0.0887
 5494SOL    HW127944   2.350   3.853  17.050 -2.6640  0.5155 -2.2730
 5494SOL    HW227945   2.233   3.923  17.107  0.3225 -0.9326 -2.5266
 5495SOL     OW27946   1.298   0.509   6.453 -0.1175  0.8713  0.5071
 5495SOL    HW127947   1.289   0.414   6.446  1.7771  0.7296 -0.0709
 5495SOL    HW227948   1.357   0.511   6.528 -0.4426  2.2966  0.7301
 5496SOL     OW27949   0.235   2.918   9.089  0.1917 -0.2863  0.5312
 5496SOL    HW127950   0.306   2.973   9.057  1.1591 -1.3021  0.9392
 5496SOL    HW227951   0.236   2.851   9.021  3.3290  1.7959 -1.4866
 5497SOL     OW27952   2.345   2.373   2.258  0.2773  0.7058  0.0448
 5497SOL    HW127953   2.430   2.334   2.281  0.4209  0.4362 -0.9392
 5497SOL    HW227954   2.320   2.320   2.182  1.8657  0.0664 -0.0441
 5498SOL     OW27955   1.082   2.926   1.435  0.1144 -0.3110  0.0464
 5498SOL    HW127956   1.036   2.969   1.506  1.2669  1.0230 -0.0159
 5498SOL    HW227957   1.085   3.003   1.378  0.9418 -1.9205 -2.1203
 5499SOL     OW27958   4.430   3.302   7.413  0.9160 -0.2129  0.4549
 5499SOL    HW127959   4.388   3.345   7.338  0.3769  0.9584  1.4272
 5499SOL    HW227960   4.481   3.374   7.449  2.4173 -0.2497 -1.6246
 5500SOL     OW27961   3.114   1.841   3.939 -0.2891 -0.2723  0.3420
 5500SOL    HW127962   3.160   1.757   3.931  1.6253  0.6520  1.5524
 5500SOL    HW227963   3.060   1.832   4.017  1.3016  0.8190  1.5744
 5501SOL     OW27964   3.931   3.224  14.910 -0.0831 -0.0944  0.1874
 5501SOL    HW127965   4.009   3.275  14.885  1.0080 -1.8411  0.0611
 5501SOL    HW227966   3.954   3.212  15.002 -0.0350  0.8404  0.2974
 5502SOL     OW27967   3.980   3.268   8.443  0.6259  0.3168 -0.2810
 5502SOL    HW127968   3.910   3.256   8.509 -1.9380 -0.2265 -3.1014
 5502SOL    HW227969   4.058   3.238   8.490  0.8010 -1.6941 -1.8663
 5503SOL     OW27970   2.367   4.183   2.045  0.2209 -0.5071 -0.4521
 5503SOL    HW127971   2.323   4.125   1.983 -0.9810 -0.0896  0.0062
 5503SOL    HW227972   2.316   4.264   2.052  0.3770 -0.4674  0.1820
 5504SOL     OW27973   1.647   3.862   8.935  0.7772  0.0570  0.0985
 5504SOL    HW127974   1.582   3.897   8.875  1.4932  0.0350 -0.6908
 5504SOL    HW227975   1.721   3.917   8.908  1.0586 -1.1408 -1.4986
 5505SOL     OW27976   1.717   3.835   3.353 -0.0536  0.2842  0.2216
 5505SOL    HW127977   1.774   3.847   3.277  2.0329  1.4521  1.9740
 5505SOL    HW227978   1.628   3.844   3.320  0.2809  0.4156 -0.6551
 5506SOL     OW27979   1.798   3.747   3.058  0.2852  0.1591  0.0154
 5506SOL    HW127980   1.751   3.816   3.013 -0.1775  0.0027  0.2578
 5506SOL    HW227981   1.855   3.713   2.989 -1.1349 -0.8945 -0.6477
 5507SOL     OW27982   3.661   3.518   5.804 -0.2026 -0.0410 -0.6146
 5507SOL    HW127983   3.672   3.574   5.881  1.4046 -0.3641 -0.6193
 5507SOL    HW227984   3.691   3.433   5.835  0.4164  0.6109  0.5928
 5508SOL     OW27985   2.256   2.265  10.217 -0.0752 -0.5562 -0.3284
 5508SOL    HW127986   2.307   2.300  10.144  0.2603 -0.9357 -0.2762
 5508SOL    HW227987   2.256   2.176  10.181 -0.2383 -0.3563 -0.8178
 5509SOL     OW27988   1.098   3.306   8.772 -0.4868  0.1634 -0.2409
 5509SOL    HW127989   1.035   3.237   8.794 -0.3256  0.4521  1.1340
 5509SOL    HW227990   1.183   3.266   8.788 -1.0516 -0.9312  0.0504
 5510SOL     OW27991   2.464   3.724   2.571 -0.2575  0.2412  0.1503
 5510SOL    HW127992   2.513   3.681   2.502 -1.1382 -0.8311  0.1876
 5510SOL    HW227993   2.440   3.803   2.522  3.1655  1.3283  0.2520
 5511SOL     OW27994   2.828   1.664   9.648  0.4455 -0.3058 -0.3714
 5511SOL    HW127995   2.817   1.759   9.650 -1.2370 -0.5099  0.5995
 5511SOL    HW227996   2.795   1.640   9.734 -0.6493  0.3501 -0.6110
 5512SOL     OW27997   4.069   4.614   9.153 -0.4058 -0.6120 -0.7308
 5512SOL    HW127998   4.064   4.533   9.204  1.2557 -1.0559 -1.2786
 5512SOL    HW227999   4.002   4.614   9.085 -1.9372  0.8579  0.7734
 5513SOL     OW28000   2.516   0.402   3.701 -0.6054  0.3483 -1.1944
 5513SOL    HW128001   2.430   0.361   3.689  0.5388 -2.4156  0.0273
 5513SOL    HW228002   2.500   0.481   3.650 -1.5670 -0.1068 -1.5940
 5514SOL     OW28003   1.333   2.900  14.667 -0.2785 -0.2503  0.7033
 5514SOL    HW128004   1.245   2.876  14.636 -1.0901  3.8796 -0.3227
 5514SOL    HW228005   1.354   2.973  14.608  1.1803  0.0190  1.5690
 5515SOL     OW28006   4.068   4.655   5.461  0.0128  0.1110 -0.0182
 5515SOL    HW128007   4.130   4.588   5.434  2.0025  1.7549  0.4575
 5515SOL    HW228008   3.984   4.633   5.421  0.5646 -1.5251 -0.2560
 5516SOL     OW28009   0.083   0.631   2.768  0.0343 -0.3900 -0.2135
 5516SOL    HW128010   0.069   0.607   2.676 -0.0636  0.9370 -0.5552
 5516SOL    HW228011   0.012   0.695   2.775  0.3733 -0.0457  0.0436
 5517SOL     OW28012   0.736   1.802   7.960 -0.0862 -0.0472 -0.9899
 5517SOL    HW128013   0.705   1.713   7.976 -1.7546  0.7073 -0.0033
 5517SOL    HW228014   0.789   1.810   8.039 -0.6753 -1.8349 -0.3918
 5518SOL     OW28015   2.006   1.723   6.900  0.2473  0.2546 -0.0144
 5518SOL    HW128016   2.073   1.724   6.832 -1.0290 -1.3915 -1.3123
 5518SOL    HW228017   2.016   1.813   6.931 -0.4529  0.5645 -0.6845
 5519SOL     OW28018   0.467   2.776  11.639  0.2387  0.0716  0.3254
 5519SOL    HW128019   0.377   2.784  11.671 -0.4225 -0.7496 -1.3591
 5519SOL    HW228020   0.524   2.804  11.711  1.3108  0.8813 -0.8345
 5520SOL     OW28021   3.272   4.596   1.127  0.3638  0.5349  0.4095
 5520SOL    HW128022   3.322   4.515   1.117 -0.5426  0.1845 -1.3322
 5520SOL    HW228023   3.346   4.657   1.123  0.7995  0.1021  2.1864
 5521SOL     OW28024   0.097   2.560   7.415 -0.1289  0.6917 -0.6490
 5521SOL    HW128025   0.067   2.562   7.324  0.7407 -0.8581 -0.9744
 5521SOL    HW228026   0.030   2.612   7.459  1.5277  2.0665  0.2480
 5522SOL     OW28027   3.949   4.217  17.380  0.4814 -0.0520  0.2486
 5522SOL    HW128028   3.884   4.286  17.372  0.7606 -0.0537 -1.8586
 5522SOL    HW228029   3.919   4.164  17.307  2.8125 -0.8555 -0.1332
 5523SOL     OW28030   3.168   1.624  16.499 -0.0990 -0.2774  0.2927
 5523SOL    HW128031   3.216   1.698  16.462 -1.6570 -1.0255 -3.2121
 5523SOL    HW228032   3.244   1.567  16.493  0.7102  0.4779  3.2105
 5524SOL     OW28033   1.139   2.533   8.630  0.5384 -0.0613 -0.1054
 5524SOL    HW128034   1.181   2.595   8.569 -2.3523 -0.3766 -2.3883
 5524SOL    HW228035   1.204   2.529   8.701 -0.2348  0.6712  0.6401
 5525SOL     OW28036   1.540   3.363  11.241  0.0266 -0.0179 -0.1712
 5525SOL    HW128037   1.589   3.436  11.277  0.4271 -0.3563 -0.0205
 5525SOL    HW228038   1.603   3.324  11.181  1.5950 -0.3447  1.6962
 5526SOL     OW28039   4.195   1.007  11.091 -0.0210 -0.2952  0.0256
 5526SOL    HW128040   4.233   1.071  11.151  1.3053 -2.3580  1.3692
 5526SOL    HW228041   4.233   1.036  11.008  2.2568  1.1903  1.5912
 5527SOL     OW28042   2.274   2.477   4.131  0.8115  0.7116  0.3926
 5527SOL    HW128043   2.211   2.522   4.188 -1.3500  1.2558 -2.4137
 5527SOL    HW228044   2.358   2.518   4.150  1.0157 -0.3467  1.7051
 5528SOL     OW28045   2.172   3.680   9.371  0.3068  0.3246  0.4456
 5528SOL    HW128046   2.210   3.764   9.342  0.1588  0.3236  0.2444
 5528SOL    HW228047   2.088   3.709   9.405  1.1475  0.8298  2.0604
 5529SOL     OW28048   4.485   3.557   2.479 -0.9008  0.1660 -0.0024
 5529SOL    HW128049   4.437   3.630   2.439  0.8072  0.9502 -0.6346
 5529SOL    HW228050   4.463   3.561   2.572 -1.2513  0.7022 -0.1086
 5530SOL     OW28051   2.114   2.979   7.267  0.2102  0.8220 -0.1582
 5530SOL    HW128052   2.034   2.974   7.319  1.1223 -2.7457  0.9487
 5530SOL    HW228053   2.071   3.005   7.186 -0.3527  1.4158  0.3364
 5531SOL     OW28054   3.147   4.589   6.004 -0.3158 -0.7941 -0.0846
 5531SOL    HW128055   3.170   4.516   6.061  1.0048 -0.8057 -0.6168
 5531SOL    HW228056   3.197   4.658   6.048 -1.2047 -0.0061 -0.3215
 5532SOL     OW28057   1.006   2.398   1.044 -0.2512 -0.1839 -0.5800
 5532SOL    HW128058   1.007   2.385   1.138 -2.2540 -0.7338 -0.6537
 5532SOL    HW228059   1.082   2.346   1.018  0.0538 -0.1451  0.2387
 5533SOL     OW28060   2.408   0.578   8.436 -0.2757  0.3713 -0.4831
 5533SOL    HW128061   2.381   0.630   8.511  0.8750 -0.6405  0.6422
 5533SOL    HW228062   2.357   0.614   8.363 -0.3440 -0.0779 -0.6623
 5534SOL     OW28063   0.124   1.111   2.066  0.3591  0.0134 -0.2681
 5534SOL    HW128064   0.063   1.184   2.077 -0.1866 -0.3180 -1.0440
 5534SOL    HW228065   0.099   1.091   1.975 -0.9667 -0.0267  0.1036
 5535SOL     OW28066   4.121   0.720  16.038 -0.6153  0.3562 -0.1630
 5535SOL    HW128067   4.031   0.745  16.058 -0.7692  0.0497 -0.4725
 5535SOL    HW228068   4.100   0.677  15.955  2.7582 -1.4585 -0.0999
 5536SOL     OW28069   0.689   0.301  13.076  0.0588  0.4148 -0.2278
 5536SOL    HW128070   0.751   0.239  13.114 -0.9879  0.2643  1.2655
 5536SOL    HW228071   0.740   0.373  13.040 -0.4848  0.1876 -1.4629
 5537SOL     OW28072   2.044   4.249   6.039 -0.5529  0.2540 -0.0163
 5537SOL    HW128073   2.112   4.188   6.012 -1.1807 -0.6180  0.3765
 5537SOL    HW228074   2.002   4.264   5.955 -0.7131  1.4696  0.2757
 5538SOL     OW28075   4.160   4.276  15.515  0.0723  0.4290 -0.5782
 5538SOL    HW128076   4.081   4.301  15.561 -0.6898 -0.5589 -1.3467
 5538SOL    HW228077   4.184   4.208  15.578 -2.1378  1.9548  1.9035
 5539SOL     OW28078   0.592   3.199   3.410  0.1171  0.3891 -0.9244
 5539SOL    HW128079   0.636   3.114   3.416  2.1754  1.5663  0.5502
 5539SOL    HW228080   0.624   3.225   3.323  0.3095  0.5231 -0.8149
 5540SOL     OW28081   0.771   3.998   7.073  0.3181 -0.2787  0.1363
 5540SOL    HW128082   0.784   3.923   7.131  0.8972 -1.8321 -1.9997
 5540SOL    HW228083   0.848   4.054   7.080  0.3526 -0.3170  0.0654
 5541SOL     OW28084   4.466   1.169   1.180  0.0273 -0.0144  0.0197
 5541SOL    HW128085   4.421   1.215   1.109 -1.0914 -1.8046 -0.4545
 5541SOL    HW228086   4.516   1.237   1.223 -1.3289  1.7045 -1.1041
 5542SOL     OW28087   3.848   2.909   9.024  0.3926  0.1617  0.0885
 5542SOL    HW128088   3.937   2.929   9.053  0.1060 -1.1349  1.8964
 5542SOL    HW228089   3.793   2.929   9.100  2.1869 -0.5780  1.6042
 5543SOL     OW28090   2.656   3.835  12.931 -0.4432 -0.6801  0.3941
 5543SOL    HW128091   2.693   3.916  12.895  0.4060  0.3469  3.6324
 5543SOL    HW228092   2.616   3.872  13.009 -1.3382 -0.6900 -0.0614
 5544SOL     OW28093   2.175   3.990   2.649  0.3359  0.7289 -0.2853
 5544SOL    HW128094   2.165   3.898   2.677 -3.5743  2.3216  3.6965
 5544SOL    HW228095   2.081   4.009   2.653  0.4491  1.0342  1.0659
 5545SOL     OW28096   0.609   0.854  15.626 -0.2624 -0.5355 -0.0207
 5545SOL    HW128097   0.686   0.823  15.674 -0.7271 -2.4798 -0.5618
 5545SOL    HW228098   0.649   0.932  15.588  0.0338 -0.5026  0.3494
 5546SOL     OW28099   4.369   4.362   8.882 -0.3854 -0.1563 -0.1728
 5546SOL    HW128100   4.307   4.298   8.846 -1.4957  1.5951 -1.4178
 5546SOL    HW228101   4.444   4.349   8.824  0.3595  1.7104  0.3690
 5547SOL     OW28102   3.909   3.234  12.813 -0.4211 -0.0090 -0.3984
 5547SOL    HW128103   3.889   3.320  12.850  2.7141  0.1133  0.9748
 5547SOL    HW228104   3.888   3.184  12.892  0.6705 -2.3442 -1.5930
 5548SOL     OW28105   3.366   0.639   4.107 -0.4753 -0.3779  0.0760
 5548SOL    HW128106   3.316   0.692   4.044  0.4601  0.2197 -0.1580
 5548SOL    HW228107   3.444   0.623   4.055  0.3970  0.5918  1.0811
 5549SOL     OW28108   3.831   4.457   5.548  0.6440  0.6053 -0.1323
 5549SOL    HW128109   3.859   4.455   5.456  1.6824  0.2213  0.1945
 5549SOL    HW228110   3.744   4.498   5.547 -0.6885 -2.2195  0.3290
 5550SOL     OW28111   4.459   2.489  13.379 -0.1428 -0.4049 -0.2346
 5550SOL    HW128112   4.515   2.503  13.302  0.8866  1.9846  0.9576
 5550SOL    HW228113   4.479   2.397  13.397  0.4356  0.1675  1.9472
 5551SOL     OW28114   2.456   2.022   7.585 -0.1768  0.2926  0.7245
 5551SOL    HW128115   2.407   1.963   7.527  2.3487  0.0257 -1.1041
 5551SOL    HW228116   2.469   2.092   7.521 -0.0488 -0.9154 -0.5469
 5552SOL     OW28117   0.972   0.093   7.811  0.4138 -0.5903  0.4633
 5552SOL    HW128118   0.934   0.177   7.787  1.3116  0.0110  1.1570
 5552SOL    HW228119   0.894   0.043   7.789  0.6158 -0.7007  0.0081
 5553SOL     OW28120   4.389   1.649  16.082 -0.5885 -0.3131 -0.7404
 5553SOL    HW128121   4.350   1.663  16.169 -0.3013  2.1349 -0.9914
 5553SOL    HW228122   4.368   1.734  16.043  0.7810  1.5905  2.6576
 5554SOL     OW28123   0.234   0.370   8.674  0.5890  0.1374  0.1625
 5554SOL    HW128124   0.267   0.457   8.695  2.3594 -0.8047  1.2720
 5554SOL    HW228125   0.203   0.388   8.585 -3.2326 -0.0384  1.4475
 5555SOL     OW28126   0.796   0.106   9.289 -0.0928 -0.4395 -0.8593
 5555SOL    HW128127   0.803   0.170   9.218  0.8451  0.7651  0.3035
 5555SOL    HW228128   0.737   0.038   9.257  0.3966 -1.0260 -0.5279
 5556SOL     OW28129   4.644   2.671   0.502  0.0673  0.0607  0.7761
 5556SOL    HW128130   4.597   2.603   0.549 -1.9048  0.2795 -0.8683
 5556SOL    HW228131   4.714   2.678   0.567  0.9669  0.1985 -0.2033
 5557SOL     OW28132   3.566   0.634   4.447  0.2297 -0.1945  0.2253
 5557SOL    HW128133   3.495   0.676   4.398  0.1727  0.0794  0.5408
 5557SOL    HW228134   3.612   0.583   4.380  1.2768  0.4775  0.4362
 5558SOL     OW28135   1.182   3.835   2.275 -0.2253 -0.3298 -0.5622
 5558SOL    HW128136   1.170   3.769   2.208 -0.3275 -0.0587 -0.8126
 5558SOL    HW228137   1.117   3.903   2.256  0.9158  0.3365 -2.1166
 5559SOL     OW28138   0.128   0.982  16.002  0.3374 -0.4174 -0.6060
 5559SOL    HW128139   0.139   1.042  15.928 -2.5910  0.9150  0.0656
 5559SOL    HW228140   0.194   0.917  15.975  1.6923  0.8909 -0.4288
 5560SOL     OW28141   1.408   3.174  13.447  0.2930  0.1449  0.2806
 5560SOL    HW128142   1.501   3.200  13.449  0.2727  0.0910  1.7255
 5560SOL    HW228143   1.394   3.173  13.352  0.4177  3.2280  0.2260
 5561SOL     OW28144   3.492   0.644   2.799  0.3691  0.0824  0.5276
 5561SOL    HW128145   3.491   0.724   2.746 -2.4685 -0.2490  0.0608
 5561SOL    HW228146   3.447   0.587   2.736 -0.2348  0.5737  0.5201
 5562SOL     OW28147   4.470   3.004   1.135  0.2022  0.2990 -0.0414
 5562SOL    HW128148   4.412   2.946   1.184 -1.2215  0.3265 -1.6770
 5562SOL    HW228149   4.468   2.955   1.052  0.0039 -2.2235  1.4663
 5563SOL     OW28150   0.772   3.103   8.638  0.3061  0.1443 -0.8830
 5563SOL    HW128151   0.847   3.092   8.697  0.5789  2.4057 -0.8301
 5563SOL    HW228152   0.816   3.067   8.561 -1.7964 -1.0548 -1.5336
 5564SOL     OW28153   4.200   2.011   7.850  0.0530  0.0266 -0.1732
 5564SOL    HW128154   4.124   1.954   7.839  1.4396 -1.9802  0.8220
 5564SOL    HW228155   4.186   2.043   7.939 -1.0281  0.2110 -0.4113
 5565SOL     OW28156   3.879   3.110   7.476  0.1513  0.2414 -0.4424
 5565SOL    HW128157   3.822   3.098   7.552  0.8558  1.9618  0.3453
 5565SOL    HW228158   3.944   3.041   7.485  1.2740  1.2807 -0.5967
 5566SOL     OW28159   2.420   2.825   4.298  0.3188 -0.2815 -0.1029
 5566SOL    HW128160   2.465   2.743   4.277 -0.7329 -0.5102 -1.4569
 5566SOL    HW228161   2.407   2.859   4.210  0.0917  0.1679  0.1026
 5567SOL     OW28162   3.965   2.644   6.437  0.2044  0.0443 -0.3367
 5567SOL    HW128163   3.891   2.618   6.491  1.8140 -1.5522  1.1132
 5567SOL    HW228164   3.937   2.729   6.403  2.1383  0.1560 -1.6759
 5568SOL     OW28165   3.239   4.221   6.994  0.3884 -0.2200 -0.3249
 5568SOL    HW128166   3.209   4.302   6.953  0.4022 -1.0085 -1.9151
 5568SOL    HW228167   3.180   4.199   7.066 -0.3035 -1.4248 -1.2442
 5569SOL     OW28168   4.074   3.547  12.878  0.5777 -0.3100 -0.2516
 5569SOL    HW128169   4.139   3.606  12.916  0.3719 -0.1344 -0.1737
 5569SOL    HW228170   4.132   3.494  12.823 -2.2397 -1.9982 -1.5636
 5570SOL     OW28171   0.276   0.950   7.463 -0.2581  0.3062 -0.2987
 5570SOL    HW128172   0.352   0.914   7.418  0.1039  0.6276  0.0544
 5570SOL    HW228173   0.233   0.872   7.499 -0.7365  1.1235  0.9390
 5571SOL     OW28174   0.328   1.715   4.558 -0.5492 -0.2859  0.5432
 5571SOL    HW128175   0.242   1.721   4.517 -0.4322  0.8382  0.4503
 5571SOL    HW228176   0.315   1.637   4.612  0.5825 -0.5674  0.4128
 5572SOL     OW28177   4.114   4.080   7.872  0.2204  0.1848  0.2963
 5572SOL    HW128178   4.194   4.029   7.884 -0.4367 -1.0157 -0.3805
 5572SOL    HW228179   4.060   4.039   7.939 -3.0644 -0.0230 -2.4753
 5573SOL     OW28180   4.108   4.458   9.401  0.0268  0.0918  0.0064
 5573SOL    HW128181   4.097   4.395   9.473  0.3180 -0.1340 -0.1455
 5573SOL    HW228182   4.093   4.540   9.449  0.8034  1.7006 -2.5213
 5574SOL     OW28183   0.892   1.943   3.009 -0.3270  0.3702 -0.2700
 5574SOL    HW128184   0.943   2.017   3.041 -2.4081  1.1875  1.0955
 5574SOL    HW228185   0.943   1.879   3.059  1.9067  1.1047 -1.5616
 5575SOL     OW28186   1.017   0.373  14.796 -0.7750  0.8243 -0.0089
 5575SOL    HW128187   1.061   0.366  14.711 -0.9211 -1.0955  0.0654
 5575SOL    HW228188   0.948   0.437  14.778  0.0085  1.7203  0.2064
 5576SOL     OW28189   3.294   3.103   8.503  0.1203  0.1212  0.6062
 5576SOL    HW128190   3.307   3.195   8.479  1.3658 -0.1639  0.2009
 5576SOL    HW228191   3.376   3.092   8.550 -0.3967  0.4771  1.5998
 5577SOL     OW28192   2.404   3.868  12.798  0.4190  0.2109 -0.2549
 5577SOL    HW128193   2.489   3.839  12.831 -0.5660 -0.0694  2.0417
 5577SOL    HW228194   2.349   3.801  12.839  0.2802  1.4319  1.5092
 5578SOL     OW28195   2.925   3.134   5.899  0.0111 -0.1283 -0.5597
 5578SOL    HW128196   2.911   3.040   5.887 -0.8442  0.4183 -3.7318
 5578SOL    HW228197   2.868   3.172   5.832 -0.5431  0.8300  0.4575
 5579SOL     OW28198   2.586   1.900   3.799 -0.0033 -0.0814  0.1449
 5579SOL    HW128199   2.650   1.932   3.736  1.0010 -3.2188 -0.3903
 5579SOL    HW228200   2.633   1.820   3.823  1.0344  0.6722  0.6360
 5580SOL     OW28201   0.688   0.696   7.854 -0.0669 -0.3307 -0.2594
 5580SOL    HW128202   0.654   0.685   7.765  2.9095  0.4954 -1.4947
 5580SOL    HW228203   0.609   0.726   7.899  0.7562  0.3140  0.7444
 5581SOL     OW28204   0.608   0.301   8.834  0.5249 -0.1486  0.2050
 5581SOL    HW128205   0.545   0.232   8.852 -0.2167  0.0059 -1.7672
 5581SOL    HW228206   0.616   0.338   8.921 -0.4333 -0.0266  0.2387
 5582SOL     OW28207   0.779   0.168   6.669 -0.0766 -0.4186  0.3594
 5582SOL    HW128208   0.716   0.100   6.693 -1.4222  0.2935 -1.1258
 5582SOL    HW228209   0.726   0.238   6.631  0.4275 -0.7994 -1.0298
 5583SOL     OW28210   4.225   2.827   7.731 -0.0190  0.0145 -0.6293
 5583SOL    HW128211   4.312   2.860   7.751  0.3753 -1.3137 -0.1843
 5583SOL    HW228212   4.181   2.842   7.815  1.3517  0.5841 -0.0169
 5584SOL     OW28213   3.973   2.469  11.378  0.4215  0.1618 -0.1408
 5584SOL    HW128214   3.898   2.477  11.320 -0.0304 -0.1559  0.4015
 5584SOL    HW228215   3.978   2.376  11.400 -0.5889  0.2933  0.6367
 5585SOL     OW28216   4.572   3.059   4.669 -0.3213 -0.3815  0.0831
 5585SOL    HW128217   4.629   3.122   4.625 -2.8944  0.3755 -2.1511
 5585SOL    HW228218   4.503   3.119   4.696  1.7165  2.6684 -1.5497
 5586SOL     OW28219   1.641   3.112  13.783  0.3064 -0.3517 -0.7182
 5586SOL    HW128220   1.557   3.098  13.827  1.6760  0.1684  2.0339
 5586SOL    HW228221   1.702   3.104  13.856 -2.8475 -2.5943  1.6406
 5587SOL     OW28222   0.392   3.621  10.584  0.0764 -0.1175 -0.6901
 5587SOL    HW128223   0.311   3.665  10.562  1.1872  1.2389 -2.0634
 5587SOL    HW228224   0.366   3.534  10.555  0.3040 -0.0613 -1.0648
 5588SOL     OW28225   1.355   0.685   8.912 -0.3872 -0.2501 -0.0426
 5588SOL    HW128226   1.449   0.697   8.927 -0.0984 -2.3527 -0.1292
 5588SOL    HW228227   1.349   0.590   8.907 -1.4007 -0.2960  2.1513
 5589SOL     OW28228   3.771   0.322   5.867 -0.7349  0.3931  0.1377
 5589SOL    HW128229   3.844   0.264   5.846  1.0041  3.1689 -1.5354
 5589SOL    HW228230   3.789   0.352   5.956 -1.2566 -1.3495  0.8228
 5590SOL     OW28231   4.695   1.290  10.301 -0.1165  0.2684 -0.1521
 5590SOL    HW128232   4.695   1.200  10.332 -1.5090  0.3075 -0.0456
 5590SOL    HW228233   0.061   1.298  10.269 -1.3142  0.3292 -3.5621
 5591SOL     OW28234   1.161   1.687   2.660  0.0526  0.5545 -0.2326
 5591SOL    HW128235   1.069   1.660   2.654  0.1244 -0.2275  2.1289
 5591SOL    HW228236   1.175   1.712   2.751  0.8566  2.2300 -0.8314
 5592SOL     OW28237   2.640   0.588   9.186 -0.1213 -0.4521  0.2401
 5592SOL    HW128238   2.724   0.558   9.220 -0.0247  0.2905  0.6626
 5592SOL    HW228239   2.607   0.498   9.194 -2.4962  0.3106 -1.0324
 5593SOL     OW28240   3.166   0.036  16.273 -0.2419  0.3837  0.2715
 5593SOL    HW128241   3.249   0.077  16.248 -0.4910  0.9916  0.4433
 5593SOL    HW228242   3.133   0.009  16.187  1.6932  1.0964 -0.7050
 5594SOL     OW28243   4.011   2.177   1.413  0.0326  0.3186 -0.6013
 5594SOL    HW128244   3.949   2.104   1.407  0.5133 -0.1066 -0.4246
 5594SOL    HW228245   4.071   2.143   1.346  2.4541  0.4196  1.5015
 5595SOL     OW28246   2.459   0.054   8.405 -0.0522  0.1481 -0.4966
 5595SOL    HW128247   2.411   0.123   8.450 -0.5042  1.1483 -2.5380
 5595SOL    HW228248   2.531   0.047   8.468 -2.1368  2.2294  2.0998
 5596SOL     OW28249   3.506   4.502  17.444  0.0086 -0.3319  0.7379
 5596SOL    HW128250   3.567   4.566  17.481  0.5213 -0.8042  0.7000
 5596SOL    HW228251   3.456   4.555  17.381  1.5050  0.2001 -0.0145
 5597SOL     OW28252   0.142   3.657   7.675 -0.1788 -0.1220 -1.1911
 5597SOL    HW128253   0.100   3.743   7.681 -2.3563 -1.3766  1.1747
 5597SOL    HW228254   0.066   3.614   7.635 -0.0696  0.6218 -2.2234
 5598SOL     OW28255   4.674   0.573   4.795 -0.1852  0.1402 -0.1432
 5598SOL    HW128256   4.600   0.631   4.814 -0.8738 -0.9287  0.4457
 5598SOL    HW228257   4.701   0.596   4.706  0.3677  2.3930  0.5879
 5599SOL     OW28258   1.154   3.796   7.218  0.6661 -0.3864  0.4693
 5599SOL    HW128259   1.243   3.830   7.205  0.4297 -0.2256 -0.7542
 5599SOL    HW228260   1.123   3.859   7.283  0.7725  0.0055  0.1425
 5600SOL     OW28261   0.470   0.355   5.079  0.5799 -0.0630  0.0133
 5600SOL    HW128262   0.427   0.394   5.003  0.8647  1.5090  0.6533
 5600SOL    HW228263   0.533   0.423   5.103 -0.6567  1.7259 -1.7792
 5601SOL     OW28264   3.091   1.825  10.503  0.0175  0.0052  0.8459
 5601SOL    HW128265   3.062   1.796  10.590 -2.4401 -0.1337 -0.0228
 5601SOL    HW228266   3.018   1.873  10.463 -0.2429 -0.6841  0.4965
 5602SOL     OW28267   1.752   2.495   7.292 -0.1360  0.3510  0.8970
 5602SOL    HW128268   1.688   2.544   7.343 -0.9312 -0.1692  0.3828
 5602SOL    HW228269   1.712   2.409   7.278 -0.9156  0.7778  0.5785
 5603SOL     OW28270   2.037   1.762   8.670 -0.3633 -0.3356 -0.0092
 5603SOL    HW128271   1.955   1.779   8.716  1.1942  3.6464  1.3077
 5603SOL    HW228272   2.077   1.849   8.667 -1.9965  0.4391  0.6507
 5604SOL     OW28273   0.883   1.770   8.507 -0.2709 -0.6211  0.2127
 5604SOL    HW128274   0.927   1.690   8.537 -0.7011 -0.2907  1.7176
 5604SOL    HW228275   0.792   1.742   8.506 -0.3300 -0.3967 -0.3049
 5605SOL     OW28276   4.256   1.200   2.386 -0.1665  0.9147  0.7309
 5605SOL    HW128277   4.265   1.228   2.477  0.6400 -0.4243  1.0734
 5605SOL    HW228278   4.164   1.174   2.382 -0.5286  2.1811  0.9295
 5606SOL     OW28279   0.698   2.429   6.576  0.2521  0.2313  0.0103
 5606SOL    HW128280   0.682   2.440   6.670 -0.1470 -3.1858  0.3546
 5606SOL    HW228281   0.633   2.365   6.545  1.7445 -1.3825  0.2302
 5607SOL     OW28282   1.395   0.431   4.070  0.3125 -0.4508  0.2258
 5607SOL    HW128283   1.409   0.468   3.983  2.3798  1.3542  1.3310
 5607SOL    HW228284   1.408   0.508   4.127 -3.5477  0.4774 -0.1917
 5608SOL     OW28285   0.937   3.002   2.254 -0.3176 -0.7322  0.0493
 5608SOL    HW128286   1.022   3.036   2.282 -0.9491  0.1984  0.8403
 5608SOL    HW228287   0.928   3.028   2.162  0.9813  4.0091  1.2658
 5609SOL     OW28288   0.103   4.098   2.869 -0.5871 -0.0227 -0.1014
 5609SOL    HW128289   0.100   4.096   2.773  1.8290 -1.6160 -0.1755
 5609SOL    HW228290   0.120   4.003   2.873 -4.0011 -0.6371 -0.6241
 5610SOL     OW28291   2.752   2.587   6.700 -0.3582  0.3273  0.3507
 5610SOL    HW128292   2.832   2.559   6.745 -1.4471 -1.9959  0.8860
 5610SOL    HW228293   2.766   2.679   6.678  0.7203  0.0012 -0.3559
 5611SOL     OW28294   2.070   0.508   4.259 -0.8777 -0.3322  0.5301
 5611SOL    HW128295   2.157   0.491   4.294 -0.4637  3.0847  1.1149
 5611SOL    HW228296   2.088   0.545   4.172  1.0459  1.3805  1.6668
 5612SOL     OW28297   2.337   3.155   7.492 -0.1827  0.5229  0.0123
 5612SOL    HW128298   2.306   3.073   7.452 -0.6221  1.5798 -1.8258
 5612SOL    HW228299   2.252   3.171   7.533 -1.0350 -1.0686 -1.1115
 5613SOL     OW28300   0.286   0.041   1.672  0.3544 -0.5380  0.1921
 5613SOL    HW128301   0.227   0.043   1.747  0.4774 -0.0346  0.2785
 5613SOL    HW228302   0.251   0.122   1.634  0.5616 -0.1025  0.9332
 5614SOL     OW28303   4.677   0.540   6.561  0.0083  0.0888 -0.2762
 5614SOL    HW128304   0.027   0.495   6.522  2.3646  1.2070  2.8598
 5614SOL    HW228305   0.005   0.588   6.626 -1.2002  2.0814 -0.7678
 5615SOL     OW28306   2.546   4.627   3.781 -0.2247  0.7533  0.1146
 5615SOL    HW128307   2.528   4.705   3.728 -1.5163 -0.6791 -1.5864
 5615SOL    HW228308   2.608   4.586   3.720  0.8171  1.0114  1.0162
 5616SOL     OW28309   1.387   2.196   3.396 -0.8368 -0.1078  0.0264
 5616SOL    HW128310   1.356   2.191   3.486  1.2305  0.0403  0.7599
 5616SOL    HW228311   1.355   2.282   3.370 -0.3755  0.4225  1.1909
 5617SOL     OW28312   4.718   3.139   5.355 -0.1674  0.3901 -0.0292
 5617SOL    HW128313   4.663   3.207   5.315  0.3546  0.0087 -1.3766
 5617SOL    HW228314   0.059   3.196   5.396  0.2160 -0.6342  0.7676
 5618SOL     OW28315   0.904   2.313  11.002 -0.1318 -0.0714 -0.3203
 5618SOL    HW128316   0.823   2.363  11.013  1.9393  3.3818 -0.5268
 5618SOL    HW228317   0.859   2.248  10.949  1.1842 -2.1799  1.1832
 5619SOL     OW28318   4.441   1.039   8.819 -0.2081 -0.1518  0.2618
 5619SOL    HW128319   4.443   1.013   8.911 -0.0190 -0.0537  0.2864
 5619SOL    HW228320   4.376   1.108   8.826  1.2977  1.1859  1.0296
 5620SOL     OW28321   1.112   2.244   5.142 -0.3396 -0.1020  0.4247
 5620SOL    HW128322   1.105   2.326   5.093 -1.3009  0.4542  1.4929
 5620SOL    HW228323   1.055   2.266   5.216 -0.8295  1.0602 -0.2935
 5621SOL     OW28324   2.927   4.387   9.044  0.5228  0.1114  0.2608
 5621SOL    HW128325   3.007   4.417   9.086  0.4602  2.0670 -1.0043
 5621SOL    HW228326   2.956   4.344   8.964  1.7902  2.0966 -0.3402
 5622SOL     OW28327   4.145   2.671  11.860 -0.3544 -0.4744  0.0891
 5622SOL    HW128328   4.069   2.714  11.898  0.0365  1.3786 -1.2654
 5622SOL    HW228329   4.186   2.632  11.938  2.3770 -1.3774 -1.8092
 5623SOL     OW28330   0.656   3.105   4.768 -0.8373  0.6563  0.5426
 5623SOL    HW128331   0.715   3.111   4.843 -0.3299 -0.9141  0.2772
 5623SOL    HW228332   0.594   3.039   4.798  1.3147 -1.4444  0.3804
 5624SOL     OW28333   4.327   0.888  11.419  0.2359  0.0189 -0.0291
 5624SOL    HW128334   4.399   0.909  11.359  0.2801 -1.8683 -0.6459
 5624SOL    HW228335   4.248   0.931  11.386  1.0718  0.2514 -1.7401
 5625SOL     OW28336   3.504   4.158  16.422 -0.4996  0.5522  0.4427
 5625SOL    HW128337   3.566   4.165  16.349 -0.1333 -0.8097  0.6211
 5625SOL    HW228338   3.458   4.239  16.403  0.4645  0.8147 -0.7734
 5626SOL     OW28339   4.530   1.814  13.417 -0.4158 -0.1732 -0.3916
 5626SOL    HW128340   4.568   1.781  13.336 -4.5304 -4.1669 -0.7196
 5626SOL    HW228341   4.513   1.906  13.398 -0.2108 -0.2682 -1.0453
 5627SOL     OW28342   1.891   1.416   3.743  0.1959 -0.4070 -0.4035
 5627SOL    HW128343   1.873   1.418   3.649 -1.7493 -0.2518 -0.0421
 5627SOL    HW228344   1.972   1.467   3.747 -1.0479  1.2091  4.4035
 5628SOL     OW28345   1.212   2.561   0.764 -0.4901 -0.1408  0.1879
 5628SOL    HW128346   1.182   2.645   0.730 -0.6121 -0.1415  0.2944
 5628SOL    HW228347   1.302   2.571   0.736 -0.5418  0.4753  0.2587
 5629SOL     OW28348   1.352   0.564   8.433 -0.1753 -0.1702 -0.7602
 5629SOL    HW128349   1.366   0.656   8.412  0.8783 -0.2587 -0.4092
 5629SOL    HW228350   1.371   0.544   8.525 -1.2406  1.0388 -0.2790
 5630SOL     OW28351   4.174   2.417   5.488 -0.1423  0.0095  0.1471
 5630SOL    HW128352   4.097   2.361   5.480  1.0281 -1.3732 -1.4760
 5630SOL    HW228353   4.221   2.384   5.564  0.2369 -2.2108 -1.0672
 5631SOL     OW28354   2.932   0.657   5.626 -0.1707  1.2999 -0.1198
 5631SOL    HW128355   2.956   0.587   5.688 -3.6775 -0.8384 -1.2073
 5631SOL    HW228356   2.997   0.648   5.556 -1.8532 -0.7476 -1.4073
 5632SOL     OW28357   3.023   3.710   3.710  0.1927  1.1778 -0.1721
 5632SOL    HW128358   3.049   3.736   3.798  0.5059 -0.2910  0.1665
 5632SOL    HW228359   2.930   3.716   3.728  0.3461 -0.7255  1.2172
 5633SOL     OW28360   0.569   0.873   7.055 -0.4408 -0.4634  0.2717
 5633SOL    HW128361   0.655   0.884   7.014  0.1486 -1.3852  1.2580
 5633SOL    HW228362   0.521   0.827   6.987  1.0079 -0.6154 -0.6531
 5634SOL     OW28363   3.624   0.731  15.035  0.0649  0.7232  0.3788
 5634SOL    HW128364   3.680   0.655  15.040 -1.3487 -0.2680  1.4035
 5634SOL    HW228365   3.541   0.685  15.051  1.4679 -1.4402  1.3530
 5635SOL     OW28366   0.087   2.709   8.549  0.3844 -0.5210 -0.2541
 5635SOL    HW128367   0.058   2.790   8.592  0.9381 -0.2828 -0.3328
 5635SOL    HW228368   0.055   2.641   8.609 -0.4923 -0.5034 -0.7117
 5636SOL     OW28369   0.382   3.670   1.739 -0.0739  0.2475  0.5455
 5636SOL    HW128370   0.337   3.726   1.677  1.3425 -0.7669 -1.3966
 5636SOL    HW228371   0.434   3.617   1.679 -0.1442  0.5703  0.2018
 5637SOL     OW28372   0.383   1.222   5.846 -0.0709  0.2270  0.0066
 5637SOL    HW128373   0.352   1.307   5.814 -0.8924  0.4876  1.4855
 5637SOL    HW228374   0.455   1.220   5.783  0.3807 -1.3094  0.5614
 5638SOL     OW28375   4.191   3.488  13.517  0.5232 -0.2391  0.1014
 5638SOL    HW128376   4.219   3.396  13.519 -1.5011 -0.8629 -0.0983
 5638SOL    HW228377   4.255   3.529  13.460  0.1661 -1.0739 -0.8936
 5639SOL     OW28378   2.647   3.564  12.431  0.5806 -0.0992  0.4580
 5639SOL    HW128379   2.735   3.603  12.433  0.1404  0.9112 -0.3626
 5639SOL    HW228380   2.608   3.613  12.503 -1.1408 -0.6988 -0.0853
 5640SOL     OW28381   1.853   4.579  10.369 -0.1236  0.1518  0.4216
 5640SOL    HW128382   1.822   4.656  10.417  1.8373  0.4611  1.1661
 5640SOL    HW228383   1.861   4.520  10.444  2.6603 -1.1093 -0.8855
 5641SOL     OW28384   3.482   3.118   4.505  0.0570  0.2682  0.3692
 5641SOL    HW128385   3.431   3.125   4.586 -1.4806 -2.1192 -0.3785
 5641SOL    HW228386   3.511   3.209   4.499 -2.1830  0.8811 -1.1710
 5642SOL     OW28387   1.644   2.391   5.798 -0.8032 -0.1567 -0.3031
 5642SOL    HW128388   1.699   2.378   5.721  1.5416  0.4272  1.2576
 5642SOL    HW228389   1.568   2.338   5.774 -1.7679 -0.4261  3.3088
 5643SOL     OW28390   1.008   3.159   0.962  0.3622 -0.4533 -0.8420
 5643SOL    HW128391   1.019   3.066   0.982  0.8531 -0.0222  0.8949
 5643SOL    HW228392   0.950   3.171   0.886  0.7747 -0.6616 -1.1883
 5644SOL     OW28393   0.899   4.333  10.510 -0.3368  0.0599 -0.1975
 5644SOL    HW128394   0.870   4.335  10.601 -0.8373 -1.4410 -0.3149
 5644SOL    HW228395   0.993   4.348  10.525 -0.5979  0.5693  0.9269
 5645SOL     OW28396   2.017   1.702  12.751 -0.2435  0.2604 -0.1782
 5645SOL    HW128397   1.950   1.732  12.813 -2.3091 -0.8184 -1.8702
 5645SOL    HW228398   2.080   1.769  12.778  0.1845 -1.0967  2.1911
 5646SOL     OW28399   4.129   1.500  17.459  0.5658 -0.4306  0.4794
 5646SOL    HW128400   4.120   1.593  17.439  1.3377 -0.6618 -0.9846
 5646SOL    HW228401   4.214   1.495  17.502  0.1257 -2.1453  1.1517
 5647SOL     OW28402   4.696   0.745  10.392  0.4083  0.0726  0.8614
 5647SOL    HW128403   4.693   0.676  10.325  0.8704  0.2887  0.6167
 5647SOL    HW228404   4.716   0.693  10.469  1.1528 -0.3428  0.3911
 5648SOL     OW28405   0.637   0.522   9.022  0.3704  0.6648  0.2262
 5648SOL    HW128406   0.649   0.567   8.938 -3.1536 -0.0345 -0.6507
 5648SOL    HW228407   0.543   0.505   9.035  1.0782 -3.1479  0.3203
 5649SOL     OW28408   3.823   0.100   6.608 -0.4430 -0.0617  0.0934
 5649SOL    HW128409   3.881   0.085   6.682 -2.1541 -0.2149  1.4025
 5649SOL    HW228410   3.766   0.172   6.633  2.5967  1.6596  2.0632
 5650SOL     OW28411   0.909   0.363   3.581  0.5229 -0.4109 -0.1423
 5650SOL    HW128412   0.990   0.315   3.598  1.6867  1.3846 -0.6223
 5650SOL    HW228413   0.931   0.401   3.496  2.1001 -1.9625 -0.4385
 5651SOL     OW28414   4.581   3.353   3.009 -0.2238  0.6246 -0.0919
 5651SOL    HW128415   4.562   3.359   3.103  0.6881  0.4889  0.0984
 5651SOL    HW228416   4.519   3.415   2.971 -1.1579  0.4464  1.1229
 5652SOL     OW28417   0.640   2.500  13.010  0.2981  0.0871 -0.0591
 5652SOL    HW128418   0.705   2.442  12.970 -1.0206 -0.6840 -1.1121
 5652SOL    HW228419   0.689   2.568  13.056 -1.2845  0.0153  1.7493
 5653SOL     OW28420   2.548   2.245   2.396 -0.4394 -0.0663  0.2755
 5653SOL    HW128421   2.546   2.168   2.453  0.7637 -1.2325 -1.2766
 5653SOL    HW228422   2.588   2.310   2.454 -0.6788 -1.0300  1.5328
 5654SOL     OW28423   3.901   0.361   3.137  0.4901 -0.2805 -0.2689
 5654SOL    HW128424   3.807   0.351   3.126  0.1362  0.2527  2.3087
 5654SOL    HW228425   3.911   0.442   3.087 -0.5426  0.4844  0.7620
 5655SOL     OW28426   0.521   1.584   9.983 -0.2050  0.2458  0.1934
 5655SOL    HW128427   0.562   1.666  10.013 -0.8465  0.8170 -0.4821
 5655SOL    HW228428   0.455   1.576  10.052 -0.0476 -0.0974  0.3038
 5656SOL     OW28429   3.043   1.513   4.121 -0.4432  0.2101  0.0713
 5656SOL    HW128430   3.116   1.459   4.152 -2.5626 -2.4944  0.2916
 5656SOL    HW228431   3.084   1.600   4.122  2.3896 -1.1260  2.0876
 5657SOL     OW28432   1.371   2.144   2.600 -0.2964  0.1221 -0.0059
 5657SOL    HW128433   1.453   2.175   2.638 -0.2513  0.9869 -0.7995
 5657SOL    HW228434   1.380   2.172   2.509 -2.1834 -0.9447 -0.5169
 5658SOL     OW28435   4.289   2.950   1.858 -0.3821 -0.9380  0.4429
 5658SOL    HW128436   4.375   2.956   1.815 -0.5407 -1.3014  0.0747
 5658SOL    HW228437   4.303   3.020   1.922 -0.2620 -1.1270  0.6245
 5659SOL     OW28438   0.575   3.570   7.218 -0.2510  0.1487  0.2066
 5659SOL    HW128439   0.556   3.587   7.125  1.0616 -1.4564 -0.3624
 5659SOL    HW228440   0.604   3.479   7.208 -1.4899  0.2044 -4.2447
 5660SOL     OW28441   3.559   3.185   6.793 -0.1337  0.4658  0.1404
 5660SOL    HW128442   3.546   3.243   6.867 -0.8405  0.4695  0.0167
 5660SOL    HW228443   3.474   3.141   6.784 -0.2526  0.3840  1.8203
 5661SOL     OW28444   1.362   3.254   0.666  0.4094  0.1825 -0.0022
 5661SOL    HW128445   1.410   3.227   0.588  0.4462 -0.2828  0.1860
 5661SOL    HW228446   1.429   3.282   0.729 -1.7724  0.5213  2.2019
 5662SOL     OW28447   0.945   2.851  14.605 -0.2942  0.2185  0.0418
 5662SOL    HW128448   0.948   2.946  14.593  0.8098  0.2417  0.5061
 5662SOL    HW228449   1.006   2.819  14.538 -2.7201  0.7955 -2.4550
 5663SOL     OW28450   1.165   2.168   6.272  0.0823  0.1695 -0.2149
 5663SOL    HW128451   1.085   2.130   6.235 -0.0515  0.3229 -0.0861
 5663SOL    HW228452   1.117   2.245   6.302 -1.8848 -1.3084  0.4723
 5664SOL     OW28453   2.273   1.841   0.600  0.0866 -0.6021 -0.2672
 5664SOL    HW128454   2.218   1.898   0.546 -0.0668  1.1536  1.7641
 5664SOL    HW228455   2.229   1.757   0.583  0.8236 -1.0845  0.2082
 5665SOL     OW28456   3.850   3.601  10.316 -0.2089 -0.6227  0.1791
 5665SOL    HW128457   3.800   3.624  10.394 -1.6375  0.2293 -0.9829
 5665SOL    HW228458   3.932   3.568  10.352  0.0693  1.3776  1.3710
 5666SOL     OW28459   2.316   1.927   7.347 -0.9843  0.0370 -0.2476
 5666SOL    HW128460   2.359   1.860   7.295 -1.4447  1.2960 -2.2219
 5666SOL    HW228461   2.344   2.005   7.299 -2.1831 -0.0605 -1.1080
 5667SOL     OW28462   3.115   4.672  16.899 -0.0495  0.2285 -0.8205
 5667SOL    HW128463   3.024   4.672  16.871  0.1774 -1.1796 -1.5889
 5667SOL    HW228464   3.123   4.626  16.983 -0.5467 -2.0678 -2.0433
 5668SOL     OW28465   4.689   3.016   3.020  0.3574 -0.3194 -0.3855
 5668SOL    HW128466   0.019   2.938   3.028  1.8392  0.8207  0.6028
 5668SOL    HW228467   4.634   2.988   2.947  2.6199 -3.1638 -0.9758
 5669SOL     OW28468   0.854   0.209   1.303 -0.0327 -0.0622  0.6563
 5669SOL    HW128469   0.848   0.138   1.367 -1.9933 -1.5682 -1.2066
 5669SOL    HW228470   0.936   0.179   1.263 -1.6997 -1.8277 -1.3818
 5670SOL     OW28471   3.371   3.799   3.717 -0.3654 -0.3499 -0.0573
 5670SOL    HW128472   3.309   3.870   3.733 -2.2132 -2.1307  0.7938
 5670SOL    HW228473   3.355   3.773   3.626 -1.3526  3.7912 -1.0655
 5671SOL     OW28474   4.041   0.520   2.136  0.1884  0.0971  0.4790
 5671SOL    HW128475   4.037   0.433   2.097  0.1863  0.0208  0.6477
 5671SOL    HW228476   4.069   0.573   2.062 -0.6139  0.9835  0.8113
 5672SOL     OW28477   2.736   3.192   8.692 -0.0956  0.0592 -0.1887
 5672SOL    HW128478   2.722   3.165   8.601  1.9862 -0.8852 -0.2320
 5672SOL    HW228479   2.817   3.242   8.680  0.5770 -1.4354 -1.8350
 5673SOL     OW28480   0.039   2.630   9.329 -0.0283 -0.2988  0.5803
 5673SOL    HW128481   0.075   2.717   9.347 -2.6505  0.8187  0.3934
 5673SOL    HW228482   4.673   2.639   9.359 -0.1082 -4.2138  1.6413
 5674SOL     OW28483   2.155   4.564   3.917  0.0677 -0.2420  0.5524
 5674SOL    HW128484   2.190   4.550   4.005  2.5915 -1.2754 -0.6034
 5674SOL    HW228485   2.081   4.504   3.923  1.3446 -1.9098 -0.4521
 5675SOL     OW28486   4.532   0.842  16.157  0.1731 -0.0137 -0.0493
 5675SOL    HW128487   4.604   0.826  16.219  0.9527 -2.0425 -1.4783
 5675SOL    HW228488   4.567   0.833  16.069  0.8847 -0.7203  0.2962
 5676SOL     OW28489   3.948   3.386   9.099 -0.5422 -0.2690 -0.1958
 5676SOL    HW128490   3.958   3.481   9.099 -0.0805 -0.3152  0.7578
 5676SOL    HW228491   3.918   3.361   9.186 -0.6377  0.1620 -0.1077
 5677SOL     OW28492   2.614   1.370   6.392 -0.6098 -0.4114  0.7798
 5677SOL    HW128493   2.521   1.350   6.382 -1.1127  1.2262  2.1628
 5677SOL    HW228494   2.603   1.451   6.442  1.4709 -0.6723  1.6428
 5678SOL     OW28495   3.233   2.075   3.347 -0.2885 -0.3834 -0.4608
 5678SOL    HW128496   3.319   2.035   3.346  0.3419  0.8916  1.4922
 5678SOL    HW228497   3.215   2.092   3.255  0.9886  1.0770 -0.4460
 5679SOL     OW28498   3.061   2.918   5.163  0.2469 -0.3333  0.3122
 5679SOL    HW128499   3.132   2.979   5.149  0.0400 -0.1304  0.1367
 5679SOL    HW228500   3.070   2.867   5.082 -1.1027  0.5171 -0.3807
 5680SOL     OW28501   0.773   2.314   1.749 -0.0120 -0.2703  0.1388
 5680SOL    HW128502   0.868   2.313   1.762  0.3592  2.4545 -2.2592
 5680SOL    HW228503   0.750   2.306   1.841  2.0108 -0.8740  0.5923
 5681SOL     OW28504   0.829   0.134   5.450 -0.8366 -0.9220  0.2802
 5681SOL    HW128505   0.767   0.135   5.376 -2.0095 -1.7860  1.2484
 5681SOL    HW228506   0.892   0.198   5.417 -1.7118 -0.6333 -0.8483
 5682SOL     OW28507   3.292   0.778   2.023 -0.1289  0.6212 -0.4322
 5682SOL    HW128508   3.387   0.789   2.027 -0.3110  1.4365  1.5794
 5682SOL    HW228509   3.267   0.856   2.073 -1.3900  0.8425 -1.3970
 5683SOL     OW28510   4.307   0.904   5.493 -0.2326  0.4028 -0.1104
 5683SOL    HW128511   4.397   0.875   5.508 -0.9015 -1.8488 -0.4864
 5683SOL    HW228512   4.328   0.995   5.474  1.1223  0.1680  0.2421
 5684SOL     OW28513   3.891   2.268   3.996  0.4094 -0.4469 -0.8386
 5684SOL    HW128514   3.976   2.225   3.984  0.7252 -0.0592 -0.0161
 5684SOL    HW228515   3.861   2.277   3.905 -2.3542 -2.8556 -0.1348
 5685SOL     OW28516   4.452   3.347  14.904 -0.4227 -0.2165 -0.3002
 5685SOL    HW128517   4.515   3.293  14.950 -1.2773 -1.5304 -0.6551
 5685SOL    HW228518   4.491   3.343  14.816  2.2942  0.1628  0.9027
 5686SOL     OW28519   3.938   3.843  14.750  0.4421  0.1110  0.1230
 5686SOL    HW128520   3.930   3.750  14.728 -2.4681  0.1906  0.8257
 5686SOL    HW228521   3.856   3.856  14.798 -0.6538 -0.9329 -1.4627
 5687SOL     OW28522   2.111   2.528   0.761  0.4538  0.4217 -0.6093
 5687SOL    HW128523   2.136   2.617   0.738  2.9253  0.4024  2.0016
 5687SOL    HW228524   2.022   2.521   0.725  0.3017 -0.2306 -0.1009
 5688SOL     OW28525   0.110   4.509   9.934 -0.6434 -0.2129 -0.7447
 5688SOL    HW128526   0.111   4.453  10.012 -0.1154  0.3375 -0.3546
 5688SOL    HW228527   0.201   4.537   9.927 -0.7399  0.5656  1.0041
 5689SOL     OW28528   2.794   2.450  10.940 -0.0154  0.2365  0.4330
 5689SOL    HW128529   2.704   2.481  10.936 -0.3635 -0.8682 -0.2204
 5689SOL    HW228530   2.829   2.486  10.858  1.9348  0.6021  1.4199
 5690SOL     OW28531   1.295   2.030  16.322  0.4889 -0.2800  0.3061
 5690SOL    HW128532   1.222   2.071  16.370 -0.8388 -0.0121 -1.9297
 5690SOL    HW228533   1.259   2.030  16.234  1.5978 -1.7494 -0.1473
 5691SOL     OW28534   2.227   3.894   6.243 -0.1725 -0.0254  0.7371
 5691SOL    HW128535   2.260   3.830   6.307 -1.3977 -2.1462 -0.7387
 5691SOL    HW228536   2.135   3.906   6.264 -0.3477 -0.7219  0.3655
 5692SOL     OW28537   1.295   3.161  14.924 -0.1694 -0.0020  0.0989
 5692SOL    HW128538   1.226   3.180  14.861 -1.7742 -0.7517  1.6469
 5692SOL    HW228539   1.257   3.214  14.995  2.0440  2.4929 -0.5716
 5693SOL     OW28540   1.256   3.374   5.645  0.6080 -0.8223  0.1264
 5693SOL    HW128541   1.283   3.340   5.731  3.2704 -0.4959 -0.5715
 5693SOL    HW228542   1.318   3.332   5.586  2.4083  0.0024  1.4273
 5694SOL     OW28543   0.685   3.986   5.196 -0.0184  0.0884  0.6068
 5694SOL    HW128544   0.652   3.902   5.162 -1.1169  1.7147 -2.3626
 5694SOL    HW228545   0.683   3.961   5.288  0.3793 -0.1293  0.5575
 5695SOL     OW28546   4.572   3.427   4.423 -0.0652  0.7473 -0.0941
 5695SOL    HW128547   4.555   3.493   4.356 -0.7576  1.0590  0.3923
 5695SOL    HW228548   4.521   3.463   4.495 -1.8847  1.8117 -1.9025
 5696SOL     OW28549   2.181   4.377   3.182 -0.2257 -0.3262 -0.1075
 5696SOL    HW128550   2.190   4.330   3.099  0.5949 -0.1328 -0.1286
 5696SOL    HW228551   2.195   4.312   3.251  1.0587  0.5468  0.4739
 5697SOL     OW28552   0.188   0.615   5.772 -0.1250  0.0626 -0.3765
 5697SOL    HW128553   0.228   0.597   5.687  0.6343  1.6117 -0.3477
 5697SOL    HW228554   0.162   0.530   5.806 -1.9963  0.4149 -0.9539
 5698SOL     OW28555   1.910   2.765  10.808 -0.2020  0.4007 -0.4300
 5698SOL    HW128556   1.902   2.766  10.712 -1.1597  1.4303 -0.3373
 5698SOL    HW228557   2.000   2.734  10.818 -0.0697  0.3367 -1.7954
 5699SOL     OW28558   0.500   1.950   5.851 -0.1871  0.0851  0.1684
 5699SOL    HW128559   0.509   1.875   5.910 -0.0858  1.1353  1.5031
 5699SOL    HW228560   0.413   1.985   5.871 -0.4390 -1.1361  1.2420
 5700SOL     OW28561   4.419   3.207   9.676  0.3709 -0.6313  0.4307
 5700SOL    HW128562   4.460   3.178   9.757  1.3202  2.2281  0.9431
 5700SOL    HW228563   4.375   3.127   9.646 -1.7055  0.7474 -0.2300
 5701SOL     OW28564   2.792   1.499   1.063  0.1014 -0.2286 -0.0710
 5701SOL    HW128565   2.838   1.448   1.130  0.1917 -0.3901 -0.2557
 5701SOL    HW228566   2.857   1.535   1.003 -0.3625  0.1042 -0.3711
 5702SOL     OW28567   0.516   0.014   0.536  0.2441  0.0907 -0.2504
 5702SOL    HW128568   0.548   0.038   0.622 -0.7784 -0.1024  0.1879
 5702SOL    HW228569   0.571   4.662   0.518  0.4706  0.4147 -0.9608
 5703SOL     OW28570   3.763   2.012   2.339  0.5968 -0.0751 -0.0566
 5703SOL    HW128571   3.770   1.989   2.246  0.1009  2.5069 -0.7302
 5703SOL    HW228572   3.785   1.929   2.381 -1.0048  0.0710  1.1027
 5704SOL     OW28573   0.483   3.463   4.944  0.3345 -0.3105 -0.2614
 5704SOL    HW128574   0.443   3.542   4.908  0.4688  0.3225  0.9884
 5704SOL    HW228575   0.533   3.430   4.869 -0.8220  0.5165 -1.3883
 5705SOL     OW28576   4.646   3.203   0.826 -0.4350 -0.1157 -0.3565
 5705SOL    HW128577   0.008   3.170   0.852 -0.1911  0.5722 -0.3019
 5705SOL    HW228578   4.661   3.212   0.732  1.1663  1.6134  0.0544
 5706SOL     OW28579   4.388   4.561   8.528  0.3907  0.2931 -0.1742
 5706SOL    HW128580   4.399   4.575   8.434 -0.6103  1.0631 -0.1702
 5706SOL    HW228581   4.372   4.467   8.524 -0.3275  0.4195 -0.3189
 5707SOL     OW28582   1.200   4.604   7.528  0.0193  0.4646 -0.1603
 5707SOL    HW128583   1.247   4.634   7.605 -2.1658 -0.4425  1.5091
 5707SOL    HW228584   1.264   4.596   7.457 -0.2110 -3.7724  0.0743
 5708SOL     OW28585   2.898   4.294   1.986  0.2621 -0.1919 -0.5727
 5708SOL    HW128586   2.832   4.226   1.993 -0.0127  0.1033 -0.2608
 5708SOL    HW228587   2.852   4.374   1.963 -0.8370 -1.2154 -1.8657
 5709SOL     OW28588   1.150   3.767  10.837 -0.3860 -0.7260 -0.7462
 5709SOL    HW128589   1.199   3.745  10.758  1.4092 -2.9396  0.9735
 5709SOL    HW228590   1.218   3.806  10.893 -0.9943  0.8564 -1.1010
 5710SOL     OW28591   0.903   3.289   4.456 -0.5591 -0.3488 -0.6015
 5710SOL    HW128592   0.855   3.215   4.419  1.7324 -1.6832 -0.8941
 5710SOL    HW228593   0.877   3.371   4.414 -0.1979 -0.4151 -0.9468
 5711SOL     OW28594   1.821   2.042  13.003  0.6794  0.0505  0.1964
 5711SOL    HW128595   1.904   2.045  13.051  0.6989 -1.7676  0.2564
 5711SOL    HW228596   1.830   1.956  12.962 -1.1099  0.3374 -0.7947
 5712SOL     OW28597   2.842   2.316   2.902 -0.1474  0.1473  0.2679
 5712SOL    HW128598   2.845   2.263   2.822 -1.2986  1.2614 -0.5104
 5712SOL    HW228599   2.913   2.273   2.950  0.8123 -0.0850 -1.3469
 5713SOL     OW28600   3.822   2.231  11.512  1.1285  0.3762  0.2897
 5713SOL    HW128601   3.818   2.162  11.446  0.1797  0.4824  0.2403
 5713SOL    HW228602   3.902   2.205  11.557  1.2773 -2.0522 -1.3871
 5714SOL     OW28603   3.579   4.081   8.232  0.0336 -0.0458  0.2368
 5714SOL    HW128604   3.628   4.002   8.255 -2.0333 -1.2943  0.4554
 5714SOL    HW228605   3.570   4.067   8.138  0.4180  2.2946 -0.1422
 5715SOL     OW28606   4.510   2.364   5.311 -0.5012 -0.0220 -0.2919
 5715SOL    HW128607   4.533   2.405   5.395 -0.6633  1.5885 -1.0429
 5715SOL    HW228608   4.497   2.272   5.333 -0.9204 -0.1137 -0.9300
 5716SOL     OW28609   2.857   4.296   0.853 -0.2164 -0.4466 -0.1334
 5716SOL    HW128610   2.793   4.366   0.863  0.5717 -0.1944  3.2272
 5716SOL    HW228611   2.925   4.313   0.919  0.6108 -1.1996 -0.8030
 5717SOL     OW28612   0.544   4.359   6.188  0.4435 -0.0249 -0.2439
 5717SOL    HW128613   0.527   4.449   6.160  0.6676 -0.2016 -0.9395
 5717SOL    HW228614   0.630   4.374   6.226 -0.4809 -1.4199  2.3912
 5718SOL     OW28615   0.497   3.258   6.306 -0.6488  0.4158  0.3213
 5718SOL    HW128616   0.454   3.343   6.300 -1.1032 -0.1024 -3.6310
 5718SOL    HW228617   0.521   3.242   6.214  1.9113 -0.5329  1.1446
 5719SOL     OW28618   1.295   0.240   3.429 -0.3899 -0.1154 -0.6970
 5719SOL    HW128619   1.385   0.257   3.398 -0.8807 -1.4134 -2.8354
 5719SOL    HW228620   1.273   0.332   3.444  0.3583 -0.3426  1.7476
 5720SOL     OW28621   1.062   3.851   7.705 -0.0984 -0.0648  0.4941
 5720SOL    HW128622   0.971   3.822   7.716 -0.7654  1.4433 -1.0496
 5720SOL    HW228623   1.103   3.820   7.786 -1.3690  2.0998  1.9601
 5721SOL     OW28624   1.869   2.285   6.428 -0.2472 -0.0432 -0.5287
 5721SOL    HW128625   1.863   2.352   6.360  0.6752  0.4035 -0.1734
 5721SOL    HW228626   1.813   2.218   6.389 -1.2812  0.4527  0.0828
 5722SOL     OW28627   2.577   0.521  15.400  0.3040  0.0235  0.0763
 5722SOL    HW128628   2.482   0.514  15.389  0.2164  0.3838  0.6153
 5722SOL    HW228629   2.578   0.557  15.489  0.7513  0.3684 -0.0650
 5723SOL     OW28630   0.246   1.428   0.250 -0.0007  0.4780  0.3147
 5723SOL    HW128631   0.282   1.443   0.162 -1.1928 -2.2940 -0.6386
 5723SOL    HW228632   0.327   1.438   0.300 -0.9832 -0.8025  2.1561
 5724SOL     OW28633   0.265   3.672   2.656 -0.0837  1.0976 -0.0065
 5724SOL    HW128634   0.226   3.695   2.572 -1.6534 -0.2640  0.3539
 5724SOL    HW228635   0.305   3.587   2.638  0.3015  1.9061 -3.1341
 5725SOL     OW28636   3.381   2.770  12.956  0.2358  0.1659 -0.4158
 5725SOL    HW128637   3.404   2.854  12.917 -1.1745  0.3235 -0.9186
 5725SOL    HW228638   3.368   2.718  12.877  0.4545 -2.1074  1.0639
 5726SOL     OW28639   2.641   3.124   3.941  0.3012  0.6393 -0.1583
 5726SOL    HW128640   2.711   3.189   3.948 -0.6430  1.8464 -2.0281
 5726SOL    HW228641   2.574   3.183   3.908 -0.4625 -0.9845 -1.5448
 5727SOL     OW28642   2.931   1.096   6.034  0.2786  0.0262  0.4439
 5727SOL    HW128643   2.849   1.145   6.032 -0.6072 -1.5449 -2.7088
 5727SOL    HW228644   2.992   1.154   5.988 -0.1746  1.5791  1.8550
 5728SOL     OW28645   0.883   2.784   8.729 -0.6101  0.1047 -0.2054
 5728SOL    HW128646   0.929   2.782   8.813 -1.9292 -0.2184  0.5012
 5728SOL    HW228647   0.815   2.850   8.743  0.5103  0.9491  1.2806
 5729SOL     OW28648   4.466   1.421  10.787  0.0792  0.1889  0.4658
 5729SOL    HW128649   4.551   1.426  10.831 -0.0141 -0.0680  0.6783
 5729SOL    HW228650   4.452   1.513  10.767  2.3321  0.5492  0.4676
 5730SOL     OW28651   1.773   2.561   5.936  0.0671  0.2352  0.1213
 5730SOL    HW128652   1.721   2.501   5.883  1.8138  0.5698 -1.9908
 5730SOL    HW228653   1.849   2.564   5.877 -0.8528 -2.3948 -1.2109
 5731SOL     OW28654   0.592   2.965   1.864 -0.6675  0.1039 -0.0808
 5731SOL    HW128655   0.559   2.894   1.919 -3.8915  1.2993 -0.4514
 5731SOL    HW228656   0.549   2.943   1.781 -1.3248  2.5778 -0.4035
 5732SOL     OW28657   2.337   1.354   9.037  0.6900 -0.2530 -0.1176
 5732SOL    HW128658   2.351   1.448   9.026  1.7914 -0.4703 -0.5988
 5732SOL    HW228659   2.407   1.348   9.102 -1.7072  3.4090  2.7761
 5733SOL     OW28660   0.533   4.175   5.950 -0.3256 -0.0497 -0.0072
 5733SOL    HW128661   0.569   4.232   6.018 -1.7991 -0.0807  0.7962
 5733SOL    HW228662   0.608   4.116   5.943 -0.1418  0.3704 -1.5816
 5734SOL     OW28663   0.028   1.778   7.577  0.3653  0.4977 -0.1656
 5734SOL    HW128664   4.671   1.810   7.538  1.4079  3.8650  0.3693
 5734SOL    HW228665   0.089   1.821   7.516  1.9631  0.5300  1.4591
 5735SOL     OW28666   1.679   3.170  10.189 -0.5255 -0.1959 -0.1434
 5735SOL    HW128667   1.610   3.185  10.124 -0.1826  1.2723 -0.1572
 5735SOL    HW228668   1.632   3.118  10.254 -0.9863 -0.1010 -0.4010
 5736SOL     OW28669   1.908   0.800   3.180 -0.2105  0.0717 -0.1488
 5736SOL    HW128670   1.998   0.808   3.148 -0.1631 -1.8452 -0.5153
 5736SOL    HW228671   1.887   0.888   3.210 -0.3582  0.5088 -1.5070
 5737SOL     OW28672   1.043   4.031   5.890  0.2825  0.1385  0.1599
 5737SOL    HW128673   1.079   4.118   5.909  1.5344 -0.5882  1.0948
 5737SOL    HW228674   1.073   3.977   5.963  0.5747  0.5642  0.3539
 5738SOL     OW28675   1.441   1.248   7.944 -0.2506 -0.4721  0.0556
 5738SOL    HW128676   1.456   1.178   7.881  0.0973  1.6159 -2.1665
 5738SOL    HW228677   1.360   1.216   7.983 -0.4036 -1.8651 -1.3973
 5739SOL     OW28678   0.380   0.218  10.691 -0.0126  0.3985  0.1460
 5739SOL    HW128679   0.461   0.249  10.731  0.4787 -0.9557  0.2084
 5739SOL    HW228680   0.409   0.202  10.601  0.9963 -1.1911  0.7444
 5740SOL     OW28681   3.372   1.764   5.219  0.0560 -1.0201  0.0532
 5740SOL    HW128682   3.441   1.731   5.160  0.7931  0.6077  0.0169
 5740SOL    HW228683   3.385   1.858   5.219 -0.3190 -0.9622 -1.8303
 5741SOL     OW28684   0.726   2.161   2.812 -0.5026 -0.3360 -0.6155
 5741SOL    HW128685   0.775   2.087   2.776 -1.1636 -0.0213 -2.1483
 5741SOL    HW228686   0.784   2.236   2.801  0.5301 -0.9404  0.6089
 5742SOL     OW28687   1.293   3.115   8.497 -0.1278 -0.4701  0.9615
 5742SOL    HW128688   1.345   3.072   8.429 -0.8148  0.1506  0.0384
 5742SOL    HW228689   1.302   3.055   8.571 -1.2931 -0.2978  1.2487
 5743SOL     OW28690   2.632   4.152   7.657 -0.0308  0.0979  0.2387
 5743SOL    HW128691   2.579   4.125   7.732 -1.4051  0.3570 -0.6358
 5743SOL    HW228692   2.610   4.245   7.644  1.1131  0.5506  1.4471
 5744SOL     OW28693   0.207   0.598   6.310 -0.3851 -0.4197 -0.1081
 5744SOL    HW128694   0.165   0.675   6.272  1.3827  0.4558 -0.2740
 5744SOL    HW228695   0.282   0.636   6.356  1.0859 -1.5028 -1.6106
 5745SOL     OW28696   3.261   1.706   3.546  0.1353  0.5530  0.1973
 5745SOL    HW128697   3.333   1.765   3.569  1.3972 -0.6930 -0.5385
 5745SOL    HW228698   3.304   1.620   3.540 -1.4723 -0.2281 -0.2377
 5746SOL     OW28699   1.253   0.822   6.359 -0.2053 -0.1760  0.0657
 5746SOL    HW128700   1.172   0.830   6.409  0.6508  0.5745  1.3511
 5746SOL    HW228701   1.256   0.726   6.358 -0.1409 -0.2036  3.4351
 5747SOL     OW28702   3.134   3.904   8.721 -0.0622 -0.0423 -0.3062
 5747SOL    HW128703   3.108   3.815   8.747  1.3511 -0.4281 -0.2271
 5747SOL    HW228704   3.218   3.895   8.765  0.7036  0.5321 -1.6749
 5748SOL     OW28705   2.116   1.847  13.290  0.4379  0.3478 -0.0790
 5748SOL    HW128706   2.111   1.855  13.194 -1.2753  0.6699  0.0362
 5748SOL    HW228707   2.048   1.909  13.316 -1.3643 -1.5797 -0.1491
 5749SOL     OW28708   0.610   1.629   5.580 -0.1797 -0.0807  0.0183
 5749SOL    HW128709   0.687   1.677   5.612  0.1717  0.6905 -1.9632
 5749SOL    HW228710   0.596   1.672   5.495 -1.4510  0.4341  0.4902
 5750SOL     OW28711   1.332   3.192   8.858  0.1122 -0.1296  0.3744
 5750SOL    HW128712   1.319   3.199   8.953  0.8516  2.4761  0.2839
 5750SOL    HW228713   1.423   3.222   8.856  0.1526 -0.3369 -0.9688
 5751SOL     OW28714   4.120   1.852   8.369  0.0611 -0.0752  0.1523
 5751SOL    HW128715   4.078   1.930   8.405 -0.8342 -1.7922  2.9113
 5751SOL    HW228716   4.208   1.888   8.358 -0.2446  0.9599  1.1018
 5752SOL     OW28717   3.985   1.838   7.788  0.3466  0.0795  0.1415
 5752SOL    HW128718   3.980   1.816   7.695  0.1889  1.7154 -0.2315
 5752SOL    HW228719   3.899   1.824   7.826  0.6751  0.8175  1.1388
 5753SOL     OW28720   1.445   0.051   8.445  0.1884 -0.5946 -0.0899
 5753SOL    HW128721   1.391   0.129   8.460  1.2722  0.1046  0.1226
 5753SOL    HW228722   1.391   4.723   8.386 -0.2483  3.3804 -3.1944
 5754SOL     OW28723   1.594   4.287   9.624 -0.5415  0.4176 -0.4436
 5754SOL    HW128724   1.507   4.289   9.665  0.2996  0.4985  1.3175
 5754SOL    HW228725   1.597   4.369   9.574  2.1139  1.6372  1.7700
 5755SOL     OW28726   0.240   2.482   8.819  0.1727 -0.2015 -0.1760
 5755SOL    HW128727   0.159   2.504   8.864  2.2363 -1.0047  3.9703
 5755SOL    HW228728   0.213   2.522   8.736  1.3960  1.4044  0.1850
 5756SOL     OW28729   0.334   2.983   2.040  0.1118  0.0569  0.4908
 5756SOL    HW128730   0.314   3.001   2.132 -0.7579  0.8659  0.1308
 5756SOL    HW228731   0.367   3.071   2.022  0.1902  0.0341  0.5215
 5757SOL     OW28732   0.404   2.208  12.482 -0.2055  0.1062 -0.6534
 5757SOL    HW128733   0.376   2.120  12.459  0.5676 -1.2886  3.7170
 5757SOL    HW228734   0.483   2.220  12.431 -0.8873  1.7275 -1.3375
 5758SOL     OW28735   3.115   3.507   3.088  0.7916 -0.7566  0.3875
 5758SOL    HW128736   3.174   3.489   3.015  0.7916  0.2157  0.1501
 5758SOL    HW228737   3.031   3.508   3.042  1.8678 -0.1570 -1.5793
 5759SOL     OW28738   3.033   3.758  11.819  0.0619  0.6033  0.5538
 5759SOL    HW128739   2.972   3.684  11.824  0.5473  0.3112  2.2687
 5759SOL    HW228740   3.006   3.818  11.888 -2.2428  0.4083 -0.1907
 5760SOL     OW28741   0.132   2.648  11.763 -0.4466  0.3711  0.3708
 5760SOL    HW128742   0.147   2.642  11.857 -1.1314 -0.7962  0.3958
 5760SOL    HW228743   0.136   2.744  11.763 -0.0230  0.3454 -1.8085
 5761SOL     OW28744   3.283   3.718   5.850 -0.2256  0.4625  0.4020
 5761SOL    HW128745   3.317   3.782   5.912 -3.1144  1.2644  1.1365
 5761SOL    HW228746   3.335   3.731   5.771  0.4888 -1.5430  0.5398
 5762SOL     OW28747   4.668   0.795  10.727 -0.2417 -0.1135  0.6162
 5762SOL    HW128748   4.654   0.700  10.725  0.1953 -0.2485  3.2716
 5762SOL    HW228749   0.009   0.796  10.797  0.1916 -1.3237  0.2304
 5763SOL     OW28750   0.857   1.263   2.507  0.2362 -0.1535 -0.2953
 5763SOL    HW128751   0.836   1.356   2.518  0.0866 -0.4635  2.0294
 5763SOL    HW228752   0.808   1.233   2.430 -0.8476 -0.6193  0.5749
 5764SOL     OW28753   3.087   0.280   6.969 -0.1772 -0.1783  0.2078
 5764SOL    HW128754   3.009   0.300   7.020 -1.5303  0.2106 -2.0160
 5764SOL    HW228755   3.135   0.363   6.978 -1.6282  0.7267 -0.4006
 5765SOL     OW28756   3.035   3.769   4.547 -0.0968  0.7444  0.1692
 5765SOL    HW128757   3.080   3.849   4.521  0.4397  0.0700 -0.9314
 5765SOL    HW228758   3.088   3.731   4.617 -0.0927  1.2211  0.4283
 5766SOL     OW28759   1.963   3.945   3.651 -0.1847 -0.4200 -0.3721
 5766SOL    HW128760   2.033   3.883   3.673 -1.0412 -1.0905  0.4687
 5766SOL    HW228761   1.913   3.949   3.733 -0.1848  0.4434 -0.4126
 5767SOL     OW28762   4.556   1.989   8.046 -0.3967 -0.5904 -0.3535
 5767SOL    HW128763   4.484   1.967   8.106 -1.3065  3.7725  0.1165
 5767SOL    HW228764   4.545   1.917   7.984 -2.9502 -2.3570  2.1643
 5768SOL     OW28765   2.191   1.793   6.687  0.0172 -0.3250 -0.1966
 5768SOL    HW128766   2.279   1.764   6.664 -0.3788 -0.7827 -1.1308
 5768SOL    HW228767   2.166   1.848   6.613 -1.6023  0.2843  0.8063
 5769SOL     OW28768   2.773   1.268  16.545  0.1011 -0.1918 -0.2203
 5769SOL    HW128769   2.764   1.339  16.481  0.2034  1.2322  1.3318
 5769SOL    HW228770   2.750   1.325  16.619  2.0962  0.0812  0.1974
 5770SOL     OW28771   0.973   0.627   2.875  0.2387  0.1426 -0.5273
 5770SOL    HW128772   0.916   0.678   2.818  1.3186  3.5367  1.3899
 5770SOL    HW228773   1.004   0.565   2.809 -1.0179 -2.2525  1.1534
 5771SOL     OW28774   1.142   2.463   3.960  0.6947 -0.4206 -0.2609
 5771SOL    HW128775   1.226   2.484   3.918  0.8241  1.9193  1.1562
 5771SOL    HW228776   1.108   2.544   3.997 -1.4037 -1.7155  0.5955
 5772SOL     OW28777   3.043   2.993   7.437 -0.1255 -0.4091  0.4907
 5772SOL    HW128778   2.968   2.971   7.381 -0.2668 -0.3195  0.6438
 5772SOL    HW228779   3.005   3.029   7.517  1.2313 -0.7279  1.2674
 5773SOL     OW28780   0.865   2.096   4.730 -0.1673 -0.0489 -0.1723
 5773SOL    HW128781   0.770   2.097   4.742 -0.1091 -0.1992  0.2807
 5773SOL    HW228782   0.885   2.035   4.801 -0.6581 -1.8006 -1.5399
 5774SOL     OW28783   3.861   1.432   2.834  0.2426 -0.1712 -0.0541
 5774SOL    HW128784   3.807   1.510   2.845  2.1627  1.1219  0.3706
 5774SOL    HW228785   3.917   1.455   2.759  1.0891 -0.4901  0.4793
 5775SOL     OW28786   1.659   4.510   8.393  0.3262  0.1080 -0.1267
 5775SOL    HW128787   1.737   4.566   8.385 -1.9848  3.2189 -0.7884
 5775SOL    HW228788   1.589   4.568   8.366  0.7570  1.3654  1.4546
 5776SOL     OW28789   0.865   0.334  11.956  0.0096 -0.0745 -0.3259
 5776SOL    HW128790   0.852   0.282  12.035  1.0464  0.5922  0.2718
 5776SOL    HW228791   0.881   0.270  11.887 -1.0815 -0.5392 -0.1549
 5777SOL     OW28792   4.185   4.228   3.445  0.0752 -0.1809 -0.1823
 5777SOL    HW128793   4.094   4.244   3.471 -0.6473 -1.7776 -1.7082
 5777SOL    HW228794   4.185   4.275   3.361  2.7605 -1.2139 -0.7535
 5778SOL     OW28795   2.689   0.893   5.844  0.3160 -0.1172 -0.3405
 5778SOL    HW128796   2.685   0.988   5.834 -0.5155 -0.2322 -1.0969
 5778SOL    HW228797   2.736   0.886   5.927  0.7201 -2.4469 -0.7610
 5779SOL     OW28798   1.709   3.210   0.624 -0.7521 -0.3284 -0.2437
 5779SOL    HW128799   1.799   3.224   0.653 -0.2172 -1.4591 -1.3766
 5779SOL    HW228800   1.663   3.290   0.651 -0.2803 -0.2551  0.3609
 5780SOL     OW28801   3.369   4.329   3.439 -0.7411  0.1397 -0.1831
 5780SOL    HW128802   3.361   4.418   3.403 -1.4799 -0.8540 -2.5031
 5780SOL    HW228803   3.434   4.288   3.382 -1.0155 -0.6103  0.0476
 5781SOL     OW28804   4.434   0.204  16.746  0.2086 -0.3297 -0.2926
 5781SOL    HW128805   4.418   0.113  16.725  3.2765 -1.9317  4.2700
 5781SOL    HW228806   4.367   0.250  16.694 -0.1955  0.6115  1.0447
 5782SOL     OW28807   1.043   4.097   7.113 -0.1241  0.0688  0.4651
 5782SOL    HW128808   1.119   4.136   7.071 -0.5047  0.3184  0.0056
 5782SOL    HW228809   1.064   4.110   7.205  0.1741 -1.2910  0.5970
 5783SOL     OW28810   2.894   2.187   3.353 -0.0075 -0.1827 -0.2545
 5783SOL    HW128811   2.839   2.264   3.369  0.6684  0.5072 -1.2559
 5783SOL    HW228812   2.932   2.164   3.438 -2.9850  2.6450  1.8600
 5784SOL     OW28813   3.631   1.840  10.481  0.7324  0.6570 -1.3388
 5784SOL    HW128814   3.589   1.884  10.555 -0.5837 -0.1695 -1.5835
 5784SOL    HW228815   3.679   1.764  10.514 -0.5938  0.7627  0.7988
 5785SOL     OW28816   2.581   0.804  16.272  0.0992 -0.5706  0.4443
 5785SOL    HW128817   2.665   0.773  16.305  0.9639  0.1460 -1.0628
 5785SOL    HW228818   2.574   0.891  16.312  0.4322  0.5691 -1.9220
 5786SOL     OW28819   1.970   0.482   8.143  0.1055  0.3232  0.0573
 5786SOL    HW128820   1.980   0.397   8.187 -0.3348  0.5683  0.6274
 5786SOL    HW228821   1.956   0.455   8.052 -2.0210 -1.3550  0.8708
 5787SOL     OW28822   0.731   1.457  17.031 -0.0393 -0.2657  0.3884
 5787SOL    HW128823   0.679   1.388  16.991  0.6346 -1.6025  1.8221
 5787SOL    HW228824   0.677   1.536  17.023  0.6224  0.1095 -0.3650
 5788SOL     OW28825   1.476   0.161   7.582 -0.1900 -0.3635 -0.2311
 5788SOL    HW128826   1.506   0.117   7.502  1.6217  3.4283 -1.6246
 5788SOL    HW228827   1.397   0.109   7.596  0.1437 -0.7107  0.3543
 5789SOL     OW28828   1.968   2.084   6.712  0.3477  0.2384  0.1865
 5789SOL    HW128829   1.887   2.134   6.701  0.8495  0.6726 -1.5833
 5789SOL    HW228830   1.964   2.058   6.804 -0.5620  1.8735  0.5990
 5790SOL     OW28831   2.845   3.988   0.852 -0.1532  0.1564 -0.2466
 5790SOL    HW128832   2.797   4.070   0.862 -0.4471 -0.0391 -0.0625
 5790SOL    HW228833   2.803   3.929   0.914  3.3539 -0.7852  1.2540
 5791SOL     OW28834   2.167   4.510   8.044  0.6658  0.2387  0.0915
 5791SOL    HW128835   2.151   4.456   7.967  1.6737  1.2417 -0.8139
 5791SOL    HW228836   2.262   4.514   8.038  0.6834 -0.4767 -0.0144
 5792SOL     OW28837   1.104   2.226   2.594 -0.3138 -0.3471 -0.1024
 5792SOL    HW128838   1.190   2.250   2.560  0.7476 -0.7634  2.3031
 5792SOL    HW228839   1.083   2.146   2.544 -3.6036  0.4647 -0.0360
 5793SOL     OW28840   4.499   0.916  15.667 -0.5409  0.6630  0.3664
 5793SOL    HW128841   4.581   0.944  15.626 -0.7922 -0.1461 -0.6832
 5793SOL    HW228842   4.534   0.875  15.746 -0.4418 -1.4556 -0.7595
 5794SOL     OW28843   4.711   1.506  17.150 -0.1117 -0.0227  0.1024
 5794SOL    HW128844   0.002   1.419  17.188 -2.1976  0.8806  2.9861
 5794SOL    HW228845   4.635   1.476  17.102  0.5756 -1.0295 -0.3647
 5795SOL     OW28846   3.369   3.798   8.863 -0.9203  0.7638 -0.7851
 5795SOL    HW128847   3.420   3.877   8.882  1.8860 -1.5220  1.2420
 5795SOL    HW228848   3.364   3.749   8.945  2.3932  1.1893 -0.3268
 5796SOL     OW28849   1.116   2.391   3.481  0.4567 -0.2922  0.6186
 5796SOL    HW128850   1.092   2.383   3.388 -0.8005 -1.7048  1.0472
 5796SOL    HW228851   1.164   2.473   3.486 -1.6977  0.8498  2.3301
 5797SOL     OW28852   3.747   2.299   2.814 -0.1426  0.2124  0.0390
 5797SOL    HW128853   3.835   2.261   2.808  0.7999  2.0243  2.2820
 5797SOL    HW228854   3.704   2.225   2.856 -0.3299  1.1033  1.4315
 5798SOL     OW28855   0.332   1.219   7.512 -0.2531 -0.1525 -0.3437
 5798SOL    HW128856   0.272   1.145   7.502 -0.0255 -0.5331  1.0272
 5798SOL    HW228857   0.346   1.240   7.420  0.0212  0.5506 -0.1435
 5799SOL     OW28858   2.582   0.675   3.617 -0.6100 -0.1863  0.3692
 5799SOL    HW128859   2.558   0.767   3.602 -1.4121 -0.3947  0.3832
 5799SOL    HW228860   2.647   0.682   3.687  0.0892 -0.4517 -0.2500
 5800SOL     OW28861   3.759   3.550   2.761 -0.2641 -0.6260  0.0909
 5800SOL    HW128862   3.787   3.468   2.803  0.2549 -0.3742  0.2445
 5800SOL    HW228863   3.802   3.540   2.676 -0.6826  1.5938 -0.3642
 5801SOL     OW28864   0.711   4.417  12.170 -0.1177  0.4244 -0.0626
 5801SOL    HW128865   0.645   4.473  12.212 -0.7871  2.2488 -3.5411
 5801SOL    HW228866   0.771   4.486  12.142  3.6939 -3.1841 -0.7971
 5802SOL     OW28867   3.527   1.632   2.344 -0.4267 -0.0411 -0.1889
 5802SOL    HW128868   3.435   1.615   2.323  0.0495 -1.9467 -0.7434
 5802SOL    HW228869   3.569   1.547   2.334 -0.8616  0.1976 -4.3469
 5803SOL     OW28870   4.459   2.503  15.802 -0.7746 -0.2215  0.1961
 5803SOL    HW128871   4.534   2.540  15.848  0.5530 -1.3398 -1.0638
 5803SOL    HW228872   4.420   2.582  15.764  0.6864  0.0553 -0.7316
 5804SOL     OW28873   1.345   1.340   4.055 -0.3271  0.4396  0.6085
 5804SOL    HW128874   1.311   1.390   3.981  2.0185  1.0179 -0.0867
 5804SOL    HW228875   1.408   1.406   4.086  1.5838 -0.1148 -2.0774
 5805SOL     OW28876   2.056   1.503  17.246  0.1570  0.1730 -0.0033
 5805SOL    HW128877   1.973   1.455  17.242  0.5768 -0.6536  1.0391
 5805SOL    HW228878   2.030   1.590  17.218  0.9050  0.6822  0.9066
 5806SOL     OW28879   2.741   4.657   5.986 -0.0465  0.1867 -0.2317
 5806SOL    HW128880   2.668   4.673   6.046  0.6971 -1.8308  1.2125
 5806SOL    HW228881   2.707   4.587   5.931  1.5813 -0.4209 -0.4597
 5807SOL     OW28882   4.682   3.800  15.528 -0.0053  0.3188 -0.1385
 5807SOL    HW128883   4.619   3.865  15.499  2.1228  0.7120 -3.8982
 5807SOL    HW228884   4.649   3.721  15.486  0.4754 -0.2209  0.4780
 5808SOL     OW28885   0.581   0.824   5.091 -0.6197  0.1045  0.5305
 5808SOL    HW128886   0.660   0.833   5.144  0.8086  2.1770 -1.9365
 5808SOL    HW228887   0.540   0.747   5.130 -2.2314 -0.2218 -1.7883
 5809SOL     OW28888   4.527   3.556  17.623  0.0492  0.0033 -0.7285
 5809SOL    HW128889   4.552   3.506  17.545 -0.9812 -0.1708 -0.9372
 5809SOL    HW228890   4.491   3.490  17.682  0.4027  0.3953 -0.0645
 5810SOL     OW28891   0.778   2.165   7.131 -0.9324 -0.4466  0.0046
 5810SOL    HW128892   0.693   2.131   7.160 -0.3568 -2.0319 -0.1661
 5810SOL    HW228893   0.831   2.092   7.164  0.2400  0.7926  0.8140
 5811SOL     OW28894   1.901   2.108   3.039  0.0809  0.5865  0.2037
 5811SOL    HW128895   1.972   2.172   3.045 -0.6631  1.6213 -2.3365
 5811SOL    HW228896   1.859   2.112   2.953  2.2717  1.9108 -0.8107
 5812SOL     OW28897   0.897   0.980   4.043  0.4932  0.4366 -0.1185
 5812SOL    HW128898   0.876   1.069   4.070 -1.8438 -0.5296  1.2360
 5812SOL    HW228899   0.986   0.977   4.007 -0.2482 -1.2405 -1.8162
 5813SOL     OW28900   4.260   2.378   4.255  0.5856  0.1206 -0.2303
 5813SOL    HW128901   4.214   2.461   4.262  1.0167  0.3401  0.0288
 5813SOL    HW228902   4.352   2.405   4.256  0.9083 -0.9037 -2.3609
 5814SOL     OW28903   2.011   2.784   6.523  0.5277  0.5136 -0.5832
 5814SOL    HW128904   2.050   2.810   6.440 -0.9013  0.8627 -1.1495
 5814SOL    HW228905   1.959   2.862   6.541  0.1667  0.4484 -1.3273
 5815SOL     OW28906   0.403   4.058   5.733  0.0991  0.1315 -0.3619
 5815SOL    HW128907   0.460   4.117   5.782  1.4005 -1.0460 -0.4501
 5815SOL    HW228908   0.420   3.977   5.781 -1.9783 -0.7717 -1.1366
 5816SOL     OW28909   1.086   1.397   6.518  0.4153 -0.6706 -0.3744
 5816SOL    HW128910   1.175   1.426   6.536 -0.0627 -0.4951  1.7477
 5816SOL    HW228911   1.094   1.393   6.423 -1.4213 -0.3954 -0.5408
 5817SOL     OW28912   2.503   1.110   7.739 -0.1981 -0.8580 -0.3330
 5817SOL    HW128913   2.486   1.123   7.646  1.8979  1.5057 -0.3560
 5817SOL    HW228914   2.416   1.082   7.768 -0.7389  0.4680 -0.6886
 5818SOL     OW28915   0.692   1.119   4.195 -0.3452 -0.6146  0.6708
 5818SOL    HW128916   0.695   1.082   4.284 -0.9148 -0.5405  0.7219
 5818SOL    HW228917   0.605   1.159   4.197  0.0962  0.4185 -1.3550
 5819SOL     OW28918   0.141   3.255  10.983  0.2053 -0.1274  0.1756
 5819SOL    HW128919   0.146   3.192  10.912 -0.5102  0.2282 -0.1918
 5819SOL    HW228920   0.127   3.331  10.926 -0.6039 -1.1504 -1.0032
 5820SOL     OW28921   3.546   2.197  13.922  0.1623  0.2682 -0.0527
 5820SOL    HW128922   3.482   2.137  13.884  0.7655 -0.6588  0.3678
 5820SOL    HW228923   3.572   2.153  14.004 -1.7227 -1.3698 -0.3491
 5821SOL     OW28924   4.577   2.526  14.974 -0.3309  0.2978  0.3873
 5821SOL    HW128925   4.522   2.482  15.038 -2.8613 -0.1504 -2.1173
 5821SOL    HW228926   4.517   2.511  14.901  1.6330  1.0002 -1.4179
 5822SOL     OW28927   1.791   0.155   5.020 -0.6220 -0.4671 -0.5893
 5822SOL    HW128928   1.758   0.066   5.013 -1.3055 -0.1441 -1.6228
 5822SOL    HW228929   1.794   0.190   4.930 -0.8663  0.1042 -0.3756
 5823SOL     OW28930   1.689   0.544   5.919 -0.2867  0.6366  0.1819
 5823SOL    HW128931   1.783   0.527   5.916 -0.4839 -0.4335  0.0942
 5823SOL    HW228932   1.650   0.458   5.934  0.8656  0.1788  0.5724
 5824SOL     OW28933   4.042   2.142  14.159  0.4354  0.1643 -0.1864
 5824SOL    HW128934   4.001   2.183  14.084 -0.9875 -0.2831  0.3443
 5824SOL    HW228935   4.124   2.104  14.127  0.5725  1.5275 -1.4236
 5825SOL     OW28936   1.421   3.231  10.035  0.2459  0.2384  0.2783
 5825SOL    HW128937   1.463   3.312  10.008  2.4914 -1.1864 -0.5072
 5825SOL    HW228938   1.348   3.259  10.089  1.3907 -1.3041  2.6243
 5826SOL     OW28939   1.643   0.919   2.412 -0.0520 -0.0871 -0.1803
 5826SOL    HW128940   1.723   0.968   2.393  0.1110  0.4379  1.8655
 5826SOL    HW228941   1.625   0.955   2.498  1.2339 -0.2553  0.1612
 5827SOL     OW28942   2.588   1.893   9.733 -0.0532  0.2349 -0.0051
 5827SOL    HW128943   2.606   1.961   9.798  0.9934  0.5378 -0.6092
 5827SOL    HW228944   2.657   1.908   9.668 -0.8898 -1.1566 -1.1950
 5828SOL     OW28945   1.356   0.596  11.101 -0.2020 -0.2342  0.2602
 5828SOL    HW128946   1.337   0.655  11.174 -4.6012 -2.4354  0.9365
 5828SOL    HW228947   1.403   0.657  11.044  3.2294  0.1299  3.4575
 5829SOL     OW28948   3.108   4.585   6.412 -0.0131  0.1717 -0.5071
 5829SOL    HW128949   3.013   4.579   6.408  0.1475 -2.9269  0.8476
 5829SOL    HW228950   3.115   4.580   6.507  0.5765  1.4254 -0.4791
 5830SOL     OW28951   0.357   1.482   4.709 -0.0827 -0.5346 -0.3706
 5830SOL    HW128952   0.351   1.418   4.780 -0.0868 -0.3844 -0.2376
 5830SOL    HW228953   0.451   1.495   4.699  0.0242 -1.5276 -0.7014
 5831SOL     OW28954   4.008   2.066  16.619 -0.2398 -0.2247  0.2665
 5831SOL    HW128955   4.017   1.992  16.679  3.5818 -0.2169 -0.2667
 5831SOL    HW228956   4.036   2.138  16.676  2.0191 -0.6244 -0.3242
 5832SOL     OW28957   2.290   3.645   4.701  0.1494 -0.1911  0.0957
 5832SOL    HW128958   2.211   3.622   4.651 -0.2555 -1.3990  1.2755
 5832SOL    HW228959   2.293   3.567   4.757 -1.4383 -0.7740 -0.6389
 5833SOL     OW28960   2.897   0.912   6.566 -0.3808  0.5129  0.2425
 5833SOL    HW128961   2.822   0.865   6.531 -0.0498  1.2083 -1.4008
 5833SOL    HW228962   2.870   1.003   6.551 -1.4120  0.2215  0.3474
 5834SOL     OW28963   2.184   3.350   9.030  0.0406 -0.2118  0.0026
 5834SOL    HW128964   2.222   3.407   9.097  2.4121 -0.9881 -0.7001
 5834SOL    HW228965   2.245   3.277   9.040  0.2680 -0.0832 -0.4674
 5835SOL     OW28966   0.418   4.689  14.190  0.1182 -0.2871  0.3603
 5835SOL    HW128967   0.503   4.699  14.146 -0.3277 -1.4783 -0.7455
 5835SOL    HW228968   0.453   4.656  14.273 -0.3842 -1.4139  0.1192
 5836SOL     OW28969   1.424   3.335   5.290  0.3431 -0.2288  0.3693
 5836SOL    HW128970   1.452   3.306   5.377  2.8161  0.6996 -0.1186
 5836SOL    HW228971   1.501   3.383   5.259  0.8775 -0.8891  0.6503
 5837SOL     OW28972   0.493   0.838   3.162  0.0888  0.3501 -0.1652
 5837SOL    HW128973   0.583   0.854   3.134  0.4913 -2.9774 -0.7978
 5837SOL    HW228974   0.447   0.911   3.121  0.6812 -0.2954 -1.9659
 5838SOL     OW28975   2.018   2.709   6.071  0.0422 -0.9224  0.3195
 5838SOL    HW128976   2.024   2.745   6.159 -0.4602  0.9524 -0.4036
 5838SOL    HW228977   1.934   2.668   6.089 -1.4565  1.6041 -0.8590
 5839SOL     OW28978   4.023   1.309   5.931 -0.0981  0.0781 -0.3046
 5839SOL    HW128979   4.104   1.352   5.904 -0.6362  0.7494 -0.8625
 5839SOL    HW228980   3.976   1.377   5.980 -0.8256  0.2239 -1.2021
 5840SOL     OW28981   3.180   2.800   1.124 -0.0605 -0.0414  0.3666
 5840SOL    HW128982   3.107   2.741   1.141 -0.4657  0.0423 -1.0529
 5840SOL    HW228983   3.248   2.738   1.149 -0.1892 -0.2177  0.2776
 5841SOL     OW28984   3.372   3.159   5.958  0.0743 -0.0655 -1.0471
 5841SOL    HW128985   3.418   3.242   5.963 -1.4298  0.6724  0.9198
 5841SOL    HW228986   3.281   3.185   5.946  0.3588  1.0419 -0.7886
 5842SOL     OW28987   3.819   0.135   3.268 -0.3567 -0.4437 -0.1984
 5842SOL    HW128988   3.853   0.210   3.219 -1.0940  0.1522  0.2038
 5842SOL    HW228989   3.886   0.072   3.241 -2.5374 -1.6411 -2.9792
 5843SOL     OW28990   4.306   2.826   2.209  0.3648  0.2770  0.4617
 5843SOL    HW128991   4.315   2.919   2.188  1.4441  0.2256  0.6735
 5843SOL    HW228992   4.231   2.819   2.268 -0.1763  2.8129  0.0979
 5844SOL     OW28993   4.248   0.640   2.566 -1.0680  0.6757 -0.1964
 5844SOL    HW128994   4.188   0.583   2.517 -0.8176  1.9457 -1.9712
 5844SOL    HW228995   4.331   0.616   2.523 -0.5127 -0.3435  1.4220
 5845SOL     OW28996   1.084   4.561   9.227  0.0058 -0.2922  0.1702
 5845SOL    HW128997   1.115   4.642   9.186  2.6430 -1.0944  0.5577
 5845SOL    HW228998   1.000   4.546   9.183  0.2047 -1.6900  0.2696
 5846SOL     OW28999   4.505   4.693   4.917  0.3069  0.4631  0.3032
 5846SOL    HW129000   4.544   4.685   4.830 -1.4961 -0.4003 -0.4300
 5846SOL    HW229001   4.541   0.052   4.947  0.7429 -0.1507  1.4597
 5847SOL     OW29002   0.442   0.509  14.663  0.2376  0.3018 -0.3486
 5847SOL    HW129003   0.444   0.466  14.748  1.0996  1.5599  0.2648
 5847SOL    HW229004   0.349   0.533  14.656 -0.3953 -2.1189 -0.2858
 5848SOL     OW29005   4.463   3.578   4.610  0.4489  0.5149  0.0719
 5848SOL    HW129006   4.388   3.633   4.584 -0.2059  0.0909  1.0559
 5848SOL    HW229007   4.457   3.552   4.702 -0.4817 -1.2067 -0.4626
 5849SOL     OW29008   1.988   0.600   2.974  0.4371 -0.1272  0.2708
 5849SOL    HW129009   1.936   0.658   2.919  0.9027 -1.5700 -1.6865
 5849SOL    HW229010   1.918   0.556   3.022 -0.4646  2.3622  1.2062
 5850SOL     OW29011   2.676   4.041  17.699 -0.1336  0.2151  0.1415
 5850SOL    HW129012   2.681   4.034   0.095 -1.9120  2.6681  0.4263
 5850SOL    HW229013   2.637   4.128  17.689 -1.5211 -0.4864 -0.5796
 5851SOL     OW29014   3.069   2.738   7.089 -0.6365  0.4200 -0.1840
 5851SOL    HW129015   3.052   2.675   7.159 -1.3684  0.3174 -0.4484
 5851SOL    HW229016   3.164   2.748   7.096 -0.4873 -0.8601 -0.5063
 5852SOL     OW29017   3.639   3.379  16.610 -0.5267  0.0286 -0.1815
 5852SOL    HW129018   3.677   3.334  16.686  1.9952  0.4729 -1.1525
 5852SOL    HW229019   3.717   3.416  16.568 -1.1176  1.1080 -0.2992
 5853SOL     OW29020   4.660   3.185   9.531 -0.7246 -0.3245  0.5679
 5853SOL    HW129021   4.581   3.228   9.566 -2.2187 -0.8416 -2.1512
 5853SOL    HW229022   4.707   3.261   9.496 -1.0038 -1.0204 -1.3671
 5854SOL     OW29023   2.569   3.035   8.203 -0.2212  0.2501  0.2370
 5854SOL    HW129024   2.514   3.071   8.134 -3.5934 -3.2063  1.1668
 5854SOL    HW229025   2.605   2.961   8.155 -4.5393 -0.9342 -1.1342
 5855SOL     OW29026   1.985   2.023  15.496 -0.3347 -0.2075 -0.2842
 5855SOL    HW129027   1.952   2.112  15.495 -1.8127 -0.7455  0.5590
 5855SOL    HW229028   1.912   1.978  15.539 -1.2464 -1.4698 -3.1913
 5856SOL     OW29029   4.218   4.098   7.495 -0.2625 -0.3594  0.3823
 5856SOL    HW129030   4.249   4.166   7.435  0.6372 -0.8581  0.2891
 5856SOL    HW229031   4.131   4.134   7.511 -0.4140 -0.7442  0.4282
 5857SOL     OW29032   2.773   3.938   1.616 -0.3351  0.1275  0.1363
 5857SOL    HW129033   2.772   3.843   1.631 -1.9906  0.2174  0.6327
 5857SOL    HW229034   2.868   3.947   1.624 -0.6458  1.5404  2.2039
 5858SOL     OW29035   2.154   1.154  16.862 -0.4327 -0.5279 -0.4832
 5858SOL    HW129036   2.184   1.070  16.896  1.9815  0.2026 -0.8467
 5858SOL    HW229037   2.153   1.194  16.949 -0.1834  0.3581 -0.8937
 5859SOL     OW29038   0.972   4.442   1.854 -0.4100  0.0021 -0.0096
 5859SOL    HW129039   1.034   4.380   1.816  0.3509  0.0109  1.1877
 5859SOL    HW229040   0.956   4.507   1.786  0.7967  0.6997  0.3712
 5860SOL     OW29041   4.267   1.561   8.945 -0.7234  0.1872  0.4670
 5860SOL    HW129042   4.330   1.492   8.964 -0.2447  0.7309  0.8553
 5860SOL    HW229043   4.184   1.514   8.951 -0.8627  0.4229  0.3868
 5861SOL     OW29044   3.102   1.150   3.148 -0.6492 -0.7457  0.5175
 5861SOL    HW129045   3.019   1.183   3.183 -0.4285 -1.8694  2.0946
 5861SOL    HW229046   3.150   1.233   3.150  0.2549 -1.2252 -0.7569
 5862SOL     OW29047   0.283   2.358   2.448 -0.0090 -0.1101  0.0754
 5862SOL    HW129048   0.308   2.432   2.504  1.2739 -0.4326 -0.0636
 5862SOL    HW229049   0.375   2.341   2.425  0.5343  0.6890  1.6565
 5863SOL     OW29050   1.383   1.237   4.998 -0.1948  0.6058  0.0929
 5863SOL    HW129051   1.448   1.272   4.937 -0.0166  1.7430  0.9472
 5863SOL    HW229052   1.418   1.148   4.990 -0.6854  0.3154  1.1619
 5864SOL     OW29053   1.628   0.398  16.272  0.1112  0.0832 -0.9249
 5864SOL    HW129054   1.622   0.341  16.349  0.1006  0.3933 -0.6958
 5864SOL    HW229055   1.640   0.324  16.213 -0.7349 -1.7514  1.2332
 5865SOL     OW29056   3.457   3.210   7.185  0.0635  0.1224 -0.1047
 5865SOL    HW129057   3.477   3.232   7.276 -0.7972  0.5243 -0.0144
 5865SOL    HW229058   3.369   3.172   7.188 -0.5570  1.5322 -1.0094
 5866SOL     OW29059   1.669   2.207   0.937 -0.8552  0.4054 -0.2282
 5866SOL    HW129060   1.638   2.272   0.875  0.0799  0.3570 -0.7539
 5866SOL    HW229061   1.688   2.252   1.019 -0.5336  1.5793 -0.9390
 5867SOL     OW29062   1.459   0.677   7.275  0.2754  0.7577 -0.1399
 5867SOL    HW129063   1.526   0.618   7.311  1.1004  1.4804 -0.4646
 5867SOL    HW229064   1.485   0.765   7.305  0.9316  0.7861 -0.7901
 5868SOL     OW29065   1.539   4.472   5.781  0.1912  0.6320 -0.4295
 5868SOL    HW129066   1.463   4.480   5.724 -0.0175 -2.4388 -0.6012
 5868SOL    HW229067   1.607   4.473   5.714 -0.0306  3.4643 -0.6179
 5869SOL     OW29068   0.798   2.068   0.217  0.3723  0.0866 -0.0583
 5869SOL    HW129069   0.833   1.981   0.196  1.3700  0.7891 -1.3721
 5869SOL    HW229070   0.804   2.054   0.311  1.3682  1.1256  0.0346
 5870SOL     OW29071   1.409   0.072   5.539  0.1398  0.5351  0.3035
 5870SOL    HW129072   1.502   0.089   5.520  0.2621 -0.6999 -0.1821
 5870SOL    HW229073   1.368   0.078   5.453 -1.6070  1.3886  1.2060
 5871SOL     OW29074   2.716   1.366   9.736 -0.3397 -0.1501  0.3861
 5871SOL    HW129075   2.666   1.367   9.817  0.5419 -0.2982  0.9342
 5871SOL    HW229076   2.708   1.456   9.704 -1.5830 -0.3934  0.0129
 5872SOL     OW29077   3.188   1.272  11.600 -0.4273 -0.1072  0.0848
 5872SOL    HW129078   3.134   1.195  11.617 -1.1238  0.5354  0.7490
 5872SOL    HW229079   3.167   1.322  11.679  0.1601 -0.7137  0.6208
 5873SOL     OW29080   2.855   1.946  10.387 -0.5668  0.4393  0.1647
 5873SOL    HW129081   2.842   2.026  10.438  1.9065  0.5422  0.6152
 5873SOL    HW229082   2.795   1.887  10.434  1.2735 -1.2761  0.3549
 5874SOL     OW29083   2.873   0.192   8.715  0.3365 -0.3650  0.1311
 5874SOL    HW129084   2.893   0.220   8.626  0.0617  1.5346  0.6808
 5874SOL    HW229085   2.959   0.171   8.750 -0.2858 -1.6447  0.9372
 5875SOL     OW29086   0.154   1.055   1.506  0.1695  0.0294  0.2164
 5875SOL    HW129087   0.207   1.116   1.456  1.4816 -0.8420  0.5434
 5875SOL    HW229088   0.194   0.977   1.466 -1.3865 -1.6591  1.9066
 5876SOL     OW29089   1.576   1.619  16.704  0.9639  0.4396  0.0227
 5876SOL    HW129090   1.640   1.610  16.775  2.0130  1.1301 -0.8369
 5876SOL    HW229091   1.631   1.643  16.630  0.1495  3.0453  0.2522
 5877SOL     OW29092   2.785   1.934  15.247  0.0908 -0.0708  0.2125
 5877SOL    HW129093   2.696   1.901  15.232 -0.4465  0.5308  2.0803
 5877SOL    HW229094   2.815   1.938  15.157  1.5136  1.4053  0.7617
 5878SOL     OW29095   3.981   2.432   5.065  0.0153  0.3395 -0.2112
 5878SOL    HW129096   4.059   2.418   5.011 -0.0110 -2.5597  0.5071
 5878SOL    HW229097   3.990   2.528   5.068  3.0634  0.1155 -1.7984
 5879SOL     OW29098   1.089   0.833   4.638 -0.0104  0.1192 -0.2617
 5879SOL    HW129099   1.170   0.850   4.590 -0.8959  1.5556 -1.2341
 5879SOL    HW229100   1.091   0.880   4.721 -0.7392 -2.0190  0.9782
 5880SOL     OW29101   1.512   3.170   6.169 -0.2446  0.3887  0.5316
 5880SOL    HW129102   1.439   3.121   6.132  0.2071  0.1047  0.0128
 5880SOL    HW229103   1.585   3.155   6.109  0.2325  0.8164  1.0087
 5881SOL     OW29104   4.577   1.192   4.803 -0.0737  0.1574 -0.4471
 5881SOL    HW129105   4.500   1.139   4.825  0.3447 -0.2948 -0.0556
 5881SOL    HW229106   4.578   1.198   4.708 -1.6077 -2.0123 -0.5990
 5882SOL     OW29107   2.497   2.329   4.407 -0.3153 -0.0748  0.2477
 5882SOL    HW129108   2.579   2.379   4.401 -0.3343 -0.0544  0.1615
 5882SOL    HW229109   2.525   2.267   4.339 -1.4154 -0.0220 -0.2467
 5883SOL     OW29110   0.134   4.045   1.352 -0.2470 -0.0964 -0.6224
 5883SOL    HW129111   0.186   4.120   1.382  1.7093 -1.2550 -1.1027
 5883SOL    HW229112   0.182   4.026   1.271 -3.1275 -1.7224 -1.9271
 5884SOL     OW29113   4.062   3.883   6.298  0.2272 -0.0584  0.3403
 5884SOL    HW129114   4.116   3.961   6.286  0.3662 -0.6090 -2.6262
 5884SOL    HW229115   4.051   3.851   6.208 -1.4812 -1.2913  0.9831
 5885SOL     OW29116   4.159   2.909  17.114  0.2540  0.5662 -0.3885
 5885SOL    HW129117   4.194   2.857  17.187  0.4625  0.5791 -0.4778
 5885SOL    HW229118   4.219   2.906  17.039  0.8522  1.9162  0.0280
 5886SOL     OW29119   1.410   3.822   7.538 -0.0400  0.8269 -0.0130
 5886SOL    HW129120   1.339   3.757   7.543 -0.3887  1.1519 -0.7129
 5886SOL    HW229121   1.460   3.794   7.615  1.3264  0.4270 -1.0469
 5887SOL     OW29122   1.849   2.354   3.598  0.1834 -0.4856  0.6238
 5887SOL    HW129123   1.921   2.370   3.536 -0.0522 -1.8009 -0.0049
 5887SOL    HW229124   1.872   2.269   3.637 -0.6768 -1.1415 -0.3090
 5888SOL     OW29125   0.927   4.688   4.542 -0.2928 -0.1758 -0.0919
 5888SOL    HW129126   0.994   4.666   4.477  0.6841  1.7153  0.2791
 5888SOL    HW229127   0.897   0.046   4.503  1.4059  0.3688 -0.2294
 5889SOL     OW29128   4.468   4.290   4.018 -0.2161  0.3551  0.0035
 5889SOL    HW129129   4.376   4.268   4.010 -0.3222  0.5786  0.5660
 5889SOL    HW229130   4.497   4.206   4.052  0.7584  0.6513 -0.0868
 5890SOL     OW29131   3.298   1.261   9.835  0.2791  0.3156 -0.0583
 5890SOL    HW129132   3.265   1.288   9.921  0.4643  1.0651 -0.2239
 5890SOL    HW229133   3.241   1.303   9.771  1.8395  0.8182 -1.1233
 5891SOL     OW29134   0.512   4.641   8.709 -0.3145 -0.1902  0.1764
 5891SOL    HW129135   0.453   4.664   8.780  1.8447  2.3332  1.1872
 5891SOL    HW229136   0.568   4.572   8.743  0.4010 -0.7268 -2.0926
 5892SOL     OW29137   1.979   0.444   9.088 -0.1761  0.5369 -0.6595
 5892SOL    HW129138   2.064   0.486   9.100 -1.7683  3.2178  1.0758
 5892SOL    HW229139   1.921   0.504   9.134 -1.8457 -1.4038 -0.1967
 5893SOL     OW29140   4.452   3.004  13.849  0.7759 -0.0348  0.4889
 5893SOL    HW129141   4.410   2.940  13.791 -0.8978  0.5921  1.0046
 5893SOL    HW229142   4.473   3.085  13.802 -1.8227 -0.3521 -1.2829
 5894SOL     OW29143   3.897   1.598   3.431  0.0145 -0.0224 -0.1539
 5894SOL    HW129144   3.968   1.621   3.371  1.0377  0.9862  1.4166
 5894SOL    HW229145   3.955   1.563   3.500  0.4096 -0.9277 -0.9499
 5895SOL     OW29146   0.126   1.765   8.829  0.4734  0.0931 -0.1257
 5895SOL    HW129147   0.175   1.806   8.758 -0.3164  1.5938  0.1891
 5895SOL    HW229148   0.039   1.799   8.810  0.4477 -1.5854 -3.0479
 5896SOL     OW29149   4.680   0.308   3.926  0.0264 -0.5930 -0.1348
 5896SOL    HW129150   0.006   0.266   3.856 -0.0621  0.8832 -1.0910
 5896SOL    HW229151   4.623   0.358   3.868 -0.4888 -2.7159 -1.4563
 5897SOL     OW29152   0.118   0.320   4.740  0.0607 -0.3664  0.3872
 5897SOL    HW129153   0.065   0.393   4.772  1.8758  1.1302 -0.0587
 5897SOL    HW229154   0.071   0.252   4.789 -1.8483  1.7515  1.4954
 5898SOL     OW29155   3.910   3.199  17.275  0.1662  0.3174 -0.0392
 5898SOL    HW129156   3.974   3.254  17.230 -0.5921  0.8230 -0.4980
 5898SOL    HW229157   3.951   3.195  17.362  1.1035  0.6835 -0.4585
 5899SOL     OW29158   3.429   2.025   5.202 -0.1348  0.2794  0.0543
 5899SOL    HW129159   3.420   2.069   5.118 -0.4823  0.8268  0.3736
 5899SOL    HW229160   3.399   2.088   5.268  0.5519 -0.7744  1.3696
 5900SOL     OW29161   3.477   2.466   3.947 -0.1304 -0.0555 -0.1380
 5900SOL    HW129162   3.391   2.425   3.941 -0.9414  1.4919  0.6918
 5900SOL    HW229163   3.470   2.517   4.028  1.4292  0.7314 -0.4816
 5901SOL     OW29164   2.208   3.074   3.840  0.4073 -0.0510  0.3170
 5901SOL    HW129165   2.239   3.139   3.777  1.6164  0.0208  0.9844
 5901SOL    HW229166   2.147   3.020   3.790 -1.1345 -0.0956  2.2424
 5902SOL     OW29167   3.894   1.220  12.333 -0.2457  0.3856 -0.8416
 5902SOL    HW129168   3.938   1.291  12.287  2.3364  0.0103  1.0428
 5902SOL    HW229169   3.800   1.238  12.324 -0.0514  0.5253 -2.5876
 5903SOL     OW29170   3.197   0.302  11.378 -0.1888 -0.6363  0.1572
 5903SOL    HW129171   3.291   0.295  11.397  0.1128 -0.8489 -1.4337
 5903SOL    HW229172   3.204   0.263  11.291 -2.3055  0.9090 -0.6968
 5904SOL     OW29173   4.212   4.462  12.446  0.5536 -0.3182 -0.1444
 5904SOL    HW129174   4.290   4.513  12.467  0.3232 -0.6955  1.6291
 5904SOL    HW229175   4.147   4.494  12.510  2.1674  0.0167  1.3282
 5905SOL     OW29176   4.190   3.367   5.217 -0.3238 -0.0290  0.2170
 5905SOL    HW129177   4.101   3.402   5.222 -0.5173 -0.2046 -2.3245
 5905SOL    HW229178   4.213   3.354   5.309  0.6478  2.6283  0.3370
 5906SOL     OW29179   2.401   1.778  12.732  0.4135 -0.0716  0.4168
 5906SOL    HW129180   2.458   1.853  12.716 -2.1132  1.9063  0.7880
 5906SOL    HW229181   2.315   1.817  12.749  0.4788 -0.8278  2.5878
 5907SOL     OW29182   1.357   3.607   4.939  0.2338  0.4720  0.2224
 5907SOL    HW129183   1.316   3.691   4.959 -0.9499  0.4991 -2.3421
 5907SOL    HW229184   1.281   3.552   4.926  0.0152  1.0195 -0.8274
 5908SOL     OW29185   0.370   3.889   4.536  0.0398  0.6001  0.4557
 5908SOL    HW129186   0.320   3.807   4.531  1.1795 -0.3004  4.0845
 5908SOL    HW229187   0.325   3.917   4.616 -0.4464 -0.1517  0.4539
 5909SOL     OW29188   2.504   2.479   4.806  0.0624 -0.4790  0.0921
 5909SOL    HW129189   2.593   2.478   4.770 -0.3019  1.0427 -0.8418
 5909SOL    HW229190   2.492   2.387   4.829 -0.7091 -0.2064  0.7400
 5910SOL     OW29191   1.662   4.565  16.492 -0.4078  0.1995  0.1994
 5910SOL    HW129192   1.698   4.486  16.531  0.0574 -0.2900 -1.2160
 5910SOL    HW229193   1.573   4.537  16.466 -0.0782 -1.0637  0.4069
 5911SOL     OW29194   4.215   1.368   9.840  0.1245  0.4759  0.2888
 5911SOL    HW129195   4.241   1.390   9.751  1.0327  0.8631  0.6517
 5911SOL    HW229196   4.151   1.300   9.819  2.1593 -1.4622  0.4142
 5912SOL     OW29197   2.818   3.133   6.355 -0.1146  0.5625 -0.2430
 5912SOL    HW129198   2.737   3.182   6.367 -0.3773  0.5245 -1.8023
 5912SOL    HW229199   2.887   3.195   6.379  0.0170  0.3639 -0.1073
 5913SOL     OW29200   1.066   2.482   3.220  0.1573 -0.6954 -0.3650
 5913SOL    HW129201   1.043   2.570   3.251  0.3123 -0.8924  0.3118
 5913SOL    HW229202   1.154   2.498   3.188  0.3606  0.8097  0.9716
 5914SOL     OW29203   4.698   3.372   2.644  0.9051 -0.3787  0.2018
 5914SOL    HW129204   4.718   3.306   2.711 -0.3190  0.0648  1.0079
 5914SOL    HW229205   4.607   3.351   2.625  0.3584  1.3901  0.8615
 5915SOL     OW29206   2.313   1.219  13.418 -0.3232 -0.4901  0.7641
 5915SOL    HW129207   2.363   1.290  13.459  0.5295  0.4574 -1.8955
 5915SOL    HW229208   2.223   1.249  13.419  0.3299  1.4457  1.3739
 5916SOL     OW29209   4.112   0.095  15.356 -0.5816 -0.3227  0.1187
 5916SOL    HW129210   4.190   0.128  15.312 -1.5220  1.3653 -0.2844
 5916SOL    HW229211   4.147   0.016  15.399  0.0111 -0.5188 -0.7313
 5917SOL     OW29212   2.794   4.051   8.159  0.2565  0.9336 -0.1684
 5917SOL    HW129213   2.794   4.139   8.196  0.0953  1.3218 -1.0807
 5917SOL    HW229214   2.822   4.074   8.070  0.7682  0.1236 -0.2169
 5918SOL     OW29215   0.121   2.230   7.917 -0.8864  0.1527  0.0072
 5918SOL    HW129216   0.191   2.177   7.957 -0.1438  1.0438 -0.1249
 5918SOL    HW229217   0.176   2.284   7.861  0.3403 -0.9329  0.1800
 5919SOL     OW29218   1.058   0.815   2.445 -0.2795 -0.2750  0.0585
 5919SOL    HW129219   1.041   0.861   2.363 -0.0994 -1.9873 -0.9414
 5919SOL    HW229220   1.139   0.773   2.415 -0.5360 -1.2495  0.7286
 5920SOL     OW29221   3.692   4.308  12.141 -0.1078 -0.1426  0.2716
 5920SOL    HW129222   3.686   4.399  12.172  1.5686  0.0149  0.1426
 5920SOL    HW229223   3.601   4.294  12.115  0.1086  1.8787 -1.5369
 5921SOL     OW29224   3.727   3.257  16.844  0.3642  0.1417 -0.3257
 5921SOL    HW129225   3.759   3.235  16.932  1.5870 -3.8702 -1.7583
 5921SOL    HW229226   3.654   3.196  16.837  0.7517 -0.3688  0.0008
 5922SOL     OW29227   3.613   2.654   3.047 -0.0903 -0.0331  0.1248
 5922SOL    HW129228   3.594   2.561   3.061  0.8031 -0.1584  0.4964
 5922SOL    HW229229   3.644   2.678   3.135  0.0427  1.0827 -0.2289
 5923SOL     OW29230   4.272   0.758  16.261  0.1518  0.2182 -0.1605
 5923SOL    HW129231   4.353   0.780  16.216 -0.1372 -1.3873 -1.4459
 5923SOL    HW229232   4.218   0.735  16.185  2.5308 -1.0606 -1.4463
 5924SOL     OW29233   4.539   1.931   0.727  0.3133 -0.5736  0.3665
 5924SOL    HW129234   4.462   1.875   0.740  0.8416 -1.7484 -1.5353
 5924SOL    HW229235   4.610   1.872   0.749  0.8712 -0.5197 -1.3055
 5925SOL     OW29236   0.205   2.871  10.740  0.3369 -0.1161 -0.3575
 5925SOL    HW129237   0.245   2.806  10.797 -0.8466 -1.2413 -0.7933
 5925SOL    HW229238   0.234   2.956  10.771 -1.9388 -0.0878  1.7364
 5926SOL     OW29239   1.790   2.808  17.132 -0.1705  0.5408  0.2944
 5926SOL    HW129240   1.840   2.890  17.124 -0.5684  0.8906  1.3772
 5926SOL    HW229241   1.701   2.834  17.109 -0.9817 -1.5980  1.0853
 5927SOL     OW29242   1.180   2.355   4.201  0.5843 -1.0157  0.2314
 5927SOL    HW129243   1.097   2.313   4.225 -0.9386  1.1698 -1.1841
 5927SOL    HW229244   1.162   2.393   4.115  0.7034  0.4455  0.8442
 5928SOL     OW29245   3.784   4.377   9.034  0.4611  0.8595  0.2854
 5928SOL    HW129246   3.821   4.423   8.958  1.3872 -2.7607 -1.4711
 5928SOL    HW229247   3.752   4.443   9.095  1.0463  1.4618 -0.0672
 5929SOL     OW29248   1.332   1.499  13.451 -0.6199  0.2434 -0.2968
 5929SOL    HW129249   1.299   1.490  13.362  2.2674 -1.5196 -1.1948
 5929SOL    HW229250   1.297   1.422  13.496 -0.7006  1.4593  1.7503
 5930SOL     OW29251   4.329   3.563  13.297 -0.6551  0.1339 -0.6857
 5930SOL    HW129252   4.414   3.577  13.255 -0.6179  1.5690 -0.1617
 5930SOL    HW229253   4.295   3.652  13.305 -0.2686  0.1945  0.3665
 5931SOL     OW29254   2.313   3.428   6.015 -0.0949 -0.2286 -0.7446
 5931SOL    HW129255   2.254   3.478   5.959 -0.3149  1.5341  1.0645
 5931SOL    HW229256   2.246   3.386   6.070 -0.8602 -0.4053 -1.7972
 5932SOL     OW29257   2.065   3.180   3.499  0.5852  0.1328  0.2669
 5932SOL    HW129258   2.150   3.163   3.457  0.2595 -1.8016  0.3814
 5932SOL    HW229259   2.055   3.097   3.545 -0.5278  0.0558 -0.1235
 5933SOL     OW29260   4.294   0.991   3.116  0.1172 -0.2205 -0.1641
 5933SOL    HW129261   4.244   0.982   3.035 -2.2829 -1.7156  1.4877
 5933SOL    HW229262   4.372   1.041   3.090 -0.8960  0.8564 -1.0882
 5934SOL     OW29263   2.503   0.578   6.296 -0.2927 -0.2224 -0.5657
 5934SOL    HW129264   2.574   0.561   6.234  0.9195  0.2534  0.6667
 5934SOL    HW229265   2.435   0.611   6.237 -0.1370 -1.2612 -1.3246
 5935SOL     OW29266   0.880   3.608  17.601  0.3310 -0.2635  0.0253
 5935SOL    HW129267   0.921   3.690  17.630  1.3459 -0.7141 -0.1537
 5935SOL    HW229268   0.855   3.640  17.514 -1.5377  0.2001  0.7291
 5936SOL     OW29269   1.370   0.261  16.010 -0.2561 -0.4943  0.3756
 5936SOL    HW129270   1.347   0.297  15.925  1.7370 -1.2968 -0.5037
 5936SOL    HW229271   1.286   0.260  16.055  0.0445  2.4063  1.0334
 5937SOL     OW29272   2.993   3.376   4.777  0.5472  0.2045 -0.4480
 5937SOL    HW129273   2.975   3.284   4.793 -0.0011  0.0641 -1.8826
 5937SOL    HW229274   2.912   3.417   4.809  1.4478  3.2594 -2.0479
 5938SOL     OW29275   2.252   0.556   9.170  0.3336  0.0732  0.8242
 5938SOL    HW129276   2.257   0.473   9.219  0.3705 -0.4170 -0.0186
 5938SOL    HW229277   2.295   0.617   9.229  0.1567  1.8120 -0.8669
 5939SOL     OW29278   4.255   3.394   6.746  0.0453  0.0676 -0.5123
 5939SOL    HW129279   4.176   3.435   6.712  1.1088  2.7178  0.2225
 5939SOL    HW229280   4.251   3.408   6.841  1.0456  1.3717 -0.6703
 5940SOL     OW29281   1.457   4.253   1.298 -0.5940 -0.6435  0.3599
 5940SOL    HW129282   1.371   4.269   1.257 -0.9524 -1.6194  0.7397
 5940SOL    HW229283   1.516   4.264   1.224 -0.4284  1.0120  0.7356
 5941SOL     OW29284   1.966   0.585   7.176 -0.0832  0.4229  0.1107
 5941SOL    HW129285   1.883   0.551   7.208  1.7251 -0.4244  3.8931
 5941SOL    HW229286   1.937   0.619   7.091 -0.2814  1.2279  0.4995
 5942SOL     OW29287   4.091   2.444   9.297 -0.5337  0.1881  0.2551
 5942SOL    HW129288   4.082   2.490   9.381  1.5589 -1.6038  1.4369
 5942SOL    HW229289   4.186   2.453   9.297 -0.4647 -0.5137  1.4484
 5943SOL     OW29290   4.201   1.411   9.577 -0.0193 -0.5523  0.0174
 5943SOL    HW129291   4.212   1.361   9.496  1.9809 -0.1086  0.0039
 5943SOL    HW229292   4.114   1.446   9.558  0.5805  1.2090  0.4553
 5944SOL     OW29293   1.990   1.878   2.481 -0.0867 -0.4110  0.4487
 5944SOL    HW129294   2.023   1.840   2.562  1.9414 -0.9364 -0.6395
 5944SOL    HW229295   2.062   1.938   2.460  0.1589 -0.4695  1.1420
 5945SOL     OW29296   0.173   2.022  13.156 -0.2707 -0.5830  0.4864
 5945SOL    HW129297   0.132   1.964  13.092  1.2679 -1.3335  0.1738
 5945SOL    HW229298   0.184   2.102  13.104 -3.9078 -0.5754 -0.2447
 5946SOL     OW29299   3.345   3.309   4.875  0.5264  0.5201 -0.3262
 5946SOL    HW129300   3.426   3.265   4.851 -0.9054 -2.5287  0.4089
 5946SOL    HW229301   3.384   3.384   4.920 -2.6497  0.9863  1.6095
 5947SOL     OW29302   0.836   1.380   7.689  0.4166  0.4730 -0.1217
 5947SOL    HW129303   0.741   1.384   7.700  0.5212  2.4493 -0.0076
 5947SOL    HW229304   0.830   1.347   7.599 -1.2947  1.2376 -0.2943
 5948SOL     OW29305   4.514   3.594   5.261  0.1329  0.6355 -0.1688
 5948SOL    HW129306   4.587   3.657   5.260  0.0338  0.7381 -1.5007
 5948SOL    HW229307   4.451   3.640   5.317 -0.9255  0.3377 -1.1070
 5949SOL     OW29308   4.267   0.792  14.183  0.8383 -0.5679 -0.5212
 5949SOL    HW129309   4.309   0.871  14.148 -1.4832  0.5364 -0.7599
 5949SOL    HW229310   4.216   0.768  14.106  0.1201  1.2364 -0.6175
 5950SOL     OW29311   0.605   3.327   8.882 -0.0605  0.0820 -0.0503
 5950SOL    HW129312   0.671   3.368   8.939 -0.1130  0.2890 -0.1389
 5950SOL    HW229313   0.637   3.238   8.870 -2.0821 -0.5772 -0.5202
 5951SOL     OW29314   4.300   0.011  10.803 -0.1591  0.6540  0.0906
 5951SOL    HW129315   4.362   0.074  10.840  1.5156  0.0378 -1.6579
 5951SOL    HW229316   4.319   0.012  10.709  2.0189 -2.5798  0.4664
 5952SOL     OW29317   4.586   1.037  10.641  0.4622  0.2457 -0.3621
 5952SOL    HW129318   4.625   1.030  10.554  0.6666 -0.7776 -0.1775
 5952SOL    HW229319   4.602   0.950  10.676 -1.0382  0.2611  0.3844
 5953SOL     OW29320   2.221   1.484  14.432 -0.2876 -0.1290  0.0047
 5953SOL    HW129321   2.209   1.477  14.337 -0.7315  1.1829 -0.0313
 5953SOL    HW229322   2.187   1.399  14.459 -0.2873  0.0138  0.4445
 5954SOL     OW29323   3.872   2.723  12.712  0.7803 -0.1045 -0.2899
 5954SOL    HW129324   3.821   2.697  12.788  0.5824  2.9055  0.6033
 5954SOL    HW229325   3.826   2.803  12.686  0.5285  0.5866  2.3133
 5955SOL     OW29326   0.644   4.312  10.378  0.4048  0.3338 -0.5190
 5955SOL    HW129327   0.605   4.253  10.443 -0.2176  0.3227 -0.8940
 5955SOL    HW229328   0.736   4.318  10.402  0.5814  0.6773 -1.2764
 5956SOL     OW29329   2.920   3.242   5.161  0.2648  0.4569  0.6890
 5956SOL    HW129330   2.925   3.234   5.256  0.4543 -0.2112  0.6250
 5956SOL    HW229331   2.975   3.167   5.138 -0.7957  0.1366 -0.7968
 5957SOL     OW29332   0.798   3.833   1.573  1.0539  0.0018 -0.7607
 5957SOL    HW129333   0.857   3.894   1.618 -0.5801  0.5376  0.6126
 5957SOL    HW229334   0.729   3.896   1.551 -0.2133 -0.5963  1.5240
 5958SOL     OW29335   1.079   4.350   3.916 -0.3025  0.3028  0.4662
 5958SOL    HW129336   1.011   4.285   3.932 -0.8903  0.8492  0.1720
 5958SOL    HW229337   1.150   4.289   3.894 -1.2875 -1.1514  1.2834
 5959SOL     OW29338   3.385   3.339  13.459 -0.7783 -0.0612  0.3260
 5959SOL    HW129339   3.355   3.296  13.379 -1.9192 -0.1208  0.7890
 5959SOL    HW229340   3.323   3.323  13.530 -0.3929 -1.5825  0.3192
 5960SOL     OW29341   0.584   0.580   3.253 -0.2710  0.1218  0.5176
 5960SOL    HW129342   0.588   0.668   3.214 -1.2083  0.0404  0.2523
 5960SOL    HW229343   0.511   0.542   3.206  0.6895 -1.5783  0.4177
 5961SOL     OW29344   1.318   4.523   0.826 -0.1785 -0.5489  0.9006
 5961SOL    HW129345   1.399   4.575   0.824 -0.1553 -0.6731 -0.8758
 5961SOL    HW229346   1.347   4.432   0.814 -0.0961 -0.3032 -0.7598
 5962SOL     OW29347   2.548   0.511   4.320  0.3162 -0.4923  0.0292
 5962SOL    HW129348   2.626   0.529   4.373 -0.1049 -3.0384  1.4673
 5962SOL    HW229349   2.593   0.461   4.252 -0.4723 -0.3410 -0.6020
 5963SOL     OW29350   0.447   0.962  11.166  0.3729 -0.8774 -0.5812
 5963SOL    HW129351   0.482   0.962  11.255 -1.9239 -3.3365  0.3128
 5963SOL    HW229352   0.380   1.028  11.184  1.7389  0.2994  0.1488
 5964SOL     OW29353   1.327   2.635  15.815  0.0394  0.0507 -0.3586
 5964SOL    HW129354   1.321   2.722  15.854 -2.3614 -1.0752  1.7909
 5964SOL    HW229355   1.310   2.652  15.722 -2.1260 -0.8438 -0.1210
 5965SOL     OW29356   4.154   2.330   9.589  0.1687  0.2880  0.2587
 5965SOL    HW129357   4.245   2.353   9.572 -0.1176  0.9924 -0.3233
 5965SOL    HW229358   4.108   2.413   9.576 -2.2116 -0.6556  2.7090
 5966SOL     OW29359   3.649   2.071   2.920 -0.2059  0.5659 -0.1604
 5966SOL    HW129360   3.593   1.997   2.897  0.7165  0.1536 -1.0759
 5966SOL    HW229361   3.661   2.055   3.013 -1.0553 -0.5646 -0.2497
 5967SOL     OW29362   2.969   1.901   3.350 -0.1680  0.1736  0.2584
 5967SOL    HW129363   3.028   1.975   3.335  0.3909 -0.2372  0.4531
 5967SOL    HW229364   2.953   1.871   3.261  1.8899 -3.3354  1.0861
 5968SOL     OW29365   2.471   0.337  15.800 -0.4858 -0.1328  0.2082
 5968SOL    HW129366   2.444   0.267  15.740 -1.1366 -1.0896  1.6133
 5968SOL    HW229367   2.383   0.362  15.830 -1.1913 -2.5896  0.2224
 5969SOL     OW29368   0.655   3.143   4.360 -0.7019  0.1332  0.0739
 5969SOL    HW129369   0.677   3.152   4.267 -0.6634  1.6795  0.2312
 5969SOL    HW229370   0.592   3.213   4.373  0.0089  0.2449  2.8611
 5970SOL     OW29371   1.723   4.251   9.243  0.3041  0.1405  0.5947
 5970SOL    HW129372   1.766   4.319   9.295 -0.7764  0.4506  1.0989
 5970SOL    HW229373   1.801   4.199   9.227  1.3465  1.9636 -0.1706
 5971SOL     OW29374   0.779   1.396   4.327  0.4199  0.3084  0.5262
 5971SOL    HW129375   0.792   1.401   4.421 -0.0558  3.3574  0.4431
 5971SOL    HW229376   0.767   1.302   4.312  1.8416  0.4323 -1.4279
 5972SOL     OW29377   3.928   2.116  11.280  0.1376 -0.5422  0.5320
 5972SOL    HW129378   3.897   2.127  11.190 -2.3204  2.5864  1.7702
 5972SOL    HW229379   3.934   2.021  11.283 -0.2301 -0.5757  0.2135
 5973SOL     OW29380   4.335   1.075   3.980 -0.7190 -0.6453  0.4295
 5973SOL    HW129381   4.258   1.127   3.957  0.0573  0.6378  0.7224
 5973SOL    HW229382   4.360   1.119   4.061  2.8824 -2.3143  0.2333
 5974SOL     OW29383   0.508   3.831  14.802 -0.5565  0.3730 -0.3970
 5974SOL    HW129384   0.547   3.885  14.870  0.9219 -2.0452  0.6578
 5974SOL    HW229385   0.431   3.888  14.794 -1.6314 -1.4359 -3.1142
 5975SOL     OW29386   3.199   2.529  11.654  0.0435 -0.3432  0.4119
 5975SOL    HW129387   3.253   2.607  11.659  0.7890 -0.7049 -2.4125
 5975SOL    HW229388   3.121   2.552  11.603 -0.1474 -2.0158 -0.0462
 5976SOL     OW29389   3.600   2.064  11.552  0.2038 -0.2280 -0.8531
 5976SOL    HW129390   3.574   2.120  11.625  0.7964  1.5884 -2.0266
 5976SOL    HW229391   3.618   2.119  11.476  2.6671  0.7771  0.4504
 5977SOL     OW29392   4.091   2.739   3.839 -0.0302  0.1305 -0.4115
 5977SOL    HW129393   4.113   2.819   3.887  1.3838 -0.8716  0.6259
 5977SOL    HW229394   4.122   2.765   3.753  2.8654  0.3382  0.6761
 5978SOL     OW29395   0.043   1.366   1.819 -0.1295  0.3136  0.0470
 5978SOL    HW129396   4.679   1.383   1.788  0.4496  1.8272 -0.7804
 5978SOL    HW229397   0.035   1.394   1.910  2.0924  1.9697 -0.2741
 5979SOL     OW29398   0.711   2.131   6.822 -1.1312 -0.0175  0.2058
 5979SOL    HW129399   0.671   2.044   6.816 -1.9340  0.2963  0.9380
 5979SOL    HW229400   0.715   2.138   6.918 -0.3283 -0.2386  0.1939
 5980SOL     OW29401   3.035   3.592  10.132  0.3927  0.1209 -0.5641
 5980SOL    HW129402   2.955   3.633  10.099  0.2177 -0.4408 -0.8479
 5980SOL    HW229403   3.015   3.585  10.225  3.4547 -2.1365 -0.0634
 5981SOL     OW29404   2.185   1.874  11.942 -0.1422  0.2057 -0.8995
 5981SOL    HW129405   2.246   1.859  11.870  2.5898 -1.1392  1.6641
 5981SOL    HW229406   2.220   1.956  11.976  2.1462 -1.4704  0.7995
 5982SOL     OW29407   1.945   1.916   5.096  0.6359  0.5216 -0.3161
 5982SOL    HW129408   1.972   1.837   5.049  0.0527 -0.6651  1.3159
 5982SOL    HW229409   2.016   1.978   5.079  0.6852  0.6466  0.3236
 5983SOL     OW29410   0.157   4.569   9.098  0.1107 -0.3318 -0.1445
 5983SOL    HW129411   0.211   4.644   9.073 -0.4289  0.3918  0.8407
 5983SOL    HW229412   0.078   4.621   9.110 -0.1171 -1.3347  2.6566
 5984SOL     OW29413   2.771   1.496   7.215 -0.0333  0.2503  0.6818
 5984SOL    HW129414   2.782   1.559   7.286  0.7360  0.6548  0.2022
 5984SOL    HW229415   2.838   1.529   7.155  2.9402 -3.5445  1.9152
 5985SOL     OW29416   4.137   1.741   2.445 -0.5972 -0.0273  0.4337
 5985SOL    HW129417   4.050   1.709   2.422 -0.6497 -0.4038  1.1575
 5985SOL    HW229418   4.175   1.751   2.358 -0.5933 -1.5336  0.2681
 5986SOL     OW29419   0.938   3.006   8.455  0.4328  0.2468  0.1632
 5986SOL    HW129420   0.916   2.989   8.364 -1.5208 -1.3051  0.9182
 5986SOL    HW229421   0.978   2.924   8.485 -1.7154 -0.6557  0.5630
 5987SOL     OW29422   4.624   4.714   5.276  0.4093 -0.0095  0.2334
 5987SOL    HW129423   4.663   4.665   5.349  0.4635 -1.5107 -0.8128
 5987SOL    HW229424   4.701   0.025   5.233  1.8180 -1.0268  1.9158
 5988SOL     OW29425   1.038   3.803  17.645  0.4010 -0.0018 -0.7035
 5988SOL    HW129426   1.092   3.812  17.567  0.8834 -0.3928 -0.4136
 5988SOL    HW229427   1.019   3.896  17.661 -1.0334 -0.3673 -0.3006
 5989SOL     OW29428   1.243   1.494   9.901 -0.4134  0.4720 -0.2137
 5989SOL    HW129429   1.328   1.492   9.857 -0.1734 -0.4407  0.2821
 5989SOL    HW229430   1.204   1.554   9.838 -1.4545 -0.9572 -0.9158
 5990SOL     OW29431   4.130   0.232   9.889  0.5887  0.7676 -0.3944
 5990SOL    HW129432   4.171   0.318   9.892  0.9250  0.5169  2.3811
 5990SOL    HW229433   4.166   0.203   9.973 -2.1734 -0.6202  0.2997
 5991SOL     OW29434   3.390   4.570   2.930  0.1438 -0.4388 -0.4828
 5991SOL    HW129435   3.419   4.658   2.904  2.1115 -0.7443  0.6516
 5991SOL    HW229436   3.299   4.594   2.947 -0.0180  0.2554 -2.3126
 5992SOL     OW29437   0.226   4.475   6.390 -0.6863  0.4211 -0.6127
 5992SOL    HW129438   0.157   4.532   6.426  0.2573  1.0320  0.2132
 5992SOL    HW229439   0.297   4.539   6.395 -1.9638  1.8898 -0.9701
 5993SOL     OW29440   4.160   4.630   0.945 -0.2155 -0.6976  0.4838
 5993SOL    HW129441   4.195   4.610   0.859  2.5014 -0.9546  1.6614
 5993SOL    HW229442   4.098   4.556   0.945 -1.3536  0.2550 -0.5804
 5994SOL     OW29443   3.226   1.735  13.983  0.3877  0.9473 -0.4179
 5994SOL    HW129444   3.150   1.785  13.953  0.2863  1.2385  0.3217
 5994SOL    HW229445   3.236   1.757  14.075 -3.0528 -1.0120  0.4312
 5995SOL     OW29446   1.863   3.520   7.920 -0.1055 -0.2112  0.5364
 5995SOL    HW129447   1.795   3.464   7.956  0.3505 -0.9892  0.1832
 5995SOL    HW229448   1.918   3.466   7.863  0.3523 -0.7504  1.4870
 5996SOL     OW29449   1.688   1.921   5.171  0.3658  0.3267 -0.3123
 5996SOL    HW129450   1.652   1.867   5.101 -0.4608  0.4878 -0.0143
 5996SOL    HW229451   1.778   1.927   5.139  0.9798  1.7712  1.6797
 5997SOL     OW29452   1.595   4.049  13.705 -0.3819 -0.1786  0.3457
 5997SOL    HW129453   1.538   3.972  13.696  0.9351 -1.0882 -0.1875
 5997SOL    HW229454   1.562   4.111  13.640 -0.7472 -1.3539 -0.5899
 5998SOL     OW29455   3.540   4.518   8.512  0.4462 -0.7293 -0.3006
 5998SOL    HW129456   3.570   4.606   8.538  0.4664 -1.3047  1.6227
 5998SOL    HW229457   3.621   4.485   8.473  1.5329  0.7534  0.6609
 5999SOL     OW29458   3.300   1.961   4.614  0.2117 -0.1008 -0.1124
 5999SOL    HW129459   3.358   1.995   4.545 -1.2732  2.7641  0.0433
 5999SOL    HW229460   3.250   1.904   4.556 -0.8160 -0.3380  1.0150
 6000SOL     OW29461   4.016   1.205   2.119  0.1718 -0.1754  0.5979
 6000SOL    HW129462   4.106   1.175   2.116 -0.1207 -0.8869 -1.4294
 6000SOL    HW229463   3.992   1.166   2.203  0.9275  1.0911  1.4073
 6001SOL     OW29464   0.733   2.613   4.205  0.0574  0.2452  0.5313
 6001SOL    HW129465   0.792   2.582   4.273 -0.6458  1.0626  1.5177
 6001SOL    HW229466   0.648   2.600   4.249  0.6755 -0.1962  1.6024
 6002SOL     OW29467   0.973   3.723   5.818 -0.3034  0.6138  0.1650
 6002SOL    HW129468   1.052   3.729   5.873 -0.0078 -0.1302 -0.1797
 6002SOL    HW229469   0.989   3.656   5.752  1.3342  1.4123 -0.2454
 6003SOL     OW29470   2.940   1.626  14.876 -0.2675  0.2904 -1.0259
 6003SOL    HW129471   2.951   1.570  14.799 -0.4118  1.1144 -1.6453
 6003SOL    HW229472   2.955   1.558  14.942  0.4743  1.3109 -0.1163
 6004SOL     OW29473   4.720   4.240   2.104  0.2158  0.0109  0.7625
 6004SOL    HW129474   4.689   4.164   2.154  0.5192 -0.4875  0.1865
 6004SOL    HW229475   4.696   4.204   2.019  0.9373 -1.5224  1.1858
 6005SOL     OW29476   1.052   1.477   3.183 -0.2591 -0.5009 -0.1528
 6005SOL    HW129477   1.145   1.462   3.166  0.4025  2.4036  0.9890
 6005SOL    HW229478   1.055   1.422   3.261  0.2421 -1.7112 -1.0161
 6006SOL     OW29479   4.451   4.338   3.144  0.6775  0.1716 -0.3141
 6006SOL    HW129480   4.453   4.306   3.053  0.2347 -0.6474 -0.0381
 6006SOL    HW229481   4.543   4.352   3.166  0.2305 -0.6396  2.0234
 6007SOL     OW29482   3.275   0.052  10.867  0.1451 -0.1250  0.0125
 6007SOL    HW129483   3.236   0.136  10.848 -0.8868 -0.5850  0.1010
 6007SOL    HW229484   3.354   0.050  10.813 -0.7974 -0.4919 -1.3295
 6008SOL     OW29485   3.339   3.073  16.612 -0.1410  0.1408  0.0510
 6008SOL    HW129486   3.354   3.156  16.567  1.1043 -0.4952 -0.6877
 6008SOL    HW229487   3.414   3.080  16.670  0.7920 -0.7087 -1.0418
 6009SOL     OW29488   2.567   4.691  12.951 -0.4590 -0.5433  0.1970
 6009SOL    HW129489   2.643   0.024  12.962 -2.2524  1.9766 -0.6026
 6009SOL    HW229490   2.586   4.636  12.875 -1.3709 -0.0909 -0.3505
 6010SOL     OW29491   0.721   2.858   6.463  0.1931 -0.3108 -0.3917
 6010SOL    HW129492   0.787   2.847   6.531 -1.1741 -1.5493  0.7211
 6010SOL    HW229493   0.719   2.953   6.451 -0.9829  0.1267  3.2954
 6011SOL     OW29494   2.572   3.165   8.471  0.2627 -0.0447  0.1103
 6011SOL    HW129495   2.494   3.131   8.515  1.9083 -1.2119  2.1169
 6011SOL    HW229496   2.546   3.163   8.379 -0.5874  0.6303  0.3227
 6012SOL     OW29497   4.626   3.222  15.041 -0.4297 -0.0309  0.4577
 6012SOL    HW129498   4.618   3.198  15.133 -0.5424  0.3461  0.5431
 6012SOL    HW229499   4.690   3.156  15.015  0.4977 -0.0370  2.7721
 6013SOL     OW29500   0.974   0.988   7.322 -0.2449 -0.0193 -0.0429
 6013SOL    HW129501   0.942   1.069   7.283  0.0309 -0.3161 -0.8685
 6013SOL    HW229502   1.018   0.939   7.253  0.5017  2.0672 -1.0369
 6014SOL     OW29503   0.738   4.006   5.877  0.3445 -0.5742  0.3637
 6014SOL    HW129504   0.831   4.002   5.900  0.6376 -1.4843 -1.0198
 6014SOL    HW229505   0.725   3.913   5.862 -0.7992 -0.0733 -1.7257
 6015SOL     OW29506   0.625   1.717   6.475 -0.0396  0.3768  0.5022
 6015SOL    HW129507   0.692   1.738   6.540  2.6933 -3.6033 -1.0057
 6015SOL    HW229508   0.546   1.723   6.527 -0.0654 -0.0834  0.5139
 6016SOL     OW29509   4.610   0.530   7.871 -0.1010 -0.6873  0.2740
 6016SOL    HW129510   4.630   0.532   7.964  2.8258 -1.8838 -0.3338
 6016SOL    HW229511   4.652   0.450   7.838 -1.6235 -0.4247 -2.2701
 6017SOL     OW29512   1.846   2.346   3.308  0.2095  0.1538  0.0283
 6017SOL    HW129513   1.851   2.253   3.328 -2.4984  0.3359  1.4792
 6017SOL    HW229514   1.938   2.367   3.295 -0.0830  0.7747 -1.0544
 6018SOL     OW29515   4.606   4.644   7.168  0.0807 -0.2726 -0.3433
 6018SOL    HW129516   4.576   4.571   7.223  0.0072  0.1161  0.1353
 6018SOL    HW229517   4.658   4.600   7.101  0.7506 -1.1416  0.7256
 6019SOL     OW29518   1.934   4.305   8.997  0.1725 -0.2884  0.0356
 6019SOL    HW129519   2.018   4.329   9.037 -0.5548 -2.8790  3.1434
 6019SOL    HW229520   1.899   4.383   8.953 -1.4107 -0.2054  1.4366
 6020SOL     OW29521   1.511   3.522   7.038  0.0340 -0.0644  0.5722
 6020SOL    HW129522   1.423   3.545   7.008  0.4849  1.2310  0.2221
 6020SOL    HW229523   1.520   3.593   7.102  1.1949 -1.2270  1.7236
 6021SOL     OW29524   3.466   4.371   8.143 -0.6493  0.1033 -0.2061
 6021SOL    HW129525   3.485   4.278   8.148  1.2899  0.5125 -0.0808
 6021SOL    HW229526   3.535   4.403   8.085  0.4853 -3.1057 -0.6178
 6022SOL     OW29527   0.730   3.249   8.312  0.5783  0.4246  0.6055
 6022SOL    HW129528   0.780   3.176   8.276 -0.1388 -1.6218  3.7979
 6022SOL    HW229529   0.776   3.319   8.265 -1.2778 -0.0004 -1.7986
 6023SOL     OW29530   3.605   3.103  14.908 -0.2273  0.0526  0.0134
 6023SOL    HW129531   3.606   3.138  14.819 -1.3248 -0.8987 -0.3583
 6023SOL    HW229532   3.562   3.020  14.889 -1.1147  0.1790  1.5032
 6024SOL     OW29533   1.803   2.401  15.763  0.1319  0.0956 -0.5058
 6024SOL    HW129534   1.712   2.430  15.761 -0.2635 -1.1391 -0.0568
 6024SOL    HW229535   1.845   2.481  15.729 -0.0334  0.7196  0.7680
 6025SOL     OW29536   0.349   2.143   9.525  0.1448  0.1363  0.3263
 6025SOL    HW129537   0.339   2.238   9.518 -1.4519 -0.0184  0.6011
 6025SOL    HW229538   0.334   2.126   9.432 -0.4476  1.6947  0.1298
 6026SOL     OW29539   0.842   2.696   2.596  0.0443  0.0341  0.6200
 6026SOL    HW129540   0.747   2.707   2.603  0.3568  2.9820  0.5292
 6026SOL    HW229541   0.836   2.699   2.501  1.5607 -2.1763  0.4565
 6027SOL     OW29542   0.482   2.576  16.092  0.7636  0.6637  0.4505
 6027SOL    HW129543   0.529   2.643  16.042  1.5847  0.5965  1.1191
 6027SOL    HW229544   0.480   2.508  16.024  0.3113  0.8779  0.2497
 6028SOL     OW29545   4.059   2.254  13.069  0.2376  0.2218 -0.2238
 6028SOL    HW129546   4.119   2.197  13.021 -0.7412 -0.4315 -0.6844
 6028SOL    HW229547   4.068   2.231  13.162  1.3543 -3.2387 -1.1587
 6029SOL     OW29548   0.293   2.759   4.450  0.0274 -0.0033 -0.1488
 6029SOL    HW129549   0.233   2.808   4.505 -0.3246 -0.6823  0.0736
 6029SOL    HW229550   0.242   2.735   4.372 -0.3345  1.0187 -0.2136
 6030SOL     OW29551   0.284   0.052   2.762 -0.1501  0.0611  0.2965
 6030SOL    HW129552   0.249   4.705   2.708  1.6135 -2.1471  2.0556
 6030SOL    HW229553   0.328   4.722   2.827  0.5350  0.9615  0.5765
 6031SOL     OW29554   0.215   4.169   4.981 -0.1717  0.2965 -0.4691
 6031SOL    HW129555   0.275   4.132   5.045  1.6224  0.0624 -2.2875
 6031SOL    HW229556   0.221   4.265   4.981  1.0570  0.2118 -0.9646
 6032SOL     OW29557   0.378   3.494   6.267  0.1950 -0.1377 -0.3649
 6032SOL    HW129558   0.427   3.576   6.273 -0.6484  0.2067  1.9678
 6032SOL    HW229559   0.394   3.486   6.173  0.5567  0.6713 -0.3712
 6033SOL     OW29560   1.293   1.232  16.265 -0.2914 -0.6525  0.1095
 6033SOL    HW129561   1.363   1.261  16.207  1.5649  0.9194  3.0780
 6033SOL    HW229562   1.340   1.178  16.328  1.6923  0.0457 -0.7659
 6034SOL     OW29563   3.723   2.234   7.187  0.0533 -0.1855 -0.4205
 6034SOL    HW129564   3.730   2.327   7.208 -1.3377  0.2665 -1.9399
 6034SOL    HW229565   3.629   2.233   7.203  0.2933  0.1701  0.9632
 6035SOL     OW29566   2.942   1.777   2.471 -0.1442 -0.4399 -0.0217
 6035SOL    HW129567   3.032   1.782   2.501  0.3913  1.5229 -1.8851
 6035SOL    HW229568   2.955   1.813   2.383 -0.6760 -0.3151 -0.0530
 6036SOL     OW29569   3.456   4.149  14.136  0.3301 -0.4487 -0.2752
 6036SOL    HW129570   3.501   4.232  14.152  2.4852 -1.5869 -0.4735
 6036SOL    HW229571   3.419   4.150  14.048  0.5436  1.2487 -0.3361
 6037SOL     OW29572   4.592   2.097  13.421 -0.5191  0.2274 -0.6421
 6037SOL    HW129573   4.678   2.104  13.462 -0.7407  3.1291 -0.7156
 6037SOL    HW229574   4.598   2.156  13.346 -2.2699  0.8436 -0.2869
 6038SOL     OW29575   1.617   0.946  13.251  0.3908  0.2677  0.8543
 6038SOL    HW129576   1.523   0.939  13.269  0.3135 -0.2971  0.1909
 6038SOL    HW229577   1.608   0.910  13.163 -2.0724 -1.3007  1.7367
 6039SOL     OW29578   2.782   2.916   5.788 -0.1526 -0.0446 -0.9100
 6039SOL    HW129579   2.843   2.853   5.827 -2.7790 -1.7185  0.5026
 6039SOL    HW229580   2.695   2.884   5.811  0.6997 -2.0949 -0.5082
 6040SOL     OW29581   2.169   1.275  17.604  0.4849  0.0846  0.1170
 6040SOL    HW129582   2.190   1.280  17.697 -0.4915 -2.1911  0.4395
 6040SOL    HW229583   2.257   1.293  17.571  0.7826  0.9965  1.4003
 6041SOL     OW29584   1.772   0.260  14.158  0.1838  0.5166  0.3478
 6041SOL    HW129585   1.837   0.288  14.223  1.9502 -0.6091 -0.9288
 6041SOL    HW229586   1.699   0.275  14.217 -1.6138 -0.9021 -1.5079
 6042SOL     OW29587   3.627   1.477  10.838 -0.2100  0.5543 -0.0756
 6042SOL    HW129588   3.595   1.435  10.758 -0.2258 -0.0557  0.2521
 6042SOL    HW229589   3.657   1.564  10.814 -0.5446  0.1651 -1.8974
 6043SOL     OW29590   3.190   3.003   3.621  0.3664  0.0741 -0.0939
 6043SOL    HW129591   3.264   3.046   3.663  1.8215  0.3285 -2.8843
 6043SOL    HW229592   3.136   3.081   3.618 -0.0999 -0.2177  0.7332
 6044SOL     OW29593   1.773   0.999   6.281 -0.1760 -0.3022 -0.2920
 6044SOL    HW129594   1.834   0.944   6.231 -1.0947 -0.7176 -0.9516
 6044SOL    HW229595   1.833   1.069   6.307 -2.5927  1.5783  0.1479
 6045SOL     OW29596   4.393   1.072  16.239 -0.0516  0.1282  0.1088
 6045SOL    HW129597   4.437   0.998  16.198 -0.6563 -0.2862  0.2048
 6045SOL    HW229598   4.337   1.101  16.167 -0.1706 -1.6999 -0.5318
 6046SOL     OW29599   2.654   4.271  13.725 -0.0191 -0.4805  0.5403
 6046SOL    HW129600   2.720   4.275  13.655  1.7168  2.0268  2.3373
 6046SOL    HW229601   2.673   4.352  13.772  0.8189 -0.5729  0.3655
 6047SOL     OW29602   2.847   3.069   4.528  0.6763  0.2736 -0.1009
 6047SOL    HW129603   2.800   3.000   4.481  1.8303 -1.0853  0.7632
 6047SOL    HW229604   2.934   3.051   4.493 -0.8124 -1.7304 -2.7956
 6048SOL     OW29605   0.690   2.228   8.757 -0.5934 -0.0704  0.7546
 6048SOL    HW129606   0.680   2.141   8.798  0.6410 -1.2717 -1.5012
 6048SOL    HW229607   0.785   2.221   8.743 -0.6672  1.2552 -0.2888
 6049SOL     OW29608   1.772   1.751   2.475 -0.2204 -0.4560  0.1173
 6049SOL    HW129609   1.860   1.784   2.461  0.3172 -2.2102 -0.7375
 6049SOL    HW229610   1.726   1.832   2.495 -0.8443 -0.7480 -0.1049
 6050SOL     OW29611   3.077   2.250   1.838  0.5838  0.3567  0.0831
 6050SOL    HW129612   3.047   2.340   1.824  1.6184  0.2330 -2.8056
 6050SOL    HW229613   2.994   2.206   1.820  0.9740 -0.2682 -0.1804
 6051SOL     OW29614   4.183   2.365   7.831 -0.0460  0.0711 -0.1602
 6051SOL    HW129615   4.114   2.431   7.842  0.2105 -0.0197  2.0454
 6051SOL    HW229616   4.153   2.296   7.891 -1.0438  0.6726  0.0397
 6052SOL     OW29617   2.855   3.874   9.145  0.6324  0.0901  0.5502
 6052SOL    HW129618   2.948   3.886   9.164  1.0469 -2.5520  0.2169
 6052SOL    HW229619   2.814   3.961   9.139  1.6404  0.5632  0.5913
 6053SOL     OW29620   0.667   4.601   3.283 -0.5236  0.2124 -0.7756
 6053SOL    HW129621   0.732   4.592   3.353 -1.1465  2.2036  0.0579
 6053SOL    HW229622   0.714   4.643   3.211 -1.1705  2.1161 -0.0949
 6054SOL     OW29623   0.272   4.406  17.420  0.7778  0.4220  0.3663
 6054SOL    HW129624   0.201   4.451  17.466  0.6436  0.9950 -0.3981
 6054SOL    HW229625   0.227   4.397  17.335 -0.3473  0.5025  0.9556
 6055SOL     OW29626   0.628   4.656   9.172  0.3142  0.0582  0.1255
 6055SOL    HW129627   0.565   4.640   9.242 -1.0219  0.6641 -0.9616
 6055SOL    HW229628   0.567   4.698   9.112  2.2175  0.7640 -1.3466
 6056SOL     OW29629   3.937   0.609   1.051 -1.2549  0.5074 -0.3290
 6056SOL    HW129630   3.963   0.641   0.965  1.2682  1.3355  0.7309
 6056SOL    HW229631   3.895   0.524   1.034  1.5068 -1.2144  1.4447
 6057SOL     OW29632   2.192   0.915  13.972  0.3537  0.5467  0.3188
 6057SOL    HW129633   2.128   0.972  14.014 -1.6866 -0.6163 -1.2321
 6057SOL    HW229634   2.245   0.882  14.044  0.9428 -1.4224 -1.0362
 6058SOL     OW29635   2.852   1.522   6.552  0.0720  0.0909  0.2970
 6058SOL    HW129636   2.764   1.531   6.516  0.0858  1.3454  0.5732
 6058SOL    HW229637   2.864   1.608   6.593 -1.3764  0.0564  0.7569
 6059SOL     OW29638   3.897   2.293   9.434  0.2844  0.4955  0.1754
 6059SOL    HW129639   3.951   2.278   9.512 -0.6836 -0.8944  0.5636
 6059SOL    HW229640   3.962   2.339   9.380  1.7765 -1.1707  0.5565
 6060SOL     OW29641   0.973   3.074   8.822 -0.0916  0.1239  0.2492
 6060SOL    HW129642   0.907   3.100   8.886 -0.5434 -1.3475  0.3930
 6060SOL    HW229643   1.007   2.991   8.856  1.2744  0.8296  0.6345
 6061SOL     OW29644   2.683   2.165   2.173  0.2426  0.2487  0.5622
 6061SOL    HW129645   2.638   2.211   2.245 -0.8007 -1.5463  1.0556
 6061SOL    HW229646   2.616   2.168   2.104 -0.9532 -1.4574  1.6503
 6062SOL     OW29647   0.773   4.153  13.148 -0.1616  0.0987 -0.4457
 6062SOL    HW129648   0.756   4.233  13.197  0.3435  0.0641 -0.2080
 6062SOL    HW229649   0.797   4.101  13.225  0.7371  2.7238  1.0236
 6063SOL     OW29650   4.561   0.228   1.001  0.1117 -0.2336  0.1148
 6063SOL    HW129651   4.592   0.219   0.911  2.2966  0.5265  0.7874
 6063SOL    HW229652   4.470   0.202   0.987  0.5550 -3.0343  2.4154
 6064SOL     OW29653   0.915   3.968  11.748 -0.2584 -0.1381 -0.8350
 6064SOL    HW129654   0.931   3.880  11.782 -2.8852 -0.8053 -1.3319
 6064SOL    HW229655   0.916   4.020  11.829  1.5857  0.1865 -1.0695
 6065SOL     OW29656   2.785   2.298  13.264 -0.6271  0.3635  0.5022
 6065SOL    HW129657   2.854   2.363  13.254  0.6807 -0.9307  0.9746
 6065SOL    HW229658   2.817   2.210  13.243  1.2054  0.8951  1.0819
 6066SOL     OW29659   0.351   0.532   4.837 -1.2399  0.3380  0.1663
 6066SOL    HW129660   0.325   0.490   4.755  0.8736 -0.0947 -0.2763
 6066SOL    HW229661   0.433   0.572   4.810 -0.4635 -0.9263  0.7010
 6067SOL     OW29662   4.095   4.411   6.676  0.3119  0.1120 -0.5293
 6067SOL    HW129663   4.161   4.469   6.715  1.0430 -1.5623  0.7675
 6067SOL    HW229664   4.102   4.443   6.586 -2.8514  2.0769 -0.0851
 6068SOL     OW29665   4.113   0.194   7.989 -0.2559  0.2161 -0.5013
 6068SOL    HW129666   4.075   0.205   8.075 -0.0737  1.5591 -0.5873
 6068SOL    HW229667   4.075   0.273   7.950 -1.8115 -0.4500 -0.3186
 6069SOL     OW29668   1.533   2.304   5.368 -0.3422 -0.1070  0.0520
 6069SOL    HW129669   1.606   2.261   5.413  1.6186 -0.6239 -3.6382
 6069SOL    HW229670   1.488   2.225   5.337 -0.5445 -0.0182  0.1173
 6070SOL     OW29671   1.857   2.166  16.961 -0.2086 -0.5134  0.2634
 6070SOL    HW129672   1.768   2.200  16.953  0.6312  1.1671 -1.6709
 6070SOL    HW229673   1.876   2.137  16.872  0.5436  1.7443 -0.3057
 6071SOL     OW29674   1.214   1.134  15.492 -0.0443  0.2200  0.5019
 6071SOL    HW129675   1.178   1.221  15.506 -0.2080  0.0314  1.2303
 6071SOL    HW229676   1.137   1.079  15.482  1.8372 -2.1676 -0.8875
 6072SOL     OW29677   2.359   1.386   3.474  0.1967 -0.2949  0.1200
 6072SOL    HW129678   2.438   1.399   3.526  1.0188 -0.5248 -1.1008
 6072SOL    HW229679   2.395   1.398   3.387 -1.3677  2.1176 -0.1920
 6073SOL     OW29680   4.105   2.119   0.582 -0.5249 -0.3326 -0.1325
 6073SOL    HW129681   4.103   2.208   0.618 -0.9005 -0.2049 -0.4715
 6073SOL    HW229682   4.021   2.075   0.590 -0.6972 -0.1845 -1.0682
 6074SOL     OW29683   0.269   3.862   6.615 -0.2122  0.3708 -0.3990
 6074SOL    HW129684   0.223   3.834   6.536 -1.4405  1.6361 -0.1507
 6074SOL    HW229685   0.322   3.934   6.582  0.2876  0.1812 -0.0171
 6075SOL     OW29686   3.321   4.610   2.371  0.5434 -0.1796 -0.1476
 6075SOL    HW129687   3.381   4.685   2.368  0.5113 -0.1645 -0.3821
 6075SOL    HW229688   3.283   4.614   2.459 -4.3572 -0.6166 -2.2830
 6076SOL     OW29689   3.216   4.041   8.006  1.3440  0.1859  0.5708
 6076SOL    HW129690   3.261   4.006   7.929 -1.1026  0.9185 -1.2074
 6076SOL    HW229691   3.260   4.124   8.029  3.3864 -0.5857 -0.5842
 6077SOL     OW29692   0.505   3.657   3.593 -0.0188  0.2949  0.2553
 6077SOL    HW129693   0.414   3.637   3.612 -0.6530 -0.2560 -3.3494
 6077SOL    HW229694   0.511   3.662   3.498 -0.9197  0.4476  0.2094
 6078SOL     OW29695   4.572   1.463   9.809  0.2930 -0.2097 -1.0383
 6078SOL    HW129696   4.660   1.470   9.847  0.8197 -1.3993 -2.0165
 6078SOL    HW229697   4.588   1.463   9.714  1.2875 -0.2743 -0.8701
 6079SOL     OW29698   2.068   4.330   5.212  0.1077  0.6739 -1.1504
 6079SOL    HW129699   2.014   4.403   5.181 -0.6780  0.4210 -0.4042
 6079SOL    HW229700   2.150   4.371   5.240 -0.6413  1.5625 -0.2455
 6080SOL     OW29701   4.370   3.326  10.718  0.0671  0.2697 -0.3513
 6080SOL    HW129702   4.336   3.359  10.634  1.9766 -1.7965 -1.9400
 6080SOL    HW229703   4.423   3.393  10.761 -0.1501 -0.2623  0.7308
 6081SOL     OW29704   2.931   1.044   4.683 -0.1664  0.0269 -0.2069
 6081SOL    HW129705   2.937   1.119   4.623 -0.6989  0.0477 -0.2375
 6081SOL    HW229706   3.022   1.026   4.707  0.2621  0.3960 -1.5300
 6082SOL     OW29707   0.832   4.324   6.622  0.8700 -0.7806  0.5519
 6082SOL    HW129708   0.875   4.399   6.664 -1.7572  1.9072 -1.6602
 6082SOL    HW229709   0.842   4.255   6.689 -1.0140 -0.8007  0.7995
 6083SOL     OW29710   2.386   4.722  11.300  0.3772  0.3133 -0.2422
 6083SOL    HW129711   2.314   4.670  11.334  1.2811 -0.4124  0.5680
 6083SOL    HW229712   2.352   0.085  11.319  0.4333  0.5210 -1.0840
 6084SOL     OW29713   0.276   2.822   0.820  0.6232  0.1780 -0.4317
 6084SOL    HW129714   0.324   2.765   0.881 -1.5337 -0.7430  0.3827
 6084SOL    HW229715   0.350   2.862   0.774  1.6170  1.0644  1.9280
 6085SOL     OW29716   1.957   2.920   6.933 -0.3411  0.0309 -0.2676
 6085SOL    HW129717   1.875   2.878   6.906  0.6435 -0.6233 -2.2431
 6085SOL    HW229718   2.003   2.840   6.958 -0.5715  0.4116  1.4304
 6086SOL     OW29719   2.161   2.844   4.477  0.6717  0.7407  0.1364
 6086SOL    HW129720   2.188   2.901   4.405 -0.8614  2.0196  0.5983
 6086SOL    HW229721   2.094   2.900   4.516 -0.0300  0.0060 -0.0081
 6087SOL     OW29722   2.381   3.567   9.510 -0.5426 -0.5730  0.2599
 6087SOL    HW129723   2.423   3.653   9.504 -1.7849 -0.1787 -2.5563
 6087SOL    HW229724   2.301   3.608   9.477 -0.4023 -0.1001  0.4993
 6088SOL     OW29725   2.349   3.631   7.256 -0.0308  0.1312 -0.2443
 6088SOL    HW129726   2.279   3.662   7.313 -1.1232 -1.7704 -0.5439
 6088SOL    HW229727   2.418   3.693   7.280  0.8269 -0.6819 -0.6143
 6089SOL     OW29728   4.066   0.973   7.153  0.6603  0.4199 -0.4393
 6089SOL    HW129729   3.991   0.949   7.208  0.8862  1.1688  0.2057
 6089SOL    HW229730   4.099   0.888   7.125  0.0865 -0.0708  0.3599
 6090SOL     OW29731   2.464   3.817  10.748  0.0290  0.4662 -0.4415
 6090SOL    HW129732   2.526   3.744  10.749  0.7091  1.0745  1.4072
 6090SOL    HW229733   2.517   3.883  10.704  0.1050  1.5131  1.2307
 6091SOL     OW29734   1.820   3.848   2.641  0.2506  0.1730  0.2543
 6091SOL    HW129735   1.819   3.869   2.547 -2.6032  0.5010  0.3704
 6091SOL    HW229736   1.839   3.754   2.641 -0.7354 -0.0314 -0.9984
 6092SOL     OW29737   2.806   4.454  16.393 -0.2596 -0.1088 -0.1258
 6092SOL    HW129738   2.782   4.368  16.426 -0.9227 -0.3616 -1.3026
 6092SOL    HW229739   2.884   4.429  16.344  0.6442  0.4584  0.9965
 6093SOL     OW29740   0.053   3.174  12.310  0.4409 -0.2687 -0.0715
 6093SOL    HW129741   0.058   3.198  12.403 -1.3805 -1.7234  0.4203
 6093SOL    HW229742   4.702   3.221  12.274  1.1236  1.7809  1.1536
 6094SOL     OW29743   0.932   0.163   4.099 -0.4626 -0.4875  0.0665
 6094SOL    HW129744   0.985   0.097   4.144 -0.5915  1.2019  2.7203
 6094SOL    HW229745   1.003   0.213   4.060 -1.2776  1.1308  0.6508
 6095SOL     OW29746   4.114   2.089   7.129 -0.4451  0.9859  0.1336
 6095SOL    HW129747   4.189   2.140   7.161  0.6216 -0.2470 -0.4313
 6095SOL    HW229748   4.061   2.158   7.090  1.2885  0.8941 -2.3552
 6096SOL     OW29749   0.270   3.649   4.532  0.4298 -0.7254 -0.2677
 6096SOL    HW129750   0.283   3.556   4.546  1.5710 -0.1624  2.4404
 6096SOL    HW229751   0.176   3.656   4.520  0.3231  0.9161  1.4914
 6097SOL     OW29752   2.031   3.620   5.110  0.3868 -0.1703  0.4719
 6097SOL    HW129753   2.062   3.707   5.089  1.5489 -1.1441 -1.8425
 6097SOL    HW229754   2.011   3.588   5.022  1.7761  0.5280 -0.0885
 6098SOL     OW29755   2.130   1.958   9.957 -0.0381  0.1166  0.5475
 6098SOL    HW129756   2.200   1.973   9.893  0.1716  0.2853  0.8224
 6098SOL    HW229757   2.178   1.963  10.039 -0.4462  2.5902  0.6366
 6099SOL     OW29758   1.894   1.298   6.573  0.7466 -0.3117 -0.0197
 6099SOL    HW129759   1.895   1.262   6.485 -2.2114  0.0799 -0.2110
 6099SOL    HW229760   1.923   1.389   6.565 -1.5553  0.3690 -0.4663
 6100SOL     OW29761   1.008   2.945   4.708  0.2740  0.2440  0.0104
 6100SOL    HW129762   1.012   3.026   4.759 -0.5779  0.3827 -0.1376
 6100SOL    HW229763   0.957   2.971   4.632  2.3101  0.6731 -1.1881
 6101SOL     OW29764   2.246   3.310  17.634 -0.2860  0.0821 -0.5326
 6101SOL    HW129765   2.157   3.313  17.598 -0.7057  2.2630  0.7373
 6101SOL    HW229766   2.239   3.326   0.028  1.6468 -2.4703  0.0410
 6102SOL     OW29767   1.883   1.761  13.000  0.2330  0.5597  0.0951
 6102SOL    HW129768   1.966   1.807  13.017  1.0753 -0.3282 -1.6248
 6102SOL    HW229769   1.835   1.762  13.083  0.0112  3.0180 -0.0509
 6103SOL     OW29770   3.792   0.846   7.052 -0.2051 -0.0315  0.4872
 6103SOL    HW129771   3.791   0.915   6.985  1.0470 -1.1701 -0.7043
 6103SOL    HW229772   3.863   0.791   7.017 -0.1179 -0.3191  1.1186
 6104SOL     OW29773   0.013   1.770  17.116 -0.1406  0.1083 -0.4853
 6104SOL    HW129774   4.704   1.680  17.113  0.2926 -0.0146 -1.8785
 6104SOL    HW229775   4.666   1.832  17.099 -0.5484 -0.4362 -0.7587
 6105SOL     OW29776   4.326   0.810   4.466  0.2585 -0.5085  0.2583
 6105SOL    HW129777   4.237   0.822   4.431  0.8667  0.2318 -1.0354
 6105SOL    HW229778   4.344   0.892   4.512  1.9990 -0.8645  0.1942
 6106SOL     OW29779   0.899   3.791   6.833  0.0628 -0.1117 -0.3452
 6106SOL    HW129780   0.991   3.764   6.841 -0.0519  0.2459  2.2929
 6106SOL    HW229781   0.857   3.739   6.901  2.0021 -0.7367  0.3990
 6107SOL     OW29782   4.330   0.876   6.268 -0.2473 -0.2077  0.2147
 6107SOL    HW129783   4.391   0.948   6.283 -1.2975  0.9982 -1.3142
 6107SOL    HW229784   4.375   0.795   6.294 -0.0707 -0.3083 -0.4026
 6108SOL     OW29785   0.756   3.696   2.773 -0.4499  0.6496 -0.1107
 6108SOL    HW129786   0.768   3.780   2.817  1.3782  0.3294  0.0295
 6108SOL    HW229787   0.666   3.715   2.747 -0.3759 -1.7784 -2.2035
 6109SOL     OW29788   0.513   1.132   7.673  1.2920  0.5014  0.0500
 6109SOL    HW129789   0.443   1.146   7.609  2.4686 -1.8379 -1.7654
 6109SOL    HW229790   0.489   1.205   7.729  0.1930  0.1936 -0.0174
 6110SOL     OW29791   2.145   3.868  12.298 -0.0300  0.0563 -0.2352
 6110SOL    HW129792   2.235   3.895  12.280 -0.4259  1.3764 -0.2631
 6110SOL    HW229793   2.115   3.951  12.335  0.0509  0.8441 -1.9472
 6111SOL     OW29794   3.796   0.917   2.790  0.3136  0.3919  0.0036
 6111SOL    HW129795   3.853   0.840   2.795  1.5265  1.3806  1.3859
 6111SOL    HW229796   3.845   0.993   2.821 -2.4201  0.9725  2.8633
 6112SOL     OW29797   2.363   3.654   5.594  0.0883  0.0749 -0.0197
 6112SOL    HW129798   2.415   3.625   5.669  1.5416 -1.6599 -1.6940
 6112SOL    HW229799   2.333   3.570   5.561 -1.9801  1.3638 -1.4726
 6113SOL     OW29800   1.115   1.768   2.211 -0.3792  0.2648 -0.4384
 6113SOL    HW129801   1.090   1.740   2.123 -0.5138 -1.0677  0.0302
 6113SOL    HW229802   1.143   1.687   2.253  0.3710  1.0655  0.6079
 6114SOL     OW29803   4.031   2.581   1.691 -0.9150 -0.1800  0.4262
 6114SOL    HW129804   4.110   2.626   1.722 -1.6829  0.1781  1.8851
 6114SOL    HW229805   4.016   2.505   1.748  0.6975 -0.0732  1.0020
 6115SOL     OW29806   3.731   2.336  14.241  0.0439  0.1311  0.4920
 6115SOL    HW129807   3.724   2.373  14.153  1.0392 -0.4419  0.1691
 6115SOL    HW229808   3.731   2.412  14.298 -1.5613  0.6988 -0.2730
 6116SOL     OW29809   2.718   2.049   7.255 -0.1470  0.8883  0.0003
 6116SOL    HW129810   2.770   2.020   7.330 -0.8777 -0.5843 -0.0638
 6116SOL    HW229811   2.680   2.128   7.294 -0.1811  1.2956 -0.8567
 6117SOL     OW29812   4.194   2.889   7.018 -0.5403 -0.7668 -0.2016
 6117SOL    HW129813   4.223   2.952   7.085 -3.3106 -0.4282  0.6522
 6117SOL    HW229814   4.101   2.887   7.037 -0.7684  0.2285 -1.2630
 6118SOL     OW29815   0.171   3.165   6.386 -0.2054 -0.1215 -0.6830
 6118SOL    HW129816   0.237   3.097   6.375  0.0817  0.4655 -2.5525
 6118SOL    HW229817   0.166   3.165   6.482  0.7905  1.2171 -0.6389
 6119SOL     OW29818   3.080   3.032   3.177  0.1558  0.3011 -0.2319
 6119SOL    HW129819   3.105   3.003   3.265 -0.9211  1.4433  0.4574
 6119SOL    HW229820   2.990   3.061   3.194  1.1955  0.9836  4.1669
 6120SOL     OW29821   2.948   0.181   8.431  0.3898  0.1611  0.3138
 6120SOL    HW129822   2.979   0.271   8.427  3.0094 -0.7701  0.2586
 6120SOL    HW229823   2.892   0.176   8.353  1.2374 -0.0386 -0.2803
 6121SOL     OW29824   3.557   3.222   7.441 -0.7639 -0.0452  0.2421
 6121SOL    HW129825   3.623   3.291   7.438  1.5603 -2.4167 -3.2943
 6121SOL    HW229826   3.496   3.263   7.502 -2.4721 -0.0961 -1.4482
 6122SOL     OW29827   4.293   1.177  11.297  0.3152  0.6095 -0.3783
 6122SOL    HW129828   4.220   1.214  11.346 -2.0834 -1.7611 -2.1459
 6122SOL    HW229829   4.362   1.243  11.300  1.2491 -0.2903 -2.1305
 6123SOL     OW29830   2.904   0.481   9.939 -0.6273  0.3264  0.1442
 6123SOL    HW129831   2.883   0.572   9.961 -0.6445  0.3922 -0.1511
 6123SOL    HW229832   2.843   0.475   9.867 -0.9982  2.2308  0.3015
 6124SOL     OW29833   4.458   0.021   5.643  0.0643 -0.0224 -1.0540
 6124SOL    HW129834   4.365   0.013   5.664  0.3402 -1.3610 -0.3308
 6124SOL    HW229835   4.470   0.111   5.615  0.7914 -0.0840 -0.9389
 6125SOL     OW29836   1.995   2.388   4.321  0.0573 -0.5425  0.1540
 6125SOL    HW129837   1.908   2.369   4.357 -0.7782 -0.2550 -1.6894
 6125SOL    HW229838   2.043   2.421   4.397  0.0011  0.4409 -0.2313
 6126SOL     OW29839   1.573   3.491   1.956  0.1652 -0.2705  0.3459
 6126SOL    HW129840   1.514   3.551   2.001  1.0469  1.3648 -0.6562
 6126SOL    HW229841   1.550   3.410   2.001 -0.6878  0.9097  2.0488
 6127SOL     OW29842   1.023   1.998  13.936  0.6096  0.2012 -0.0425
 6127SOL    HW129843   1.112   1.965  13.946  0.0719 -1.3279 -0.2939
 6127SOL    HW229844   0.979   1.920  13.901 -1.1299  0.5067  1.4870
 6128SOL     OW29845   2.922   0.856   2.774 -0.3412 -0.1368  0.0409
 6128SOL    HW129846   3.009   0.815   2.781  0.2687  1.0707 -0.3978
 6128SOL    HW229847   2.870   0.785   2.737  0.0909  1.0213 -2.8128
 6129SOL     OW29848   1.662   3.334   7.418 -0.2369 -0.3333 -0.2053
 6129SOL    HW129849   1.715   3.365   7.345  1.0583 -1.4455  0.2575
 6129SOL    HW229850   1.576   3.368   7.393 -0.8324 -1.0917  0.7828
 6130SOL     OW29851   3.923   1.132   3.857  0.7211 -0.0268 -0.1346
 6130SOL    HW129852   3.871   1.120   3.777  1.6979 -2.2569 -0.4321
 6130SOL    HW229853   3.903   1.053   3.906  0.4488  0.2774  0.2422
 6131SOL     OW29854   0.127   3.868   2.413 -0.5382  0.3132  0.0493
 6131SOL    HW129855   0.071   3.800   2.450 -0.3773  0.1809  0.0505
 6131SOL    HW229856   0.167   3.829   2.335 -0.1776 -0.6083  0.6961
 6132SOL     OW29857   3.103   3.446   5.071 -0.3159  0.1455 -0.2480
 6132SOL    HW129858   3.170   3.416   5.133 -2.0444 -0.2960  1.4224
 6132SOL    HW229859   3.032   3.383   5.084  1.0153 -1.8896 -3.0449
 6133SOL     OW29860   1.516   4.212   2.831  0.3407 -0.1019 -1.3915
 6133SOL    HW129861   1.464   4.282   2.794 -0.9052 -1.2777 -1.8535
 6133SOL    HW229862   1.563   4.171   2.758 -1.4544 -1.2929 -1.8587
 6134SOL     OW29863   2.246   0.176   3.830  0.4991 -0.2571  0.4596
 6134SOL    HW129864   2.237   0.090   3.787 -2.2823  1.6150 -2.6345
 6134SOL    HW229865   2.270   0.214   3.745  1.8021  0.2700  1.0609
 6135SOL     OW29866   3.982   1.837  11.196  0.3760 -0.2438 -0.4233
 6135SOL    HW129867   3.969   1.795  11.110  0.1133  0.5981 -0.7954
 6135SOL    HW229868   4.021   1.765  11.244 -1.0090 -0.0122  1.0399
 6136SOL     OW29869   1.542   4.545   7.633 -0.2785  0.3180  0.7984
 6136SOL    HW129870   1.539   4.552   7.538  0.5322 -2.0411  0.5758
 6136SOL    HW229871   1.601   4.616   7.656  1.4659 -1.5144  2.0530
 6137SOL     OW29872   4.666   3.503   5.524 -0.4340  0.4750  0.1440
 6137SOL    HW129873   0.025   3.465   5.496 -0.4483  0.6288 -0.1059
 6137SOL    HW229874   4.618   3.421   5.526 -1.0281  0.7509 -3.8226
 6138SOL     OW29875   2.987   2.152   6.400 -0.1426 -0.2360  0.5941
 6138SOL    HW129876   3.057   2.179   6.459 -1.9069  1.6932  1.7796
 6138SOL    HW229877   2.913   2.186   6.451 -2.8408  0.7316 -3.9884
 6139SOL     OW29878   4.574   2.646   6.528  0.2740  0.4397  0.1422
 6139SOL    HW129879   4.504   2.689   6.577 -1.6724  0.5537 -2.7045
 6139SOL    HW229880   4.644   2.655   6.593  1.9270 -4.1336 -1.0556
 6140SOL     OW29881   1.123   0.258  16.159  0.6456  0.7581  0.0053
 6140SOL    HW129882   1.186   0.260  16.231  0.6941 -0.1926 -0.0055
 6140SOL    HW229883   1.066   0.189  16.195 -1.0748  2.2070  0.0203
 6141SOL     OW29884   2.126   3.164   2.864  0.3274 -1.1602  0.2321
 6141SOL    HW129885   2.049   3.111   2.843  1.1378 -2.4130  0.4611
 6141SOL    HW229886   2.085   3.223   2.929  0.1167 -1.3466  0.2694
 6142SOL     OW29887   2.641   1.202   7.006  0.0104  0.0887 -0.0594
 6142SOL    HW129888   2.733   1.179   6.999  0.4187  2.0767 -1.3866
 6142SOL    HW229889   2.628   1.240   6.918  0.6137  0.0496 -0.1656
 6143SOL     OW29890   4.261   3.706  13.052  0.5468 -0.2116  0.1536
 6143SOL    HW129891   4.324   3.777  13.052 -1.3148  1.4294  1.9585
 6143SOL    HW229892   4.219   3.721  13.137  0.7013  2.5871 -0.2609
 6144SOL     OW29893   0.453   1.678  13.705 -0.0426  0.1673 -0.1244
 6144SOL    HW129894   0.427   1.588  13.726 -2.2782  0.9769  0.5859
 6144SOL    HW229895   0.543   1.660  13.677 -0.0422  0.3275 -0.2236
 6145SOL     OW29896   1.353   0.288  17.600  0.0973  0.4665  0.6446
 6145SOL    HW129897   1.375   0.246  17.517  0.8289  2.2093 -0.0305
 6145SOL    HW229898   1.276   0.342  17.581 -0.4804 -0.3523  0.6417
 6146SOL     OW29899   3.432   4.232   2.843  0.1132  0.2462 -0.6243
 6146SOL    HW129900   3.510   4.186   2.874  2.4132  3.5324 -1.4677
 6146SOL    HW229901   3.400   4.268   2.926  2.0583 -1.3754  0.8236
 6147SOL     OW29902   3.884   3.970   3.880 -0.3363  0.0267  0.4427
 6147SOL    HW129903   3.809   3.931   3.835 -0.8849  1.4802  0.1103
 6147SOL    HW229904   3.862   3.953   3.972  0.6708  0.2608  0.7215
 6148SOL     OW29905   3.353   0.546   6.400  0.2437 -0.0229  0.1279
 6148SOL    HW129906   3.304   0.545   6.318  2.9011  0.8113 -1.4828
 6148SOL    HW229907   3.298   0.489   6.454  0.3760 -0.8314 -0.5823
 6149SOL     OW29908   3.766   0.979  11.662 -0.2182 -0.3973  0.3596
 6149SOL    HW129909   3.753   0.952  11.571  1.0363  2.7490 -0.7548
 6149SOL    HW229910   3.793   1.068  11.641 -1.5320  0.3115  1.6989
 6150SOL     OW29911   2.512   2.590  10.506  0.1188  0.4266 -0.1284
 6150SOL    HW129912   2.589   2.536  10.523  0.5495  1.1590  0.2459
 6150SOL    HW229913   2.447   2.523  10.487 -0.0431  0.1360  1.4952
 6151SOL     OW29914   0.171   1.692   6.143  0.1196  0.6701 -0.0729
 6151SOL    HW129915   0.183   1.767   6.085 -0.3802  0.2637 -0.7179
 6151SOL    HW229916   0.085   1.714   6.180 -0.9345  2.7692 -3.7104
 6152SOL     OW29917   0.330   1.921   3.531  0.2999 -0.0109 -0.0096
 6152SOL    HW129918   0.364   1.994   3.480 -1.2065  1.8771  1.6753
 6152SOL    HW229919   0.396   1.853   3.518 -0.0666  0.0383 -2.1057
 6153SOL     OW29920   2.739   2.484   1.208  0.3952 -0.1718  0.0462
 6153SOL    HW129921   2.691   2.527   1.138 -1.1466 -2.3014 -0.2122
 6153SOL    HW229922   2.802   2.433   1.157 -0.7752 -0.2872 -1.2810
 6154SOL     OW29923   0.519   1.992   7.247 -0.2675 -0.0932  0.4259
 6154SOL    HW129924   0.495   2.045   7.322  0.8975 -0.8605  1.3466
 6154SOL    HW229925   0.512   1.906   7.289 -0.3389  0.7740  2.1542
 6155SOL     OW29926   4.082   4.641   7.878  0.0768  0.1337  0.2407
 6155SOL    HW129927   4.101   4.723   7.922  1.6261 -0.5749  0.8998
 6155SOL    HW229928   4.020   4.606   7.942 -2.2315 -0.7978 -2.5377
 6156SOL     OW29929   0.081   4.693   6.478  0.1140  0.1563 -0.0414
 6156SOL    HW129930   0.100   0.061   6.491 -2.0227  0.8387 -1.7772
 6156SOL    HW229931   4.720   4.721   6.446  0.0013  0.5885  0.6403
 6157SOL     OW29932   2.949   3.483  17.310  1.1724 -0.0689  0.0320
 6157SOL    HW129933   2.943   3.476  17.215  0.6541 -0.8830  0.1243
 6157SOL    HW229934   2.878   3.430  17.348  0.7376  0.6078  0.1751
 6158SOL     OW29935   3.164   0.160  10.301 -0.1953 -0.0979  0.3399
 6158SOL    HW129936   3.108   0.238  10.299  2.8004  2.0217 -1.5447
 6158SOL    HW229937   3.104   0.089  10.279 -1.4042  0.6006  1.4141
 6159SOL     OW29938   0.111   3.705   4.842 -0.1392 -0.1406  0.2819
 6159SOL    HW129939   0.104   3.760   4.920 -0.7161 -0.4874  0.4777
 6159SOL    HW229940   0.190   3.652   4.841 -1.4856 -2.2321  4.0220
 6160SOL     OW29941   2.269   3.744   2.755 -0.0480  0.1925 -0.3629
 6160SOL    HW129942   2.307   3.736   2.843  0.0408  1.1096 -0.3117
 6160SOL    HW229943   2.349   3.732   2.705  0.7431 -0.9131  1.1647
 6161SOL     OW29944   4.637   4.039   3.369  0.0597 -0.3187  0.2905
 6161SOL    HW129945   4.627   3.968   3.305 -1.9522 -0.6565  0.9667
 6161SOL    HW229946   4.694   4.098   3.320  0.3608  1.2802  2.5736
 6162SOL     OW29947   1.995   3.104   5.719 -0.3054  0.3008  0.4584
 6162SOL    HW129948   2.039   3.043   5.779 -0.2757 -0.7026 -0.5762
 6162SOL    HW229949   1.910   3.059   5.714 -0.6114  0.8827  0.3920
 6163SOL     OW29950   4.457   4.285   5.626 -0.1022 -0.0659  0.1864
 6163SOL    HW129951   4.508   4.365   5.641 -1.3117  0.4988  1.2365
 6163SOL    HW229952   4.406   4.266   5.704 -0.0180  0.2354  0.3143
 6164SOL     OW29953   1.608   1.530   3.353  0.5755 -0.2342 -0.0289
 6164SOL    HW129954   1.628   1.451   3.303  1.4580 -0.2747  0.3818
 6164SOL    HW229955   1.533   1.502   3.406  0.0117 -0.1237 -0.7710
 6165SOL     OW29956   0.521   3.499   8.212 -0.7672 -0.4901  0.3921
 6165SOL    HW129957   0.498   3.515   8.121 -0.6722 -2.8271 -0.0453
 6165SOL    HW229958   0.577   3.421   8.207 -1.0405 -0.7389  1.2373
 6166SOL     OW29959   1.688   4.434   3.088  0.8199 -0.0944 -0.2933
 6166SOL    HW129960   1.736   4.423   3.170 -1.9738 -3.4593  0.9073
 6166SOL    HW229961   1.622   4.498   3.113  1.1294 -0.1243  0.6025
 6167SOL     OW29962   2.587   2.398  14.364  0.2183 -0.4118  0.0130
 6167SOL    HW129963   2.619   2.351  14.441  2.7474  0.3490 -0.5787
 6167SOL    HW229964   2.521   2.453  14.405 -1.6911 -0.6858 -2.7053
 6168SOL     OW29965   1.278   2.501   6.862  0.0222 -0.5414  0.0636
 6168SOL    HW129966   1.217   2.451   6.916 -1.4275  2.0680  0.8428
 6168SOL    HW229967   1.215   2.515   6.791  0.0976 -2.3537 -0.3673
 6169SOL     OW29968   2.668   1.806   4.335  0.2394  0.3790  0.3994
 6169SOL    HW129969   2.615   1.787   4.257 -0.9640 -0.1584  1.3465
 6169SOL    HW229970   2.661   1.721   4.379 -1.7167  0.9535  1.1950
 6170SOL     OW29971   4.084   1.145   5.307 -0.3475  1.2376  0.4367
 6170SOL    HW129972   4.092   1.223   5.361 -1.4914  2.0591 -0.5760
 6170SOL    HW229973   4.029   1.103   5.373  1.0012  1.1867  1.5087
 6171SOL     OW29974   2.627   1.010   5.252 -0.0404 -0.1116  0.2083
 6171SOL    HW129975   2.617   0.958   5.331  0.6722 -0.1918  0.2506
 6171SOL    HW229976   2.544   0.990   5.209 -1.5771  2.3225  2.0284
 6172SOL     OW29977   3.419   1.276   3.389  0.1133  0.5039  0.0758
 6172SOL    HW129978   3.415   1.195   3.337  2.2199  0.3747  0.1453
 6172SOL    HW229979   3.509   1.305   3.376 -1.2691  3.8629 -2.1632
 6173SOL     OW29980   2.606   3.543   7.476 -0.2410 -0.1319  0.2634
 6173SOL    HW129981   2.512   3.526   7.474  0.2647 -2.5399 -3.2285
 6173SOL    HW229982   2.641   3.454   7.469 -3.2129 -1.1630 -1.3245
 6174SOL     OW29983   0.764   2.381   7.550 -0.7827 -0.3855  0.0667
 6174SOL    HW129984   0.674   2.383   7.584 -0.3547  2.1474  1.0175
 6174SOL    HW229985   0.758   2.290   7.520  1.2973 -0.3076 -0.5672
 6175SOL     OW29986   3.567   4.538   5.100  0.6227  0.3638 -0.3989
 6175SOL    HW129987   3.604   4.545   5.012 -0.8984  2.7117 -0.8614
 6175SOL    HW229988   3.606   4.620   5.130  1.9639  0.0455 -1.2886
 6176SOL     OW29989   0.359   1.216  10.493 -0.1750  0.2520  0.1278
 6176SOL    HW129990   0.304   1.241  10.419  2.5752 -0.9906 -2.3313
 6176SOL    HW229991   0.390   1.305  10.510  1.6498 -0.6788  1.7121
 6177SOL     OW29992   2.863   2.371   2.406  0.0933 -0.3251  0.0876
 6177SOL    HW129993   2.949   2.411   2.416 -0.4687  1.3488 -1.6929
 6177SOL    HW229994   2.814   2.394   2.485  2.3681 -0.1005  1.4445
 6178SOL     OW29995   1.966   0.328   8.484  0.0456  0.0803 -0.0307
 6178SOL    HW129996   2.045   0.303   8.436 -0.7628 -1.6051 -0.4819
 6178SOL    HW229997   1.998   0.390   8.550 -2.5664  3.0392 -1.5425
 6179SOL     OW29998   0.236   3.227   9.533  0.3882  0.2610  0.7084
 6179SOL    HW129999   0.187   3.195   9.608 -1.4660  2.2447  0.3646
 6179SOL    HW230000   0.197   3.172   9.465  2.6279  1.7950 -1.8479
 6180SOL     OW30001   2.708   1.740  12.569 -0.6299  0.4381  0.7624
 6180SOL    HW130002   2.723   1.748  12.663  2.2502 -0.5722  0.3866
 6180SOL    HW230003   2.755   1.817  12.537 -0.1814  0.2453  0.9515
 6181SOL     OW30004   3.893   3.433   3.776 -0.1667  0.3068 -0.2991
 6181SOL    HW130005   3.903   3.367   3.708 -1.4118 -0.9682  0.7486
 6181SOL    HW230006   3.857   3.507   3.728  2.2780 -0.9988 -4.0921
 6182SOL     OW30007   3.838   3.938   6.974 -0.1186 -0.0243  0.3690
 6182SOL    HW130008   3.833   3.940   6.878 -0.4430 -0.7396  0.3705
 6182SOL    HW230009   3.774   4.004   7.003 -1.1950 -0.2262 -1.5057
 6183SOL     OW30010   4.469   1.308   6.467  0.1153 -0.1688  0.6740
 6183SOL    HW130011   4.536   1.252   6.430 -1.4607 -0.0078 -2.4081
 6183SOL    HW230012   4.485   1.290   6.560 -2.8675 -2.0221  0.8297
 6184SOL     OW30013   3.535   2.611  10.636 -0.4760  0.2971  0.5670
 6184SOL    HW130014   3.530   2.582  10.727  1.8739  0.6682  0.8308
 6184SOL    HW230015   3.492   2.539  10.589  2.8486 -2.7053  2.0695
 6185SOL     OW30016   0.311   0.628   8.652  0.3574  0.3102 -0.0598
 6185SOL    HW130017   0.357   0.710   8.670  3.0901 -1.4716  1.1554
 6185SOL    HW230018   0.219   0.653   8.648  0.4609  0.5103 -1.1428
 6186SOL     OW30019   3.492   1.349  11.918 -0.0882 -0.4502 -0.3768
 6186SOL    HW130020   3.500   1.308  11.832 -0.6980  1.6686 -1.4315
 6186SOL    HW230021   3.579   1.386  11.934 -0.8719  1.5764 -0.7183
 6187SOL     OW30022   1.327   2.372   6.133  0.2541  0.1185  0.9313
 6187SOL    HW130023   1.275   2.320   6.193  1.0320 -1.8674 -0.1296
 6187SOL    HW230024   1.291   2.348   6.048 -0.6537  3.5173  0.3356
 6188SOL     OW30025   0.351   2.992   4.270 -0.0488  0.5948  0.1877
 6188SOL    HW130026   0.339   2.907   4.312  0.4006  0.4300 -0.0199
 6188SOL    HW230027   0.425   2.965   4.216 -0.8434  1.6064 -1.3855
 6189SOL     OW30028   3.018   3.813   7.782 -0.2947  0.2803  0.1236
 6189SOL    HW130029   2.930   3.788   7.810 -0.7203  0.3446 -1.1283
 6189SOL    HW230030   3.002   3.907   7.768  1.9829  0.7047  0.3479
 6190SOL     OW30031   1.613   1.982   3.429  0.3442  0.6830 -0.3342
 6190SOL    HW130032   1.570   1.955   3.510  1.6392 -0.0691  0.1016
 6190SOL    HW230033   1.563   2.063   3.416 -1.8614 -0.4225  1.5074
 6191SOL     OW30034   2.184   3.677   2.168  0.0914 -0.1462  0.5307
 6191SOL    HW130035   2.215   3.768   2.164  0.5317 -0.2621  1.5321
 6191SOL    HW230036   2.134   3.682   2.249 -2.3431  1.7238 -1.0515
 6192SOL     OW30037   0.834   3.316   3.909  0.1675  0.1383 -0.1558
 6192SOL    HW130038   0.771   3.386   3.892 -1.3473 -1.1744  0.1685
 6192SOL    HW230039   0.851   3.287   3.819 -1.4865 -1.0462 -0.0693
 6193SOL     OW30040   0.512   4.550   4.629  0.4124 -0.0673 -0.2230
 6193SOL    HW130041   0.546   4.461   4.635  0.7618 -0.0949 -2.7223
 6193SOL    HW230042   0.568   4.591   4.564  1.2681 -0.3136  0.3550
 6194SOL     OW30043   4.661   4.380   9.358 -0.8427  0.1279  0.4218
 6194SOL    HW130044   4.624   4.449   9.303 -0.4709 -0.6255 -0.7748
 6194SOL    HW230045   4.587   4.355   9.414 -2.1251 -2.1690 -2.2678
 6195SOL     OW30046   0.878   0.572   4.392 -0.6161 -0.1816  0.0130
 6195SOL    HW130047   0.899   0.664   4.375 -1.0101 -0.0151  0.4605
 6195SOL    HW230048   0.951   0.540   4.445 -1.2954 -2.1470 -0.2045
 6196SOL     OW30049   4.315   2.396   3.277  0.3098  0.1417  0.1797
 6196SOL    HW130050   4.354   2.309   3.267 -0.6488 -0.0342 -2.2080
 6196SOL    HW230051   4.221   2.376   3.286  0.7376  0.1415  4.5280
 6197SOL     OW30052   4.122   2.717   1.997 -0.2583  0.0908  0.3314
 6197SOL    HW130053   4.116   2.812   2.000  2.5996  0.2519  1.3556
 6197SOL    HW230054   4.206   2.690   2.036  0.5737  1.6745 -0.4025
 6198SOL     OW30055   2.459   1.914   4.779 -0.0053 -0.2677 -0.6151
 6198SOL    HW130056   2.529   1.919   4.715 -0.7593  1.0254 -1.3384
 6198SOL    HW230057   2.402   1.988   4.759  2.5406  2.0820  0.8685
 6199SOL     OW30058   3.128   1.292   5.932 -0.4144  0.2218 -0.2501
 6199SOL    HW130059   3.156   1.349   6.004 -0.8097 -0.1979  0.2389
 6199SOL    HW230060   3.142   1.340   5.850  2.1844  1.3973  0.8774
 6200SOL     OW30061   4.098   1.556   4.695  0.2785 -0.2799  0.0186
 6200SOL    HW130062   4.125   1.556   4.786  0.3575 -0.2922 -0.0052
 6200SOL    HW230063   4.118   1.643   4.662 -0.1275  0.5803  2.0481
 6201SOL     OW30064   2.601   3.954   5.398  0.3991  0.0307  0.2229
 6201SOL    HW130065   2.622   3.865   5.370  1.8323  0.9412 -1.6108
 6201SOL    HW230066   2.529   3.943   5.460  0.3888 -0.2400  0.1621
 6202SOL     OW30067   4.705   2.749   6.309  0.3893 -0.3474 -0.5166
 6202SOL    HW130068   4.663   2.715   6.388 -1.2557  0.3794 -1.0663
 6202SOL    HW230069   4.709   2.844   6.324 -0.1630 -0.5115  0.6843
 6203SOL     OW30070   2.255   4.508  13.729 -0.2911 -0.0351  0.3852
 6203SOL    HW130071   2.343   4.540  13.710 -0.5114  0.4581  0.1975
 6203SOL    HW230072   2.260   4.413  13.718  0.8048  0.2506 -1.6673
 6204SOL     OW30073   3.605   2.948   6.402  0.6889  0.0785 -0.3878
 6204SOL    HW130074   3.573   2.976   6.317  1.8144 -0.0978 -0.8755
 6204SOL    HW230075   3.614   3.038   6.435  1.1894  0.3392 -1.2419
 6205SOL     OW30076   0.744   2.254   9.372 -0.2749  0.0300  0.0836
 6205SOL    HW130077   0.788   2.323   9.422  0.9070  0.1335 -1.1035
 6205SOL    HW230078   0.694   2.226   9.448 -0.7829  0.4406 -0.1047
 6206SOL     OW30079   2.841   1.376   7.552 -0.4028 -0.0397  0.3455
 6206SOL    HW130080   2.789   1.297   7.536 -0.3384 -0.1203  0.5360
 6206SOL    HW230081   2.787   1.410   7.624 -3.5894 -0.4661 -1.8118
 6207SOL     OW30082   3.202   1.092  12.750  0.0705 -0.4524  0.6907
 6207SOL    HW130083   3.112   1.116  12.731 -0.3822 -2.0759  0.7224
 6207SOL    HW230084   3.240   1.159  12.808  0.1118  2.1356 -2.3638
 6208SOL     OW30085   0.794   0.642   6.251 -0.3914  0.2002  0.7521
 6208SOL    HW130086   0.860   0.692   6.299 -1.1636  0.2958  1.7279
 6208SOL    HW230087   0.744   0.710   6.205 -0.1127  0.8111  1.3586
 6209SOL     OW30088   2.726   3.309   3.116  0.1594  0.2278  0.5975
 6209SOL    HW130089   2.694   3.323   3.027 -2.8827  0.5953  1.7656
 6209SOL    HW230090   2.776   3.389   3.132  0.4390  0.2403 -0.3555
 6210SOL     OW30091   3.642   0.370   3.096 -0.0063  0.3199  0.1253
 6210SOL    HW130092   3.556   0.340   3.125 -0.5744  0.9688 -0.9069
 6210SOL    HW230093   3.654   0.299   3.032 -1.1123 -1.0902  1.4788
 6211SOL     OW30094   3.630   3.160   5.434  0.1660 -0.1953 -0.0097
 6211SOL    HW130095   3.658   3.072   5.462  1.0046  0.3214  0.7737
 6211SOL    HW230096   3.700   3.219   5.461  1.2470 -1.5731  0.2491
 6212SOL     OW30097   1.768   3.759  14.435 -0.9132  0.0272 -0.2432
 6212SOL    HW130098   1.717   3.815  14.376 -0.3642  2.6961  1.8061
 6212SOL    HW230099   1.702   3.751  14.504 -1.1223 -0.5995 -0.5124
 6213SOL     OW30100   3.315   1.885  10.317 -0.0864  0.2183 -0.3656
 6213SOL    HW130101   3.394   1.833  10.330 -0.3078  0.3207  1.4705
 6213SOL    HW230102   3.258   1.860  10.390  0.9450  0.3098  0.4583
 6214SOL     OW30103   1.582   3.259   5.560 -0.2234  0.4059  0.1712
 6214SOL    HW130104   1.538   3.190   5.610 -3.0703  2.8511  1.0476
 6214SOL    HW230105   1.658   3.214   5.524  0.0919 -0.0034  1.3419
 6215SOL     OW30106   3.538   2.555  15.572 -0.0956  0.5489  0.1948
 6215SOL    HW130107   3.559   2.582  15.483 -4.6528 -0.6022 -1.2251
 6215SOL    HW230108   3.554   2.636  15.620  1.3051  0.3723  0.0357
 6216SOL     OW30109   3.586   3.269   8.326 -0.0358 -0.1802 -0.4291
 6216SOL    HW130110   3.571   3.331   8.397  1.4090  1.6671 -1.7316
 6216SOL    HW230111   3.496   3.269   8.294  0.8930 -1.8089 -2.9676
 6217SOL     OW30112   0.099   1.463   7.239  0.0309  0.4222 -0.3299
 6217SOL    HW130113   0.080   1.475   7.146  2.1980  3.8964 -0.3452
 6217SOL    HW230114   0.116   1.551   7.272  1.2385  0.7268 -1.7518
 6218SOL     OW30115   2.384   1.284   0.458 -0.3486  0.0484  0.2645
 6218SOL    HW130116   2.425   1.273   0.373 -0.5376 -1.1245  0.3343
 6218SOL    HW230117   2.299   1.253   0.429 -1.1208  1.5330  0.9243
 6219SOL     OW30118   4.456   2.140  16.527  0.1061 -0.3985 -0.6916
 6219SOL    HW130119   4.399   2.168  16.455 -1.3227  1.7663  1.2721
 6219SOL    HW230120   4.500   2.064  16.491 -2.7215 -2.8720  1.0751
 6220SOL     OW30121   0.849   0.556   5.322 -0.4774 -0.4575 -0.1392
 6220SOL    HW130122   0.937   0.569   5.359 -0.5324 -1.3765  0.3162
 6220SOL    HW230123   0.856   0.466   5.292 -1.3874  0.7981 -4.1323
 6221SOL     OW30124   2.990   2.477   3.184 -0.6700 -0.3414  0.4637
 6221SOL    HW130125   2.919   2.463   3.247 -1.4601 -1.8207 -0.7504
 6221SOL    HW230126   2.938   2.507   3.109 -0.4643 -0.7271  0.1661
 6222SOL     OW30127   0.747   3.681   7.526  0.5643 -0.1916  0.3417
 6222SOL    HW130128   0.758   3.658   7.619 -0.0641 -1.5002  0.0885
 6222SOL    HW230129   0.718   3.773   7.532 -0.9888 -0.8167  2.7861
 6223SOL     OW30130   3.761   1.464   0.911  0.0266 -0.3780 -0.0646
 6223SOL    HW130131   3.733   1.402   0.978 -0.5141  1.4129  1.3691
 6223SOL    HW230132   3.829   1.412   0.869  1.1712  1.6433 -0.7326
 6224SOL     OW30133   2.251   4.555   6.871  0.0599  0.7328  0.1881
 6224SOL    HW130134   2.194   4.508   6.810  0.1583 -0.2349  0.8431
 6224SOL    HW230135   2.324   4.496   6.890 -1.3907 -1.8081 -2.0214
 6225SOL     OW30136   1.964   3.943   7.206  0.2273  0.2459  0.1970
 6225SOL    HW130137   2.003   3.921   7.122 -0.7508 -0.7275  0.0096
 6225SOL    HW230138   1.914   3.868   7.238 -1.7605  0.6533 -2.0199
 6226SOL     OW30139   3.339   0.533  10.186  0.2979 -0.3326 -0.6124
 6226SOL    HW130140   3.373   0.578  10.108 -1.7195  0.7812 -0.8673
 6226SOL    HW230141   3.258   0.492  10.156  0.0370  0.0251 -0.4081
 6227SOL     OW30142   0.984   2.681   5.917 -0.2765 -0.1484  0.2612
 6227SOL    HW130143   1.045   2.706   5.848 -0.5640  1.6561  0.6662
 6227SOL    HW230144   0.957   2.603   5.869  1.3021 -1.4356  1.4484
 6228SOL     OW30145   1.714   1.843   6.902  0.4092  0.0585  0.0098
 6228SOL    HW130146   1.688   1.755   6.872  2.5365 -1.5430  2.8369
 6228SOL    HW230147   1.809   1.829   6.902  0.2857 -0.8029 -0.0143
 6229SOL     OW30148   0.099   1.027  16.497  0.1971  0.4817 -0.3268
 6229SOL    HW130149   0.113   0.966  16.424  1.4662 -0.4860  0.7272
 6229SOL    HW230150   0.122   1.110  16.455 -0.7017  0.5942 -0.6176
 6230SOL     OW30151   2.807   4.008  14.460  0.2252  0.2770  0.0589
 6230SOL    HW130152   2.805   3.916  14.433  0.8828 -0.1241  1.3377
 6230SOL    HW230153   2.891   4.013  14.507 -0.1882 -0.2529  0.8690
 6231SOL     OW30154   1.058   2.520   5.045 -0.7105  0.1026  0.4511
 6231SOL    HW130155   0.987   2.554   5.099 -0.8469 -1.2066  1.1037
 6231SOL    HW230156   1.031   2.544   4.957 -0.9030  2.1856  1.0822
 6232SOL     OW30157   3.532   0.907   8.892 -0.3271  0.1809 -0.2087
 6232SOL    HW130158   3.460   0.850   8.866 -2.5184  2.6872  0.4168
 6232SOL    HW230159   3.484   0.988   8.902  1.0504  0.9122  0.5662
 6233SOL     OW30160   4.313   0.680  12.096 -0.0369  0.2886  0.3194
 6233SOL    HW130161   4.347   0.673  12.007 -1.6722 -0.0473 -0.2710
 6233SOL    HW230162   4.322   0.775  12.107  2.7392  0.4066 -2.9004
 6234SOL     OW30163   2.917   0.684  13.259 -0.0825 -0.0150  0.0698
 6234SOL    HW130164   2.899   0.622  13.329 -0.9475 -1.0038 -1.0326
 6234SOL    HW230165   2.919   0.766  13.308  1.1904 -1.1091  1.8347
 6235SOL     OW30166   1.759   2.681   2.541 -0.3476  0.0937 -0.6194
 6235SOL    HW130167   1.665   2.689   2.521  0.0286  2.7156 -1.3080
 6235SOL    HW230168   1.793   2.691   2.453 -0.0749 -0.8795 -0.6206
 6236SOL     OW30169   3.203   4.661   5.222 -0.4072 -0.4492 -0.1743
 6236SOL    HW130170   3.212   4.565   5.222  1.8072 -0.2516  0.9649
 6236SOL    HW230171   3.172   4.676   5.311  2.2817  0.8721  0.5294
 6237SOL     OW30172   0.705   3.425  14.079 -1.0932 -0.6511  0.2380
 6237SOL    HW130173   0.709   3.340  14.123 -0.4995 -1.3013 -1.0753
 6237SOL    HW230174   0.797   3.450  14.083 -1.3842  0.9000 -2.6562
 6238SOL     OW30175   4.354   2.835   5.544 -0.4752 -0.1645  0.0064
 6238SOL    HW130176   4.340   2.770   5.475  0.0965 -0.3580  0.0717
 6238SOL    HW230177   4.318   2.799   5.626 -0.9790  0.2219 -0.0466
 6239SOL     OW30178   2.518   0.914   3.014  0.3782  0.5594  0.3879
 6239SOL    HW130179   2.440   0.915   2.958  1.2117 -0.0046 -0.7650
 6239SOL    HW230180   2.543   0.822   3.024  0.9753  0.8127  1.2877
 6240SOL     OW30181   3.485   2.429   3.593 -0.2463 -0.8878 -0.1821
 6240SOL    HW130182   3.449   2.418   3.504  0.0269  0.3823 -0.4483
 6240SOL    HW230183   3.492   2.523   3.608 -0.3277 -0.9937  0.5153
 6241SOL     OW30184   1.970   2.263   2.355 -0.3400  0.4978 -0.2812
 6241SOL    HW130185   2.026   2.189   2.333 -0.9492 -0.1748  0.4095
 6241SOL    HW230186   1.887   2.243   2.310 -1.2705  1.8825  0.8113
 6242SOL     OW30187   3.675   1.197  16.457  0.3916  0.2121  0.5353
 6242SOL    HW130188   3.745   1.138  16.430 -1.4773 -1.0305 -1.5866
 6242SOL    HW230189   3.670   1.261  16.385  0.3864 -0.7159 -0.2939
 6243SOL     OW30190   1.836   4.037   2.177 -0.2096  0.4770 -1.3067
 6243SOL    HW130191   1.930   4.045   2.161 -0.0386  0.6374 -0.2141
 6243SOL    HW230192   1.800   4.079   2.099 -3.3119  1.2183  0.4895
 6244SOL     OW30193   1.196   1.824  15.752  0.0644 -0.6547 -0.3700
 6244SOL    HW130194   1.154   1.761  15.693 -1.4036  0.2703 -0.2989
 6244SOL    HW230195   1.284   1.788  15.743 -0.0077 -0.7062 -0.8847
 6245SOL     OW30196   4.121   2.729   7.272 -0.2314  0.0958 -0.5359
 6245SOL    HW130197   4.115   2.803   7.333 -0.0728 -0.5901  0.3063
 6245SOL    HW230198   4.063   2.662   7.310  1.2804 -0.8671  0.0503
 6246SOL     OW30199   3.315   2.403  11.951 -0.0107 -0.3788  0.1526
 6246SOL    HW130200   3.317   2.338  12.021 -0.8609  0.6181  1.1086
 6246SOL    HW230201   3.230   2.376  11.917 -0.3787  1.4585 -0.3960
 6247SOL     OW30202   2.223   3.806  13.229  0.1786  0.4978  0.1332
 6247SOL    HW130203   2.286   3.847  13.289 -0.2929  1.0412  0.2622
 6247SOL    HW230204   2.215   3.715  13.257 -0.4374  0.9929  1.5563
 6248SOL     OW30205   0.824   4.467   9.140 -0.0367  0.1658 -0.5865
 6248SOL    HW130206   0.766   4.541   9.158 -0.3729 -0.1139 -0.5067
 6248SOL    HW230207   0.774   4.388   9.162 -0.9371  1.2432  1.2754
 6249SOL     OW30208   1.334   2.071   9.411 -0.8529 -0.0316 -0.6535
 6249SOL    HW130209   1.369   2.073   9.322  0.9485 -1.7894  0.0261
 6249SOL    HW230210   1.405   2.022   9.453 -1.8899  0.5482  1.7921
 6250SOL     OW30211   1.742   3.973   6.505 -0.3962 -0.0227  0.0832
 6250SOL    HW130212   1.705   4.026   6.434 -0.9484 -0.6958 -0.1274
 6250SOL    HW230213   1.664   3.923   6.529 -0.3650  0.3975  1.0827
 6251SOL     OW30214   2.618   0.284   2.986 -0.0749  0.2121 -0.0971
 6251SOL    HW130215   2.693   0.233   3.017 -1.5767 -1.5718  0.6304
 6251SOL    HW230216   2.661   0.338   2.920  0.9239 -0.3386  0.0966
 6252SOL     OW30217   3.551   3.720   7.892  0.1684  0.0139  0.0243
 6252SOL    HW130218   3.589   3.635   7.867 -2.7532 -1.3043  0.1034
 6252SOL    HW230219   3.468   3.685   7.924  0.2908  0.1030  0.4401
 6253SOL     OW30220   4.636   1.154  15.190  0.1475  0.1407 -0.0422
 6253SOL    HW130221   4.681   1.093  15.249  1.7697  1.1972 -0.1967
 6253SOL    HW230222   4.591   1.103  15.124  0.2584 -0.4851  0.3627
 6254SOL     OW30223   3.105   4.077   0.022 -0.7469 -0.0185  0.9049
 6254SOL    HW130224   3.101   4.088  17.626  0.2308  0.1261  0.8744
 6254SOL    HW230225   3.056   3.995   0.019  1.8404 -1.4609 -2.8813
 6255SOL     OW30226   0.236   2.959   5.999 -0.4691 -0.6071 -0.1365
 6255SOL    HW130227   0.184   2.887   5.962  1.1114 -1.0895 -1.4295
 6255SOL    HW230228   0.165   3.013   6.034 -0.2711 -1.0757  0.9785
 6256SOL     OW30229   0.602   2.919   8.774  0.4766 -0.4802 -0.4612
 6256SOL    HW130230   0.626   3.001   8.731  0.4568 -0.3492 -0.2254
 6256SOL    HW230231   0.593   2.854   8.705 -3.5020 -0.3918 -0.0272
 6257SOL     OW30232   0.173   0.002   0.584 -0.3564 -0.4830  0.0578
 6257SOL    HW130233   0.233   4.659   0.616  0.1851  0.6325  1.4145
 6257SOL    HW230234   0.230   0.065   0.540  0.6448 -1.3417  0.1327
 6258SOL     OW30235   1.930   1.234   6.302  0.3531 -0.2894  0.7903
 6258SOL    HW130236   1.998   1.189   6.252 -1.0662 -0.2772 -1.1857
 6258SOL    HW230237   1.966   1.323   6.295 -1.3704  0.4311  0.9623
 6259SOL     OW30238   2.625   0.300  16.501 -0.2515  0.2506 -1.1475
 6259SOL    HW130239   2.607   0.252  16.581  0.7199  3.4371  1.0153
 6259SOL    HW230240   2.585   0.248  16.431  1.8578 -0.5068 -1.7923
 6260SOL     OW30241   1.307   1.094   4.673  0.0212  0.9777  0.5542
 6260SOL    HW130242   1.268   1.101   4.585 -0.7763  0.6831  0.8842
 6260SOL    HW230243   1.401   1.104   4.655 -0.8114  3.7793 -2.3136
 6261SOL     OW30244   4.260   1.272   1.016  0.4437 -0.1752 -0.4920
 6261SOL    HW130245   4.208   1.197   1.046  2.4519 -2.1261 -1.8571
 6261SOL    HW230246   4.194   1.321   0.967 -0.3984 -2.7663 -1.9404
 6262SOL     OW30247   4.136   0.199   2.386 -0.1638  0.5531  0.3976
 6262SOL    HW130248   4.144   0.204   2.482  4.7060  1.4033 -0.0431
 6262SOL    HW230249   4.109   0.108   2.374 -3.8179  1.4039  2.1231
 6263SOL     OW30250   2.780   0.868   3.333  0.3416  0.7076  0.4832
 6263SOL    HW130251   2.786   0.773   3.348 -2.4876  0.1649 -1.7856
 6263SOL    HW230252   2.852   0.883   3.272  0.5960 -0.1201  0.5785
 6264SOL     OW30253   3.624   0.709  13.323  0.2920 -0.2897  0.1613
 6264SOL    HW130254   3.683   0.667  13.386 -0.8545 -0.3372  1.1964
 6264SOL    HW230255   3.557   0.742  13.382  1.4648  1.5577  0.4532
 6265SOL     OW30256   0.038   3.496   2.067 -0.5795 -0.5814  0.4461
 6265SOL    HW130257   4.704   3.570   2.082  0.0619  0.5197 -2.5617
 6265SOL    HW230258   0.076   3.526   1.985 -1.2768  1.7727  0.9809
 6266SOL     OW30259   0.710   3.796   8.001  0.1367 -0.2970 -0.9386
 6266SOL    HW130260   0.696   3.756   8.087  1.5927 -2.1094 -1.5485
 6266SOL    HW230261   0.632   3.852   7.998  0.4921  0.2426  0.2033
 6267SOL     OW30262   2.135   1.038   4.559  0.2935  0.9209 -0.1974
 6267SOL    HW130263   2.128   1.130   4.535 -1.0613  0.6202 -0.9857
 6267SOL    HW230264   2.200   1.009   4.494 -1.0015  0.7326 -1.4040
 6268SOL     OW30265   3.583   2.976   7.159  0.6912 -0.8702 -0.4915
 6268SOL    HW130266   3.664   3.026   7.168 -0.3122  0.6326  0.1184
 6268SOL    HW230267   3.510   3.037   7.163  1.1051 -0.5110  1.7959
 6269SOL     OW30268   2.546   4.381   9.217 -0.1862  0.0670  0.4088
 6269SOL    HW130269   2.548   4.380   9.121  1.1997 -2.7888  0.4453
 6269SOL    HW230270   2.586   4.299   9.245  1.0628  0.1893 -1.0162
 6270SOL     OW30271   4.284   2.887   1.392 -0.4896  0.0961 -0.3318
 6270SOL    HW130272   4.259   2.864   1.481 -1.9073  0.5707 -0.6096
 6270SOL    HW230273   4.354   2.823   1.389 -0.5701 -0.0685  1.1891
 6271SOL     OW30274   3.702   1.787   8.298  0.0420  0.4180  0.2261
 6271SOL    HW130275   3.719   1.879   8.277  4.4095  0.3956  3.6000
 6271SOL    HW230276   3.723   1.803   8.390 -2.5148 -1.3798  1.1124
 6272SOL     OW30277   3.465   1.383   8.073  0.3981 -0.8916 -0.1615
 6272SOL    HW130278   3.518   1.442   8.127  0.7813  0.6549 -2.1955
 6272SOL    HW230279   3.423   1.334   8.143 -0.4118  0.2808  0.1640
 6273SOL     OW30280   1.158   4.176   6.547  0.0377  0.0806  0.1155
 6273SOL    HW130281   1.106   4.203   6.623 -2.2556 -1.6796 -0.8366
 6273SOL    HW230282   1.236   4.164   6.601  0.6781  3.1198 -0.1341
 6274SOL     OW30283   0.301   2.880   0.336 -0.4356 -0.1372  0.0621
 6274SOL    HW130284   0.239   2.808   0.320  1.3475 -1.6658 -0.0274
 6274SOL    HW230285   0.246   2.957   0.350 -0.0911  0.1385 -0.1153
 6275SOL     OW30286   2.768   2.053   8.046  0.4639 -0.2352  0.5561
 6275SOL    HW130287   2.773   1.958   8.042 -1.1296 -0.2574 -0.8886
 6275SOL    HW230288   2.746   2.058   8.139 -1.1834  0.7614  0.1277
 6276SOL     OW30289   0.889   3.904  14.305 -0.3892 -0.4690  0.4116
 6276SOL    HW130290   0.829   3.971  14.338  2.5912  0.7226  3.5195
 6276SOL    HW230291   0.976   3.944  14.292 -0.8818  1.1920  2.2118
 6277SOL     OW30292   1.824   4.144  10.092 -0.2705 -0.0188 -0.2402
 6277SOL    HW130293   1.831   4.168  10.185 -0.6911  0.5165 -0.3526
 6277SOL    HW230294   1.753   4.205  10.073 -0.8383 -0.0899  1.5802
 6278SOL     OW30295   0.936   4.704   5.839  0.7615  0.2194  0.0812
 6278SOL    HW130296   0.981   0.021   5.765 -0.4647  2.3056  0.5151
 6278SOL    HW230297   0.854   4.677   5.798  1.0911  0.1920 -0.5585
 6279SOL     OW30298   2.415   1.797   2.696 -0.2175 -0.1105  0.3868
 6279SOL    HW130299   2.438   1.771   2.606  1.0729  1.7926  0.1710
 6279SOL    HW230300   2.467   1.877   2.704  0.4267 -0.5235  0.3382
 6280SOL     OW30301   2.477   4.146  12.719  0.6651 -0.0464 -0.0902
 6280SOL    HW130302   2.445   4.080  12.781  1.2330 -0.3568 -0.1262
 6280SOL    HW230303   2.562   4.163  12.759  0.6789 -0.7302  0.1829
 6281SOL     OW30304   2.554   3.874   8.078 -0.3795 -0.2363  0.3931
 6281SOL    HW130305   2.611   3.951   8.083  0.0377 -0.5140 -0.0753
 6281SOL    HW230306   2.483   3.902   8.136 -2.0305  1.3245 -2.3456
 6282SOL     OW30307   4.088   4.193   2.080 -0.0152 -0.2368 -0.4684
 6282SOL    HW130308   4.054   4.253   2.014  0.9278 -1.3575 -1.9733
 6282SOL    HW230309   4.065   4.235   2.163  1.5131 -0.8660  0.2821
 6283SOL     OW30310   1.732   1.661   1.749  0.2297  0.7944  0.2429
 6283SOL    HW130311   1.800   1.726   1.765  1.2332 -0.1588 -0.1276
 6283SOL    HW230312   1.745   1.625   1.837  1.4449 -0.6321 -0.5268
 6284SOL     OW30313   0.839   0.421   4.164  0.1481 -0.3260 -0.0318
 6284SOL    HW130314   0.857   0.481   4.237 -1.8198 -1.3665  1.3257
 6284SOL    HW230315   0.905   0.445   4.100  0.5417 -0.3194  0.3776
 6285SOL     OW30316   4.346   0.177  12.362  0.0496  0.6314 -0.9043
 6285SOL    HW130317   4.440   0.165  12.370 -0.1510  0.4155  1.1187
 6285SOL    HW230318   4.321   0.120  12.435  0.9526  1.8789  0.3677
 6286SOL     OW30319   3.733   4.361   7.812  0.2828  0.5280  0.0675
 6286SOL    HW130320   3.808   4.379   7.869  1.1350 -0.5707 -0.6905
 6286SOL    HW230321   3.758   4.285   7.760  0.0692  2.2569 -2.6016
 6287SOL     OW30322   0.565   1.590   6.892 -0.0476  0.2771  0.5411
 6287SOL    HW130323   0.585   1.527   6.961  0.4584 -0.0821  0.0575
 6287SOL    HW230324   0.636   1.581   6.829  0.4916  1.0731  1.0269
 6288SOL     OW30325   1.332   1.721   8.649  0.3394  0.2321  0.1235
 6288SOL    HW130326   1.412   1.736   8.599 -0.1891  4.0276  0.4770
 6288SOL    HW230327   1.354   1.646   8.705 -0.4657 -1.1403 -1.4019
 6289SOL     OW30328   1.301   2.567   3.040  0.2787  0.4251 -0.0145
 6289SOL    HW130329   1.255   2.620   2.975 -0.9129 -0.3907  0.1589
 6289SOL    HW230330   1.385   2.611   3.052 -0.2872  1.6989 -0.7177
 6290SOL     OW30331   1.314   2.855   9.018 -0.3194  0.7176  0.2204
 6290SOL    HW130332   1.286   2.925   9.078 -0.7737 -0.3123  1.2115
 6290SOL    HW230333   1.339   2.786   9.080  1.7342 -0.0152 -1.4059
 6291SOL     OW30334   2.433   3.375  17.425 -0.8015 -0.0735  0.3524
 6291SOL    HW130335   2.429   3.300  17.485  0.0086 -0.5196 -0.1457
 6291SOL    HW230336   2.391   3.445  17.474 -0.1226  0.4183  0.2306
 6292SOL     OW30337   3.747   4.141   2.736  0.2482 -0.0564  0.2369
 6292SOL    HW130338   3.698   4.144   2.653 -1.3469 -0.2068  1.1709
 6292SOL    HW230339   3.821   4.087   2.709 -0.8436 -2.0974  1.3533
 6293SOL     OW30340   1.612   3.187   4.619  0.7608 -0.0175  1.1632
 6293SOL    HW130341   1.649   3.175   4.532  0.2519 -1.5148  1.1357
 6293SOL    HW230342   1.536   3.241   4.601  1.4155  0.2689 -0.7519
 6294SOL     OW30343   2.275   1.774   1.270  0.0322  0.8484 -0.8109
 6294SOL    HW130344   2.281   1.693   1.219 -2.0752  0.5579 -0.5817
 6294SOL    HW230345   2.368   1.783   1.290 -0.1901  1.1825  0.0668
 6295SOL     OW30346   2.561   0.032   8.645 -0.3623 -0.3764 -0.7271
 6295SOL    HW130347   2.470   0.052   8.669  0.0651  2.5440 -1.6144
 6295SOL    HW230348   2.602   0.019   8.731 -0.3951 -3.6462 -1.2261
 6296SOL     OW30349   0.063   1.003   9.165 -0.1081  0.6871 -0.1301
 6296SOL    HW130350   0.045   1.040   9.251 -1.3576  1.7995 -0.8721
 6296SOL    HW230351   0.119   0.932   9.197 -0.0018  1.5766  1.6567
 6297SOL     OW30352   2.839   2.311   5.087  0.1970 -0.1660 -1.0356
 6297SOL    HW130353   2.777   2.272   5.027  0.3082 -0.4513 -0.9652
 6297SOL    HW230354   2.860   2.393   5.043 -2.6554  0.0430 -1.9794
 6298SOL     OW30355   2.548   4.592  11.626 -0.3581  0.6320  0.3966
 6298SOL    HW130356   2.512   4.503  11.618  1.0032  0.5143 -3.9787
 6298SOL    HW230357   2.621   4.584  11.688 -0.7510  1.3287  0.9555
 6299SOL     OW30358   4.124   3.999   0.909  0.6393 -0.2345  0.2874
 6299SOL    HW130359   4.108   4.093   0.901  0.8983 -0.2781 -0.7251
 6299SOL    HW230360   4.043   3.964   0.948  0.2308  1.5277  0.9979
 6300SOL     OW30361   0.518   1.216   9.520 -0.0483  0.0217 -0.2232
 6300SOL    HW130362   0.549   1.300   9.487  2.8253 -1.0854 -0.3702
 6300SOL    HW230363   0.579   1.195   9.590  0.5981  0.0818 -0.7660
 6301SOL     OW30364   4.676   4.159   8.309 -0.0355  0.1304 -0.3134
 6301SOL    HW130365   4.593   4.166   8.262 -0.1634 -0.3282 -0.1562
 6301SOL    HW230366   4.721   4.242   8.292 -1.7379  1.0726 -0.2981
 6302SOL     OW30367   2.916   0.038  13.770  0.2619 -0.1615  0.3634
 6302SOL    HW130368   2.936   0.105  13.835 -2.2815  1.6851 -0.8000
 6302SOL    HW230369   2.986   0.053  13.706  0.2392 -1.4811  0.0154
 6303SOL     OW30370   3.163   1.925   6.773 -0.2455  0.2401 -0.6765
 6303SOL    HW130371   3.223   1.851   6.783 -0.4274  0.0441 -1.0410
 6303SOL    HW230372   3.226   1.997   6.770 -2.4939  2.2542  0.6584
 6304SOL     OW30373   3.258   0.964   6.309 -0.1717  0.2296  0.0778
 6304SOL    HW130374   3.258   1.027   6.237 -2.0056  0.2015  0.0629
 6304SOL    HW230375   3.337   0.921   6.278 -1.6252 -1.5872 -1.0354
 6305SOL     OW30376   4.003   3.859  16.073 -0.4166  0.3243 -0.3333
 6305SOL    HW130377   4.084   3.828  16.114 -0.4278  0.8676  0.0950
 6305SOL    HW230378   4.036   3.863  15.983 -1.0104  2.0292 -0.4681
 6306SOL     OW30379   3.057   0.290   5.441  0.3993  0.0670  0.4948
 6306SOL    HW130380   2.989   0.242   5.489  0.9571  2.2022  3.3720
 6306SOL    HW230381   3.058   0.368   5.496 -0.0036 -0.3171  1.0415
 6307SOL     OW30382   3.828   0.156   8.128 -0.4239  0.1949  0.3142
 6307SOL    HW130383   3.840   0.250   8.135  2.1045 -0.2004  1.2741
 6307SOL    HW230384   3.746   0.150   8.079 -1.1804 -0.4506  1.6429
 6308SOL     OW30385   1.190   0.766   9.131 -0.0160  0.0543  0.4489
 6308SOL    HW130386   1.185   0.856   9.100  0.6640  0.3517  1.1940
 6308SOL    HW230387   1.243   0.739   9.057 -0.0765 -0.5779  0.6372
 6309SOL     OW30388   1.449   0.348   9.034  0.4168 -0.1510 -0.8411
 6309SOL    HW130389   1.518   0.306   9.085 -0.3926 -0.6091 -0.1128
 6309SOL    HW230390   1.395   0.362   9.113  2.2222 -0.7358  0.4939
 6310SOL     OW30391   3.566   1.453   3.903  0.0080 -0.1296 -0.1302
 6310SOL    HW130392   3.656   1.436   3.873  0.5666  2.4585  0.0843
 6310SOL    HW230393   3.514   1.465   3.823  0.3326  0.7039 -0.2152
 6311SOL     OW30394   4.708   2.016  13.863  0.2713 -0.4010  0.1122
 6311SOL    HW130395   4.651   1.946  13.893 -1.0757  0.6677  0.0434
 6311SOL    HW230396   0.029   1.993  13.781 -0.9723 -2.7577  0.1014
 6312SOL     OW30397   1.933   0.796   2.283 -0.4075 -0.4838  0.1337
 6312SOL    HW130398   2.007   0.809   2.224 -0.6620  1.0457  0.1625
 6312SOL    HW230399   1.899   0.885   2.291  1.3204  0.0108  2.0325
 6313SOL     OW30400   1.360   2.087   7.057 -0.9098 -0.2597 -0.0565
 6313SOL    HW130401   1.297   2.117   7.122 -2.7120  0.0360 -1.9406
 6313SOL    HW230402   1.302   2.052   6.989 -1.5838 -2.0859  1.4344
 6314SOL     OW30403   3.960   2.873   3.293  0.7253 -0.2991 -0.1303
 6314SOL    HW130404   3.968   2.945   3.230 -2.4671 -0.0095 -0.1884
 6314SOL    HW230405   3.953   2.920   3.376 -0.0714  0.9014 -0.8750
 6315SOL     OW30406   2.684   1.591   3.994  0.1148 -0.9490  0.1907
 6315SOL    HW130407   2.750   1.619   3.930 -0.0862 -0.2132  0.2987
 6315SOL    HW230408   2.655   1.508   3.957  1.8175 -1.3953 -0.1285
 6316SOL     OW30409   0.816   2.784   5.565  0.1122  0.0157  0.1635
 6316SOL    HW130410   0.723   2.804   5.556 -0.1268 -0.8884  0.7212
 6316SOL    HW230411   0.816   2.689   5.563 -0.8604 -0.0180  2.3426
 6317SOL     OW30412   3.054   4.148   3.010 -0.3303  0.4101 -0.0379
 6317SOL    HW130413   3.139   4.104   3.003 -0.3235  0.0098  2.6173
 6317SOL    HW230414   3.022   4.139   2.920 -0.0696  0.0256 -0.0926
 6318SOL     OW30415   0.794   3.984   8.240  0.1133  0.2988 -0.1944
 6318SOL    HW130416   0.789   3.932   8.160  0.9882 -0.6338  0.3608
 6318SOL    HW230417   0.723   4.046   8.222  0.8203  1.2323  0.2999
 6319SOL     OW30418   2.032   2.110   2.679 -0.0283 -0.3733 -0.6216
 6319SOL    HW130419   2.120   2.110   2.643  0.4702 -0.5596  0.6029
 6319SOL    HW230420   1.992   2.171   2.616 -1.7117  2.3064  3.0871
 6320SOL     OW30421   1.268   0.576   7.898  0.5977 -0.5988  0.3091
 6320SOL    HW130422   1.297   0.664   7.924 -0.6009  0.4063 -1.8056
 6320SOL    HW230423   1.348   0.530   7.923 -0.1682 -1.9716  0.2137
 6321SOL     OW30424   1.429   1.075   3.275  0.0272  0.1818  0.1540
 6321SOL    HW130425   1.410   0.991   3.233  2.2094 -1.0694  1.6574
 6321SOL    HW230426   1.482   1.054   3.352  2.2195 -1.5338 -1.7940
 6322SOL     OW30427   0.265   2.109  12.737  0.3631  0.0041  0.3856
 6322SOL    HW130428   0.335   2.151  12.688  0.2193 -1.5667 -1.1555
 6322SOL    HW230429   0.286   2.016  12.731  0.5279  0.0958 -0.3422
 6323SOL     OW30430   3.162   2.944   5.843 -0.1965  0.4582  0.0458
 6323SOL    HW130431   3.253   2.939   5.813  0.1231  0.5830  1.0097
 6323SOL    HW230432   3.156   2.906   5.931 -1.3619 -0.6221 -0.4938
 6324SOL     OW30433   1.272   2.067   8.422 -0.1432 -0.6364 -0.3022
 6324SOL    HW130434   1.238   2.076   8.333 -1.7635  0.5485  0.4337
 6324SOL    HW230435   1.364   2.095   8.417 -0.0145 -1.1430 -0.6967
 6325SOL     OW30436   0.421   2.199   6.344 -0.3488  0.6053 -0.4476
 6325SOL    HW130437   0.357   2.190   6.414 -0.5503  1.0341 -0.5727
 6325SOL    HW230438   0.360   2.164   6.278 -2.1087  0.8565  1.0568
 6326SOL     OW30439   0.482   2.866   3.135 -0.2083  0.4512 -0.2220
 6326SOL    HW130440   0.533   2.831   3.061  0.1407  1.3871 -0.4225
 6326SOL    HW230441   0.481   2.960   3.119  0.4566  0.4789 -0.1138
 6327SOL     OW30442   3.784   4.663   4.089  0.0972 -0.1181  0.2362
 6327SOL    HW130443   3.704   4.709   4.114 -0.8487 -1.7607  0.2276
 6327SOL    HW230444   3.738   4.597   4.037 -1.1356  0.7874  0.1772
 6328SOL     OW30445   1.538   3.254   7.155  0.5008 -0.1373 -0.2637
 6328SOL    HW130446   1.454   3.246   7.110  0.5275  0.5389 -0.4287
 6328SOL    HW230447   1.553   3.347   7.140 -1.2760  0.3120  0.7431
 6329SOL     OW30448   0.562   0.608   3.539  0.0301  0.1084 -0.0706
 6329SOL    HW130449   0.585   0.605   3.446  2.1767 -0.3538  0.4666
 6329SOL    HW230450   0.467   0.596   3.535  0.1529 -0.9653  0.1388
 6330SOL     OW30451   0.676   1.792  14.313 -0.3229 -0.4461  0.3557
 6330SOL    HW130452   0.615   1.781  14.240 -1.4111 -0.6740  1.2926
 6330SOL    HW230453   0.718   1.878  14.304  0.1252 -0.9278 -2.2867
 6331SOL     OW30454   2.838   4.638   9.247  0.1936 -0.1630  0.4179
 6331SOL    HW130455   2.766   4.669   9.302  0.7102  2.1910 -0.2298
 6331SOL    HW230456   2.812   4.547   9.234 -0.4105 -0.0947  1.1420
 6332SOL     OW30457   2.822   3.772  16.598 -0.6265  0.2913 -1.0355
 6332SOL    HW130458   2.893   3.707  16.595 -1.4146 -0.7201  1.8038
 6332SOL    HW230459   2.817   3.790  16.692  0.5569  0.0519 -0.9222
 6333SOL     OW30460   3.490   0.241  15.661 -0.5653  0.4261  0.4182
 6333SOL    HW130461   3.534   0.278  15.738 -1.1758  2.3973 -0.1792
 6333SOL    HW230462   3.398   0.267  15.663 -0.8746 -0.6370  0.0537
 6334SOL     OW30463   2.239   3.023  17.623 -0.6462  0.2032  0.3195
 6334SOL    HW130464   2.254   3.117  17.638  0.6565 -0.0451  0.6124
 6334SOL    HW230465   2.330   2.994  17.621 -1.8776 -3.4970 -1.2515
 6335SOL     OW30466   4.207   3.520  17.432  0.3425 -0.5389  0.4722
 6335SOL    HW130467   4.203   3.425  17.442 -1.3524 -0.3665  1.3533
 6335SOL    HW230468   4.129   3.547  17.480  1.2125 -0.3244  1.7419
 6336SOL     OW30469   3.678   2.290   4.169  0.0200 -0.3193  0.4724
 6336SOL    HW130470   3.754   2.277   4.112 -1.7862 -1.8223 -1.5397
 6336SOL    HW230471   3.612   2.334   4.115 -1.4256 -2.4799  0.4878
 6337SOL     OW30472   3.159   3.882   4.156 -0.4023  0.0857  0.1275
 6337SOL    HW130473   3.186   3.958   4.103  0.3866 -0.9732 -0.9929
 6337SOL    HW230474   3.204   3.907   4.237 -0.5337 -0.9776  0.5308
 6338SOL     OW30475   0.561   3.896   9.220 -0.1817  0.0857 -0.1893
 6338SOL    HW130476   0.633   3.842   9.250 -0.5524 -0.3735 -0.1239
 6338SOL    HW230477   0.495   3.829   9.202 -0.1401 -0.0438  0.1581
 6339SOL     OW30478   2.095   2.192   7.173 -0.5416  0.2840  0.4165
 6339SOL    HW130479   2.122   2.181   7.264  2.1159 -1.3902 -0.5579
 6339SOL    HW230480   2.043   2.272   7.170  0.2005  0.7382 -0.4864
 6340SOL     OW30481   1.208   4.390   7.815  0.5643 -0.0490 -0.1611
 6340SOL    HW130482   1.195   4.296   7.806  1.7451 -0.4367  1.9250
 6340SOL    HW230483   1.147   4.419   7.748  0.3107  0.0920  0.1306
 6341SOL     OW30484   0.742   1.313  11.559 -0.0207 -0.2584 -0.0997
 6341SOL    HW130485   0.766   1.220  11.555  2.1565  0.2490  1.5024
 6341SOL    HW230486   0.716   1.322  11.468  0.1047  0.7293 -0.0301
 6342SOL     OW30487   0.150   3.743   2.185 -0.5769 -0.1787 -0.1308
 6342SOL    HW130488   0.091   3.696   2.127 -2.2525  1.2410  0.4450
 6342SOL    HW230489   0.201   3.784   2.115  0.2553 -0.2912  0.4088
 6343SOL     OW30490   0.321   2.744   1.525  0.2620 -0.1709 -0.0948
 6343SOL    HW130491   0.390   2.682   1.548 -0.5360 -1.0098  0.0334
 6343SOL    HW230492   0.348   2.828   1.561 -2.8186  0.7397  0.0757
 6344SOL     OW30493   1.593   0.962   6.639  0.6420 -0.1893 -0.0927
 6344SOL    HW130494   1.555   0.897   6.698 -0.5836  1.6041  1.1017
 6344SOL    HW230495   1.543   1.044   6.648  1.3953  0.2386  0.1214
 6345SOL     OW30496   1.332   0.471   3.562 -0.2459  0.5463  0.0126
 6345SOL    HW130497   1.413   0.440   3.603  0.6509  0.7927 -1.5645
 6345SOL    HW230498   1.273   0.457   3.636 -1.2833 -0.6174 -1.0303
 6346SOL     OW30499   1.479   4.364   7.824 -0.4625  0.0498 -0.6195
 6346SOL    HW130500   1.492   4.434   7.760  0.3508 -0.9815 -1.5753
 6346SOL    HW230501   1.383   4.375   7.822 -0.7461 -2.2938  0.7959
 6347SOL     OW30502   4.022   4.650  13.128 -0.0454 -0.4424 -0.5615
 6347SOL    HW130503   4.054   4.713  13.193  0.1322  0.0165 -1.0974
 6347SOL    HW230504   3.974   4.711  13.072 -3.4193 -1.1528  1.5840
 6348SOL     OW30505   4.290   1.934   0.509 -0.5870 -0.0881 -0.6322
 6348SOL    HW130506   4.360   1.923   0.573 -1.4211  1.3081  0.5270
 6348SOL    HW230507   4.231   2.003   0.539 -0.3356  0.8826 -2.3669
 6349SOL     OW30508   2.035   3.776  12.968  0.2849  0.3127  0.2769
 6349SOL    HW130509   2.059   3.817  13.051 -0.8480  0.6082  0.4689
 6349SOL    HW230510   2.114   3.726  12.948 -0.2156  0.4432 -1.9656
 6350SOL     OW30511   2.996   0.609   5.312 -0.0855 -0.3052 -0.1952
 6350SOL    HW130512   3.091   0.618   5.321  0.0610 -1.1073 -1.0039
 6350SOL    HW230513   2.979   0.681   5.251  1.9369 -2.1615 -2.9490
 6351SOL     OW30514   0.239   4.714   8.863 -0.1454 -0.2229 -0.0122
 6351SOL    HW130515   0.209   4.625   8.882 -0.2124  0.1006  1.3821
 6351SOL    HW230516   0.162   0.036   8.832  1.3073  1.7740 -0.5953
 6352SOL     OW30517   1.450   0.931   9.234  0.2546 -0.1777 -0.3493
 6352SOL    HW130518   1.378   0.986   9.205 -0.4257 -0.5161  0.6931
 6352SOL    HW230519   1.526   0.989   9.235  1.3601 -1.6201 -0.2409
 6353SOL     OW30520   3.835   0.324  10.075 -0.0082 -0.1091 -0.2943
 6353SOL    HW130521   3.851   0.397  10.135 -0.0746  1.5244 -2.2694
 6353SOL    HW230522   3.853   0.251  10.135  1.6238  0.7296  0.2426
 6354SOL     OW30523   4.639   1.634   2.830  0.2873  0.0275 -0.1282
 6354SOL    HW130524   4.640   1.539   2.838 -1.4512  0.0159 -0.1602
 6354SOL    HW230525   4.722   1.648   2.784 -0.5983  0.1028 -1.7090
 6355SOL     OW30526   1.553   0.407   7.643 -0.1932  0.2400 -0.8175
 6355SOL    HW130527   1.547   0.316   7.613  2.0620 -0.4290  0.7219
 6355SOL    HW230528   1.495   0.411   7.719  0.0383  2.0053 -0.7496
 6356SOL     OW30529   0.352   2.797   8.865  0.3620  0.5913 -0.0093
 6356SOL    HW130530   0.373   2.721   8.919 -0.5749 -0.8210 -1.6187
 6356SOL    HW230531   0.435   2.844   8.861 -0.8036  2.6182 -0.4860
 6357SOL     OW30532   1.904   1.440   4.826 -0.5913 -0.3296 -0.5837
 6357SOL    HW130533   1.990   1.468   4.795 -0.2061 -1.7458 -0.8050
 6357SOL    HW230534   1.852   1.475   4.754 -0.4271  0.8233 -0.1323
 6358SOL     OW30535   0.931   1.851   4.973  0.2153  0.5154 -0.1275
 6358SOL    HW130536   0.987   1.801   4.913 -1.3637 -1.5959  0.1726
 6358SOL    HW230537   0.993   1.888   5.036  0.8839 -0.6654 -0.0849
 6359SOL     OW30538   1.722   3.013   9.031 -0.0393  0.1089 -0.3655
 6359SOL    HW130539   1.798   2.959   9.050  0.3933  0.9262  0.2565
 6359SOL    HW230540   1.678   3.029   9.114  0.1922 -1.2699  0.0064
 6360SOL     OW30541   3.341   3.347   6.448 -0.4323  0.2258  0.0658
 6360SOL    HW130542   3.385   3.425   6.414  0.8381  0.1821  1.5905
 6360SOL    HW230543   3.264   3.383   6.492  0.0886  0.4799  0.7626
 6361SOL     OW30544   0.277   0.261   1.296  0.2323 -0.3870 -0.1677
 6361SOL    HW130545   0.275   0.334   1.235 -1.2392 -0.9776 -0.8353
 6361SOL    HW230546   0.355   0.271   1.350  0.3623 -1.0921 -0.2167
 6362SOL     OW30547   3.144   0.174   4.860 -0.2807 -0.1201 -0.0239
 6362SOL    HW130548   3.071   0.197   4.802 -1.6831 -0.7067  1.5172
 6362SOL    HW230549   3.179   0.262   4.874  1.7216 -0.8063 -0.6063
 6363SOL     OW30550   1.662   2.930   4.715 -0.1490 -0.4324  0.4801
 6363SOL    HW130551   1.605   2.880   4.657 -0.5855  1.3482 -0.6308
 6363SOL    HW230552   1.613   3.012   4.724  1.1245 -0.0042  3.5311
 6364SOL     OW30553   2.798   3.778   8.259  0.4485  0.3043  0.1861
 6364SOL    HW130554   2.770   3.821   8.340  0.1661  1.9646 -0.7973
 6364SOL    HW230555   2.813   3.859   8.210 -2.4573  0.3649 -0.6067
 6365SOL     OW30556   4.186   3.040   5.550 -0.0085  0.0925 -0.1121
 6365SOL    HW130557   4.231   2.959   5.526  0.1781  0.2259 -0.2126
 6365SOL    HW230558   4.201   3.095   5.473 -2.0216  0.7792 -0.0133
 6366SOL     OW30559   3.296   2.428   2.742  0.5125  0.1988 -0.1696
 6366SOL    HW130560   3.363   2.457   2.804  0.3496 -0.0845  0.1450
 6366SOL    HW230561   3.228   2.495   2.743 -0.8180 -1.2025  2.4757
 6367SOL     OW30562   1.182   2.694  15.078  0.1318 -0.9146  0.1167
 6367SOL    HW130563   1.087   2.700  15.087  0.2581  0.1904  0.7689
 6367SOL    HW230564   1.192   2.783  15.046 -1.7515 -0.6661  0.2022
 6368SOL     OW30565   4.270   2.992   3.366  0.3396 -0.4747 -0.3547
 6368SOL    HW130566   4.247   2.906   3.330 -1.6838  0.4207 -1.1378
 6368SOL    HW230567   4.237   3.048   3.296  0.3973 -0.3472 -0.2796
 6369SOL     OW30568   2.924   1.828   6.610  0.0693  0.0249 -0.3249
 6369SOL    HW130569   2.843   1.850   6.656  0.0016 -1.8703  0.4785
 6369SOL    HW230570   2.980   1.888   6.660 -2.8298  0.4591  2.3915
 6370SOL     OW30571   4.398   1.219  10.608  0.1083 -0.1629 -0.3747
 6370SOL    HW130572   4.474   1.162  10.620 -0.2320 -0.4674  0.3014
 6370SOL    HW230573   4.417   1.285  10.675 -1.1510  0.0524 -0.2203
 6371SOL     OW30574   3.298   1.357   0.271  0.1752  0.4048  0.4004
 6371SOL    HW130575   3.300   1.341   0.176 -4.4925 -0.9405  0.5161
 6371SOL    HW230576   3.260   1.444   0.283 -0.7996 -0.1626  1.4136
 6372SOL     OW30577   0.621   0.034   8.475 -0.2126  0.4110 -0.0083
 6372SOL    HW130578   0.593   4.698   8.544  0.1287 -0.2937 -0.4939
 6372SOL    HW230579   0.671   0.101   8.521  1.8128  0.3938 -2.2103
 6373SOL     OW30580   2.556   0.602  15.682 -0.4225  0.0624  0.3057
 6373SOL    HW130581   2.645   0.573  15.664  0.1870  0.8118  2.0786
 6373SOL    HW230582   2.529   0.540  15.750  0.5539  2.0080  2.4646
 6374SOL     OW30583   3.289   0.769  11.611 -0.2441 -0.2888  0.2081
 6374SOL    HW130584   3.253   0.743  11.696  3.4193 -1.1399  1.4833
 6374SOL    HW230585   3.249   0.695  11.565  0.4874 -0.5667  0.0128
 6375SOL     OW30586   4.110   2.788   2.690  0.1010 -0.1222  0.1192
 6375SOL    HW130587   4.204   2.808   2.689  0.0127  0.2413 -0.6339
 6375SOL    HW230588   4.091   2.824   2.777 -0.1537 -0.9494  0.4056
 6376SOL     OW30589   2.512   1.380   1.002  0.1713  0.4057  0.1413
 6376SOL    HW130590   2.592   1.427   1.026  1.4964 -2.4240  1.3397
 6376SOL    HW230591   2.538   1.290   1.022  0.7641 -0.0154 -2.5281
 6377SOL     OW30592   2.412   3.752  15.213  0.3633  0.0782  0.5053
 6377SOL    HW130593   2.363   3.670  15.209 -1.4748  1.2247 -0.3679
 6377SOL    HW230594   2.420   3.765  15.118 -1.9693  0.9780  0.4310
 6378SOL     OW30595   3.087   2.799   4.533  0.3113  0.0182  0.2021
 6378SOL    HW130596   3.062   2.738   4.602  1.8478 -0.2147  0.5517
 6378SOL    HW230597   3.176   2.767   4.516 -0.0791 -0.7996 -0.2901
 6379SOL     OW30598   2.981   4.505   7.418 -0.1690 -0.1100  0.6787
 6379SOL    HW130599   3.056   4.514   7.359 -1.7004  1.3666 -1.0597
 6379SOL    HW230600   3.018   4.532   7.502  2.8571  0.7641 -0.9061
 6380SOL     OW30601   2.624   2.807   3.416  1.3728 -0.8035 -0.2720
 6380SOL    HW130602   2.705   2.840   3.452  1.6761  0.0777 -1.7698
 6380SOL    HW230603   2.646   2.793   3.324  2.8262  0.2893 -0.0808
 6381SOL     OW30604   4.362   2.833  13.272 -0.5682  0.1076  0.3487
 6381SOL    HW130605   4.322   2.793  13.349 -0.2800 -1.8672 -0.5188
 6381SOL    HW230606   4.452   2.805  13.291 -0.6207 -0.3076 -0.0214
 6382SOL     OW30607   2.844   2.559   5.347 -0.1496  0.1881 -0.4153
 6382SOL    HW130608   2.901   2.558   5.424 -1.8963 -0.6877  0.8842
 6382SOL    HW230609   2.899   2.554   5.270  0.3018 -0.2473 -0.0580
 6383SOL     OW30610   1.332   2.526  16.887  0.1817 -0.3106  0.3546
 6383SOL    HW130611   1.318   2.437  16.921  0.3570 -0.8744 -1.0292
 6383SOL    HW230612   1.407   2.549  16.943 -2.8149  1.9349  3.3868
 6384SOL     OW30613   2.287   4.153   5.511  0.4970 -0.5177 -0.1770
 6384SOL    HW130614   2.219   4.105   5.463 -0.9345  1.8190 -0.5179
 6384SOL    HW230615   2.337   4.083   5.552  1.0574  0.5274  0.9089
 6385SOL     OW30616   4.632   3.689   3.675  0.0076 -0.4685 -0.1443
 6385SOL    HW130617   4.600   3.779   3.683  3.1115  0.6767 -0.6874
 6385SOL    HW230618   4.718   3.696   3.716 -0.3450  0.4293  0.4574
 6386SOL     OW30619   1.449   3.816   3.250  0.5529  0.5529 -0.1000
 6386SOL    HW130620   1.421   3.908   3.251  1.5384  0.8461  0.3663
 6386SOL    HW230621   1.371   3.783   3.205  1.6953 -0.4618 -1.3065
 6387SOL     OW30622   2.054   3.158  11.015  0.2613  0.1124 -0.4523
 6387SOL    HW130623   2.096   3.143  11.100  2.1307  1.3690 -1.1573
 6387SOL    HW230624   1.966   3.124  11.033  1.4886 -2.4697  0.6097
 6388SOL     OW30625   0.649   2.024   6.462  0.0515 -0.0421  0.9440
 6388SOL    HW130626   0.644   1.943   6.412 -0.1966 -0.5573  1.8158
 6388SOL    HW230627   0.555   2.035   6.475 -0.1554  1.3174 -1.7082
 6389SOL     OW30628   0.898   2.458  11.283  0.6681  0.2132 -0.0798
 6389SOL    HW130629   0.812   2.419  11.300  1.8162 -3.0417 -1.8312
 6389SOL    HW230630   0.929   2.405  11.210 -0.0507  1.7293 -1.4928
 6390SOL     OW30631   3.391   4.151  15.992 -0.2621  0.5566 -0.2109
 6390SOL    HW130632   3.347   4.201  16.060  1.8862  1.5308  0.4661
 6390SOL    HW230633   3.336   4.167  15.915 -0.7603 -1.7535 -0.3591
 6391SOL     OW30634   0.184   0.025  13.617  0.2555 -0.1573  0.2307
 6391SOL    HW130635   0.168   0.081  13.541 -1.9106 -0.8991  0.1537
 6391SOL    HW230636   0.122   4.680  13.595 -0.7069  0.9720 -0.6007
 6392SOL     OW30637   3.719   4.618  16.006 -0.0895 -0.3360 -0.6036
 6392SOL    HW130638   3.809   4.649  16.020 -0.0856 -1.2656  1.2867
 6392SOL    HW230639   3.723   4.548  15.940 -2.3444 -0.6940 -0.3369
 6393SOL     OW30640   3.303   3.920  14.806 -0.5043 -0.6625 -0.2405
 6393SOL    HW130641   3.286   3.826  14.797  4.1653 -1.6042  0.7496
 6393SOL    HW230642   3.317   3.950  14.717 -1.5860  0.0830 -0.1596
 6394SOL     OW30643   0.902   3.256   3.353 -0.1558  0.7563 -0.3603
 6394SOL    HW130644   0.956   3.203   3.412 -0.2102 -0.6166 -1.5422
 6394SOL    HW230645   0.966   3.280   3.286  1.7321 -0.9750  0.8101
 6395SOL     OW30646   2.121   1.397   0.328 -0.4323 -0.2058 -0.0344
 6395SOL    HW130647   2.077   1.321   0.291  0.5026 -1.2680  1.0596
 6395SOL    HW230648   2.089   1.405   0.418  1.3341  2.6173  0.3535
 6396SOL     OW30649   2.257   0.690   5.033  0.0720  0.2814 -0.8194
 6396SOL    HW130650   2.277   0.687   4.940  0.6330 -2.4453 -0.6042
 6396SOL    HW230651   2.199   0.614   5.039  0.5380  0.0297  0.4095
 6397SOL     OW30652   1.626   4.659   3.557 -0.6052  0.1581  0.1758
 6397SOL    HW130653   1.704   4.684   3.509  0.6584 -0.7156  1.7879
 6397SOL    HW230654   1.663   4.621   3.637  1.3397  0.1964 -0.7138
 6398SOL     OW30655   0.267   4.670   7.048 -0.6036 -0.2365  0.0666
 6398SOL    HW130656   0.222   4.718   7.117 -1.2608 -0.8573  0.0782
 6398SOL    HW230657   0.203   4.609   7.010 -0.1984 -0.3885 -0.3725
 6399SOL     OW30658   0.998   0.270   5.258  0.1907  0.1451  0.2461
 6399SOL    HW130659   1.078   0.323   5.248 -1.1629  1.9010 -1.2824
 6399SOL    HW230660   1.008   0.194   5.201  0.0175  0.5039 -0.2706
 6400SOL     OW30661   3.239   3.793   0.363 -0.4296  0.4928 -0.3701
 6400SOL    HW130662   3.198   3.711   0.389 -0.6795  0.4098 -1.0289
 6400SOL    HW230663   3.185   3.857   0.410 -1.8144 -0.6234 -0.4411
 6401SOL     OW30664   0.021   0.046  13.896  0.1943  0.0423 -0.0585
 6401SOL    HW130665   0.073   0.040  13.976 -0.5949  0.1786  0.4714
 6401SOL    HW230666   0.096   0.050  13.837 -0.1387  0.6822 -0.4367
 6402SOL     OW30667   2.617   1.053   9.893 -0.1455 -0.4388  1.1225
 6402SOL    HW130668   2.691   1.113   9.906 -0.2583  0.2295 -1.3390
 6402SOL    HW230669   2.612   1.068   9.799  2.0085  0.7077  1.1901
 6403SOL     OW30670   1.239   3.982   3.662  0.3393 -0.2157 -0.8503
 6403SOL    HW130671   1.176   3.910   3.652  0.3516 -0.7701  3.0907
 6403SOL    HW230672   1.241   3.993   3.567  0.4702 -1.8986 -1.0570
 6404SOL     OW30673   3.013   2.610   8.309  0.6341  0.1904 -0.0163
 6404SOL    HW130674   3.088   2.646   8.357  0.5991  0.2371  0.0025
 6404SOL    HW230675   3.003   2.523   8.348 -1.4383  0.2308 -0.4860
 6405SOL     OW30676   0.967   0.568   0.179  0.1642 -0.8216  0.3835
 6405SOL    HW130677   0.982   0.474   0.185  0.3093 -0.7864  0.5552
 6405SOL    HW230678   1.008   0.599   0.260 -1.6739  2.6643 -0.0073
 6406SOL     OW30679   2.943   1.764  17.546 -0.2803 -0.4304  0.4435
 6406SOL    HW130680   2.862   1.751  17.595 -0.4638 -0.2483  0.1831
 6406SOL    HW230681   3.015   1.731  17.601  0.7898 -0.3150 -0.8844
 6407SOL     OW30682   0.872   3.916  17.163 -0.4647  0.3266  0.0633
 6407SOL    HW130683   0.839   4.002  17.137 -2.1303 -1.2338 -3.0140
 6407SOL    HW230684   0.855   3.865  17.084  0.2604 -1.5507  1.1230
 6408SOL     OW30685   3.412   2.970  14.480 -0.2612  0.5249 -0.4202
 6408SOL    HW130686   3.329   2.927  14.497  0.6990 -1.0619  0.2366
 6408SOL    HW230687   3.384   3.028  14.409  1.1196 -0.6130 -1.8934
 6409SOL     OW30688   1.020   4.145   4.693 -0.0667 -0.0543 -0.3050
 6409SOL    HW130689   0.968   4.224   4.708  1.6986  1.6809 -3.2317
 6409SOL    HW230690   1.086   4.180   4.632  0.8992  0.6720  1.1691
 6410SOL     OW30691   0.849   3.738  17.367 -0.2041  0.4131 -0.0107
 6410SOL    HW130692   0.884   3.809  17.313  0.6913  0.3830  0.5340
 6410SOL    HW230693   0.832   3.679  17.293 -0.2732 -1.1236  1.2305
 6411SOL     OW30694   0.293   2.482   5.347  0.8236 -0.3516  0.4624
 6411SOL    HW130695   0.223   2.481   5.281  0.7093  0.8063  0.5601
 6411SOL    HW230696   0.297   2.569   5.386 -0.5516 -0.0567 -0.0263
 6412SOL     OW30697   0.560   2.766   2.628 -0.0160 -0.4096 -0.6158
 6412SOL    HW130698   0.519   2.850   2.608 -1.7883 -1.0551  0.3074
 6412SOL    HW230699   0.482   2.710   2.634 -0.8141  0.8508  0.6843
 6413SOL     OW30700   4.387   0.742   7.337  0.5322  0.5120 -0.2798
 6413SOL    HW130701   4.409   0.723   7.428  0.5760 -1.1026 -0.6174
 6413SOL    HW230702   4.294   0.719   7.347  0.8231 -0.6406 -0.2336
 6414SOL     OW30703   3.116   3.517  13.354 -0.3818  0.4066  0.3847
 6414SOL    HW130704   3.184   3.500  13.420 -0.9835  0.6300  1.0643
 6414SOL    HW230705   3.163   3.528  13.272  0.2915 -1.4636  0.5168
 6415SOL     OW30706   2.544   4.268   9.491 -0.4478 -0.2378  0.4626
 6415SOL    HW130707   2.637   4.256   9.506  0.0222  1.3242 -1.1107
 6415SOL    HW230708   2.536   4.202   9.422 -0.4576 -0.5664  0.7828
 6416SOL     OW30709   0.385   3.371   3.295  0.3406 -0.3454  0.3248
 6416SOL    HW130710   0.438   3.437   3.250  1.2964 -0.3157  1.4987
 6416SOL    HW230711   0.449   3.328   3.352 -1.3949  0.0966  2.5765
 6417SOL     OW30712   2.480   2.614   5.035  0.3326 -0.4456 -0.1669
 6417SOL    HW130713   2.513   2.566   4.960 -2.3886 -2.4555 -0.0832
 6417SOL    HW230714   2.534   2.693   5.029 -0.6945  0.2173 -0.7181
 6418SOL     OW30715   2.694   0.067   0.671 -0.2927 -0.0147 -0.0211
 6418SOL    HW130716   2.680   0.122   0.594  1.3940  1.5662  0.8175
 6418SOL    HW230717   2.696   0.137   0.736  0.9777 -1.3532  1.3624
 6419SOL     OW30718   3.803   3.461  11.727 -0.1382 -0.1948  0.0069
 6419SOL    HW130719   3.789   3.539  11.673 -0.6113  0.1657  0.6544
 6419SOL    HW230720   3.730   3.404  11.704  0.0236 -0.4886  0.2213
 6420SOL     OW30721   3.722   0.310   7.514 -0.7218 -0.5939  0.1468
 6420SOL    HW130722   3.811   0.277   7.503 -0.0482  0.8325  1.1742
 6420SOL    HW230723   3.691   0.322   7.425 -1.9902 -2.9324  0.2750
 6421SOL     OW30724   3.654   2.094   0.406 -0.0004 -0.9066 -0.2965
 6421SOL    HW130725   3.660   2.121   0.314  0.3914 -1.3566 -0.4083
 6421SOL    HW230726   3.601   2.168   0.436  0.1032 -1.1971  0.5854
 6422SOL     OW30727   4.575   2.188   1.793 -0.1556  0.5000  0.4461
 6422SOL    HW130728   4.492   2.141   1.798 -1.2334  2.0464 -2.9118
 6422SOL    HW230729   4.537   2.274   1.774  1.1525  1.1002  0.4747
 6423SOL     OW30730   1.152   4.712  13.857  0.1240  0.1025  0.1653
 6423SOL    HW130731   1.096   0.065  13.850  3.2850  2.3129 -0.1649
 6423SOL    HW230732   1.116   4.676  13.938 -0.3610  1.3934  0.5264
 6424SOL     OW30733   1.725   3.959   7.525 -0.3140 -0.0336  0.1753
 6424SOL    HW130734   1.768   3.894   7.470 -0.1009  1.6925 -1.6992
 6424SOL    HW230735   1.696   4.018   7.455 -2.0678  0.5118  1.3634
 6425SOL     OW30736   1.965   2.008   7.789 -0.0071  0.2601 -0.2001
 6425SOL    HW130737   2.022   1.937   7.759 -0.8459 -0.1394 -0.8513
 6425SOL    HW230738   2.030   2.071   7.820  0.3558 -0.8774  1.3585
 6426SOL     OW30739   0.978   3.378   5.974  0.2107 -0.8680 -0.3239
 6426SOL    HW130740   0.899   3.427   5.999  0.1966 -0.7884 -0.5290
 6426SOL    HW230741   0.948   3.295   6.010 -0.1394 -0.9587 -0.8393
 6427SOL     OW30742   4.334   2.962   4.533  0.2533 -0.5546  0.2436
 6427SOL    HW130743   4.316   3.007   4.616 -2.4661 -1.6830  0.2557
 6427SOL    HW230744   4.408   3.013   4.501 -1.3075  0.3728 -1.8853
 6428SOL     OW30745   0.792   4.080  16.554  0.5494  0.6657 -0.4484
 6428SOL    HW130746   0.859   4.039  16.501  0.1437 -1.5808  0.7557
 6428SOL    HW230747   0.842   4.123  16.623 -2.3566  3.5063 -0.1280
 6429SOL     OW30748   0.369   2.926   8.539 -0.1283 -0.0925  0.6864
 6429SOL    HW130749   0.359   2.861   8.608 -2.1282  1.0792  1.4846
 6429SOL    HW230750   0.418   2.999   8.576 -1.8504 -0.0373  2.8421
 6430SOL     OW30751   1.412   4.317   7.470 -0.4823 -0.1319 -0.6621
 6430SOL    HW130752   1.333   4.278   7.508 -1.2772  1.3421 -0.7852
 6430SOL    HW230753   1.483   4.264   7.506 -0.1664 -0.4090 -1.7041
 6431SOL     OW30754   2.883   4.488  16.983 -0.1172  0.2003 -0.2071
 6431SOL    HW130755   2.795   4.483  17.022  0.9128 -2.5608  1.7751
 6431SOL    HW230756   2.921   4.532  17.059 -0.3262 -0.6431  0.3968
 6432SOL     OW30757   2.863   1.265   8.256  0.2278 -0.1896 -0.4991
 6432SOL    HW130758   2.924   1.192   8.260  0.6681  0.1999 -0.0510
 6432SOL    HW230759   2.853   1.278   8.162  1.1199  0.3917 -0.5189
 6433SOL     OW30760   2.419   3.051  10.689 -0.1079 -0.5549  0.2586
 6433SOL    HW130761   2.358   2.977  10.695 -2.0397  1.1129  1.1624
 6433SOL    HW230762   2.499   3.017  10.649 -0.3226 -2.6062  1.5797
 6434SOL     OW30763   4.412   3.320   0.957  0.1938  0.3635 -0.3845
 6434SOL    HW130764   4.490   3.292   0.908  1.0067  3.1326 -0.6417
 6434SOL    HW230765   4.348   3.260   0.920 -1.1207  2.1209 -0.9401
 6435SOL     OW30766   1.121   3.226   8.296  0.2927  0.6367  0.0799
 6435SOL    HW130767   1.186   3.186   8.354  1.0959 -1.5283 -2.3245
 6435SOL    HW230768   1.041   3.182   8.324  1.5148 -1.6419  0.0191
 6436SOL     OW30769   3.643   3.043   2.460 -0.0986 -0.2009  0.0276
 6436SOL    HW130770   3.710   3.096   2.417 -0.4034  0.3143  0.1974
 6436SOL    HW230771   3.695   3.000   2.528 -1.3893 -0.5271  0.8054
 6437SOL     OW30772   1.507   2.192  16.442 -0.1166 -0.6197 -0.6442
 6437SOL    HW130773   1.582   2.134  16.452 -0.9856 -1.3305  1.7675
 6437SOL    HW230774   1.446   2.135  16.396 -1.3564 -0.8086  1.2548
 6438SOL     OW30775   2.312   3.200   4.353  0.0277  0.0754 -0.2322
 6438SOL    HW130776   2.258   3.130   4.316 -0.0211  0.2224 -0.4444
 6438SOL    HW230777   2.275   3.269   4.298 -0.1929  0.8500  0.8989
 6439SOL     OW30778   4.123   1.080   8.497 -0.0253  0.5479 -0.1155
 6439SOL    HW130779   4.180   1.157   8.491  1.9770 -0.9204  0.0729
 6439SOL    HW230780   4.190   1.013   8.491 -0.8928 -0.4172  0.9322
 6440SOL     OW30781   1.507   1.699   3.179  0.0649  0.2401 -0.5145
 6440SOL    HW130782   1.525   1.632   3.245  0.7502  0.6690 -0.2654
 6440SOL    HW230783   1.534   1.656   3.098 -2.3206  0.4437 -1.4050
 6441SOL     OW30784   4.642   1.868  14.481  0.2053  0.3442 -0.1180
 6441SOL    HW130785   4.664   1.793  14.536  2.4056  0.7499 -0.4627
 6441SOL    HW230786   4.547   1.859  14.486  0.1925  0.8871  0.6347
 6442SOL     OW30787   2.754   0.005   3.055  0.0800 -0.6124 -0.0917
 6442SOL    HW130788   2.792   4.677   2.984  1.4069  0.9416 -0.5503
 6442SOL    HW230789   2.662   4.706   3.047  0.6705 -2.7301 -0.7287
 6443SOL     OW30790   3.767   2.065  10.054  0.6819 -0.0277  0.5642
 6443SOL    HW130791   3.834   2.125  10.020 -0.0437  0.3801 -0.1407
 6443SOL    HW230792   3.756   2.012   9.975  0.2300  1.7464 -0.5903
 6444SOL     OW30793   2.123   2.085   2.198  0.0507 -0.5395 -0.4516
 6444SOL    HW130794   2.186   2.136   2.146 -0.0728 -2.6138 -2.6245
 6444SOL    HW230795   2.074   2.041   2.128 -0.0355 -0.4680 -0.4357
 6445SOL     OW30796   0.389   3.100   4.534  0.0332 -0.2234  0.1721
 6445SOL    HW130797   0.364   3.040   4.463 -0.5892 -1.7667  1.6731
 6445SOL    HW230798   0.479   3.076   4.555 -0.0324 -1.0904 -0.5504
 6446SOL     OW30799   0.033   1.200  12.437  0.0187  0.5063  0.1153
 6446SOL    HW130800   0.015   1.120  12.387 -0.4495  0.6666  0.0309
 6446SOL    HW230801   0.126   1.210  12.414  0.0573 -2.6000 -1.0968
 6447SOL     OW30802   1.791   1.226   7.299  0.8561 -0.5252 -0.2202
 6447SOL    HW130803   1.786   1.321   7.312 -0.0365 -0.8144  1.6173
 6447SOL    HW230804   1.861   1.204   7.361  0.1148  0.9835  1.1419
 6448SOL     OW30805   3.433   3.330  16.911  0.0089 -0.0376 -0.2989
 6448SOL    HW130806   3.514   3.327  16.962 -0.3086  4.4600  0.4600
 6448SOL    HW230807   3.422   3.236  16.903  0.8026 -0.0408 -1.3429
 6449SOL     OW30808   2.619   0.771   0.398  0.1241 -0.0157 -0.5070
 6449SOL    HW130809   2.635   0.863   0.376  0.8612 -0.3330 -1.2754
 6449SOL    HW230810   2.525   0.770   0.380 -0.4078 -2.6859  2.3747
 6450SOL     OW30811   3.274   1.647   0.266 -0.2056  0.1485  0.3737
 6450SOL    HW130812   3.335   1.688   0.205 -0.0729 -1.1016 -0.3304
 6450SOL    HW230813   3.286   1.696   0.347  0.4124  1.1284 -0.3085
 6451SOL     OW30814   3.512   3.062   8.683 -0.2554 -0.2732  0.7727
 6451SOL    HW130815   3.565   3.082   8.761  1.7670  0.5237 -0.7958
 6451SOL    HW230816   3.468   2.988   8.724 -1.8998 -0.3053 -1.0623
 6452SOL     OW30817   2.522   3.251   5.703  0.3801 -0.4459 -0.1651
 6452SOL    HW130818   2.529   3.343   5.732  1.5109 -0.4553 -0.4161
 6452SOL    HW230819   2.613   3.224   5.706  0.3692 -0.3116  1.9603
 6453SOL     OW30820   3.029   4.038   6.383  0.1584  0.2609 -0.6656
 6453SOL    HW130821   3.010   4.130   6.400  1.4986  0.3222  0.5471
 6453SOL    HW230822   2.959   3.989   6.426  0.7418 -2.8253 -3.2914
 6454SOL     OW30823   1.645   0.093   8.255  0.1502 -0.2634  0.0044
 6454SOL    HW130824   1.579   0.111   8.321  0.6615 -1.4081  0.8305
 6454SOL    HW230825   1.731   0.083   8.297 -0.8027 -0.7682  1.8204
 6455SOL     OW30826   3.877   1.145   4.296  0.1219  0.1224 -0.5400
 6455SOL    HW130827   3.916   1.077   4.241  2.7961  0.4932  0.8784
 6455SOL    HW230828   3.844   1.199   4.225 -3.4362  0.0678  1.0888
 6456SOL     OW30829   1.388   4.462   8.987 -0.0758  0.4739  0.5013
 6456SOL    HW130830   1.293   4.447   8.988  0.7987 -5.0760 -1.5354
 6456SOL    HW230831   1.421   4.372   8.983  1.8307  1.1842  0.4409
 6457SOL     OW30832   2.412   2.283   5.619 -0.3211  0.0242  0.0523
 6457SOL    HW130833   2.429   2.256   5.709 -0.2851  1.0121  0.3420
 6457SOL    HW230834   2.498   2.317   5.594  0.0582 -0.3843  0.8136
 6458SOL     OW30835   4.533   0.944   9.059  0.3287 -0.3421 -0.0769
 6458SOL    HW130836   4.623   0.911   9.059  0.8450  1.0726 -0.0295
 6458SOL    HW230837   4.542   0.992   9.142  3.0502 -1.2392  0.1640
 6459SOL     OW30838   0.676   2.287   9.110 -0.3153 -0.4990  0.1279
 6459SOL    HW130839   0.710   2.285   9.200 -1.2490 -3.3962  0.4035
 6459SOL    HW230840   0.750   2.329   9.066 -0.0860  0.6045  1.5749
 6460SOL     OW30841   2.332   1.287  15.309  0.4392  0.0622  0.2923
 6460SOL    HW130842   2.364   1.248  15.228  2.8600  0.5136  1.0258
 6460SOL    HW230843   2.238   1.289  15.290  0.3179  0.4182  0.9351
 6461SOL     OW30844   2.392   2.723   3.840  0.2501 -0.7710 -0.3175
 6461SOL    HW130845   2.416   2.748   3.751  0.9247  0.3068  0.1568
 6461SOL    HW230846   2.303   2.687   3.835  0.6874 -1.7167 -1.1263
 6462SOL     OW30847   1.773   4.542   8.645 -0.2169  0.3157 -0.0092
 6462SOL    HW130848   1.837   4.562   8.714  0.2106 -0.4769 -0.1825
 6462SOL    HW230849   1.719   4.621   8.642 -2.9520 -1.5501  0.3661
 6463SOL     OW30850   1.606   2.270   4.823  0.4487 -0.3275 -0.1187
 6463SOL    HW130851   1.524   2.249   4.867  0.7305  0.5311  0.8230
 6463SOL    HW230852   1.583   2.354   4.784 -2.4067 -0.7891  0.6074
 6464SOL     OW30853   1.367   2.847  17.483  0.2651  0.0577  0.2602
 6464SOL    HW130854   1.408   2.894  17.410  1.5156 -1.5143 -0.0468
 6464SOL    HW230855   1.432   2.879  17.544  0.5549 -1.9234  0.9888
 6465SOL     OW30856   0.300   1.329   9.691  0.4891 -0.1036 -0.5922
 6465SOL    HW130857   0.389   1.301   9.669  0.8698 -0.0475  0.8929
 6465SOL    HW230858   0.260   1.346   9.605  1.0392  0.3142 -0.7709
 6466SOL     OW30859   3.750   2.442  13.078 -0.1553  0.1710  0.2196
 6466SOL    HW130860   3.723   2.513  13.020  0.8648  1.1108  0.9027
 6466SOL    HW230861   3.842   2.430  13.054 -0.5337  0.2272 -1.3179
 6467SOL     OW30862   1.146   3.743   8.808  0.3359 -0.0791 -0.2639
 6467SOL    HW130863   1.101   3.663   8.835  0.3685  0.2175  0.6554
 6467SOL    HW230864   1.113   3.817   8.860  0.5638  0.1967 -0.5095
 6468SOL     OW30865   1.066   4.097   8.132 -0.7013 -0.2680 -0.5725
 6468SOL    HW130866   0.991   4.056   8.176  0.0941 -2.8700 -1.6462
 6468SOL    HW230867   1.043   4.190   8.138  1.0328  0.0768  0.5953
 6469SOL     OW30868   0.225   2.768   8.338  0.5779 -0.6342 -0.1836
 6469SOL    HW130869   0.169   2.740   8.411 -1.1566  0.2674 -1.1852
 6469SOL    HW230870   0.278   2.833   8.385  0.6210  1.0143 -2.5020
 6470SOL     OW30871   2.913   0.780   5.093  0.3312 -0.0852  0.7358
 6470SOL    HW130872   2.867   0.745   5.017  2.3612  1.9838 -1.4736
 6470SOL    HW230873   2.979   0.840   5.057  0.7666 -0.8460  0.2829
 6471SOL     OW30874   3.648   3.531  17.223  0.9264 -0.2658  0.0587
 6471SOL    HW130875   3.636   3.574  17.138  1.5348 -0.5827 -0.1834
 6471SOL    HW230876   3.554   3.513  17.229  0.6631  0.9727 -0.2528
 6472SOL     OW30877   3.415   3.904   2.763  0.4197 -0.2459  0.1460
 6472SOL    HW130878   3.330   3.941   2.743  1.6554  2.2222 -0.5012
 6472SOL    HW230879   3.453   3.970   2.821  0.1274  0.1864 -0.1581
 6473SOL     OW30880   3.543   2.511   4.653 -0.6519 -0.1963 -0.7663
 6473SOL    HW130881   3.592   2.491   4.574  1.6115  0.9763  0.3370
 6473SOL    HW230882   3.612   2.559   4.699 -1.9557 -1.8239  2.9074
 6474SOL     OW30883   2.461   1.417   3.231  0.0019 -0.0634 -0.2499
 6474SOL    HW130884   2.486   1.346   3.172 -0.3483 -0.8423  0.5522
 6474SOL    HW230885   2.543   1.455   3.264  1.0913 -1.4150 -1.4001
 6475SOL     OW30886   2.297   3.658   4.170  0.0783 -0.4258  0.5850
 6475SOL    HW130887   2.236   3.674   4.098  0.7546  1.9336  0.5441
 6475SOL    HW230888   2.364   3.722   4.147 -0.8507  0.7213  1.0901
 6476SOL     OW30889   3.142   1.582  17.662 -0.5925  0.0243  0.1784
 6476SOL    HW130890   3.077   1.516  17.683 -0.0769 -0.4457  0.2985
 6476SOL    HW230891   3.206   1.567   0.033  0.5134  1.8173 -0.4314
 6477SOL     OW30892   0.016   2.029  12.685  0.0533  0.3385  0.5648
 6477SOL    HW130893   0.100   2.059  12.719  0.6581  0.4847 -1.0588
 6477SOL    HW230894   0.010   2.067  12.598 -2.9331  1.5493  1.2878
 6478SOL     OW30895   2.692   1.185   5.883  0.2712  0.1241  0.3203
 6478SOL    HW130896   2.761   1.248   5.864  0.9751 -0.8229 -0.2447
 6478SOL    HW230897   2.650   1.228   5.958  1.4173  0.2807  0.8784
 6479SOL     OW30898   3.939   4.439   8.001 -0.3197 -0.5432  0.7169
 6479SOL    HW130899   3.852   4.439   8.040 -0.2194  0.9507  0.9580
 6479SOL    HW230900   3.988   4.371   8.047 -1.0357 -1.2653  0.4071
 6480SOL     OW30901   3.779   1.080   3.639  0.1902 -0.0862  0.1178
 6480SOL    HW130902   3.802   1.109   3.551  1.2923  1.9502  1.0721
 6480SOL    HW230903   3.689   1.050   3.633 -0.0188  0.6209 -0.1519
 6481SOL     OW30904   2.546   4.683   6.157  0.0007 -0.8172  0.6941
 6481SOL    HW130905   2.454   4.707   6.149  0.3717  0.6402  0.8804
 6481SOL    HW230906   2.544   4.609   6.218  0.9972 -0.8849  0.6406
 6482SOL     OW30907   1.842   0.673   9.361 -0.1480  0.2018  0.0992
 6482SOL    HW130908   1.811   0.710   9.444  0.7665  0.0736  0.4990
 6482SOL    HW230909   1.779   0.711   9.300 -0.6038  3.0582  2.3150
 6483SOL     OW30910   2.052   3.844  17.106 -0.0299 -0.1011  0.5618
 6483SOL    HW130911   2.033   3.807  17.020  1.1788 -1.4748  0.8999
 6483SOL    HW230912   1.970   3.855  17.154 -1.2393 -3.3553 -0.7845
 6484SOL     OW30913   1.623   2.155   8.829 -0.2281 -0.4651 -0.3773
 6484SOL    HW130914   1.587   2.243   8.843  0.7807  0.0975 -1.2527
 6484SOL    HW230915   1.673   2.140   8.909 -1.5011  2.1426  0.9245
 6485SOL     OW30916   2.945   4.536   5.122 -0.2365 -0.3522 -0.8185
 6485SOL    HW130917   2.968   4.478   5.194 -1.5445 -1.1184 -1.0261
 6485SOL    HW230918   2.855   4.562   5.141 -0.1757 -1.4059  0.8855
 6486SOL     OW30919   4.128   0.739   9.046 -0.2315  0.2083 -0.7243
 6486SOL    HW130920   4.160   0.730   8.956  0.0274 -1.4650 -0.4796
 6486SOL    HW230921   4.211   0.760   9.088  0.1808 -0.7249 -1.0582
 6487SOL     OW30922   0.402   3.306  12.934 -0.4844  0.0799  0.1858
 6487SOL    HW130923   0.411   3.262  12.850 -2.0028 -1.8083  1.0096
 6487SOL    HW230924   0.310   3.332  12.941 -0.7352 -0.8363  0.2033
 6488SOL     OW30925   1.396   3.520   7.336  0.1064  0.0647 -0.6482
 6488SOL    HW130926   1.342   3.538   7.412 -0.8143 -0.1261 -1.2601
 6488SOL    HW230927   1.415   3.609   7.308  0.4635  0.4462  0.8436
 6489SOL     OW30928   0.981   4.588   5.240  0.0504 -0.4582 -0.1607
 6489SOL    HW130929   0.985   4.593   5.335  1.3521 -2.2028 -0.1247
 6489SOL    HW230930   0.892   4.552   5.228 -0.1703  0.2131 -0.5252
 6490SOL     OW30931   1.451   0.011   9.196 -0.1778 -0.5036 -0.0744
 6490SOL    HW130932   1.459   0.045   9.285  0.7663 -0.1573 -0.2937
 6490SOL    HW230933   1.365   0.038   9.162  0.0670  0.6744  0.2357
 6491SOL     OW30934   0.193   0.267   1.560  0.4267  0.3345  0.0323
 6491SOL    HW130935   0.120   0.329   1.568 -0.4825 -1.2332  3.6826
 6491SOL    HW230936   0.193   0.248   1.466 -1.0244  1.6264 -0.2404
 6492SOL     OW30937   1.970   2.769   9.039 -0.1401  0.6026 -0.0962
 6492SOL    HW130938   2.047   2.820   9.062  1.2543 -1.4755 -0.0984
 6492SOL    HW230939   1.933   2.751   9.125  0.9751 -0.7025  0.1078
 6493SOL     OW30940   3.713   4.516   8.145  0.2458 -0.3054  0.2261
 6493SOL    HW130941   3.673   4.602   8.157  1.5481  0.7361 -3.0863
 6493SOL    HW230942   3.723   4.487   8.236 -0.3824 -0.3250  0.2876
 6494SOL     OW30943   4.337   3.798   6.383 -0.3244  0.1063 -0.4755
 6494SOL    HW130944   4.343   3.793   6.479  2.2655 -2.2865 -0.7681
 6494SOL    HW230945   4.310   3.889   6.375 -0.6338  0.0267 -0.3400
 6495SOL     OW30946   2.298   2.449  10.436  0.3820  0.4157 -0.2476
 6495SOL    HW130947   2.285   2.399  10.355  0.5482 -0.2830  0.1630
 6495SOL    HW230948   2.234   2.408  10.494  0.4354  1.2800  0.4289
 6496SOL     OW30949   3.396   1.776   1.394  0.3128 -0.1355  0.2402
 6496SOL    HW130950   3.349   1.745   1.316  0.0870 -2.9319  1.4616
 6496SOL    HW230951   3.431   1.698   1.438 -1.6292 -0.6082  0.9763
 6497SOL     OW30952   0.142   1.913  10.711  0.6706 -0.0330 -0.3885
 6497SOL    HW130953   0.111   1.990  10.663  2.7499 -0.1831 -1.9822
 6497SOL    HW230954   0.054   1.881  10.734  1.1580 -0.4149  0.9634
 6498SOL     OW30955   0.835   4.352   5.858  0.8242  0.5236 -0.1320
 6498SOL    HW130956   0.840   4.290   5.930 -0.6427  2.6385  1.7700
 6498SOL    HW230957   0.858   4.434   5.902  1.7393  0.3052 -0.2061
 6499SOL     OW30958   2.896   2.567  11.181  0.1159  0.1052 -0.0663
 6499SOL    HW130959   2.861   2.507  11.115 -2.7468  3.3043 -1.4893
 6499SOL    HW230960   2.988   2.570  11.156 -0.2881 -1.0214 -1.7197
 6500SOL     OW30961   3.401   4.226   3.706  0.0369  0.3350  0.0449
 6500SOL    HW130962   3.368   4.269   3.627 -0.3880  0.2243  0.1611
 6500SOL    HW230963   3.457   4.160   3.664 -0.4694 -0.8700  1.2608
 6501SOL     OW30964   3.215   1.463   4.363 -0.4972 -0.3737 -0.0060
 6501SOL    HW130965   3.264   1.438   4.285 -1.5746  0.1435 -0.8493
 6501SOL    HW230966   3.217   1.385   4.419  1.0475  0.8753  1.6916
 6502SOL     OW30967   0.849   1.554   5.362  0.1950  0.0570 -0.5159
 6502SOL    HW130968   0.831   1.576   5.270 -1.0746  0.1271 -0.2466
 6502SOL    HW230969   0.941   1.531   5.351  0.0670 -1.3698  1.4432
 6503SOL     OW30970   2.927   0.108   5.119  0.1614  0.2901  0.2850
 6503SOL    HW130971   2.888   0.193   5.137  0.5426  0.6947 -0.8282
 6503SOL    HW230972   2.891   0.066   5.197 -2.4210  0.0839 -1.0231
 6504SOL     OW30973   1.281   1.467  13.185  0.0565  0.3353  0.0497
 6504SOL    HW130974   1.253   1.378  13.209 -0.9266  0.4130 -0.7747
 6504SOL    HW230975   1.294   1.459  13.090 -0.6257  0.3122 -0.0438
 6505SOL     OW30976   0.685   4.624   1.786  0.1354 -0.2769  0.4460
 6505SOL    HW130977   0.738   4.635   1.866  3.7426 -1.2548 -1.8262
 6505SOL    HW230978   0.628   4.557   1.822  0.2556 -0.8929 -0.5294
 6506SOL     OW30979   3.916   3.970   8.514 -0.5927  0.0008 -0.0865
 6506SOL    HW130980   3.987   3.942   8.456 -0.4362 -0.4868  0.3395
 6506SOL    HW230981   3.957   3.953   8.599 -1.0318  1.3807  0.3993
 6507SOL     OW30982   1.047   2.709   1.893  0.3749 -0.7351 -0.6140
 6507SOL    HW130983   1.032   2.615   1.897  0.7870 -0.7701  0.0973
 6507SOL    HW230984   1.102   2.730   1.968  0.6944 -1.1126 -0.7426
 6508SOL     OW30985   3.452   0.031   3.639 -0.5417  0.2237 -0.2780
 6508SOL    HW130986   3.507   0.016   3.716 -1.9660 -1.0562  0.5032
 6508SOL    HW230987   3.514   0.080   3.586  2.2958 -0.6220  2.2190
 6509SOL     OW30988   2.219   2.201   0.178  0.3770 -0.3754 -0.0947
 6509SOL    HW130989   2.295   2.177   0.231 -0.1262 -2.8781 -0.5190
 6509SOL    HW230990   2.199   2.291   0.206  1.6590  0.3183 -1.4304
 6510SOL     OW30991   1.500   0.999   4.974 -0.1213  0.0769 -0.4399
 6510SOL    HW130992   1.510   0.915   5.019 -1.8574  0.4419  0.6419
 6510SOL    HW230993   1.588   1.029   4.953 -0.5374  0.6269 -1.3668
 6511SOL     OW30994   3.619   1.460  14.747  0.1365  0.0616 -0.7468
 6511SOL    HW130995   3.551   1.522  14.720  0.2665 -0.6176 -2.6825
 6511SOL    HW230996   3.577   1.383  14.707  2.2589 -0.4083 -2.0928
 6512SOL     OW30997   3.508   4.610   9.206 -0.0154 -0.2428  0.3631
 6512SOL    HW130998   3.553   4.564   9.277  2.7850 -0.7440 -1.7533
 6512SOL    HW230999   3.578   4.607   9.141  0.8886  1.7664  1.2351
 6513SOL     OW31000   1.424   2.903   8.329  0.0907  0.2159 -0.1104
 6513SOL    HW131001   1.507   2.935   8.294 -0.3921 -1.7366 -2.9834
 6513SOL    HW231002   1.455   2.842   8.397  1.4485 -0.0360 -0.9554
 6514SOL     OW31003   1.381   2.741  12.268  0.2228  0.1342 -0.2214
 6514SOL    HW131004   1.362   2.741  12.362 -0.8995 -1.2321 -0.4567
 6514SOL    HW231005   1.475   2.752  12.255  0.5341 -1.5752  0.4937
 6515SOL     OW31006   2.611   0.994   8.440 -0.3402  0.0586 -0.5722
 6515SOL    HW131007   2.636   0.903   8.454  0.3800  0.2540 -0.5666
 6515SOL    HW231008   2.561   1.008   8.521 -1.0739  1.7052 -1.3225
 6516SOL     OW31009   3.733   0.967  13.345  0.0013 -0.2451  0.0908
 6516SOL    HW131010   3.826   0.949  13.334  0.0736 -0.1345  0.5396
 6516SOL    HW231011   3.688   0.887  13.320 -0.0022 -0.1063 -0.3624
 6517SOL     OW31012   0.248   0.609  12.223 -0.4155 -0.1163 -0.0986
 6517SOL    HW131013   0.262   0.594  12.317  0.7337 -4.6314 -0.9898
 6517SOL    HW231014   0.199   0.691  12.227 -0.0629  0.0107  1.8908
 6518SOL     OW31015   1.042   1.282   8.030  0.5810  0.0858  0.7577
 6518SOL    HW131016   0.952   1.253   8.039  0.6387 -0.9323 -1.9065
 6518SOL    HW231017   1.066   1.283   7.937 -2.9271  1.9114 -0.1253
 6519SOL     OW31018   0.060   1.659   7.819  0.9999 -0.0266  0.0494
 6519SOL    HW131019   0.054   1.718   7.743 -1.3490 -0.3557 -0.0216
 6519SOL    HW231020   0.126   1.701   7.874 -1.4405  1.4251  1.9381
 6520SOL     OW31021   4.009   1.091   2.375 -0.4677  0.0026  0.7154
 6520SOL    HW131022   3.921   1.054   2.381 -0.1710 -0.6844  0.8043
 6520SOL    HW231023   4.059   1.024   2.421 -2.6366 -1.8906  0.3181
 6521SOL     OW31024   3.097   3.027  14.948 -0.2009 -0.2459 -0.3644
 6521SOL    HW131025   3.111   3.120  14.934  0.8468 -0.2691  0.5927
 6521SOL    HW231026   3.011   3.025  14.990 -0.3386 -3.3449 -0.7844
 6522SOL     OW31027   2.150   1.781   2.684  0.2011 -0.4227 -0.3256
 6522SOL    HW131028   2.246   1.785   2.680  0.3111 -1.1709  1.6126
 6522SOL    HW231029   2.128   1.800   2.775 -0.9648  1.5663 -1.0280
 6523SOL     OW31030   3.085   2.662  12.135  0.3021  0.4704  0.1006
 6523SOL    HW131031   3.116   2.681  12.047  1.7886  0.5095  0.6416
 6523SOL    HW231032   2.995   2.633  12.120  0.6241 -0.0025 -0.9154
 6524SOL     OW31033   0.023   0.595   1.294  0.0334 -0.8471  0.2033
 6524SOL    HW131034   0.050   0.671   1.243  1.1581 -0.7936  0.8761
 6524SOL    HW231035   0.005   0.525   1.232 -0.6220 -0.5821  0.0914
 6525SOL     OW31036   0.713   2.818   6.046 -0.6527 -0.3416  0.3153
 6525SOL    HW131037   0.776   2.749   6.066  1.2894  0.9047 -1.5266
 6525SOL    HW231038   0.640   2.797   6.104  0.7901 -1.8758  1.5776
 6526SOL     OW31039   2.060   3.221   6.482  0.8071 -0.8443  0.2294
 6526SOL    HW131040   2.007   3.211   6.402  0.0565 -0.7572  0.7144
 6526SOL    HW231041   2.135   3.166   6.463  0.1497 -1.9474  0.8737
 6527SOL     OW31042   3.101   0.533   2.494  0.0628  0.3718  0.3151
 6527SOL    HW131043   3.081   0.614   2.447  2.4804  1.5581  1.3543
 6527SOL    HW231044   3.009   0.508   2.501  0.3386 -0.5805  0.5376
 6528SOL     OW31045   1.817   3.807   0.653  0.2921 -0.0562  0.7476
 6528SOL    HW131046   1.890   3.790   0.713  0.0858 -0.4587  0.8859
 6528SOL    HW231047   1.854   3.780   0.569  1.2280  2.3644  0.3978
 6529SOL     OW31048   4.504   3.351   9.274 -0.1774 -0.0319  0.2015
 6529SOL    HW131049   4.422   3.393   9.301 -0.0316  1.0433 -1.0079
 6529SOL    HW231050   4.498   3.361   9.179 -1.1933 -1.0074  0.1693
 6530SOL     OW31051   1.645   0.537   3.292  0.3957 -0.5401 -0.0469
 6530SOL    HW131052   1.690   0.569   3.370  2.7519  0.4120 -1.8001
 6530SOL    HW231053   1.568   0.593   3.282  2.0163  2.0125  1.8290
 6531SOL     OW31054   0.967   2.916   5.329  0.4781  0.2434  0.0037
 6531SOL    HW131055   0.982   2.878   5.242  0.7624 -0.8569  0.5306
 6531SOL    HW231056   0.903   2.852   5.359 -0.0745  0.4567 -0.7172
 6532SOL     OW31057   3.569   3.337  11.658 -0.5529 -0.1012  0.4679
 6532SOL    HW131058   3.527   3.319  11.574  1.0577 -1.2746 -0.0918
 6532SOL    HW231059   3.526   3.419  11.683  0.4090 -0.0830  2.0310
 6533SOL     OW31060   2.843   2.749   4.903  0.6460 -0.2914  0.1297
 6533SOL    HW131061   2.917   2.803   4.877 -0.5019  1.0740 -0.3126
 6533SOL    HW231062   2.783   2.807   4.950  0.3272 -0.5847  0.0875
 6534SOL     OW31063   0.359   0.976   9.491  0.1959  0.7712 -0.3309
 6534SOL    HW131064   0.390   1.067   9.484 -1.0070  1.2934  1.0883
 6534SOL    HW231065   0.432   0.934   9.535  0.2169  1.0848 -0.0632
 6535SOL     OW31066   2.057   3.334   6.079  0.0288 -0.3908 -0.0071
 6535SOL    HW131067   2.025   3.280   6.152  0.4430  1.1195  1.3133
 6535SOL    HW231068   2.002   3.311   6.004 -1.2264 -1.2383  1.1545
 6536SOL     OW31069   1.480   3.017  17.302  0.0816  0.0722  0.0234
 6536SOL    HW131070   1.515   3.106  17.309  1.3784 -0.2983 -1.8257
 6536SOL    HW231071   1.406   3.034  17.244 -0.8165 -1.1087  0.8167
 6537SOL     OW31072   1.198   0.779   2.702 -0.4212  0.5481  0.0341
 6537SOL    HW131073   1.259   0.788   2.628 -0.5325  0.4039 -0.0763
 6537SOL    HW231074   1.116   0.809   2.662  0.1814  2.7625  0.4438
 6538SOL     OW31075   0.862   3.342   1.212 -0.1865 -0.1449 -0.5268
 6538SOL    HW131076   0.809   3.310   1.139 -2.3215  0.2933  0.8142
 6538SOL    HW231077   0.922   3.400   1.166 -0.1721  0.8099  0.6844
 6539SOL     OW31078   0.334   4.308  12.761  0.0443 -0.1158 -0.6155
 6539SOL    HW131079   0.323   4.313  12.666  1.7445 -1.8218 -0.8893
 6539SOL    HW231080   0.398   4.379  12.767  2.3986 -2.1566 -1.6563
 6540SOL     OW31081   1.063   2.832   6.448  0.1268 -0.3682 -0.2048
 6540SOL    HW131082   1.088   2.740   6.461  0.5579  0.1764  2.8832
 6540SOL    HW231083   1.030   2.847   6.537  0.4532 -2.4119  0.2774
 6541SOL     OW31084   1.696   4.431  13.546  0.6173 -0.0147  0.2464
 6541SOL    HW131085   1.652   4.347  13.535 -0.4107  0.3802  1.2368
 6541SOL    HW231086   1.784   4.404  13.521  0.1178  1.6763 -3.3713
 6542SOL     OW31087   0.708   4.678   3.768 -0.2214 -0.0105  0.1155
 6542SOL    HW131088   0.750   4.595   3.742  1.6074  0.6210  1.0045
 6542SOL    HW231089   0.751   0.013   3.707 -3.1136  0.3273 -1.5779
 6543SOL     OW31090   3.535   0.015   6.914 -0.6003  0.1090  0.3403
 6543SOL    HW131091   3.619   0.062   6.920 -0.1431 -0.9014  2.0484
 6543SOL    HW231092   3.551   4.674   6.982 -0.9547 -1.1964 -0.8430
 6544SOL     OW31093   3.774   2.315   8.429 -0.2010 -0.1624  0.1466
 6544SOL    HW131094   3.758   2.395   8.379  0.1889 -0.9498 -1.2320
 6544SOL    HW231095   3.728   2.335   8.510 -2.0739 -1.4025 -0.6076
 6545SOL     OW31096   2.856   1.759  14.561  0.2367  0.6305 -0.6211
 6545SOL    HW131097   2.893   1.672  14.578  0.5916  0.8123 -0.4604
 6545SOL    HW231098   2.857   1.802  14.647  3.2317 -1.4800  0.4074
 6546SOL     OW31099   3.168   1.241   5.141  0.1846  0.1888  0.0012
 6546SOL    HW131100   3.132   1.268   5.056 -0.3397 -2.0722 -0.4859
 6546SOL    HW231101   3.245   1.190   5.113  1.2011  1.3268  0.7402
 6547SOL     OW31102   0.299   4.310  16.311  0.1713  0.1820 -0.2798
 6547SOL    HW131103   0.365   4.302  16.379 -0.6994 -1.3269  0.3831
 6547SOL    HW231104   0.247   4.239  16.348  0.6333 -0.3329 -0.6179
 6548SOL     OW31105   2.482   2.372   3.969  0.0519  0.1385 -0.3234
 6548SOL    HW131106   2.433   2.363   4.051  0.9349  2.9828  0.5216
 6548SOL    HW231107   2.518   2.459   3.986  0.1337  0.1113 -0.3580
 6549SOL     OW31108   4.231   0.163   6.298  0.8131  0.4287 -0.2289
 6549SOL    HW131109   4.138   0.143   6.307  1.1450 -0.5240  1.0601
 6549SOL    HW231110   4.267   0.075   6.285  2.2340  0.8763  0.7608
 6550SOL     OW31111   2.862   1.207   9.905  0.4847  0.5873 -0.6548
 6550SOL    HW131112   2.879   1.261   9.982  2.5351 -1.6153  0.4647
 6550SOL    HW231113   2.835   1.262   9.832 -4.3546  2.2547  2.3860
 6551SOL     OW31114   2.955   1.421  15.086 -0.0724 -0.8214 -0.1988
 6551SOL    HW131115   3.009   1.457  15.156 -0.1762 -1.1238  0.0356
 6551SOL    HW231116   2.961   1.327  15.099  0.4944 -0.9209 -1.1632
 6552SOL     OW31117   4.623   2.272   2.083  0.4264  0.5959  0.2299
 6552SOL    HW131118   4.718   2.280   2.073  0.4463 -0.5265 -0.3465
 6552SOL    HW231119   4.598   2.248   1.994  2.0874 -1.1945  0.2584
 6553SOL     OW31120   0.500   3.801   1.955  0.1847  0.3826 -0.0146
 6553SOL    HW131121   0.442   3.762   1.889  1.4365  0.1040 -0.9422
 6553SOL    HW231122   0.566   3.731   1.958  1.0744  1.1494 -2.1579
 6554SOL     OW31123   2.766   3.212   9.182  0.0362 -0.2156  0.3914
 6554SOL    HW131124   2.691   3.272   9.183 -0.0148 -0.3279  3.2078
 6554SOL    HW231125   2.727   3.128   9.157  0.2434  0.3817 -1.9886
 6555SOL     OW31126   3.677   0.441   9.256  0.6021  0.0581 -0.6509
 6555SOL    HW131127   3.741   0.412   9.192  1.4561  0.2318  0.1226
 6555SOL    HW231128   3.686   0.375   9.324  1.0092  0.4401 -0.3306
 6556SOL     OW31129   2.126   0.590   3.996 -0.3885 -0.1037  0.0561
 6556SOL    HW131130   2.107   0.682   3.979  0.4014 -0.0523 -0.5585
 6556SOL    HW231131   2.193   0.562   3.933 -1.6171 -1.5285 -0.6091
 6557SOL     OW31132   2.775   0.135   7.297 -0.2553  0.0820  0.2906
 6557SOL    HW131133   2.761   0.041   7.309 -0.2157  0.2231  1.4482
 6557SOL    HW231134   2.695   0.177   7.328 -0.1086 -0.0129  0.8003
 6558SOL     OW31135   4.001   1.162  11.897  0.2176  0.0758  0.0962
 6558SOL    HW131136   4.068   1.148  11.963  0.4082 -0.0078 -0.1129
 6558SOL    HW231137   3.913   1.153  11.935 -0.2151 -2.1973 -1.4446
 6559SOL     OW31138   3.474   2.043   3.996  0.3988  0.1043 -0.3944
 6559SOL    HW131139   3.418   2.104   4.044  0.0935 -0.7027  0.2760
 6559SOL    HW231140   3.497   2.103   3.925 -2.6366  2.7902  0.8829
 6560SOL     OW31141   1.439   1.121  14.620  0.4346 -0.5481  0.2462
 6560SOL    HW131142   1.516   1.141  14.567  0.0532  1.8392  0.5615
 6560SOL    HW231143   1.454   1.172  14.700 -0.4730  1.1207 -0.6415
 6561SOL     OW31144   2.129   4.017   9.133  0.3978  0.2686  0.5358
 6561SOL    HW131145   2.113   3.922   9.128 -0.5658  0.4226  0.7200
 6561SOL    HW231146   2.091   4.047   9.051  0.6954  1.8536  0.9722
 6562SOL     OW31147   0.295   4.690  17.492 -0.1085  0.1013  0.2651
 6562SOL    HW131148   0.230   4.636  17.536 -1.1666  0.9106 -0.2964
 6562SOL    HW231149   0.256   4.724  17.411 -0.9155  0.3361  0.7561
 6563SOL     OW31150   0.321   0.638   1.560  0.1271 -0.4201 -0.0600
 6563SOL    HW131151   0.376   0.605   1.631  0.1129  1.8779  1.0253
 6563SOL    HW231152   0.364   0.600   1.484 -0.1599 -1.2582  0.1966
 6564SOL     OW31153   3.298   2.999   8.035 -0.0953 -0.5451  0.0439
 6564SOL    HW131154   3.381   3.035   8.067 -0.8684  1.3498 -0.0793
 6564SOL    HW231155   3.316   2.987   7.942 -0.5434  0.4337 -0.1659
 6565SOL     OW31156   4.531   2.598   3.257 -0.2616  0.0067 -0.0502
 6565SOL    HW131157   4.496   2.509   3.250 -2.1727  0.5609  2.0955
 6565SOL    HW231158   4.626   2.592   3.248 -0.1374  1.4439  0.4391
 6566SOL     OW31159   0.899   3.431   4.704 -0.1287 -0.6392 -0.3233
 6566SOL    HW131160   0.991   3.410   4.693  0.2170 -0.4815  2.2015
 6566SOL    HW231161   0.876   3.455   4.614  0.5608 -0.7632 -0.5314
 6567SOL     OW31162   1.099   0.542  14.197  0.2968  0.0454  0.1089
 6567SOL    HW131163   1.064   0.598  14.127 -0.0826 -1.0018 -0.5423
 6567SOL    HW231164   1.192   0.557  14.185 -0.2181  3.5838  0.4682
 6568SOL     OW31165   2.007   0.303   3.983  0.1115 -0.1730  0.3119
 6568SOL    HW131166   2.087   0.251   3.983  0.0527 -0.2644  0.8142
 6568SOL    HW231167   2.034   0.378   4.037  0.5244  0.4147 -0.7025
 6569SOL     OW31168   1.648   2.496   6.277  0.1415 -0.6753  0.0642
 6569SOL    HW131169   1.653   2.435   6.203  0.0625  0.9476 -1.2746
 6569SOL    HW231170   1.560   2.533   6.270  0.1744  0.1471  4.1482
 6570SOL     OW31171   3.333   1.147  14.808 -0.5541  0.1421 -0.4194
 6570SOL    HW131172   3.253   1.168  14.760 -0.4147  1.4324 -0.0740
 6570SOL    HW231173   3.305   1.074  14.863  2.1516 -0.8979 -0.4197
 6571SOL     OW31174   2.172   2.332  15.486  0.2365  0.2116  0.6700
 6571SOL    HW131175   2.203   2.331  15.395 -2.0799  0.0799 -0.1212
 6571SOL    HW231176   2.090   2.284  15.476 -0.7561  2.1692 -0.7895
 6572SOL     OW31177   4.219   3.980   5.771 -0.1055 -0.1131 -0.3738
 6572SOL    HW131178   4.296   3.983   5.714 -1.6619 -1.2842 -2.5428
 6572SOL    HW231179   4.160   4.018   5.705  0.7584 -0.4536 -1.3380
 6573SOL     OW31180   2.993   3.082   2.294  0.6310 -0.4351 -0.4233
 6573SOL    HW131181   2.945   3.157   2.330 -0.3865 -1.0586 -0.5087
 6573SOL    HW231182   3.083   3.115   2.290 -0.3517  2.5593  2.1318
 6574SOL     OW31183   1.187   4.680   1.912 -0.1620  0.4484 -0.4167
 6574SOL    HW131184   1.128   4.657   1.984 -1.1133  0.0097 -1.3486
 6574SOL    HW231185   1.264   4.626   1.927 -0.5272 -0.2696 -1.1486
 6575SOL     OW31186   4.666   0.917   9.587 -0.4141  0.4337  0.1986
 6575SOL    HW131187   4.590   0.872   9.622  0.1193  0.1007  0.9244
 6575SOL    HW231188   4.654   1.005   9.623  1.8642  1.6585 -2.0547
 6576SOL     OW31189   0.308   0.552   0.456  0.0874 -0.4033 -0.2919
 6576SOL    HW131190   0.391   0.568   0.501  1.0410  0.2086 -2.2829
 6576SOL    HW231191   0.238   0.587   0.512  1.1366 -1.0787  1.4593
 6577SOL     OW31192   3.428   0.601   7.306  0.3465 -0.1042 -0.4165
 6577SOL    HW131193   3.472   0.618   7.223  0.5007  0.3497 -0.2414
 6577SOL    HW231194   3.353   0.659   7.295 -0.5083 -1.1375 -0.0867
 6578SOL     OW31195   4.021   0.135  15.972 -0.9627  0.5753  0.0063
 6578SOL    HW131196   3.994   0.104  16.058 -0.6300  2.3562  0.7374
 6578SOL    HW231197   4.045   0.224  15.996  0.7543 -0.3676  1.7107
 6579SOL     OW31198   3.984   2.504   2.091  0.3425 -0.1722 -0.2121
 6579SOL    HW131199   3.987   2.536   2.181  1.8142  0.2940 -0.4350
 6579SOL    HW231200   4.043   2.569   2.054  1.0620 -1.8191 -1.9814
 6580SOL     OW31201   2.100   3.238   8.226  0.1034 -0.1059  0.3825
 6580SOL    HW131202   2.100   3.334   8.219  3.1393 -0.1939 -0.7466
 6580SOL    HW231203   2.166   3.208   8.164  0.8223  1.6017  0.3232
 6581SOL     OW31204   3.580   4.212   7.360 -0.1529  0.1408 -0.0830
 6581SOL    HW131205   3.524   4.275   7.315 -0.7633  0.4084  1.0556
 6581SOL    HW231206   3.587   4.258   7.443 -1.3993 -2.1331  1.3037
 6582SOL     OW31207   4.219   0.106   3.508 -0.0793 -0.0619 -0.7620
 6582SOL    HW131208   4.241   0.038   3.572  0.9672  1.9514  0.9912
 6582SOL    HW231209   4.249   0.059   3.430  1.9659  1.4982 -0.9158
 6583SOL     OW31210   1.148   3.896  17.154  0.2227 -0.4643 -0.4700
 6583SOL    HW131211   1.054   3.886  17.167  0.7576  0.3760  3.8680
 6583SOL    HW231212   1.147   3.987  17.124 -0.3350 -0.3356 -0.0775
 6584SOL     OW31213   0.156   4.147   5.580 -0.3538 -0.1122 -0.5155
 6584SOL    HW131214   0.069   4.121   5.609 -0.2151 -1.0338 -0.9125
 6584SOL    HW231215   0.208   4.154   5.660 -0.5628 -1.3193 -0.2713
 6585SOL     OW31216   0.944   2.847  17.356  0.1442  0.3317  0.1625
 6585SOL    HW131217   1.009   2.914  17.379 -1.0843  1.3321  0.7436
 6585SOL    HW231218   0.992   2.811  17.282  0.5671 -0.3643  0.7829
 6586SOL     OW31219   1.890   4.166   6.273  0.1527 -0.3423  0.6647
 6586SOL    HW131220   1.794   4.172   6.280  0.1306  1.7389 -1.3275
 6586SOL    HW231221   1.888   4.171   6.178  1.3093  0.2903  0.6809
 6587SOL     OW31222   4.194   1.467   2.041 -0.1178  0.3106 -0.5759
 6587SOL    HW131223   4.162   1.548   2.001  3.1128  2.4768  1.2030
 6587SOL    HW231224   4.111   1.420   2.054  0.9379 -1.4635 -0.2974
 6588SOL     OW31225   3.421   1.931   4.288 -0.4411 -0.6233  0.4039
 6588SOL    HW131226   3.394   1.986   4.215 -1.4642 -0.6168  0.7762
 6588SOL    HW231227   3.506   1.971   4.303 -0.0971 -0.9612 -0.6579
 6589SOL     OW31228   3.169   1.459  10.753  0.0246 -0.1156  0.5297
 6589SOL    HW131229   3.159   1.457  10.848 -2.7434 -2.1830  0.1955
 6589SOL    HW231230   3.254   1.419  10.738 -0.2721 -1.3853  2.2952
 6590SOL     OW31231   3.042   2.189   3.122 -0.2413 -0.2580 -0.0975
 6590SOL    HW131232   2.977   2.184   3.192  0.1133  0.1806  0.2618
 6590SOL    HW231233   3.042   2.283   3.103  1.2385 -0.2188  0.0813
 6591SOL     OW31234   3.334   2.040   0.365 -0.0662 -0.2129 -0.0526
 6591SOL    HW131235   3.366   2.124   0.332  0.7209 -0.4727  0.0453
 6591SOL    HW231236   3.244   2.069   0.379 -0.0800  0.9938 -2.6826
 6592SOL     OW31237   4.182   3.964  14.635 -0.3124  0.3285 -0.0814
 6592SOL    HW131238   4.158   3.982  14.544 -2.8925  1.0682  0.7622
 6592SOL    HW231239   4.093   3.942  14.663  0.1857  1.0737  2.0475
 6593SOL     OW31240   2.831   0.979   7.770  0.3837  0.0119 -0.0429
 6593SOL    HW131241   2.749   0.967   7.721 -1.2952  1.4718  2.3959
 6593SOL    HW231242   2.828   0.901   7.826  0.5705  0.1902  0.2141
 6594SOL     OW31243   4.207   0.512   8.039  0.2623  0.1219  0.2643
 6594SOL    HW131244   4.122   0.491   8.001  0.2539  1.8328 -0.7127
 6594SOL    HW231245   4.225   0.570   7.965  0.8148  0.2927  0.5291
 6595SOL     OW31246   4.586   1.838   3.767 -0.4704 -0.3654  0.1918
 6595SOL    HW131247   4.627   1.919   3.737  1.0181 -1.8464 -1.7237
 6595SOL    HW231248   4.661   1.784   3.744 -0.5883 -0.7225  0.6474
 6596SOL     OW31249   3.712   0.735   5.956 -0.2400 -0.3840  0.1565
 6596SOL    HW131250   3.677   0.760   5.871 -0.6731  0.2387  0.5204
 6596SOL    HW231251   3.792   0.687   5.935  1.5462  2.9897 -0.6422
 6597SOL     OW31252   1.292   3.285   2.753 -0.0575  0.1467 -0.1814
 6597SOL    HW131253   1.218   3.283   2.691  0.0942  1.0802 -0.3779
 6597SOL    HW231254   1.369   3.257   2.704 -0.0641 -0.5024  0.1690
 6598SOL     OW31255   0.039   0.804   6.179 -0.6760 -0.3098  0.6468
 6598SOL    HW131256   0.045   0.863   6.254 -0.2719  0.4284  0.0367
 6598SOL    HW231257   0.035   0.870   6.110  0.6371 -2.5094 -1.5243
 6599SOL     OW31258   3.786   0.364  14.094 -0.0313  0.3543 -0.3132
 6599SOL    HW131259   3.781   0.451  14.055 -0.6183  0.3435 -0.2675
 6599SOL    HW231260   3.853   0.388  14.158  0.3895 -1.5941 -0.0028
 6600SOL     OW31261   4.357   3.716   0.557  0.0471 -0.4859  0.4467
 6600SOL    HW131262   4.362   3.766   0.639 -0.8892 -1.4935  1.1149
 6600SOL    HW231263   4.274   3.669   0.565 -1.4036  1.9460 -0.4294
 6601SOL     OW31264   1.689   2.878   3.817 -0.2217  0.5341  0.2075
 6601SOL    HW131265   1.619   2.943   3.809  0.4220  1.4695  2.2113
 6601SOL    HW231266   1.663   2.808   3.758 -1.1467  1.2683 -0.2619
 6602SOL     OW31267   0.846   3.671   3.661  0.1141  0.2165  0.7248
 6602SOL    HW131268   0.797   3.645   3.739 -0.5030 -0.6966  0.0219
 6602SOL    HW231269   0.862   3.583   3.628  0.3614  1.1646 -1.6295
 6603SOL     OW31270   2.391   3.994  12.284  0.3867 -0.8533  0.5730
 6603SOL    HW131271   2.461   4.006  12.348  1.2285  1.8290 -0.8322
 6603SOL    HW231272   2.435   4.022  12.204 -0.1140 -0.6365  0.3760
 6604SOL     OW31273   2.897   4.149  11.553  0.4964 -0.2699 -0.2347
 6604SOL    HW131274   2.807   4.167  11.527  0.1903  0.0422  1.0260
 6604SOL    HW231275   2.901   4.208  11.628  0.6427 -0.2896 -0.2269
 6605SOL     OW31276   4.070   2.297  17.605 -0.1227 -0.3991  0.6811
 6605SOL    HW131277   4.146   2.263  17.653 -0.1593 -0.6440  0.5638
 6605SOL    HW231278   4.022   2.350  17.668  1.3336  1.1454  0.5011
 6606SOL     OW31279   4.715   1.187  12.856  0.8572  0.3814 -0.1530
 6606SOL    HW131280   4.651   1.258  12.859  0.6187  0.2896 -2.8367
 6606SOL    HW231281   0.030   1.226  12.933 -0.1995  2.6454 -0.7559
 6607SOL     OW31282   0.838   2.412   9.571  0.7428  0.6738 -0.1052
 6607SOL    HW131283   0.922   2.457   9.581  0.2524  1.4377  0.4764
 6607SOL    HW231284   0.835   2.364   9.654 -2.4721 -1.8377 -1.6737
 6608SOL     OW31285   4.574   0.136  13.298  0.4433 -0.6260 -0.1752
 6608SOL    HW131286   4.518   0.063  13.323 -0.1592 -0.6987 -1.6983
 6608SOL    HW231287   4.611   0.144  13.385 -3.2740  3.0800  1.0790
 6609SOL     OW31288   4.042   3.684   6.073 -0.3362 -0.5029 -0.6300
 6609SOL    HW131289   4.056   3.590   6.062  1.3781 -0.3688  0.3861
 6609SOL    HW231290   4.113   3.722   6.020  0.2177 -0.0735  0.4196
 6610SOL     OW31291   1.382   3.093   1.079  0.4399  0.1496  0.5496
 6610SOL    HW131292   1.333   3.034   1.022  0.8776 -0.5163  0.8638
 6610SOL    HW231293   1.469   3.066   1.050 -0.2424 -0.1988 -1.1563
 6611SOL     OW31294   0.981   2.523  15.806 -0.0418  0.4023 -0.8808
 6611SOL    HW131295   1.000   2.614  15.782  2.5491 -0.3524 -1.6311
 6611SOL    HW231296   1.034   2.473  15.745  1.9728 -1.1567  2.1482
 6612SOL     OW31297   1.501   3.953   8.730  0.1368 -0.0336 -0.2061
 6612SOL    HW131298   1.446   4.031   8.737  1.0376  0.4574  1.3770
 6612SOL    HW231299   1.506   3.953   8.634 -1.3944  0.1082 -0.2857
 6613SOL     OW31300   1.286   3.391   2.198 -0.3714  0.4816  0.6051
 6613SOL    HW131301   1.375   3.355   2.199 -0.0583  1.1374 -2.5994
 6613SOL    HW231302   1.293   3.476   2.155 -0.7531  0.0599 -0.2902
 6614SOL     OW31303   0.770   3.485   6.127  0.2093 -0.1374  0.4604
 6614SOL    HW131304   0.691   3.432   6.128 -0.1300  0.3431 -1.9979
 6614SOL    HW231305   0.800   3.476   6.217 -1.0746 -2.5578  0.6326
 6615SOL     OW31306   2.674   2.684  11.550  0.0066  0.7169  0.0747
 6615SOL    HW131307   2.627   2.683  11.633 -1.5274  0.2298 -0.8055
 6615SOL    HW231308   2.612   2.664  11.480 -1.0455 -0.7253  1.4235
 6616SOL     OW31309   0.381   3.291   0.210 -0.4631  0.6851  0.3242
 6616SOL    HW131310   0.456   3.261   0.262 -0.2413 -0.8710 -0.9124
 6616SOL    HW231311   0.351   3.364   0.264 -0.2558  0.1438  1.1771
 6617SOL     OW31312   1.591   3.130   2.937 -0.6027  0.2250  0.2521
 6617SOL    HW131313   1.505   3.105   2.903  0.5200  0.5703 -2.7990
 6617SOL    HW231314   1.629   3.142   2.850 -1.2698 -0.5477 -0.1493
 6618SOL     OW31315   4.439   4.640  12.494  0.8487  0.2673  0.8273
 6618SOL    HW131316   4.505   4.571  12.495 -0.6881 -1.1941  1.2723
 6618SOL    HW231317   4.496   4.717  12.482  0.9254  0.1830  0.6546
 6619SOL     OW31318   0.875   2.999   7.591  0.8038 -0.4620  0.6172
 6619SOL    HW131319   0.913   3.063   7.651 -0.1387 -0.5457  1.3002
 6619SOL    HW231320   0.792   2.982   7.637  1.7382  0.1230  2.5243
 6620SOL     OW31321   3.674   4.696   9.860  0.2421  0.0575 -0.1946
 6620SOL    HW131322   3.596   4.641   9.854 -0.2890  0.5738  1.7288
 6620SOL    HW231323   3.709   4.668   9.944 -1.8619 -2.1026 -0.0282
 6621SOL     OW31324   0.409   0.220  13.004  0.0119 -0.0348 -0.1374
 6621SOL    HW131325   0.450   0.134  12.995 -0.4007 -0.2214 -0.2451
 6621SOL    HW231326   0.487   0.267  13.034 -0.1911 -0.4148  0.9701
 6622SOL     OW31327   2.350   2.017   3.393  0.5343  0.1974 -0.4410
 6622SOL    HW131328   2.359   1.923   3.405  1.9152  0.6365  1.8477
 6622SOL    HW231329   2.256   2.026   3.380  0.3596  0.1105  0.8418
 6623SOL     OW31330   2.902   4.620   5.543  0.2652  0.5069  0.2397
 6623SOL    HW131331   2.933   4.623   5.633 -1.7168 -1.3388  0.9560
 6623SOL    HW231332   2.870   4.530   5.547  1.4048  0.1110  0.5167
 6624SOL     OW31333   3.254   4.056   5.115  0.0450  0.2293  0.2932
 6624SOL    HW131334   3.250   4.070   5.209 -2.2434  0.1565  0.2050
 6624SOL    HW231335   3.165   4.029   5.090  0.1400  0.8445 -0.7554
 6625SOL     OW31336   4.097   3.692   6.743  0.3222  0.3459  0.0909
 6625SOL    HW131337   4.101   3.784   6.715  4.8203 -0.1501 -0.8572
 6625SOL    HW231338   4.018   3.668   6.694  0.5839  1.7174 -1.0125
 6626SOL     OW31339   4.332   4.584   6.722 -0.0578  0.1685  0.0821
 6626SOL    HW131340   4.411   4.573   6.670  0.7640  1.1121  1.1459
 6626SOL    HW231341   4.290   4.660   6.683 -0.9588 -0.3557  0.0092
 6627SOL     OW31342   0.301   4.328   8.625  0.5457 -0.7540  0.4654
 6627SOL    HW131343   0.299   4.232   8.634 -0.5918 -1.0109 -2.4405
 6627SOL    HW231344   0.239   4.346   8.696 -1.8539  0.8741 -2.0473
 6628SOL     OW31345   3.089   4.667   6.674  0.2241 -0.9003  0.3059
 6628SOL    HW131346   3.146   4.723   6.727  0.2202 -3.9745  3.5550
 6628SOL    HW231347   3.006   4.713   6.676  1.7739  1.9925 -1.1645
 6629SOL     OW31348   2.337   0.982  13.669 -0.6369  0.6222 -0.0442
 6629SOL    HW131349   2.269   0.976  13.737  1.1031  1.8893  1.8194
 6629SOL    HW231350   2.296   1.023  13.593 -0.1624 -0.1089 -0.6905
 6630SOL     OW31351   4.506   1.692   4.056  0.1488 -0.7109 -0.5479
 6630SOL    HW131352   4.494   1.786   4.062 -1.9914 -1.0331  0.1279
 6630SOL    HW231353   4.580   1.681   4.116  0.7150 -0.0457 -1.1263
 6631SOL     OW31354   3.232   3.913   8.254 -0.3187  0.0471  0.0713
 6631SOL    HW131355   3.190   3.915   8.168 -0.7528  1.1912  0.3026
 6631SOL    HW231356   3.245   4.007   8.268  1.4223 -0.1016 -0.5621
 6632SOL     OW31357   4.075   1.538   4.173 -0.2815  0.0701 -0.1746
 6632SOL    HW131358   4.164   1.502   4.167 -1.0455 -2.2879  2.3536
 6632SOL    HW231359   4.049   1.479   4.244 -3.1549  2.7836  1.0207
 6633SOL     OW31360   3.398   2.326   4.801  0.4139 -0.5774 -0.3023
 6633SOL    HW131361   3.460   2.368   4.741  1.1371  1.0395  1.5468
 6633SOL    HW231362   3.338   2.400   4.810  0.6890 -0.5700  1.5180
 6634SOL     OW31363   0.640   0.109  16.600  0.2312  0.4664 -0.7795
 6634SOL    HW131364   0.639   0.205  16.596  1.7298  0.5996  2.4167
 6634SOL    HW231365   0.616   0.083  16.511 -1.0152 -2.2743  0.3615
 6635SOL     OW31366   0.298   4.631  13.822  0.9697  0.3035 -0.2426
 6635SOL    HW131367   0.246   4.657  13.746  1.0143 -0.0500 -0.3936
 6635SOL    HW231368   0.386   4.644  13.787  1.7480 -0.3091  1.4933
 6636SOL     OW31369   0.363   4.510   5.490  0.0743 -0.1426 -0.5966
 6636SOL    HW131370   0.423   4.553   5.429  2.2687 -0.0130  1.6741
 6636SOL    HW231371   0.413   4.507   5.571 -0.7026  1.4653 -0.0607
 6637SOL     OW31372   1.190   1.520  10.165 -0.5028 -0.2946 -0.3006
 6637SOL    HW131373   1.244   1.486  10.093  0.5588 -2.8735  1.6990
 6637SOL    HW231374   1.104   1.509  10.126  0.0441 -1.6291 -1.1330
 6638SOL     OW31375   4.248   1.837   9.676 -0.3418 -0.4293  0.1695
 6638SOL    HW131376   4.277   1.922   9.645 -1.1986 -0.5818 -1.0493
 6638SOL    HW231377   4.202   1.862   9.756  0.2450  0.5669  0.1894
 6639SOL     OW31378   0.897   0.920   5.908  0.5634 -0.1714  0.0230
 6639SOL    HW131379   0.874   0.836   5.869 -2.1853  0.5612  0.0894
 6639SOL    HW231380   0.806   0.947   5.923  0.0313 -0.7873 -2.0433
 6640SOL     OW31381   1.911   2.942   7.469  0.3125 -0.3311  0.1026
 6640SOL    HW131382   1.913   2.846   7.469 -1.7995 -0.3943 -2.0883
 6640SOL    HW231383   1.819   2.957   7.491  0.7104  1.7682  0.3059
 6641SOL     OW31384   3.491   2.121   1.882 -0.0254 -0.5873  0.2027
 6641SOL    HW131385   3.523   2.046   1.831  1.4999  0.7653 -0.8261
 6641SOL    HW231386   3.434   2.174   1.826  0.5188  2.6822  2.7603
 6642SOL     OW31387   0.808   1.388  11.910 -0.1949 -0.0878 -0.3698
 6642SOL    HW131388   0.774   1.310  11.955 -0.6460  0.3830  0.1097
 6642SOL    HW231389   0.742   1.457  11.921 -0.6807 -0.4702 -0.8739
 6643SOL     OW31390   3.250   4.688  11.839  0.1928 -0.2574  0.2447
 6643SOL    HW131391   3.321   4.635  11.803  0.1740 -0.9589  1.2477
 6643SOL    HW231392   3.295   4.724  11.915  2.7126  2.4984 -2.5394
 6644SOL     OW31393   2.950   0.458   7.688 -0.1686 -0.5012 -0.1100
 6644SOL    HW131394   2.885   0.527   7.705 -0.1705 -0.6258  0.3920
 6644SOL    HW231395   2.998   0.465   7.771 -1.8801 -1.3662  0.9594
 6645SOL     OW31396   4.540   3.531   1.829 -0.0862  0.2535 -0.3830
 6645SOL    HW131397   4.501   3.568   1.750 -3.1724 -1.0034  0.5424
 6645SOL    HW231398   4.593   3.600   1.869  0.2873 -0.5620  0.5322
 6646SOL     OW31399   1.536   2.702  12.505 -0.0910 -0.1427  0.1617
 6646SOL    HW131400   1.471   2.661  12.562 -0.1809  0.3477  0.4093
 6646SOL    HW231401   1.559   2.625  12.452 -0.7197 -1.2664  1.5400
 6647SOL     OW31402   1.082   1.245   9.128 -0.2690  0.5610  0.2541
 6647SOL    HW131403   1.111   1.154   9.138 -3.0981 -0.5240 -1.2759
 6647SOL    HW231404   1.138   1.280   9.059 -0.1165 -2.0187 -0.9140
 6648SOL     OW31405   2.816   2.938   2.153  0.2631 -0.3224 -0.0102
 6648SOL    HW131406   2.892   2.968   2.202  0.0229  0.1434  0.0797
 6648SOL    HW231407   2.750   2.935   2.222 -1.9962  0.2848 -2.1519
 6649SOL     OW31408   1.990   1.117   7.437 -0.2005  0.4830 -0.1840
 6649SOL    HW131409   2.016   1.162   7.517 -1.0212 -2.7214  1.9058
 6649SOL    HW231410   2.069   1.129   7.384 -0.1274 -0.3140 -0.2583
 6650SOL     OW31411   0.239   4.388  11.774  0.7754 -0.0064  0.2108
 6650SOL    HW131412   0.199   4.467  11.737 -1.0337 -0.2338  1.6622
 6650SOL    HW231413   0.223   4.418  11.864 -1.4185  2.3364 -0.9738
 6651SOL     OW31414   3.269   3.288  10.804  0.1086 -0.1140  0.3931
 6651SOL    HW131415   3.248   3.379  10.782  0.9203  0.0871  0.4501
 6651SOL    HW231416   3.340   3.266  10.744  2.1186  2.3459  1.8670
 6652SOL     OW31417   1.679   0.153  17.173  0.3756  0.4958  0.2917
 6652SOL    HW131418   1.754   0.153  17.114  1.6138  0.2300  1.8551
 6652SOL    HW231419   1.717   0.220  17.231  0.7069 -0.1517  0.8223
 6653SOL     OW31420   4.228   3.371   0.543  0.6280  0.1013 -0.0100
 6653SOL    HW131421   4.190   3.458   0.536  2.5767  0.8733 -1.2136
 6653SOL    HW231422   4.305   3.384   0.599  1.3844 -0.7732 -0.8502
 6654SOL     OW31423   2.114   1.423   5.286  0.0198 -0.2107 -0.2026
 6654SOL    HW131424   2.028   1.399   5.251  0.7469 -2.4046 -0.4960
 6654SOL    HW231425   2.110   1.376   5.369 -0.3270  0.8253  0.3744
 6655SOL     OW31426   2.091   2.103   3.724  0.1797  0.1555 -0.5533
 6655SOL    HW131427   2.172   2.053   3.734  0.4604  0.9871  1.2869
 6655SOL    HW231428   2.028   2.031   3.722 -0.0173  0.3027  0.5997
 6656SOL     OW31429   2.505   0.818   7.958 -0.3807  0.1886  0.0831
 6656SOL    HW131430   2.544   0.864   8.032 -0.3614 -0.8770  0.7314
 6656SOL    HW231431   2.423   0.866   7.943  0.0055  1.2274  1.3334
 6657SOL     OW31432   2.826   3.275   2.434  0.0620  0.0440  0.0942
 6657SOL    HW131433   2.763   3.330   2.388 -1.4074  0.2541  2.3446
 6657SOL    HW231434   2.776   3.265   2.515  1.3977 -1.4324  0.7442
 6658SOL     OW31435   0.366   3.563   5.745  0.2469 -0.6803 -0.2117
 6658SOL    HW131436   0.286   3.593   5.703 -0.2023  0.5648  1.5371
 6658SOL    HW231437   0.377   3.484   5.692 -0.4235 -1.3015  0.5610
 6659SOL     OW31438   0.775   0.870   7.527 -0.0059 -0.1955 -0.4004
 6659SOL    HW131439   0.792   0.921   7.448 -0.2300  2.5070  1.3126
 6659SOL    HW231440   0.799   0.925   7.602 -1.4887  2.3568 -1.8268
 6660SOL     OW31441   4.549   1.533   7.399  0.5804  0.0334  0.6496
 6660SOL    HW131442   4.618   1.536   7.332  0.2820  0.9389  0.3793
 6660SOL    HW231443   4.599   1.574   7.470  0.7867  2.4217 -0.8519
 6661SOL     OW31444   0.939   3.333   1.779 -0.1432  0.4879 -0.1456
 6661SOL    HW131445   0.969   3.389   1.708 -0.8628  1.9657  0.7255
 6661SOL    HW231446   0.925   3.254   1.726 -0.2215  1.4551 -1.5785
 6662SOL     OW31447   4.303   0.312   8.574 -0.0387  0.3558 -0.4581
 6662SOL    HW131448   4.273   0.253   8.505 -1.5512 -0.4779  0.9295
 6662SOL    HW231449   4.361   0.252   8.622 -1.8963 -0.9768  0.1152
 6663SOL     OW31450   4.389   4.661   1.762 -0.2162 -0.0812  0.0214
 6663SOL    HW131451   4.479   4.628   1.764  0.4285  1.5934 -2.1294
 6663SOL    HW231452   4.393   4.680   1.669  1.7899  1.2261  0.3626
 6664SOL     OW31453   2.138   2.533   9.047 -0.0423 -0.3377  0.3520
 6664SOL    HW131454   2.102   2.603   8.991 -0.6896 -0.3958  0.7057
 6664SOL    HW231455   2.101   2.452   9.012  0.5878 -1.3155  1.9633
 6665SOL     OW31456   0.581   4.206   9.910 -0.8812  0.5340 -0.1956
 6665SOL    HW131457   0.635   4.135   9.944  0.2243  0.8568 -1.2919
 6665SOL    HW231458   0.498   4.157   9.910 -1.6915  1.8883 -2.2658
 6666SOL     OW31459   0.851   2.826   1.731  0.6519 -0.5802 -0.6082
 6666SOL    HW131460   0.773   2.795   1.777 -0.2074  0.3046 -1.4666
 6666SOL    HW231461   0.920   2.784   1.783  0.2846  0.3025  0.5806
 6667SOL     OW31462   1.601   4.246   1.868 -0.1364  0.0143 -0.0120
 6667SOL    HW131463   1.620   4.299   1.790 -2.4541 -1.1906 -1.4019
 6667SOL    HW231464   1.558   4.306   1.929  0.6095  2.2424 -1.6758
 6668SOL     OW31465   0.847   4.450   3.764  0.0503 -0.6980 -0.3336
 6668SOL    HW131466   0.907   4.386   3.803  0.7590 -0.8089 -1.6030
 6668SOL    HW231467   0.845   4.412   3.676  0.0614  2.0900 -1.5482
 6669SOL     OW31468   0.007   3.673   4.575  0.2527  0.2858 -0.6167
 6669SOL    HW131469   4.639   3.653   4.565  0.0213  1.9408 -1.7712
 6669SOL    HW231470   0.017   3.659   4.669 -1.2736 -2.7355 -0.9091
 6670SOL     OW31471   4.202   0.217   5.072  0.1442 -0.7851 -0.1863
 6670SOL    HW131472   4.265   0.176   5.131 -0.6904  0.2193  1.4158
 6670SOL    HW231473   4.244   0.190   4.990 -0.8423  0.9298 -1.2419
 6671SOL     OW31474   3.726   4.533   1.742  0.6136  0.1182 -0.2396
 6671SOL    HW131475   3.708   4.574   1.827 -1.5408 -1.4313  0.0781
 6671SOL    HW231476   3.711   4.441   1.766  0.5788  0.2786  0.3717
 6672SOL     OW31477   1.829   1.659   7.623 -0.0266  0.3994 -0.7575
 6672SOL    HW131478   1.912   1.704   7.611  0.6898  0.0080  2.7457
 6672SOL    HW231479   1.774   1.720   7.573 -1.9107  0.3948  1.2954
 6673SOL     OW31480   0.280   3.331   1.045  0.0790  0.4977 -0.0627
 6673SOL    HW131481   0.217   3.289   0.987  2.7958 -1.1546 -1.8591
 6673SOL    HW231482   0.290   3.416   1.003 -0.5161  1.5683  1.9727
 6674SOL     OW31483   3.495   2.710   7.941  0.5567  0.1958 -0.5642
 6674SOL    HW131484   3.441   2.640   7.978  1.0841 -0.6289 -1.3453
 6674SOL    HW231485   3.478   2.705   7.847 -2.3314  0.9724 -0.0859
 6675SOL     OW31486   3.773   1.465   7.020 -0.6304  0.0519  0.3579
 6675SOL    HW131487   3.855   1.513   7.029 -0.5673 -0.1139  0.6843
 6675SOL    HW231488   3.726   1.525   7.078  0.9697  1.0167  0.6638
 6676SOL     OW31489   0.943   3.194   6.799  0.0325 -0.0884 -0.7509
 6676SOL    HW131490   0.953   3.273   6.852 -1.5580  1.1900 -2.3500
 6676SOL    HW231491   1.014   3.198   6.735  0.1348  0.2220 -0.6193
 6677SOL     OW31492   2.336   0.249   3.010  0.2083  0.5030  0.4061
 6677SOL    HW131493   2.276   0.297   2.953 -1.4739  0.6942  2.3312
 6677SOL    HW231494   2.420   0.292   2.997 -0.0629  0.6677 -0.8172
 6678SOL     OW31495   1.547   3.732   7.788  0.5597  0.7824 -0.7120
 6678SOL    HW131496   1.534   3.640   7.810 -0.2738  1.2423  0.7620
 6678SOL    HW231497   1.617   3.756   7.849  0.5826  0.5119 -0.6290
 6679SOL     OW31498   3.581   3.326   5.113 -0.1127 -0.4369 -0.5663
 6679SOL    HW131499   3.661   3.378   5.119 -1.1040  1.1934 -1.6395
 6679SOL    HW231500   3.608   3.254   5.056  0.7333  1.1160 -2.1405
 6680SOL     OW31501   1.864   0.681   6.182  0.2738  0.4777  0.2130
 6680SOL    HW131502   1.944   0.635   6.158  0.3002  0.2406  0.7761
 6680SOL    HW231503   1.807   0.668   6.106 -0.4310 -0.4599  0.9072
 6681SOL     OW31504   0.459   0.446   2.459  0.0139  0.4558 -0.1608
 6681SOL    HW131505   0.500   0.454   2.373 -0.6794 -2.9028 -0.8001
 6681SOL    HW231506   0.501   0.517   2.508 -1.4299  1.0379  0.2379
 6682SOL     OW31507   4.321   0.720   6.859  0.4889  0.0082 -0.4149
 6682SOL    HW131508   4.251   0.702   6.795 -0.3045 -1.6239  0.9083
 6682SOL    HW231509   4.296   0.667   6.935  3.0725  0.9934  1.0990
 6683SOL     OW31510   0.684   3.237   0.058 -0.3470 -0.4058  0.3452
 6683SOL    HW131511   0.668   3.161   0.114  0.0129  1.2439  2.6853
 6683SOL    HW231512   0.765   3.267   0.099 -0.6389  2.4140 -1.1807
 6684SOL     OW31513   4.075   1.870   5.209  0.0733 -0.3151  0.2004
 6684SOL    HW131514   4.029   1.871   5.293 -3.0791  0.0019 -1.5569
 6684SOL    HW231515   4.013   1.899   5.143 -0.3335 -1.6378  0.0154
 6685SOL     OW31516   1.134   1.408   6.260  0.1999  0.4912 -0.0414
 6685SOL    HW131517   1.104   1.433   6.172 -0.6331  0.5692  0.2592
 6685SOL    HW231518   1.227   1.400   6.240  0.4045  1.9646  0.3193
 6686SOL     OW31519   0.888   4.474   2.296 -0.0740 -0.1330  0.0663
 6686SOL    HW131520   0.809   4.441   2.338 -0.4559 -1.1220 -1.4671
 6686SOL    HW231521   0.924   4.394   2.257 -2.7393 -1.4420  0.3154
 6687SOL     OW31522   0.438   3.078   5.829  0.2550 -0.3036 -0.1795
 6687SOL    HW131523   0.374   3.017   5.866 -1.3877  1.8028  0.3920
 6687SOL    HW231524   0.494   3.018   5.779 -0.7332 -0.4469 -1.1050
 6688SOL     OW31525   1.954   1.588   2.738 -0.3416  0.0466  0.0346
 6688SOL    HW131526   2.027   1.623   2.687  0.1502  0.0061  0.7171
 6688SOL    HW231527   1.908   1.669   2.761  1.4457  0.1465  3.2265
 6689SOL     OW31528   1.554   0.646  10.845 -0.2600 -0.6413 -0.5601
 6689SOL    HW131529   1.524   0.710  10.910  2.3081  0.2807 -0.2929
 6689SOL    HW231530   1.532   0.698  10.767 -0.5463 -0.1736 -0.1725
 6690SOL     OW31531   4.536   3.536  11.397 -0.0095 -0.2474 -0.0814
 6690SOL    HW131532   4.504   3.447  11.382  0.9955 -0.0649 -3.2447
 6690SOL    HW231533   4.630   3.519  11.402 -0.2171 -1.4163 -0.2289
 6691SOL     OW31534   1.882   0.195   0.705 -0.3712  0.4818 -0.0117
 6691SOL    HW131535   1.975   0.214   0.713 -0.5032  1.0476  0.1578
 6691SOL    HW231536   1.860   0.140   0.780  0.3771  0.1167 -0.0598
 6692SOL     OW31537   2.802   4.171   9.441  0.0122 -0.4427  0.1894
 6692SOL    HW131538   2.879   4.227   9.432 -0.0880 -0.7035 -2.2531
 6692SOL    HW231539   2.839   4.113   9.508  0.3588 -0.6118 -0.1487
 6693SOL     OW31540   0.031   3.436   7.809  0.0122 -0.0349 -0.1901
 6693SOL    HW131541   0.098   3.375   7.841 -0.3067 -1.3305 -1.9771
 6693SOL    HW231542   0.087   3.508   7.780 -1.5176  0.2194 -2.5441
 6694SOL     OW31543   3.683   2.997   8.378 -0.5237  0.2040  0.1468
 6694SOL    HW131544   3.653   3.085   8.401 -0.0775 -0.2885  2.5964
 6694SOL    HW231545   3.618   2.989   8.307  0.5144  0.1095 -0.7980
 6695SOL     OW31546   2.326   1.324   5.024 -0.0135  0.2502  0.5861
 6695SOL    HW131547   2.259   1.281   5.078  0.4376 -1.8702 -0.5393
 6695SOL    HW231548   2.285   1.393   4.972  0.5484 -0.7958 -1.2539
 6696SOL     OW31549   4.367   0.039   5.177 -0.4043  0.0560 -0.2944
 6696SOL    HW131550   4.458   0.008   5.179 -1.0979 -1.9192  0.8028
 6696SOL    HW231551   4.357   0.025   5.271 -0.8184  2.1333 -0.0350
 6697SOL     OW31552   1.975   4.318   1.919  0.3537  0.4741  0.0858
 6697SOL    HW131553   1.922   4.397   1.908 -0.7377 -0.3753 -0.8089
 6697SOL    HW231554   2.047   4.349   1.974 -1.4008  1.9249  1.6142
 6698SOL     OW31555   1.618   2.360   8.444  0.2064 -0.0772 -0.1020
 6698SOL    HW131556   1.696   2.378   8.390  1.4388 -1.6099  1.1764
 6698SOL    HW231557   1.593   2.280   8.398 -0.1663 -0.2295  0.3687
 6699SOL     OW31558   1.218   0.428   3.824 -0.3257 -0.0126  0.0396
 6699SOL    HW131559   1.132   0.441   3.864  0.9796 -0.3250  3.0075
 6699SOL    HW231560   1.215   0.334   3.810 -0.7454 -0.1130  0.8448
 6700SOL     OW31561   1.935   2.205   1.905 -0.3014  0.4132  0.6791
 6700SOL    HW131562   1.938   2.110   1.912 -0.6361  0.5796  3.0068
 6700SOL    HW231563   1.918   2.226   1.996 -1.5220  1.3863  0.2274
 6701SOL     OW31564   2.277   1.649  14.657 -0.2081  0.3213 -0.1121
 6701SOL    HW131565   2.218   1.720  14.628  0.7307  0.7432 -0.9989
 6701SOL    HW231566   2.266   1.583  14.588  0.9129  0.2967 -0.2582
 6702SOL     OW31567   3.521   2.327   0.429 -0.4237  0.4092  0.4117
 6702SOL    HW131568   3.445   2.356   0.478 -0.9002 -0.2382  0.0464
 6702SOL    HW231569   3.544   2.394   0.364  1.9555  0.1232  0.9532
 6703SOL     OW31570   0.026   2.684   8.946  0.4576  0.6558  0.2264
 6703SOL    HW131571   4.719   2.607   8.993  1.2822  0.3997  0.3572
 6703SOL    HW231572   0.010   2.643   8.861  1.4161  2.1598 -0.6904
 6704SOL     OW31573   2.639   4.434   3.988 -0.0109  0.2930  0.8137
 6704SOL    HW131574   2.619   4.492   3.915  3.5733  0.5805  0.0714
 6704SOL    HW231575   2.610   4.349   3.953 -0.0663  0.6533 -0.0130
 6705SOL     OW31576   1.980   4.342  13.481  0.4008 -0.2865 -0.4435
 6705SOL    HW131577   1.995   4.250  13.505 -3.7345 -0.5910  1.0506
 6705SOL    HW231578   2.023   4.345  13.396  0.4582 -0.4083 -0.4192
 6706SOL     OW31579   4.719   0.497   8.880 -0.3714  0.1389 -0.0543
 6706SOL    HW131580   4.647   0.439   8.855  2.2479 -2.4355 -1.5830
 6706SOL    HW231581   4.707   0.488   8.974 -1.6547 -1.0889 -0.3512
 6707SOL     OW31582   0.837   0.931   9.122 -0.2903 -0.6053 -0.3745
 6707SOL    HW131583   0.749   0.902   9.147 -0.1540  0.0597  0.8813
 6707SOL    HW231584   0.822   0.959   9.032 -0.6953 -2.1140 -0.7720
 6708SOL     OW31585   1.535   4.326   7.186 -0.0054 -0.1255 -0.1284
 6708SOL    HW131586   1.496   4.364   7.108 -0.0223 -1.2343 -0.6648
 6708SOL    HW231587   1.564   4.397   7.243 -0.9753  0.5060 -0.4278
 6709SOL     OW31588   1.245   3.657   3.135  0.3977  0.3489 -0.0451
 6709SOL    HW131589   1.289   3.604   3.069  0.4191 -0.5033  0.6469
 6709SOL    HW231590   1.182   3.701   3.078 -0.4452  0.3289  0.8551
 6710SOL     OW31591   4.305   3.953   3.023  0.7389 -0.3199 -0.6065
 6710SOL    HW131592   4.393   3.916   3.014  0.8067 -0.0693 -0.9967
 6710SOL    HW231593   4.313   3.999   3.106 -0.9848  0.4994 -0.8811
 6711SOL     OW31594   1.348   2.305  13.525 -0.2028 -0.5188 -0.5605
 6711SOL    HW131595   1.304   2.283  13.607  1.3052  3.3094  1.2495
 6711SOL    HW231596   1.418   2.361  13.560 -1.2292  1.4471 -1.6346
 6712SOL     OW31597   1.086   0.231   2.004 -0.0371  0.6577 -0.4892
 6712SOL    HW131598   1.115   0.192   2.087  0.6767 -0.9142 -1.4894
 6712SOL    HW231599   1.122   0.170   1.940  0.4705  0.7269 -0.2685
 6713SOL     OW31600   0.072   2.083   8.340 -0.5274 -0.1485 -0.2661
 6713SOL    HW131601   0.136   2.135   8.388 -0.8875  1.3811 -1.4395
 6713SOL    HW231602   4.718   2.139   8.338  0.6228  1.4421 -0.3635
 6714SOL     OW31603   0.472   3.893   8.172  0.4721  0.3026 -0.1513
 6714SOL    HW131604   0.453   3.977   8.212 -2.4758 -0.6899  0.5155
 6714SOL    HW231605   0.508   3.839   8.243 -0.7974 -1.2992 -0.7183
 6715SOL     OW31606   1.980   3.351   6.700 -0.1352  0.5650 -0.0400
 6715SOL    HW131607   1.988   3.308   6.614  0.0347 -1.9040  1.2001
 6715SOL    HW231608   1.975   3.441   6.670 -0.1719  0.7931  0.6494
 6716SOL     OW31609   0.992   0.316  15.578 -0.1855 -0.6007 -0.1343
 6716SOL    HW131610   1.007   0.410  15.571 -0.3753 -0.5464  0.1801
 6716SOL    HW231611   0.923   0.314  15.511 -1.4881 -1.8725  1.2456
 6717SOL     OW31612   2.711   2.455   4.345  0.1413 -0.5466  0.0666
 6717SOL    HW131613   2.781   2.520   4.354 -1.4529  1.4677 -1.8391
 6717SOL    HW231614   2.776   2.390   4.320 -0.5523 -1.6052  1.0280
 6718SOL     OW31615   2.153   4.210  13.766 -0.6043  0.7884  0.1659
 6718SOL    HW131616   2.123   4.148  13.700 -0.3770 -1.6388  2.3567
 6718SOL    HW231617   2.241   4.182  13.788 -1.2595 -1.8837 -0.5585
 6719SOL     OW31618   3.350   2.364   6.146 -0.3119 -0.4286 -0.5601
 6719SOL    HW131619   3.362   2.361   6.241 -1.2315 -3.2680 -0.5483
 6719SOL    HW231620   3.257   2.345   6.145 -0.6515  1.3383 -3.0582
 6720SOL     OW31621   2.411   0.048   6.937  0.4235  0.2463  0.5496
 6720SOL    HW131622   2.468   0.055   6.860  0.6815 -0.7932  0.6446
 6720SOL    HW231623   2.356   4.697   6.920  0.1799  0.0575  2.1241
 6721SOL     OW31624   3.871   2.708  17.365  0.1648  0.1662  0.6847
 6721SOL    HW131625   3.854   2.773  17.433 -0.3291  1.3725 -0.5911
 6721SOL    HW231626   3.884   2.772  17.296  0.5772 -0.4581  0.1869
 6722SOL     OW31627   3.251   0.146   4.123 -0.5438  0.3486  0.0929
 6722SOL    HW131628   3.191   0.221   4.121 -3.3041 -1.8825 -0.3617
 6722SOL    HW231629   3.222   0.107   4.040  2.2395  0.5906 -1.0155
 6723SOL     OW31630   0.263   3.173   6.679 -0.2006 -0.3926  1.0420
 6723SOL    HW131631   0.288   3.262   6.655 -1.9879 -0.2265 -0.1677
 6723SOL    HW231632   0.347   3.128   6.688  0.4025  0.6630  0.7244
 6724SOL     OW31633   4.036   3.137   2.126 -0.0217  0.4532  0.0196
 6724SOL    HW131634   4.131   3.145   2.119 -0.0193  0.2331 -0.2085
 6724SOL    HW231635   4.023   3.078   2.052 -0.8811  1.3938 -0.5758
 6725SOL     OW31636   0.897   3.169   5.276  0.1694 -0.2697  0.1350
 6725SOL    HW131637   0.811   3.144   5.311  0.3273 -0.1935  0.5728
 6725SOL    HW231638   0.935   3.082   5.264  0.8070  0.1166 -0.6692
 6726SOL     OW31639   4.083   2.238  10.645  0.2126  0.1876  0.6120
 6726SOL    HW131640   4.153   2.283  10.597  0.5942  0.1634  1.1484
 6726SOL    HW231641   4.016   2.276  10.589 -0.8280 -2.9612 -0.2864
 6727SOL     OW31642   1.792   2.136  13.966  0.1893  0.2025 -0.1577
 6727SOL    HW131643   1.826   2.223  13.950 -0.1727  0.8324  2.4066
 6727SOL    HW231644   1.866   2.089  13.929 -0.0831  0.7379 -1.3689
 6728SOL     OW31645   3.813   3.186   8.198  0.1272 -0.3895  0.2493
 6728SOL    HW131646   3.872   3.194   8.273  0.1932 -0.6797  0.2265
 6728SOL    HW231647   3.740   3.241   8.228 -0.9123 -1.6765  0.0433
 6729SOL     OW31648   0.559   4.176  12.984  0.1222  0.4222  0.2062
 6729SOL    HW131649   0.640   4.155  13.029 -0.5847  1.1511  1.8260
 6729SOL    HW231650   0.498   4.202  13.054 -1.1818 -1.5988 -0.1953
 6730SOL     OW31651   2.870   4.301   3.538  0.6608  0.4982  0.2726
 6730SOL    HW131652   2.824   4.262   3.463  0.6473 -0.1629  0.6298
 6730SOL    HW231653   2.919   4.224   3.566 -0.3241 -0.1518  0.2019
 6731SOL     OW31654   0.155   3.928   5.414  0.3770  0.2591  0.1491
 6731SOL    HW131655   0.190   3.945   5.327  1.8243 -1.9797  0.3035
 6731SOL    HW231656   0.176   4.004   5.468 -2.9581  1.0091  0.3857
 6732SOL     OW31657   4.094   0.473   2.433 -0.2609 -0.5426 -0.6153
 6732SOL    HW131658   4.100   0.381   2.406  1.8715  0.2794 -2.9679
 6732SOL    HW231659   4.074   0.506   2.345  2.3815  1.1713 -0.5791
 6733SOL     OW31660   2.886   3.434   0.359  0.3815  0.1721  0.7085
 6733SOL    HW131661   2.910   3.517   0.318 -1.1627  0.2932  0.0404
 6733SOL    HW231662   2.861   3.474   0.442  0.6117  1.1552  0.3026
 6734SOL     OW31663   1.840   4.350  14.162  0.0281 -0.3016 -0.3067
 6734SOL    HW131664   1.899   4.282  14.132 -1.0068 -1.0201 -0.7049
 6734SOL    HW231665   1.800   4.377  14.079  0.1741  0.1647 -0.2284
 6735SOL     OW31666   4.406   0.590  10.549 -0.5911  0.3770 -0.4368
 6735SOL    HW131667   4.360   0.654  10.604 -0.8300 -0.8747  0.8113
 6735SOL    HW231668   4.427   0.523  10.614  0.3908 -0.5796 -1.7470
 6736SOL     OW31669   1.836   1.049   4.440 -0.1610 -0.9000 -0.1389
 6736SOL    HW131670   1.778   1.058   4.364 -0.7085 -2.3967  0.1013
 6736SOL    HW231671   1.886   0.971   4.418  0.9717 -0.9868  2.7673
 6737SOL     OW31672   0.396   3.685   4.831  0.1992 -0.3225 -0.4189
 6737SOL    HW131673   0.443   3.680   4.748 -1.8186  0.6531 -1.6163
 6737SOL    HW231674   0.340   3.762   4.822 -1.6579 -1.8343 -1.8216
 6738SOL     OW31675   2.203   2.233   8.305 -0.2026  0.0893  0.2700
 6738SOL    HW131676   2.193   2.261   8.396 -1.5684  1.2662 -0.2347
 6738SOL    HW231677   2.116   2.254   8.271 -0.6165 -2.5034 -0.2673
 6739SOL     OW31678   2.234   1.077   5.332  0.1924  0.2840 -0.0364
 6739SOL    HW131679   2.292   1.135   5.381  1.0642 -1.1772  0.6881
 6739SOL    HW231680   2.305   1.022   5.299  2.1479  2.7722  0.0253
 6740SOL     OW31681   4.499   3.247  12.249 -0.1826  0.6763 -0.2624
 6740SOL    HW131682   4.408   3.274  12.258 -0.0150  1.4611 -0.9827
 6740SOL    HW231683   4.491   3.162  12.291 -0.6362  1.2345  0.7847
 6741SOL     OW31684   4.412   1.139   7.547  0.3877 -0.0107  0.0078
 6741SOL    HW131685   4.403   1.212   7.487 -0.0843 -0.5255 -0.5507
 6741SOL    HW231686   4.330   1.090   7.558  0.1213  0.6903  1.2495
 6742SOL     OW31687   3.078   4.710   0.952  0.6630  0.5406 -0.3088
 6742SOL    HW131688   3.109   4.668   0.872  1.5875  1.8482 -0.6442
 6742SOL    HW231689   3.139   4.663   1.009 -0.1766 -0.2494 -0.0579
 6743SOL     OW31690   2.012   0.926   7.717 -0.0262 -0.3370 -0.8125
 6743SOL    HW131691   1.964   1.005   7.742  2.2867  0.0106  2.4276
 6743SOL    HW231692   1.982   0.920   7.626 -1.5134  0.7989 -0.4042
 6744SOL     OW31693   3.726   0.368   1.671  0.7618  0.1792 -0.3891
 6744SOL    HW131694   3.787   0.424   1.719  1.7834  0.5143 -2.0810
 6744SOL    HW231695   3.779   0.289   1.663  0.4993  0.2214 -2.5381
 6745SOL     OW31696   2.669   0.205   0.927  0.0753  0.0179  0.1588
 6745SOL    HW131697   2.752   0.226   0.969  1.2090 -1.0353 -1.5770
 6745SOL    HW231698   2.621   0.168   1.001 -1.2419 -0.5568 -0.9766
 6746SOL     OW31699   0.484   3.771   2.802 -0.3456 -0.0401  0.2654
 6746SOL    HW131700   0.392   3.745   2.801 -1.0438  2.4200  0.2879
 6746SOL    HW231701   0.499   3.820   2.883  2.8656  1.2740 -1.0902
 6747SOL     OW31702   0.447   0.413   2.844 -0.5074  0.3781  0.3290
 6747SOL    HW131703   0.363   0.374   2.870 -0.9878  1.3740  0.2568
 6747SOL    HW231704   0.490   0.329   2.826 -0.1477  0.1850  2.0155
 6748SOL     OW31705   2.722   3.302  12.479  0.3318  0.2047  0.3750
 6748SOL    HW131706   2.748   3.305  12.571  0.4217  0.3812  0.3438
 6748SOL    HW231707   2.691   3.391  12.462  1.3321  0.7064  1.1967
 6749SOL     OW31708   3.855   0.901   3.981  0.0466  0.0091  0.6656
 6749SOL    HW131709   3.872   0.809   3.962 -2.2191 -0.4888  1.0500
 6749SOL    HW231710   3.764   0.891   4.010 -0.8086  0.4852 -1.8750
 6750SOL     OW31711   1.621   2.485  11.015  0.2493  0.0525  0.3277
 6750SOL    HW131712   1.534   2.484  11.057 -0.8861 -2.8105 -2.0966
 6750SOL    HW231713   1.670   2.538  11.078  2.5790 -0.1581 -1.3230
 6751SOL     OW31714   3.241   4.390   5.291  0.0615 -0.0895  0.0433
 6751SOL    HW131715   3.215   4.318   5.347  0.8130 -2.9248 -3.2207
 6751SOL    HW231716   3.311   4.357   5.234  0.3670 -0.8062  0.8457
 6752SOL     OW31717   3.913   4.164   6.551 -0.1904  0.1124  0.3189
 6752SOL    HW131718   3.944   4.193   6.466 -1.5718 -0.2514 -0.3099
 6752SOL    HW231719   3.838   4.222   6.563  0.2081  0.0069  3.5373
 6753SOL     OW31720   0.510   2.065  11.628  0.5142  0.1476 -0.1476
 6753SOL    HW131721   0.494   1.973  11.605  0.6545 -0.7401  3.3168
 6753SOL    HW231722   0.601   2.087  11.608  0.5407  2.7140  2.8183
 6754SOL     OW31723   3.706   4.510   7.358 -0.1806 -0.0931  0.4534
 6754SOL    HW131724   3.655   4.455   7.417 -1.8680  1.2727  0.2601
 6754SOL    HW231725   3.771   4.446   7.328  0.2312  0.0855  0.9785
 6755SOL     OW31726   2.958   4.137   2.748 -0.4073  1.2216 -0.5642
 6755SOL    HW131727   2.865   4.116   2.739 -0.2299 -0.9914  2.7719
 6755SOL    HW231728   2.971   4.219   2.701  1.5624  0.4716 -1.3540
 6756SOL     OW31729   4.042   0.429   2.705 -0.0450 -0.5593 -0.1352
 6756SOL    HW131730   4.108   0.367   2.735 -0.0341 -0.6774 -0.4033
 6756SOL    HW231731   4.073   0.431   2.614 -0.4434 -1.1911 -0.2863
 6757SOL     OW31732   3.902   3.629   4.707 -0.3045  0.4717  0.0895
 6757SOL    HW131733   3.983   3.649   4.755 -0.6279  1.5733  0.1663
 6757SOL    HW231734   3.904   3.672   4.622 -1.5595 -2.4547 -1.4310
 6758SOL     OW31735   1.713   0.599   4.369 -0.0082  0.1656 -0.6989
 6758SOL    HW131736   1.689   0.511   4.397 -0.3126  0.3242 -0.4610
 6758SOL    HW231737   1.723   0.652   4.448  0.5281 -1.1674  0.1263
 6759SOL     OW31738   2.602   1.372   9.977 -0.3759 -0.5326  0.2252
 6759SOL    HW131739   2.546   1.297   9.997  1.3702 -1.8609  0.1357
 6759SOL    HW231740   2.544   1.443  10.005  2.0551  1.0141  1.3304
 6760SOL     OW31741   4.004   2.440   1.313  0.0412  0.1357  0.6931
 6760SOL    HW131742   4.008   2.345   1.329  0.3032  0.0067 -0.1075
 6760SOL    HW231743   3.911   2.453   1.295  0.1524 -1.8422 -1.3883
 6761SOL     OW31744   4.605   0.881   8.289  0.2043 -0.6362  0.1376
 6761SOL    HW131745   4.546   0.830   8.345 -0.7786 -0.2651 -0.5528
 6761SOL    HW231746   4.560   0.964   8.304  0.2019 -0.7974  1.0287
 6762SOL     OW31747   3.878   2.750   2.304 -0.0312  0.7840 -0.0793
 6762SOL    HW131748   3.943   2.815   2.331 -1.3034  2.0118  0.0574
 6762SOL    HW231749   3.908   2.671   2.348 -2.8435 -0.2407  0.0265
 6763SOL     OW31750   3.354   4.245  11.592  0.4157  0.0090  0.3276
 6763SOL    HW131751   3.293   4.193  11.540  1.9329 -0.0235 -1.4317
 6763SOL    HW231752   3.329   4.215  11.679 -1.5322  1.5435  0.2832
 6764SOL     OW31753   3.430   3.906  16.754 -0.4722  0.1302  0.4155
 6764SOL    HW131754   3.428   3.811  16.743  0.1732  0.0981  0.6171
 6764SOL    HW231755   3.352   3.942  16.711 -0.9002 -1.4304 -0.1119
 6765SOL     OW31756   3.898   1.100  16.326 -0.0860  0.3826 -0.0528
 6765SOL    HW131757   3.906   1.098  16.231  0.9071 -0.0759  0.0436
 6765SOL    HW231758   3.957   1.170  16.355  0.1824 -0.2719  1.0070
 6766SOL     OW31759   4.497   0.223  11.246  0.3164  0.0482  0.2487
 6766SOL    HW131760   4.589   0.195  11.248  0.0726 -0.8248 -1.0832
 6766SOL    HW231761   4.499   0.285  11.319 -1.5539  0.2756  0.1034
 6767SOL     OW31762   2.657   1.339  11.041  0.5057  0.1221 -0.2773
 6767SOL    HW131763   2.711   1.392  11.099  2.9067 -2.4791 -0.1221
 6767SOL    HW231764   2.653   1.264  11.101  0.7644  0.9562  0.7846
 6768SOL     OW31765   3.670   2.189   1.671 -0.4049  0.2799  0.2896
 6768SOL    HW131766   3.677   2.096   1.649  1.0749  0.2442  0.8963
 6768SOL    HW231767   3.618   2.185   1.751  0.7819 -2.2034  0.9533
 6769SOL     OW31768   4.102   4.375  11.271  0.5697 -0.0369  0.0300
 6769SOL    HW131769   4.085   4.372  11.365 -1.0289 -1.2512 -0.2969
 6769SOL    HW231770   4.020   4.361  11.224  0.6999  1.8172 -0.7506
 6770SOL     OW31771   3.787   4.391   3.229 -0.9489  0.2742 -0.2640
 6770SOL    HW131772   3.857   4.340   3.187 -0.1504 -1.0043  2.6124
 6770SOL    HW231773   3.782   4.462   3.165 -0.5618 -0.1597 -0.7758
 6771SOL     OW31774   0.948   3.115  15.096  0.0339  0.6563  0.1450
 6771SOL    HW131775   1.034   3.153  15.114 -0.1739  0.1831  2.1656
 6771SOL    HW231776   0.945   3.063  15.177  1.7448 -0.2441 -0.3946
 6772SOL     OW31777   3.381   2.472   2.026  1.0386  0.0780 -0.1240
 6772SOL    HW131778   3.363   2.394   2.079  0.4024  1.0479  1.1077
 6772SOL    HW231779   3.290   2.501   2.035  1.5093  1.7845 -0.9543
 6773SOL     OW31780   2.145   2.627   8.421  0.1650  0.1563  0.1047
 6773SOL    HW131781   2.109   2.647   8.334 -0.8960  1.1853  0.7879
 6773SOL    HW231782   2.211   2.697   8.430 -0.3287  0.6668 -0.2047
 6774SOL     OW31783   3.550   0.169   0.857 -0.7086 -0.0356  0.5490
 6774SOL    HW131784   3.579   0.260   0.847 -1.0565  0.2783  2.4963
 6774SOL    HW231785   3.458   0.177   0.831 -0.7716  0.0117  0.7870
 6775SOL     OW31786   3.491   3.074  16.859  0.1799 -0.1160 -0.3474
 6775SOL    HW131787   3.541   3.013  16.804  0.2324 -0.7450  0.3950
 6775SOL    HW231788   3.448   3.018  16.924 -0.1713 -2.1950 -2.3735
 6776SOL     OW31789   2.338   0.979   9.085 -0.0614  0.2148  0.1693
 6776SOL    HW131790   2.293   1.027   9.154 -0.9605 -0.3855  0.0082
 6776SOL    HW231791   2.402   0.917   9.120  0.8802  0.8359 -0.4748
 6777SOL     OW31792   0.334   3.447   1.386 -0.0098 -0.4725  0.7881
 6777SOL    HW131793   0.283   3.366   1.391 -1.4494  0.3915  0.1642
 6777SOL    HW231794   0.260   3.504   1.367  0.7230  0.4085  0.5943
 6778SOL     OW31795   0.730   4.186   5.023 -0.0839 -0.1539 -0.3856
 6778SOL    HW131796   0.671   4.174   4.948 -1.2486  2.4359  0.1208
 6778SOL    HW231797   0.684   4.137   5.091  2.3612 -2.3937 -0.3346
 6779SOL     OW31798   1.894   3.163   7.923  0.3650 -0.3374  0.2691
 6779SOL    HW131799   1.888   3.198   7.834  1.7431 -1.8838 -0.4116
 6779SOL    HW231800   1.980   3.123   7.909 -0.9538 -2.5526 -1.4461
 6780SOL     OW31801   3.915   1.175   2.781 -0.2137  0.3125 -0.3637
 6780SOL    HW131802   3.977   1.180   2.708  1.0583 -0.3402  0.6711
 6780SOL    HW231803   3.896   1.268   2.791 -0.7888  0.1373  0.1889
 6781SOL     OW31804   4.438   2.771  15.720 -0.0986 -0.2196 -0.4500
 6781SOL    HW131805   4.529   2.796  15.704 -0.9368  2.3056 -1.3325
 6781SOL    HW231806   4.393   2.772  15.635  0.8288  0.0294 -0.9382
 6782SOL     OW31807   3.895   2.618   2.619  0.3051  0.4420 -0.4537
 6782SOL    HW131808   3.834   2.594   2.688  0.5460 -1.5305 -0.9126
 6782SOL    HW231809   3.957   2.667   2.672 -0.2413  0.7922 -0.1412
 6783SOL     OW31810   0.792   0.202   8.602 -0.1463 -0.4373  0.4947
 6783SOL    HW131811   0.789   0.255   8.681 -0.7227 -0.5346  0.5350
 6783SOL    HW231812   0.858   0.261   8.566 -0.2976  0.7051  2.0831
 6784SOL     OW31813   0.120   3.827   2.846  0.3063 -0.3213 -0.2303
 6784SOL    HW131814   0.168   3.793   2.922  0.2057  0.0281 -0.0084
 6784SOL    HW231815   0.158   3.760   2.789  1.3307 -0.6447  0.8095
 6785SOL     OW31816   0.640   2.325  14.619  0.3967 -0.2472 -0.2697
 6785SOL    HW131817   0.656   2.392  14.685  1.7064 -1.9376  1.1587
 6785SOL    HW231818   0.548   2.309  14.637  0.1662 -1.3086 -2.4185
 6786SOL     OW31819   2.569   1.046   6.314  0.1151  0.2705 -0.1782
 6786SOL    HW131820   2.546   1.094   6.234  0.0201  1.3038  0.4671
 6786SOL    HW231821   2.504   0.978   6.331 -1.7896  1.8892 -0.9681
 6787SOL     OW31822   1.894   3.773   8.053  0.3323  0.2929  0.1330
 6787SOL    HW131823   1.921   3.822   7.976  0.6032  0.4607  0.3342
 6787SOL    HW231824   1.888   3.688   8.011 -1.8954  0.3375  0.3896
 6788SOL     OW31825   2.848   0.263  10.136 -0.2897 -0.3491 -0.3828
 6788SOL    HW131826   2.781   0.325  10.107  1.1689  0.4389 -2.0321
 6788SOL    HW231827   2.925   0.318  10.120 -0.2093  0.2538  2.0974
 6789SOL     OW31828   1.481   0.763  13.474 -0.0676  0.4687  0.3043
 6789SOL    HW131829   1.549   0.739  13.411 -0.9571 -1.3166  0.0252
 6789SOL    HW231830   1.455   0.674  13.496  0.1497  0.4476  0.4727
 6790SOL     OW31831   3.477   4.383   4.810 -0.0663  0.2462 -0.5395
 6790SOL    HW131832   3.459   4.463   4.761 -0.7615 -1.3753 -2.9087
 6790SOL    HW231833   3.477   4.310   4.748  3.0037 -0.2803  0.0607
 6791SOL     OW31834   3.559   1.792   7.031  0.0746  0.2586 -0.0811
 6791SOL    HW131835   3.511   1.839   7.098  0.0220 -2.5204  1.8438
 6791SOL    HW231836   3.630   1.748   7.077 -0.5597 -0.6937 -0.0180
 6792SOL     OW31837   3.535   2.867  10.031 -0.1565  0.1038  0.1100
 6792SOL    HW131838   3.597   2.913  10.087  0.8224 -2.1128  0.8115
 6792SOL    HW231839   3.525   2.935   9.964  2.1174 -0.2351 -0.5758
 6793SOL     OW31840   2.324   0.317   8.089  0.1568  0.1770  0.3298
 6793SOL    HW131841   2.406   0.274   8.064  0.6249  1.7419 -0.8429
 6793SOL    HW231842   2.362   0.405   8.083 -1.3513  0.8908  1.2105
 6794SOL     OW31843   2.379   1.054   6.690 -0.0406  0.5671  0.2335
 6794SOL    HW131844   2.400   1.021   6.777  0.3617  0.8814  0.2541
 6794SOL    HW231845   2.294   1.094   6.707  0.4469  0.9877  1.6120
 6795SOL     OW31846   1.890   4.558   8.938 -0.6273 -0.0268  0.4093
 6795SOL    HW131847   1.896   4.640   8.890 -1.0188  0.7320  1.6433
 6795SOL    HW231848   1.814   4.573   8.994 -1.0289  0.8802 -0.3717
 6796SOL     OW31849   1.542   1.949   9.546 -0.0672 -0.8100  0.1542
 6796SOL    HW131850   1.594   2.015   9.592 -0.5374 -0.6268  0.4217
 6796SOL    HW231851   1.507   1.903   9.622 -0.7278  0.3788  0.5669
 6797SOL     OW31852   0.183   4.536   8.064  0.0659  0.3906  0.2796
 6797SOL    HW131853   0.276   4.518   8.048 -0.6466 -1.7702 -1.4656
 6797SOL    HW231854   0.192   4.623   8.104  1.9260  1.2082 -1.9190
 6798SOL     OW31855   4.430   2.145   5.790  0.6159 -0.3228  0.4764
 6798SOL    HW131856   4.337   2.168   5.796  0.9295  1.0284 -0.0836
 6798SOL    HW231857   4.435   2.073   5.727 -1.0139  1.5969 -1.8689
 6799SOL     OW31858   4.607   1.031   7.979 -0.0779  0.3269 -0.0292
 6799SOL    HW131859   4.660   1.089   8.034  0.5342  0.9999 -1.3343
 6799SOL    HW231860   4.629   0.945   8.014  1.0654  1.5620  2.2706
 6800SOL     OW31861   4.085   0.964  12.301 -0.2995  0.1129  0.0079
 6800SOL    HW131862   4.060   1.048  12.341  0.9701  0.5438 -0.1051
 6800SOL    HW231863   4.002   0.916  12.301  0.5808 -1.4132  1.8463
 6801SOL     OW31864   0.953   0.134   0.055 -0.3686 -0.1584 -0.2891
 6801SOL    HW131865   1.042   0.102   0.035  0.9126  2.1481  1.6896
 6801SOL    HW231866   0.904   0.052   0.055  0.4250 -0.6459  2.1502
 6802SOL     OW31867   4.169   4.095   0.617 -0.5782  0.3355  0.0359
 6802SOL    HW131868   4.126   4.018   0.656  0.1817 -1.4113 -2.6126
 6802SOL    HW231869   4.172   4.147   0.697  1.7433 -0.4103  0.4268
 6803SOL     OW31870   4.235   3.151  17.199 -0.3387 -0.3760  0.4541
 6803SOL    HW131871   4.173   3.206  17.152  2.1122  3.6477  2.0045
 6803SOL    HW231872   4.210   3.060  17.181  0.2237 -0.5545  0.5667
 6804SOL     OW31873   1.366   2.598  16.635 -0.0614 -0.4461 -0.2122
 6804SOL    HW131874   1.346   2.574  16.725 -0.8433  0.7331 -0.0663
 6804SOL    HW231875   1.352   2.515  16.588 -2.2555  0.4038 -1.0344
 6805SOL     OW31876   0.787   0.232   2.058 -0.3903 -0.2557 -0.5396
 6805SOL    HW131877   0.876   0.235   2.023 -0.2625  2.6767 -0.0261
 6805SOL    HW231878   0.757   0.145   2.033 -0.4790 -0.2938 -0.3088
 6806SOL     OW31879   3.463   3.061   3.709  0.2034  0.0180  0.3499
 6806SOL    HW131880   3.427   3.148   3.730 -1.2554 -0.2266 -1.1348
 6806SOL    HW231881   3.476   3.026   3.797  1.2012 -1.7009 -0.5066
 6807SOL     OW31882   1.806   3.824   4.334 -0.3645 -0.1265  0.7902
 6807SOL    HW131883   1.722   3.862   4.309 -1.3951 -1.9721  1.4308
 6807SOL    HW231884   1.842   3.893   4.389  1.1538 -0.0549 -0.2791
 6808SOL     OW31885   4.095   2.468   7.420 -0.8587 -0.2349 -0.1624
 6808SOL    HW131886   4.060   2.388   7.460 -1.0617 -0.7249 -1.3219
 6808SOL    HW231887   4.184   2.468   7.453 -1.1986  0.5897  0.7536
 6809SOL     OW31888   3.720   4.147  10.728  0.6928 -0.3805 -0.2242
 6809SOL    HW131889   3.654   4.175  10.665  1.2124  1.3691  0.0003
 6809SOL    HW231890   3.751   4.072  10.678 -0.5436 -0.0461 -1.4747
 6810SOL     OW31891   3.516   2.684   3.703 -0.1279  0.1170  0.1257
 6810SOL    HW131892   3.525   2.682   3.799 -1.8233 -1.3484  0.2454
 6810SOL    HW231893   3.425   2.711   3.698  0.1368  0.6904 -1.5257
 6811SOL     OW31894   1.371   1.766   6.354 -0.1495 -0.4031  0.3036
 6811SOL    HW131895   1.297   1.733   6.405 -0.9367  1.9814  0.7263
 6811SOL    HW231896   1.325   1.783   6.272  0.6986  3.1080  0.5283
 6812SOL     OW31897   1.558   0.358   3.696  0.1442  0.3125  0.0188
 6812SOL    HW131898   1.645   0.371   3.657 -0.4324  2.1309 -0.6777
 6812SOL    HW231899   1.574   0.380   3.788 -0.5436  0.3091  0.1381
 6813SOL     OW31900   2.357   3.209   3.122  0.1226 -0.2233 -0.4526
 6813SOL    HW131901   2.301   3.152   3.174 -0.8319  0.6553 -0.5073
 6813SOL    HW231902   2.426   3.150   3.093  1.2621  0.2504  1.2426
 6814SOL     OW31903   2.096   3.687  10.478  0.8561 -0.1686 -0.4274
 6814SOL    HW131904   2.058   3.604  10.449  0.1300  1.4088 -4.0799
 6814SOL    HW231905   2.184   3.658  10.501  0.2065 -2.6120 -0.9897
 6815SOL     OW31906   1.725   4.605   3.821  0.0086 -0.1556  0.5921
 6815SOL    HW131907   1.795   4.547   3.852  2.1330  1.6262 -0.8817
 6815SOL    HW231908   1.780   4.683   3.828 -1.6250  1.1266 -0.8078
 6816SOL     OW31909   3.117   4.399   6.197 -0.3201 -0.2663  0.2026
 6816SOL    HW131910   3.134   4.450   6.276  1.5064 -0.7421  0.1242
 6816SOL    HW231911   3.154   4.314   6.220 -0.5784 -0.1291  1.1190
 6817SOL     OW31912   3.757   2.415   8.667 -0.2472  0.6518 -0.9332
 6817SOL    HW131913   3.785   2.382   8.752 -0.8985  0.4716 -0.7852
 6817SOL    HW231914   3.821   2.486   8.661 -0.2779  0.8732  1.3783
 6818SOL     OW31915   2.755   3.139  16.312 -0.1811 -0.4389  0.1993
 6818SOL    HW131916   2.727   3.049  16.326  0.8652 -0.8827 -0.4727
 6818SOL    HW231917   2.697   3.199  16.357 -0.9037 -1.6212  0.8271
 6819SOL     OW31918   3.990   0.343   9.591 -0.0942 -0.0130  0.4682
 6819SOL    HW131919   4.041   0.414   9.628 -1.4421  0.6419  1.0794
 6819SOL    HW231920   3.952   0.303   9.669  2.0407  0.6024  1.8247
 6820SOL     OW31921   0.885   1.002   8.177 -0.0447  0.3700  1.1325
 6820SOL    HW131922   0.800   1.000   8.133  0.3713  1.2247  0.2782
 6820SOL    HW231923   0.951   0.959   8.123 -0.0143 -0.4986  1.8668
 6821SOL     OW31924   3.790   1.032   3.337  0.0154  0.4848 -0.2687
 6821SOL    HW131925   3.870   0.978   3.338 -0.1837  0.1843 -0.8089
 6821SOL    HW231926   3.764   1.028   3.245 -1.9121  0.2926  0.3044
 6822SOL     OW31927   2.756   0.535   4.562  0.3939  0.0042  0.0550
 6822SOL    HW131928   2.834   0.482   4.575  0.3329  0.4156  2.0052
 6822SOL    HW231929   2.784   0.622   4.588 -0.6500  0.7024 -1.1244
 6823SOL     OW31930   0.997   3.745   3.858  0.0898  0.1644  0.2311
 6823SOL    HW131931   0.953   3.728   3.775  0.9522 -0.5697 -0.0733
 6823SOL    HW231932   1.085   3.764   3.826  0.3641 -1.3520  0.0950
 6824SOL     OW31933   3.865   1.518  11.799 -0.1872 -0.0286 -0.1662
 6824SOL    HW131934   3.850   1.473  11.882 -0.1576 -0.7158 -0.5308
 6824SOL    HW231935   3.877   1.610  11.822 -1.0744  0.4897 -1.7652
 6825SOL     OW31936   3.545   2.215   5.714  0.1894 -0.1955 -0.5562
 6825SOL    HW131937   3.549   2.278   5.641 -0.4070 -0.2814 -0.6599
 6825SOL    HW231938   3.579   2.271   5.784  1.4261 -0.0007 -1.3012
 6826SOL     OW31939   2.920   0.751   3.949 -0.4147  0.2169  0.2540
 6826SOL    HW131940   2.874   0.766   4.031 -0.7293 -0.1500  0.1455
 6826SOL    HW231941   2.845   0.778   3.896 -0.5940 -0.3628  0.2100
 6827SOL     OW31942   1.723   4.330   4.337 -0.4682  0.1703 -0.5539
 6827SOL    HW131943   1.708   4.274   4.414 -1.9597  3.0497  1.2457
 6827SOL    HW231944   1.643   4.382   4.337 -1.2724 -1.0799 -0.4333
 6828SOL     OW31945   3.139   0.244  12.390  0.2672  0.2782  0.0389
 6828SOL    HW131946   3.182   0.165  12.356  1.1859  0.5252  0.6117
 6828SOL    HW231947   3.170   0.309  12.327 -0.0030 -1.5466 -1.9943
 6829SOL     OW31948   3.365   3.622   7.400 -0.4959 -0.1224 -0.3864
 6829SOL    HW131949   3.293   3.569   7.366  0.7938 -2.0860 -0.0978
 6829SOL    HW231950   3.424   3.618   7.324  0.0304 -0.2542  0.0256
 6830SOL     OW31951   0.546   2.456   2.790 -0.3671  0.1416 -0.2300
 6830SOL    HW131952   0.506   2.369   2.780  2.9199 -1.2482 -1.3619
 6830SOL    HW231953   0.638   2.439   2.770  0.1655  1.7308  0.8837
 6831SOL     OW31954   1.225   3.704   6.520 -0.7143  0.0911  0.1730
 6831SOL    HW131955   1.160   3.635   6.533 -1.8086  1.3156  1.1432
 6831SOL    HW231956   1.168   3.780   6.527 -0.6334  0.1660  0.0160
 6832SOL     OW31957   0.021   2.523   4.238  0.2469 -0.2065 -0.3421
 6832SOL    HW131958   0.054   2.612   4.250 -0.0240 -0.0854 -0.4879
 6832SOL    HW231959   0.106   2.478   4.240 -0.4433 -1.5924 -2.0586
 6833SOL     OW31960   3.794   1.016   0.740 -0.3767  0.1380 -0.1055
 6833SOL    HW131961   3.772   1.000   0.648  0.1338 -1.3193  0.0379
 6833SOL    HW231962   3.705   1.028   0.775  0.5874  2.9610  1.3782
 6834SOL     OW31963   0.811   1.061  11.516  0.2307  0.0205  0.4050
 6834SOL    HW131964   0.740   1.000  11.496  0.8766  0.7921 -4.2560
 6834SOL    HW231965   0.855   1.069  11.431  0.6006 -1.3634  0.4667
 6835SOL     OW31966   2.925   4.304  17.280 -0.2016  0.1334  0.9000
 6835SOL    HW131967   2.873   4.264  17.349 -0.8444  0.4912  0.6262
 6835SOL    HW231968   3.003   4.334  17.326  0.9322 -0.9666 -0.2909
 6836SOL     OW31969   0.648   4.332   6.884 -0.1338  0.2723  0.2804
 6836SOL    HW131970   0.663   4.423   6.912 -0.4412  0.9873 -1.8473
 6836SOL    HW231971   0.595   4.337   6.804  0.5939 -0.5126 -0.2359
 6837SOL     OW31972   1.245   4.201   5.958 -0.1706 -0.0700 -0.6261
 6837SOL    HW131973   1.232   4.286   6.002  1.2949 -0.6280  0.8902
 6837SOL    HW231974   1.253   4.151   6.039  2.4295  2.4246  0.6923
 6838SOL     OW31975   0.625   2.157   8.039 -0.2242  0.0106 -0.1669
 6838SOL    HW131976   0.660   2.103   8.109 -0.3377  0.4788  0.2532
 6838SOL    HW231977   0.639   2.245   8.073  2.1375  0.0822 -1.3058
 6839SOL     OW31978   4.251   4.379   8.152  0.2910  0.2058 -0.4020
 6839SOL    HW131979   4.173   4.325   8.156  1.8044 -2.0039 -1.0590
 6839SOL    HW231980   4.277   4.365   8.061 -2.3472  1.1283 -1.2962
 6840SOL     OW31981   1.212   3.763   0.670  0.2449 -0.3407 -0.0474
 6840SOL    HW131982   1.141   3.704   0.695 -0.7695  0.3156 -1.3864
 6840SOL    HW231983   1.265   3.755   0.750  0.2425 -1.9456 -0.2049
 6841SOL     OW31984   1.167   2.280  10.218  0.2882  0.0259 -0.0520
 6841SOL    HW131985   1.253   2.296  10.255  0.1826  0.5038 -0.0096
 6841SOL    HW231986   1.112   2.348  10.256  0.0438  0.0332 -0.4113
 6842SOL     OW31987   1.759   4.410   2.626  0.4084  0.2756  0.4209
 6842SOL    HW131988   1.845   4.398   2.667 -0.1017 -0.7632  1.1687
 6842SOL    HW231989   1.714   4.463   2.692  1.6630 -0.1755  1.6455
 6843SOL     OW31990   1.879   4.469   6.621  0.3752 -0.2247 -0.1512
 6843SOL    HW131991   1.892   4.530   6.694  1.6846 -0.9936  0.2636
 6843SOL    HW231992   1.907   4.385   6.658  1.4397 -0.8251 -2.3217
 6844SOL     OW31993   4.267   0.813   4.043 -0.4139  0.1551  0.0938
 6844SOL    HW131994   4.222   0.773   3.968 -2.1041  1.8839  0.1842
 6844SOL    HW231995   4.287   0.903   4.017  0.1501 -0.0227 -0.0814
 6845SOL     OW31996   1.596   2.397   6.559  0.6304  0.9905  0.6451
 6845SOL    HW131997   1.667   2.400   6.495  2.1286  0.0342  2.2465
 6845SOL    HW231998   1.596   2.486   6.595 -1.0865  3.0620 -4.5239
 6846SOL     OW31999   2.001   2.469   7.239 -0.0836  0.4489  0.5563
 6846SOL    HW132000   1.908   2.475   7.261 -1.0288 -2.4007 -2.5876
 6846SOL    HW232001   2.004   2.536   7.171  2.9181 -0.5231 -0.2459
 6847SOL     OW32002   0.616   3.837  17.466  0.6365  0.3648  0.1124
 6847SOL    HW132003   0.629   3.781  17.543 -0.2426  1.1438  0.8265
 6847SOL    HW232004   0.694   3.809  17.417 -0.2445  1.6807 -2.0369
 6848SOL     OW32005   2.020   3.846   3.373  0.0717  0.1381 -0.2755
 6848SOL    HW132006   2.004   3.752   3.366  0.0387  0.3436 -3.3456
 6848SOL    HW232007   2.009   3.863   3.466  0.8508 -0.4460 -0.0853
 6849SOL     OW32008   2.082   3.941   2.962  0.4102 -0.0087 -0.3940
 6849SOL    HW132009   2.053   3.851   2.971  0.1323  0.1675  0.4937
 6849SOL    HW232010   1.995   3.982   2.960  0.8186  0.7865 -1.8418
 6850SOL     OW32011   0.843   0.514  12.997 -0.2790 -0.0714  0.2435
 6850SOL    HW132012   0.924   0.557  13.025 -1.7250  1.7235  1.6321
 6850SOL    HW232013   0.843   0.554  12.910  0.0998  0.7264  0.6171
 6851SOL     OW32014   2.310   0.426   5.370  0.1525 -0.2436 -0.0206
 6851SOL    HW132015   2.380   0.491   5.377 -1.0289  1.0003  0.2530
 6851SOL    HW232016   2.349   0.381   5.295 -0.4891 -0.8121 -0.0081
 6852SOL     OW32017   3.524   1.244  14.634 -0.1456 -0.0950 -0.4802
 6852SOL    HW132018   3.467   1.197  14.695 -0.9672 -0.5564 -1.6043
 6852SOL    HW232019   3.521   1.181  14.562  0.7233 -1.5298  0.7435
 6853SOL     OW32020   3.163   0.690  17.292 -0.0235  0.5198  0.3783
 6853SOL    HW132021   3.118   0.748  17.354 -0.5362 -0.6317  1.0905
 6853SOL    HW232022   3.210   0.758  17.244  0.4056 -0.1068 -0.0675
 6854SOL     OW32023   2.574   1.729   0.387 -0.4144 -0.1702 -1.1110
 6854SOL    HW132024   2.488   1.686   0.383 -1.3285  1.6548 -0.9915
 6854SOL    HW232025   2.627   1.653   0.364  1.6343  0.8224  0.3098
 6855SOL     OW32026   4.445   3.754   7.199  0.1842  0.0409 -0.1695
 6855SOL    HW132027   4.450   3.781   7.291  2.7349  0.8725 -0.5671
 6855SOL    HW232028   4.402   3.834   7.167  1.3356  1.4359  1.7890
 6856SOL     OW32029   3.552   0.296  14.834 -0.5270  0.1181  0.3167
 6856SOL    HW132030   3.550   0.384  14.797  1.5158  0.9065  2.0914
 6856SOL    HW232031   3.641   0.298  14.868 -0.8173  0.6702  1.0444
 6857SOL     OW32032   3.252   2.369   5.113  0.6168 -0.0506  0.2171
 6857SOL    HW132033   3.323   2.310   5.089 -1.2583 -1.9234 -0.6216
 6857SOL    HW232034   3.194   2.311   5.163  1.0274 -1.4541 -0.9630
 6858SOL     OW32035   3.571   0.917   8.386 -0.0007  0.4627 -0.0683
 6858SOL    HW132036   3.504   0.957   8.443  0.3660 -1.6491  1.8170
 6858SOL    HW232037   3.654   0.939   8.428  0.9049 -1.2290 -0.9765
 6859SOL     OW32038   0.232   2.056   2.140 -0.4918 -0.3228  0.0522
 6859SOL    HW132039   0.162   1.992   2.132 -2.7277  2.0646  0.6488
 6859SOL    HW232040   0.255   2.084   2.051  2.8421 -0.8602  0.7251
 6860SOL     OW32041   2.120   2.294   0.918 -0.0013  0.2960 -0.5369
 6860SOL    HW132042   2.129   2.383   0.883 -2.1124  1.1855  1.1841
 6860SOL    HW232043   2.069   2.311   0.997 -0.6308 -1.8955 -0.4813
 6861SOL     OW32044   1.408   0.284  11.525  0.3471  0.0335  0.4607
 6861SOL    HW132045   1.376   0.286  11.615  1.2163  1.2245  0.7351
 6861SOL    HW232046   1.372   0.366  11.493 -2.9289 -0.5277  2.7752
 6862SOL     OW32047   3.166   1.440   6.963  0.3886 -0.1707 -0.3577
 6862SOL    HW132048   3.248   1.443   7.013  0.0393  1.5223  0.0981
 6862SOL    HW232049   3.195   1.432   6.873  1.0791 -0.8642 -0.0787
 6863SOL     OW32050   0.808   0.828   5.247 -0.0848 -0.1631  0.1383
 6863SOL    HW132051   0.884   0.827   5.189 -0.4389  1.6474 -0.3533
 6863SOL    HW232052   0.815   0.743   5.291  0.7755 -0.2871 -0.2453
 6864SOL     OW32053   2.608   4.172   4.316  0.6511 -0.0821 -0.1320
 6864SOL    HW132054   2.652   4.184   4.400 -0.5942 -0.2158  0.5543
 6864SOL    HW232055   2.635   4.083   4.293 -0.5127 -0.9087  1.6458
 6865SOL     OW32056   0.248   4.550  13.225  0.3305 -0.8441  0.3249
 6865SOL    HW132057   0.237   4.458  13.202 -0.3225 -1.1160  1.7856
 6865SOL    HW232058   0.190   4.582  13.155 -1.6996 -2.6588  1.1938
 6866SOL     OW32059   0.565   1.366   5.362 -0.1726 -0.1558  0.2040
 6866SOL    HW132060   0.557   1.461   5.375  0.4760  0.0936 -1.2105
 6866SOL    HW232061   0.605   1.341   5.445  0.1460  1.1268  0.4513
 6867SOL     OW32062   0.554   4.164   4.822 -0.3932 -0.3700 -0.3599
 6867SOL    HW132063   0.487   4.228   4.799  0.9258  1.1278 -0.1010
 6867SOL    HW232064   0.574   4.125   4.737 -2.6254 -1.3202 -0.4476
 6868SOL     OW32065   2.921   4.353  15.890  0.0125  0.5777 -0.2139
 6868SOL    HW132066   2.919   4.266  15.930 -1.1449 -0.2427 -2.0704
 6868SOL    HW232067   2.835   4.386  15.918  0.2554 -1.1300  2.5716
 6869SOL     OW32068   3.232   4.036   3.768  0.6512 -0.0683 -0.0392
 6869SOL    HW132069   3.231   4.052   3.863 -1.3347 -2.5333  0.3426
 6869SOL    HW232070   3.300   4.100   3.746 -0.7316  1.3585 -0.1758
 6870SOL     OW32071   1.870   1.418   7.807 -0.1296  0.2452 -0.4552
 6870SOL    HW132072   1.867   1.489   7.744 -1.5671 -0.4499 -1.1743
 6870SOL    HW232073   1.913   1.460   7.882 -1.5947 -0.0270  0.5368
 6871SOL     OW32074   1.018   2.632  11.028 -0.3946 -0.6505 -0.3397
 6871SOL    HW132075   0.949   2.595  11.083  0.2200 -0.6201  0.4463
 6871SOL    HW232076   0.984   2.609  10.941 -1.3346  2.8424 -0.9122
 6872SOL     OW32077   2.822   4.097   5.451  0.2118 -0.2637 -0.3410
 6872SOL    HW132078   2.870   4.029   5.498  0.1516 -0.7012 -0.9094
 6872SOL    HW232079   2.744   4.050   5.422 -0.2366 -0.5632  1.3377
 6873SOL     OW32080   4.007   1.260  15.730  0.7102  0.2999  0.0870
 6873SOL    HW132081   4.080   1.198  15.724  0.9600  0.6390 -0.3414
 6873SOL    HW232082   4.034   1.316  15.657 -3.4261  1.2620 -0.7212
 6874SOL     OW32083   0.920   3.949  15.150 -0.0655 -0.7398  0.1281
 6874SOL    HW132084   0.932   4.016  15.218 -0.5791  1.2772 -1.7682
 6874SOL    HW232085   0.843   3.911  15.193 -0.2337  0.3974  0.8394
 6875SOL     OW32086   1.988   0.420  15.631 -0.2251  0.4764  0.4403
 6875SOL    HW132087   2.074   0.462  15.637  0.6242 -1.4778  1.7670
 6875SOL    HW232088   1.937   0.492  15.595 -1.2959 -0.4367  0.1211
 6876SOL     OW32089   2.535   0.769   5.636  0.3693 -0.0651 -0.7235
 6876SOL    HW132090   2.603   0.831   5.609  0.1314  0.3933 -0.2559
 6876SOL    HW232091   2.548   0.754   5.730  1.4260  0.5797 -0.7678
 6877SOL     OW32092   4.386   1.545   4.294  0.6466 -0.3318 -0.4211
 6877SOL    HW132093   4.335   1.625   4.282 -0.7949 -1.3559 -1.1335
 6877SOL    HW232094   4.359   1.501   4.214 -1.9151  1.4168 -0.5126
 6878SOL     OW32095   3.861   1.131   6.568 -0.0728 -0.1235 -0.2221
 6878SOL    HW132096   3.766   1.123   6.572 -0.1786  0.6246 -1.2800
 6878SOL    HW232097   3.889   1.149   6.478  2.7345 -3.5844 -0.0422
 6879SOL     OW32098   2.333   4.385   5.211 -0.2484  0.1084 -0.1589
 6879SOL    HW132099   2.304   4.312   5.156  1.7072 -0.4092 -0.5020
 6879SOL    HW232100   2.403   4.349   5.265  1.0414  2.1899 -0.4566
 6880SOL     OW32101   1.605   0.390   2.574 -0.2552  0.0829  0.4265
 6880SOL    HW132102   1.615   0.473   2.528  0.7818 -1.3593 -1.9370
 6880SOL    HW232103   1.694   0.361   2.593 -0.1659 -0.6169 -1.0951
 6881SOL     OW32104   3.888   3.056  16.337  0.1054  0.8695 -0.1811
 6881SOL    HW132105   3.976   3.084  16.311 -0.0766  1.8472  0.2463
 6881SOL    HW232106   3.844   3.035  16.254 -0.9558 -0.1197  0.6325
 6882SOL     OW32107   4.407   1.787   9.014 -0.5440  0.3344 -0.1572
 6882SOL    HW132108   4.383   1.875   9.043 -0.8460  0.0001  0.5993
 6882SOL    HW232109   4.328   1.744   8.983 -0.9641  1.0112 -0.0339
 6883SOL     OW32110   4.337   4.545   6.994 -0.0354 -0.2062  0.4337
 6883SOL    HW132111   4.377   4.625   7.028  1.5701 -0.5922 -0.5366
 6883SOL    HW232112   4.368   4.548   6.903  1.1160 -2.6652  0.7527
 6884SOL     OW32113   1.603   4.104   7.738 -0.0457 -1.0680  0.0668
 6884SOL    HW132114   1.606   4.017   7.698  0.1660 -0.5671 -1.0082
 6884SOL    HW232115   1.512   4.125   7.716 -0.2577 -0.0577  1.8843
 6885SOL     OW32116   2.398   0.992  17.298 -0.0292 -0.3118  0.2291
 6885SOL    HW132117   2.422   0.972  17.207  0.2431 -1.0121  0.4594
 6885SOL    HW232118   2.325   0.929  17.298 -1.0779  0.8991  0.4602
 6886SOL     OW32119   0.379   2.155   1.463  0.2902 -0.3675  0.2159
 6886SOL    HW132120   0.345   2.241   1.438 -1.4654 -0.9502  0.6036
 6886SOL    HW232121   0.294   2.126   1.495  0.4799 -3.0574 -1.7215
 6887SOL     OW32122   4.246   3.644  15.856 -0.1597  0.3175 -0.5782
 6887SOL    HW132123   4.263   3.677  15.767 -1.2438  2.5359  0.0366
 6887SOL    HW232124   4.234   3.551  15.837  0.3695  0.4298 -1.4676
 6888SOL     OW32125   1.278   2.208   8.778  0.3053  0.0628  0.2846
 6888SOL    HW132126   1.337   2.257   8.721  1.7078  1.2639  2.7882
 6888SOL    HW232127   1.255   2.132   8.723  0.8053  1.0893 -1.3351
 6889SOL     OW32128   3.700   4.165  11.023  0.2912 -0.2464 -0.6102
 6889SOL    HW132129   3.739   4.151  10.936 -1.4584 -0.1528 -1.3969
 6889SOL    HW232130   3.734   4.091  11.073  0.4824 -0.1134 -0.5423
 6890SOL     OW32131   0.147   0.789   3.102  0.1875 -0.1668 -0.4776
 6890SOL    HW132132   0.062   0.752   3.077  0.6228 -2.1884  1.0712
 6890SOL    HW232133   0.130   0.883   3.099 -0.7745 -0.3420 -0.5042
 6891SOL     OW32134   3.639   4.230  13.802 -0.6893 -0.4080 -0.1388
 6891SOL    HW132135   3.705   4.217  13.871  1.6503  1.2992 -2.0520
 6891SOL    HW232136   3.671   4.166  13.738 -2.1369 -1.2296 -0.0394
 6892SOL     OW32137   0.502   2.593  12.164  0.1081 -0.1278  0.3600
 6892SOL    HW132138   0.566   2.549  12.221 -0.9438 -0.2636  1.4408
 6892SOL    HW232139   0.428   2.533  12.173 -0.0241 -0.1573 -0.9235
 6893SOL     OW32140   3.716   4.635  15.270 -0.7563  0.0365  0.0216
 6893SOL    HW132141   3.633   4.620  15.226 -0.7207 -0.1531  0.0164
 6893SOL    HW232142   3.692   4.711  15.323  1.4013 -0.3205  1.5334
 6894SOL     OW32143   4.611   1.388   3.336 -0.5310  0.3691  0.1102
 6894SOL    HW132144   4.550   1.422   3.270  1.3282 -0.9889 -2.3137
 6894SOL    HW232145   4.689   1.380   3.281 -0.7334 -0.3100 -0.0778
 6895SOL     OW32146   2.922   1.964   5.757  0.3401 -0.2148 -0.1342
 6895SOL    HW132147   2.992   1.930   5.812  1.3518 -1.4603 -2.1802
 6895SOL    HW232148   2.875   2.023   5.816  2.4785  2.7620 -1.3961
 6896SOL     OW32149   3.165   3.808   3.054 -0.2540  0.3078 -0.2670
 6896SOL    HW132150   3.092   3.747   3.057  1.3914 -1.6905 -0.5110
 6896SOL    HW232151   3.203   3.810   2.967  2.9878 -0.7793  1.1078
 6897SOL     OW32152   2.861   4.551   7.157 -0.3024 -0.1907 -0.2156
 6897SOL    HW132153   2.780   4.602   7.156 -0.7372 -0.8767 -0.0292
 6897SOL    HW232154   2.887   4.550   7.249  3.2846  2.8863 -1.2053
 6898SOL     OW32155   2.047   1.270   5.993  0.2717  0.9663  0.0002
 6898SOL    HW132156   1.994   1.340   5.955 -1.8583 -1.2880 -1.1639
 6898SOL    HW232157   2.120   1.274   5.931 -0.3058  1.6772 -0.6345
 6899SOL     OW32158   1.999   4.348   9.506 -0.0534 -0.0604  0.0745
 6899SOL    HW132159   2.029   4.439   9.500  1.2755 -0.6688 -2.3998
 6899SOL    HW232160   1.971   4.322   9.419  0.1524 -2.4545  0.7267
 6900SOL     OW32161   1.420   1.477   5.221 -0.1559 -0.0821 -0.2049
 6900SOL    HW132162   1.468   1.399   5.248 -0.4385  0.4781  1.8779
 6900SOL    HW232163   1.349   1.483   5.285 -2.2829  0.6371 -2.6277
 6901SOL     OW32164   4.238   3.989  13.470 -0.1900 -0.2017 -1.0830
 6901SOL    HW132165   4.195   4.070  13.444  0.9839  0.8449  0.2727
 6901SOL    HW232166   4.320   4.006  13.424  1.6025 -1.1866  1.7736
 6902SOL     OW32167   2.514   1.843   5.019 -0.3302  0.7574 -0.1886
 6902SOL    HW132168   2.422   1.858   5.042  0.2332  0.6341  2.1195
 6902SOL    HW232169   2.503   1.847   4.924  0.0561 -1.8113 -0.3519
 6903SOL     OW32170   1.842   1.101   7.847 -0.0175 -0.1345  0.1425
 6903SOL    HW132171   1.805   1.183   7.880 -1.0060 -0.8193  0.7314
 6903SOL    HW232172   1.846   1.049   7.927  1.6821  1.3378  1.0148
 6904SOL     OW32173   0.347   0.198  10.976  0.5409  0.3862  0.0447
 6904SOL    HW132174   0.347   0.218  10.883 -0.2624 -0.4238 -0.1300
 6904SOL    HW232175   0.440   0.189  10.998  0.2953 -1.3867  0.3956
 6905SOL     OW32176   1.836   3.702   9.799 -0.1596 -0.3890 -0.2322
 6905SOL    HW132177   1.749   3.704   9.758 -1.1999 -3.2228  1.8347
 6905SOL    HW232178   1.840   3.790   9.836 -0.0704  0.2367 -1.7271
 6906SOL     OW32179   2.350   1.604   8.832  0.5038  0.6771 -0.2768
 6906SOL    HW132180   2.403   1.539   8.787  0.6579 -1.0129  2.3191
 6906SOL    HW232181   2.382   1.685   8.793 -1.8246  0.2918 -2.9196
 6907SOL     OW32182   3.959   2.084   6.638 -0.1319  0.1117  0.8214
 6907SOL    HW132183   4.055   2.083   6.639 -0.0924  0.3620 -1.8653
 6907SOL    HW232184   3.924   2.078   6.727  2.2245  3.1966  1.9494
 6908SOL     OW32185   1.539   4.265   3.268 -0.1822  0.0557  0.5094
 6908SOL    HW132186   1.551   4.186   3.215  2.1751  0.0185  1.1265
 6908SOL    HW232187   1.562   4.333   3.205 -0.1494 -0.2873  0.1478
 6909SOL     OW32188   4.546   2.949   8.262  0.0308 -0.3299  0.0489
 6909SOL    HW132189   4.624   2.972   8.210 -2.1260  0.9820 -2.6230
 6909SOL    HW232190   4.475   2.998   8.219  0.6616 -0.6438 -1.3619
 6910SOL     OW32191   2.498   1.707   8.411  0.2608 -0.0962 -0.2633
 6910SOL    HW132192   2.522   1.796   8.439  1.6887 -0.3000 -0.8124
 6910SOL    HW232193   2.499   1.658   8.494 -1.1749  1.4960  0.7073
 6911SOL     OW32194   3.978   0.156   3.639 -0.2072  0.0864  0.3781
 6911SOL    HW132195   4.057   0.164   3.586 -1.1695  0.7320 -0.9689
 6911SOL    HW232196   3.943   0.239   3.606  0.2283 -0.3144 -1.1155
 6912SOL     OW32197   0.391   2.614  11.896 -0.3405  0.3900  0.4781
 6912SOL    HW132198   0.359   2.580  11.813  2.8289 -1.8099  0.1609
 6912SOL    HW232199   0.319   2.600  11.958 -0.7537 -0.3775 -0.1686
 6913SOL     OW32200   0.492   0.522   7.619 -0.5358  0.2056 -0.0222
 6913SOL    HW132201   0.515   0.610   7.590 -1.0653  0.5144  0.4873
 6913SOL    HW232202   0.416   0.540   7.675 -1.2425  3.8942 -2.1808
 6914SOL     OW32203   4.087   0.370   8.254  0.4812  0.1973  0.2750
 6914SOL    HW132204   4.062   0.437   8.191 -0.5461 -1.5051 -1.1483
 6914SOL    HW232205   4.047   0.403   8.335 -3.9874  0.2560 -1.9439
 6915SOL     OW32206   0.187   2.423   9.261  0.5520 -0.1401 -0.2222
 6915SOL    HW132207   0.161   2.514   9.270  1.0838  0.2312 -2.2896
 6915SOL    HW232208   0.252   2.409   9.329 -0.0382  0.3661  0.4466
 6916SOL     OW32209   1.134   2.410   7.081  0.6039 -0.3562 -0.0177
 6916SOL    HW132210   1.153   2.335   7.137  1.3164 -1.2897 -1.5161
 6916SOL    HW232211   1.139   2.481   7.145 -1.2623 -1.8132  1.7361
 6917SOL     OW32212   2.676   3.995   4.563 -0.7687 -0.3019 -0.3649
 6917SOL    HW132213   2.678   3.941   4.643 -1.6154  0.5285  0.2175
 6917SOL    HW232214   2.732   4.070   4.582 -0.8261 -0.7556  1.6654
 6918SOL     OW32215   0.120   1.304   8.361 -0.1865 -0.1398 -0.3107
 6918SOL    HW132216   0.038   1.353   8.360 -1.3032 -1.9693  0.5691
 6918SOL    HW232217   0.185   1.374   8.360 -0.0394 -0.2266  1.6329
 6919SOL     OW32218   2.760   4.444   2.744  0.4044 -0.3007 -0.2232
 6919SOL    HW132219   2.780   4.381   2.675  3.8476  0.1036  0.4093
 6919SOL    HW232220   2.844   4.458   2.788 -0.5685 -0.0954  1.5383
 6920SOL     OW32221   2.114   2.500   4.530  0.2264 -0.3025  0.0804
 6920SOL    HW132222   2.064   2.555   4.590  0.8630 -0.4709  0.7675
 6920SOL    HW232223   2.206   2.523   4.548  0.8912 -2.7840 -0.1192
 6921SOL     OW32224   1.996   3.809   1.607  0.0736  0.4813  0.7317
 6921SOL    HW132225   2.043   3.832   1.526  0.1266 -0.5186  0.4732
 6921SOL    HW232226   2.054   3.739   1.638 -1.5786 -0.5994  1.3729
 6922SOL     OW32227   1.405   0.881  16.670  0.3305  0.8509  0.6283
 6922SOL    HW132228   1.331   0.908  16.724 -2.9233 -3.5936 -1.5520
 6922SOL    HW232229   1.477   0.860  16.730  0.0740  2.0013  1.3351
 6923SOL     OW32230   1.148   3.229   4.293 -0.2250  0.0382 -0.5107
 6923SOL    HW132231   1.123   3.257   4.381 -1.2635 -0.3172 -0.6916
 6923SOL    HW232232   1.080   3.274   4.244  0.0707  0.4025 -0.5878
 6924SOL     OW32233   4.565   3.522   3.485  0.1139  0.2668 -0.2584
 6924SOL    HW132234   4.597   3.455   3.546 -1.5010  0.2925  0.6098
 6924SOL    HW232235   4.588   3.597   3.539 -0.3790  0.2339 -0.0039
 6925SOL     OW32236   2.387   2.511   8.947 -0.1361  0.4426  0.0866
 6925SOL    HW132237   2.369   2.546   8.859 -0.2837 -0.4939 -0.2528
 6925SOL    HW232238   2.299   2.534   8.978 -1.0493 -1.1992 -1.3073
 6926SOL     OW32239   0.005   3.546   8.127  0.0235 -0.5311  0.1180
 6926SOL    HW132240   4.666   3.492   8.174 -0.2726  0.4134  0.8008
 6926SOL    HW232241   0.050   3.478   8.077  0.5359 -1.1135  1.3460
 6927SOL     OW32242   0.766   3.521   8.545  0.0126 -0.2833 -0.0960
 6927SOL    HW132243   0.848   3.562   8.518  0.9028 -0.9462  1.6037
 6927SOL    HW232244   0.770   3.435   8.504  3.0985 -0.2790  0.2167
 6928SOL     OW32245   0.200   2.914   7.780 -0.3436 -0.2911 -0.0142
 6928SOL    HW132246   0.148   2.977   7.731 -0.2586 -1.0671 -1.0986
 6928SOL    HW232247   0.142   2.918   7.855 -0.2985 -0.0301  0.0073
 6929SOL     OW32248   3.040   4.488   2.824 -0.6723 -0.5075  0.1805
 6929SOL    HW132249   3.081   4.447   2.900 -1.9325  1.6627  2.0335
 6929SOL    HW232250   3.104   4.452   2.763 -0.9693 -0.0527 -0.4003
 6930SOL     OW32251   1.805   4.017   4.703 -0.2794 -0.2098  0.2319
 6930SOL    HW132252   1.861   4.004   4.626  0.3704  2.8540  0.1953
 6930SOL    HW232253   1.800   3.924   4.728 -3.6458  0.4218  1.8265
 6931SOL     OW32254   3.530   3.714   7.191 -0.3339  0.2857 -0.4562
 6931SOL    HW132255   3.594   3.643   7.183 -1.3729 -0.9025  1.8035
 6931SOL    HW232256   3.573   3.792   7.225  1.1775 -1.0829  0.7726
 6932SOL     OW32257   3.851   3.872   9.380  0.0094 -0.2063 -0.9268
 6932SOL    HW132258   3.887   3.823   9.454  3.1406  1.5550 -1.2855
 6932SOL    HW232259   3.932   3.895   9.336  0.3612 -0.7570 -0.5708
 6933SOL     OW32260   1.437   0.364   7.228 -0.1005  0.2506  0.4005
 6933SOL    HW132261   1.523   0.325   7.241  0.8353  2.0560 -0.4604
 6933SOL    HW232262   1.434   0.439   7.287  0.1305 -0.1317  0.8943
 6934SOL     OW32263   1.841   2.845   5.454  0.1885 -0.4021  0.1851
 6934SOL    HW132264   1.798   2.761   5.436 -0.8973  0.6971 -2.3040
 6934SOL    HW232265   1.916   2.816   5.506  0.3055 -0.0560  0.2127
 6935SOL     OW32266   3.501   2.172   3.751 -0.2372  0.0973 -0.1682
 6935SOL    HW132267   3.418   2.213   3.775  0.2370  0.6580  0.5193
 6935SOL    HW232268   3.479   2.105   3.686  1.2764 -0.8880  0.3275
 6936SOL     OW32269   0.677   4.467  10.157  0.7280 -0.4914 -0.2568
 6936SOL    HW132270   0.611   4.448  10.091  1.0883 -1.9155 -0.1914
 6936SOL    HW232271   0.642   4.408  10.224 -0.3755 -1.6386 -1.8596
 6937SOL     OW32272   1.643   2.797   6.021  0.5822  0.1711  0.0822
 6937SOL    HW132273   1.681   2.849   5.950 -2.0704  0.5592 -1.0587
 6937SOL    HW232274   1.666   2.706   6.000 -1.7885 -0.5361  0.4991
 6938SOL     OW32275   2.075   1.785   7.660 -0.1605  0.1109  0.1180
 6938SOL    HW132276   2.146   1.791   7.724  0.9697  2.1115 -1.3158
 6938SOL    HW232277   2.108   1.725   7.593  1.1747 -0.4125  1.2351
 6939SOL     OW32278   0.091   2.775   3.035  0.1057  0.1527 -0.4380
 6939SOL    HW132279   0.154   2.762   2.964 -1.0477  0.5142 -1.5318
 6939SOL    HW232280   0.146   2.758   3.111 -0.3831  0.6709  0.0305
 6940SOL     OW32281   2.678   0.445  15.934  0.2128  0.2207  0.3051
 6940SOL    HW132282   2.630   0.496  15.999 -0.2212 -3.0379  2.5412
 6940SOL    HW232283   2.603   0.394  15.907  0.2861 -0.6517  1.7417
 6941SOL     OW32284   0.019   3.524  12.121 -0.1816  0.8644 -0.3949
 6941SOL    HW132285   0.098   3.554  12.075 -0.6573  2.5390 -0.1254
 6941SOL    HW232286   0.017   3.433  12.092  0.0058 -0.0623  2.4654
 6942SOL     OW32287   2.499   3.169  17.670  0.4547  0.2170 -0.1296
 6942SOL    HW132288   2.414   3.209  17.687  0.3970 -0.4366  1.0922
 6942SOL    HW232289   2.501   3.079   0.002  1.9237  0.3029  0.0287
 6943SOL     OW32290   0.919   3.886   4.555 -0.4674 -0.1495  0.1050
 6943SOL    HW132291   0.858   3.858   4.623  0.9775  0.3305  1.6018
 6943SOL    HW232292   0.933   3.980   4.571 -0.3065  0.1603 -1.8793
 6944SOL     OW32293   2.353   2.679   9.596 -0.0566  0.6847 -0.1474
 6944SOL    HW132294   2.337   2.750   9.658 -3.3214  1.4064 -1.8439
 6944SOL    HW232295   2.316   2.700   9.510  0.3198  2.0340  0.0181
 6945SOL     OW32296   2.094   2.397  10.622 -0.2374  0.1521  0.4451
 6945SOL    HW132297   2.014   2.439  10.589  1.6795  2.1695 -1.6551
 6945SOL    HW232298   2.071   2.304  10.621  0.9693 -0.1439  0.4923
 6946SOL     OW32299   4.017   3.966   8.099 -0.6428  0.2844  0.2173
 6946SOL    HW132300   3.924   3.946   8.090 -0.0387 -2.0944 -0.5908
 6946SOL    HW232301   4.041   3.908   8.171  1.1033  0.5684 -0.1314
 6947SOL     OW32302   4.612   1.584   7.065  0.6617 -0.2026 -0.0868
 6947SOL    HW132303   4.621   1.654   7.130  0.0823 -1.3896  1.2907
 6947SOL    HW232304   4.675   1.610   6.999 -1.1695  1.7852 -1.0586
 6948SOL     OW32305   1.704   4.024   3.979 -0.0148  0.0757 -0.0301
 6948SOL    HW132306   1.742   4.106   4.008  1.0860 -0.8719  1.1511
 6948SOL    HW232307   1.613   4.053   3.989 -0.3974 -1.4170  0.7923
 6949SOL     OW32308   2.281   3.896   3.311 -0.1065  0.1163 -0.2776
 6949SOL    HW132309   2.210   3.854   3.358 -0.4945  1.3617  0.2243
 6949SOL    HW232310   2.238   3.980   3.300  0.9100  0.7686  0.7078
 6950SOL     OW32311   1.478   4.664   3.908  0.5691 -0.8508 -0.1003
 6950SOL    HW132312   1.431   4.711   3.839  1.8678 -0.8855 -1.0058
 6950SOL    HW232313   1.556   4.637   3.860  0.5440  0.6284 -0.9843
 6951SOL     OW32314   0.116   4.235  12.889 -0.2442  0.1470 -0.4755
 6951SOL    HW132315   0.202   4.262  12.857 -0.2248 -0.0973 -0.6276
 6951SOL    HW232316   0.060   4.255  12.814 -3.0973 -1.8295  1.1336
 6952SOL     OW32317   2.249   1.852   7.868  0.9156  0.4015 -0.4029
 6952SOL    HW132318   2.225   1.925   7.925  1.7450  0.3990 -0.0367
 6952SOL    HW232319   2.340   1.835   7.895  0.4521 -1.7984 -0.2974
 6953SOL     OW32320   3.701   4.267   1.813  0.0433  0.0140 -0.2454
 6953SOL    HW132321   3.642   4.208   1.859  2.1612 -1.6886  0.3003
 6953SOL    HW232322   3.759   4.212   1.760  0.2163 -1.3293  1.3382
 6954SOL     OW32323   0.029   3.203  11.239  0.6683  0.6510  0.1711
 6954SOL    HW132324   0.079   3.232  11.162  1.2105  1.1319  0.6953
 6954SOL    HW232325   4.669   3.245  11.219 -0.2204 -0.8337  0.8850
 6955SOL     OW32326   3.051   1.676   2.775 -0.0644  0.5253 -0.0969
 6955SOL    HW132327   3.021   1.600   2.723 -1.2268  2.2775 -1.9855
 6955SOL    HW232328   3.066   1.632   2.858 -2.3567  0.7569  0.4406
 6956SOL     OW32329   1.528   3.790   4.400  0.0657 -0.5161  0.5671
 6956SOL    HW132330   1.528   3.813   4.307  0.4361  1.8484  1.1717
 6956SOL    HW232331   1.478   3.708   4.394 -3.6159  1.8170 -1.1287
 6957SOL     OW32332   4.336   0.935  12.198 -0.5285  0.2568 -0.1825
 6957SOL    HW132333   4.307   1.005  12.140  1.9985  0.2673 -1.3921
 6957SOL    HW232334   4.256   0.922  12.249 -0.2557  3.5112  1.0565
 6958SOL     OW32335   0.127   3.615   1.851 -0.0762 -0.5332  0.2730
 6958SOL    HW132336   0.088   3.613   1.764  1.5704 -2.3308 -0.4388
 6958SOL    HW232337   0.216   3.587   1.830 -0.0003 -0.8384  0.9818
 6959SOL     OW32338   0.582   2.802   3.570  0.2566 -0.0070 -0.0020
 6959SOL    HW132339   0.645   2.874   3.575  1.4698 -1.0931  0.4854
 6959SOL    HW232340   0.499   2.850   3.571 -0.4616 -1.1562 -3.5017
 6960SOL     OW32341   2.025   1.775  11.359 -0.1710  0.8424 -0.2202
 6960SOL    HW132342   1.997   1.780  11.450 -0.3589 -0.1906 -0.2177
 6960SOL    HW232343   2.084   1.699  11.363 -1.0482  0.3106  2.3018
 6961SOL     OW32344   1.003   1.912   4.239  0.1659  0.4468 -0.3735
 6961SOL    HW132345   0.967   1.901   4.327  2.9379 -0.0886  0.6731
 6961SOL    HW232346   0.921   1.903   4.190  0.8588  0.5368 -1.5439
 6962SOL     OW32347   0.619   2.708   2.928  0.3738 -0.1138 -0.6341
 6962SOL    HW132348   0.559   2.650   2.881 -0.0257 -0.5392  0.3971
 6962SOL    HW232349   0.657   2.652   2.995 -1.0920 -0.6425 -0.2438
 6963SOL     OW32350   3.983   0.203   4.195  0.0828  0.8217 -0.2426
 6963SOL    HW132351   3.946   0.257   4.265  2.6490 -0.7341  2.2864
 6963SOL    HW232352   4.072   0.185   4.224 -0.8603 -1.4918  1.1420
 6964SOL     OW32353   3.580   1.997   6.203 -0.5744  0.1236  0.3116
 6964SOL    HW132354   3.536   1.912   6.196  0.4351 -0.7005  4.0029
 6964SOL    HW232355   3.525   2.054   6.150 -1.8534 -1.2042  0.1984
 6965SOL     OW32356   1.762   0.251   7.235  0.2157 -0.1467 -0.2075
 6965SOL    HW132357   1.797   0.188   7.297 -0.4295 -0.2155  0.0873
 6965SOL    HW232358   1.704   0.296   7.296  1.3382 -0.5643  1.1477
 6966SOL     OW32359   4.475   0.191  14.888  0.3852  0.6358  0.3073
 6966SOL    HW132360   4.504   0.100  14.894  0.2540  0.4450 -1.7765
 6966SOL    HW232361   4.539   0.228  14.949  0.2901  0.1901  0.6737
 6967SOL     OW32362   2.479   0.346   9.250 -0.3457  0.0821 -0.0256
 6967SOL    HW132363   2.456   0.253   9.246  0.0295  0.0742 -1.6137
 6967SOL    HW232364   2.524   0.352   9.335 -0.8323 -0.2586  0.2623
 6968SOL     OW32365   3.704   3.708   9.183 -0.2592  0.1975 -0.3422
 6968SOL    HW132366   3.797   3.733   9.187 -0.3829  0.7722 -1.0647
 6968SOL    HW232367   3.674   3.783   9.235  1.6665 -1.7243  3.5551
 6969SOL     OW32368   3.263   2.034   8.972 -0.5393 -0.3867 -0.4533
 6969SOL    HW132369   3.356   2.036   8.994 -0.7114 -0.2003  0.2539
 6969SOL    HW232370   3.221   2.106   9.018  1.4869  1.0883 -0.8821
 6970SOL     OW32371   0.797   2.701   4.523 -0.2436  0.3177 -0.0716
 6970SOL    HW132372   0.817   2.792   4.501 -1.3449 -0.0086 -2.4381
 6970SOL    HW232373   0.704   2.703   4.544 -0.2995 -4.0219  0.1544
 6971SOL     OW32374   3.377   1.038   5.678 -0.2826  0.0339 -0.3433
 6971SOL    HW132375   3.337   0.960   5.718 -0.6415  1.0654  1.3117
 6971SOL    HW232376   3.297   1.088   5.661 -0.7270 -0.1694  1.1593
 6972SOL     OW32377   2.836   0.683   7.234  0.1718  0.0144 -0.0960
 6972SOL    HW132378   2.868   0.634   7.158  0.2134 -0.1229  0.0100
 6972SOL    HW232379   2.868   0.772   7.220 -3.8731  1.2880 -1.2638
 6973SOL     OW32380   1.664   1.082  15.059  0.2378 -0.3574 -0.2771
 6973SOL    HW132381   1.583   1.051  15.099  0.2337 -1.4154 -1.1274
 6973SOL    HW232382   1.713   1.009  15.022  2.5456  0.3854  1.2800
 6974SOL     OW32383   3.949   1.709  15.149 -0.3795  0.0434  0.2099
 6974SOL    HW132384   3.911   1.705  15.237 -0.8265  2.9240  0.1442
 6974SOL    HW232385   3.911   1.789  15.113 -3.5063 -0.6272  2.0309
 6975SOL     OW32386   2.205   3.655   8.708 -0.1491  0.0475 -0.3694
 6975SOL    HW132387   2.285   3.636   8.757 -0.9596 -0.0529  0.9009
 6975SOL    HW232388   2.207   3.747   8.684  3.1264  0.0297 -0.1226
 6976SOL     OW32389   3.176   1.403   7.913  0.2413 -0.3300  0.1930
 6976SOL    HW132390   3.175   1.496   7.890  0.1266  0.2336  2.4729
 6976SOL    HW232391   3.113   1.366   7.851  0.8293  1.1022 -1.2803
 6977SOL     OW32392   3.639   0.482   5.269 -0.2626  0.2659 -0.0644
 6977SOL    HW132393   3.594   0.404   5.235  2.0078 -1.1080  0.0854
 6977SOL    HW232394   3.648   0.466   5.363  3.1140 -2.0251 -0.7539
 6978SOL     OW32395   3.291   1.853   5.736 -0.5174 -0.3431  0.1451
 6978SOL    HW132396   3.381   1.883   5.720 -0.5050  0.7371  2.1965
 6978SOL    HW232397   3.257   1.919   5.676  2.9674  2.4317  1.1828
 6979SOL     OW32398   0.376   1.584   9.745  0.9199  0.1454  0.1657
 6979SOL    HW132399   0.342   1.495   9.739  2.8392 -0.5932 -0.0268
 6979SOL    HW232400   0.412   1.590   9.834  0.0157 -2.6137  0.6971
 6980SOL     OW32401   3.848   2.214   8.909 -0.3872  0.2960 -0.3584
 6980SOL    HW132402   3.917   2.279   8.896 -1.2367  0.6459 -3.0163
 6980SOL    HW232403   3.849   2.197   9.003  0.9760  1.2239 -0.2107
 6981SOL     OW32404   2.256   1.889   6.277 -0.5433  0.0822 -0.0115
 6981SOL    HW132405   2.238   1.795   6.274  0.8685 -0.2304  1.7725
 6981SOL    HW232406   2.188   1.918   6.337 -3.1149 -0.5685 -2.5825
 6982SOL     OW32407   3.371   1.604   5.448 -0.5023  0.3111  0.0445
 6982SOL    HW132408   3.402   1.664   5.379  1.1580  1.0323  1.4205
 6982SOL    HW232409   3.289   1.644   5.476  0.0880  1.2371  0.4839
 6983SOL     OW32410   2.533   2.717  11.792 -0.0725 -0.2070 -0.1219
 6983SOL    HW132411   2.469   2.652  11.823 -0.6410  0.8350  0.8680
 6983SOL    HW232412   2.525   2.785  11.859 -0.5112 -0.1786 -0.2021
 6984SOL     OW32413   1.918   2.398   6.150  0.5071  0.3198  0.4411
 6984SOL    HW132414   1.940   2.319   6.102 -0.3376  1.9945 -2.6600
 6984SOL    HW232415   1.884   2.452   6.079  0.4843 -0.6463 -0.2711
 6985SOL     OW32416   3.623   2.899  12.347  0.0899  0.3318  0.0802
 6985SOL    HW132417   3.659   2.978  12.307  3.6661 -0.7710  1.2068
 6985SOL    HW232418   3.616   2.923  12.439 -0.8356  0.1371  0.0616
 6986SOL     OW32419   2.864   0.335   7.119 -0.6238  0.4466  0.7098
 6986SOL    HW132420   2.845   0.274   7.190 -1.3342  0.6598  0.7008
 6986SOL    HW232421   2.779   0.347   7.079 -2.3154 -1.9122  3.5958
 6987SOL     OW32422   3.607   0.923   7.850  0.4124  0.2420  0.2388
 6987SOL    HW132423   3.623   0.965   7.765 -1.4514 -0.3284 -0.3974
 6987SOL    HW232424   3.585   0.997   7.906 -0.0137 -1.7991  2.7634
 6988SOL     OW32425   3.794   4.720   5.213 -0.1538  0.4586  0.1252
 6988SOL    HW132426   3.742   0.049   5.273 -0.6821  1.0270 -0.8322
 6988SOL    HW232427   3.845   0.060   5.164  2.3986 -1.0534  0.7982
 6989SOL     OW32428   1.951   3.920  16.370 -0.7637 -0.0309  1.2726
 6989SOL    HW132429   1.924   4.004  16.407  0.9055 -0.4350  3.4644
 6989SOL    HW232430   2.003   3.944  16.293 -0.6162  2.1707  2.0281
 6990SOL     OW32431   1.156   1.700   8.177 -0.1914  0.3803  0.4414
 6990SOL    HW132432   1.163   1.748   8.094  2.1846  1.8129  1.5032
 6990SOL    HW232433   1.225   1.635   8.163 -1.2535 -0.5353 -0.5587
 6991SOL     OW32434   2.579   1.050  13.544  0.0658 -0.2267 -0.2296
 6991SOL    HW132435   2.501   1.013  13.585  0.2379  2.8631  2.9340
 6991SOL    HW232436   2.541   1.096  13.469 -0.2090 -0.9078 -0.4991
 6992SOL     OW32437   3.829   1.978   2.047  0.1827  0.7278  0.3646
 6992SOL    HW132438   3.835   1.970   1.952 -3.0296 -0.9932  0.3190
 6992SOL    HW232439   3.833   1.888   2.078 -2.0030 -0.7057 -3.4480
 6993SOL     OW32440   1.920   3.130   7.090  0.4519 -0.6382 -0.0609
 6993SOL    HW132441   1.970   3.198   7.044  0.4296  1.8848  3.6332
 6993SOL    HW232442   1.919   3.057   7.028  0.3045  0.5580 -1.4771
 6994SOL     OW32443   2.971   0.025  10.124 -0.0668  0.3334 -0.3390
 6994SOL    HW132444   2.977   0.053  10.032 -0.1839  1.9078  0.1263
 6994SOL    HW232445   2.930   0.101  10.164  1.5216 -0.8731  3.5440
 6995SOL     OW32446   0.499   3.930   3.020 -0.1525 -0.6592  0.6296
 6995SOL    HW132447   0.593   3.924   3.004 -0.1913 -0.5386  0.3527
 6995SOL    HW232448   0.487   3.974   3.103  0.3872  0.5232  0.0717
 6996SOL     OW32449   2.933   3.769   2.840 -0.8123 -0.4200  0.5711
 6996SOL    HW132450   2.851   3.796   2.798 -2.0012  1.1802  3.8584
 6996SOL    HW232451   2.923   3.812   2.925 -2.2931  2.0892 -0.8802
 6997SOL     OW32452   3.555   1.139  13.173 -0.2862  0.2012 -0.4001
 6997SOL    HW132453   3.629   1.172  13.121 -0.6447 -0.1325 -1.1152
 6997SOL    HW232454   3.586   1.062  13.220 -1.5615 -0.3970 -0.5397
 6998SOL     OW32455   3.204   2.352  16.965  0.4004  0.0198 -0.3587
 6998SOL    HW132456   3.114   2.326  16.987 -0.1895  1.4673 -1.0635
 6998SOL    HW232457   3.253   2.326  17.043 -1.7871 -0.0737  0.9849
 6999SOL     OW32458   0.447   3.483   6.010  0.3744 -0.4368  0.0252
 6999SOL    HW132459   0.487   3.397   6.005  0.7055 -0.2663 -0.2657
 6999SOL    HW232460   0.429   3.508   5.919 -0.9162  1.6404  0.8185
 7000SOL     OW32461   4.032   1.382  11.640 -0.3315  0.1631 -0.5157
 7000SOL    HW132462   3.959   1.424  11.686 -2.7742 -3.6594 -0.8841
 7000SOL    HW232463   4.076   1.466  11.633 -0.9704  0.5960  0.8344
 7001SOL     OW32464   2.688   2.265  10.153 -0.0866  0.0582  0.4160
 7001SOL    HW132465   2.665   2.222  10.235 -1.0973 -0.5770 -0.1943
 7001SOL    HW232466   2.600   2.297  10.132 -0.5868 -1.9367 -0.5820
 7002SOL     OW32467   1.273   1.119   7.002  0.2794  0.3360  0.1274
 7002SOL    HW132468   1.338   1.124   7.073 -0.1867  0.5103  0.5373
 7002SOL    HW232469   1.212   1.182   7.039  0.3653 -0.4077  1.5472
 7003SOL     OW32470   3.529   3.125   2.850  0.6570 -0.4872  0.0022
 7003SOL    HW132471   3.574   3.048   2.815 -0.0395 -1.3318  0.9659
 7003SOL    HW232472   3.531   3.092   2.940 -0.9682  3.4516  1.4737
 7004SOL     OW32473   4.594   1.308   7.104  0.1901 -0.0725  0.2896
 7004SOL    HW132474   4.501   1.287   7.099 -0.1744  1.8255 -1.1122
 7004SOL    HW232475   4.593   1.402   7.124  1.4741  0.2697 -1.2555
 7005SOL     OW32476   4.683   3.147   1.124  0.0540 -0.0528 -0.2722
 7005SOL    HW132477   4.610   3.091   1.150 -0.2672  0.1970 -0.6340
 7005SOL    HW232478   4.660   3.158   1.032  3.2004  0.5238 -0.9954
 7006SOL     OW32479   1.982   1.067  14.070  0.4225  0.0091 -0.5614
 7006SOL    HW132480   1.961   1.117  14.149 -1.3767  0.1537 -1.1410
 7006SOL    HW232481   1.898   1.046  14.030  1.1143 -1.1448 -1.4222
 7007SOL     OW32482   1.771   0.384   5.194  0.3288 -0.8250  0.1232
 7007SOL    HW132483   1.818   0.319   5.141 -1.8589 -2.4286  0.1200
 7007SOL    HW232484   1.709   0.337   5.250 -0.2359 -1.0719 -0.7110
 7008SOL     OW32485   2.864   1.192   8.890 -0.0497 -0.5850 -0.4080
 7008SOL    HW132486   2.807   1.217   8.963  0.1123  1.9772 -1.1337
 7008SOL    HW232487   2.809   1.132   8.842  0.4208  0.3013 -2.0572
 7009SOL     OW32488   4.337   1.753   6.554 -0.6485 -0.0661  0.2446
 7009SOL    HW132489   4.282   1.675   6.544 -1.4236  0.9919 -3.7499
 7009SOL    HW232490   4.415   1.724   6.600 -0.8817  0.5024  0.9913
 7010SOL     OW32491   1.609   1.464   2.943 -0.1670 -0.0464  0.6477
 7010SOL    HW132492   1.675   1.439   2.877  1.8703  0.8907  2.3261
 7010SOL    HW232493   1.604   1.381   2.991 -2.6948 -1.5867 -2.2478
 7011SOL     OW32494   4.527   1.536   8.645 -0.3865 -0.6035  0.6810
 7011SOL    HW132495   4.551   1.613   8.594 -0.4960 -0.7352  0.4272
 7011SOL    HW232496   4.602   1.539   8.704  0.2012 -0.0236 -0.0938
 7012SOL     OW32497   3.711   2.967   5.817 -0.3744  0.3485  0.5927
 7012SOL    HW132498   3.719   3.019   5.897  0.2238  1.3415 -0.1044
 7012SOL    HW232499   3.804   2.944   5.813  0.1441  2.3163  1.3994
 7013SOL     OW32500   3.700   0.056   4.907 -0.2944  0.0909  0.1993
 7013SOL    HW132501   3.795   0.046   4.911 -0.3968 -0.3319  1.7895
 7013SOL    HW232502   3.675   0.020   4.822 -0.2899  0.3937  0.0727
 7014SOL     OW32503   2.362   3.051  11.645 -0.0629  0.0017  0.4105
 7014SOL    HW132504   2.300   3.123  11.632 -0.3473 -0.1668  0.8628
 7014SOL    HW232505   2.384   3.023  11.556 -0.1512 -1.6337  0.9169
 7015SOL     OW32506   0.353   3.140   0.676  0.2225 -0.0190 -0.0774
 7015SOL    HW132507   0.277   3.115   0.728 -0.5330  0.6442 -0.8500
 7015SOL    HW232508   0.408   3.063   0.688 -1.2613 -1.2495 -1.1817
 7016SOL     OW32509   2.802   4.197  16.477  0.0796 -0.2463 -0.3075
 7016SOL    HW132510   2.757   4.118  16.447  0.0525  0.5720 -2.3862
 7016SOL    HW232511   2.756   4.202  16.561 -0.6091 -1.4086 -0.6129
 7017SOL     OW32512   2.840   0.449  16.590  0.2005  0.0561  0.2748
 7017SOL    HW132513   2.814   0.473  16.679  0.4532 -0.1330  0.4007
 7017SOL    HW232514   2.762   0.409  16.550  0.5038  1.3898 -1.6378
 7018SOL     OW32515   4.253   2.788   1.643 -0.0067 -0.2183  0.4769
 7018SOL    HW132516   4.244   2.854   1.711  0.3894  0.8106 -0.4722
 7018SOL    HW232517   4.326   2.733   1.673  2.3681  1.6379 -1.8970
 7019SOL     OW32518   2.322   1.636   0.343  0.0133  0.2050 -0.2896
 7019SOL    HW132519   2.262   1.628   0.417  0.4296  0.5592  0.0817
 7019SOL    HW232520   2.295   1.568   0.281 -0.7151  0.5902 -0.3970
 7020SOL     OW32521   0.848   1.035   4.475  0.1635 -0.1096  0.1415
 7020SOL    HW132522   0.753   1.041   4.478  0.0963 -0.7641 -0.8726
 7020SOL    HW232523   0.857   0.949   4.435  2.2993 -0.8817  2.2628
 7021SOL     OW32524   3.965   0.632  14.469 -0.2216  0.2392 -0.3699
 7021SOL    HW132525   3.938   0.634  14.561  0.9202 -1.6217  0.0074
 7021SOL    HW232526   4.003   0.719  14.457 -0.0293  0.2649  0.3939
 7022SOL     OW32527   0.612   3.859   5.443  0.6984  0.1652  0.0082
 7022SOL    HW132528   0.564   3.778   5.430 -2.8963  1.9858  1.8870
 7022SOL    HW232529   0.678   3.836   5.508 -0.9485  1.8856  2.2887
 7023SOL     OW32530   2.220   2.469   6.240 -0.2255  0.0610 -0.1929
 7023SOL    HW132531   2.201   2.531   6.169  1.6741  0.6191 -0.2143
 7023SOL    HW232532   2.130   2.440   6.257 -0.7851  1.3407 -0.9921
 7024SOL     OW32533   1.898   2.289  15.412  0.6391 -0.2491  0.7145
 7024SOL    HW132534   1.875   2.272  15.321  0.7254 -0.9257  0.8181
 7024SOL    HW232535   1.839   2.359  15.440  2.5260  1.1602  1.1944
 7025SOL     OW32536   4.559   4.076   1.341 -0.3582 -0.5384  0.7729
 7025SOL    HW132537   4.652   4.092   1.329 -0.3739 -0.2632  1.0040
 7025SOL    HW232538   4.532   4.165   1.364 -1.3247 -0.7479  0.4308
 7026SOL     OW32539   1.584   3.720   9.703  0.2405  0.1211  0.2537
 7026SOL    HW132540   1.585   3.726   9.607 -0.5752  1.1946  0.3206
 7026SOL    HW232541   1.591   3.814   9.719 -0.3301 -0.1302  1.8921
 7027SOL     OW32542   2.172   3.763  15.030 -0.6362  0.3278  0.5854
 7027SOL    HW132543   2.117   3.686  15.043 -0.2649 -0.1736 -0.7791
 7027SOL    HW232544   2.111   3.825  14.989  1.8512  2.4336  0.0192
 7028SOL     OW32545   3.693   0.203   5.429  0.6034  0.8189 -0.7838
 7028SOL    HW132546   3.681   0.272   5.494 -1.0134 -1.0147  0.8559
 7028SOL    HW232547   3.603   0.171   5.415  0.8532  0.5555 -1.8463
 7029SOL     OW32548   3.653   0.147   8.838 -0.3538  0.0880  0.3613
 7029SOL    HW132549   3.695   0.232   8.827 -0.6859  0.2147  0.0765
 7029SOL    HW232550   3.601   0.175   8.914 -0.0016 -2.3109  1.4899
 7030SOL     OW32551   0.336   4.090   9.939 -0.5274 -0.0231  0.2635
 7030SOL    HW132552   0.269   4.051   9.995 -0.0726 -0.4700  0.4936
 7030SOL    HW232553   0.350   4.021   9.875 -2.7018  0.4578 -0.7222
 7031SOL     OW32554   0.304   2.676   6.537 -0.2382  0.4776 -0.1048
 7031SOL    HW132555   0.291   2.667   6.443 -1.5967  0.2286  0.1074
 7031SOL    HW232556   0.399   2.681   6.528 -0.2807 -0.0191 -0.8400
 7032SOL     OW32557   1.255   4.158   6.256 -0.3696  0.1372  0.4177
 7032SOL    HW132558   1.299   4.156   6.341 -1.2070  0.8052  0.8667
 7032SOL    HW232559   1.164   4.132   6.274  0.7756 -1.9720  3.0477
 7033SOL     OW32560   2.532   3.358   3.851 -0.3561 -0.1381  0.4101
 7033SOL    HW132561   2.522   3.430   3.913  0.0167  0.0916  0.2032
 7033SOL    HW232562   2.443   3.354   3.817 -0.6403 -1.7674  1.3240
 7034SOL     OW32563   0.421   1.932   8.829 -0.8024 -0.1663 -0.2044
 7034SOL    HW132564   0.490   1.970   8.883 -1.8399 -1.3828  1.9642
 7034SOL    HW232565   0.357   2.003   8.834  0.0012  0.5755 -0.4100
 7035SOL     OW32566   3.632   0.507   4.009  0.0790  1.2369 -0.0125
 7035SOL    HW132567   3.689   0.551   3.946  0.1175  0.5865 -0.4252
 7035SOL    HW232568   3.571   0.454   3.959  1.5008  0.9931 -1.4745
 7036SOL     OW32569   1.812   2.741   5.194 -0.1068  0.3006  0.0269
 7036SOL    HW132570   1.875   2.671   5.179  1.6719  1.7419  0.7719
 7036SOL    HW232571   1.842   2.797   5.266 -1.0943  1.0003 -0.0947
 7037SOL     OW32572   0.958   3.602  13.340  0.0286 -0.0105 -0.1351
 7037SOL    HW132573   0.882   3.629  13.392 -1.1501  1.5894 -2.6503
 7037SOL    HW232574   0.912   3.590  13.256  3.1317  0.8148 -1.9547
 7038SOL     OW32575   3.383   4.562   7.695 -0.3168 -0.3321  0.7453
 7038SOL    HW132576   3.425   4.630   7.642  1.6422 -1.1352  1.2808
 7038SOL    HW232577   3.435   4.564   7.775  2.1091 -0.9631 -0.8140
 7039SOL     OW32578   3.514   3.328  13.975  0.7450 -0.9291 -0.0334
 7039SOL    HW132579   3.517   3.322  14.071 -0.4371  1.4171  0.1402
 7039SOL    HW232580   3.427   3.291  13.964  0.3382 -0.9289  3.1969
 7040SOL     OW32581   1.046   3.797   0.242  0.1299 -0.3243 -0.1226
 7040SOL    HW132582   0.995   3.755   0.173  0.2189 -0.2164 -0.2547
 7040SOL    HW232583   1.003   3.773   0.324 -0.5461 -1.6879 -0.8870
 7041SOL     OW32584   4.504   1.846  13.121 -0.0437 -0.7537 -0.4636
 7041SOL    HW132585   4.511   1.756  13.091 -0.7908 -0.9521 -0.0581
 7041SOL    HW232586   4.504   1.896  13.039  1.6912  1.2969  0.7911
 7042SOL     OW32587   1.269   4.469   4.652 -0.4358  0.0221  0.5744
 7042SOL    HW132588   1.228   4.536   4.707  0.2424  0.3044  0.7420
 7042SOL    HW232589   1.302   4.406   4.717  1.3328 -2.2490 -2.5128
 7043SOL     OW32590   3.506   2.662   5.858 -0.2622 -0.1026 -0.0187
 7043SOL    HW132591   3.453   2.593   5.817 -2.4037  1.7425 -0.3781
 7043SOL    HW232592   3.474   2.644   5.946 -0.6086  0.3831 -0.0462
 7044SOL     OW32593   2.663   3.526   4.302 -0.3717 -0.3977 -0.0206
 7044SOL    HW132594   2.622   3.445   4.334  0.3399  0.1306  2.2421
 7044SOL    HW232595   2.691   3.565   4.385 -1.1375  0.0442  0.0374
 7045SOL     OW32596   0.552   4.031   2.631  0.5079  0.6415  1.0701
 7045SOL    HW132597   0.497   4.029   2.552 -0.3578  1.3282  1.6571
 7045SOL    HW232598   0.513   3.958   2.678 -1.8744  2.2061  1.5344
 7046SOL     OW32599   1.789   4.146   5.789  0.1200  0.6805  0.1890
 7046SOL    HW132600   1.841   4.226   5.783  1.6477 -0.1935  1.6092
 7046SOL    HW232601   1.808   4.115   5.701  0.1746  2.5899 -0.4661
 7047SOL     OW32602   0.356   1.277   4.885  0.0506  0.4062  0.2460
 7047SOL    HW132603   0.419   1.225   4.934 -0.2414 -0.8544 -0.7245
 7047SOL    HW232604   0.296   1.211   4.850  1.3344 -0.8103  0.3623
 7048SOL     OW32605   3.024   4.304  16.850  0.7721  0.6773 -0.4044
 7048SOL    HW132606   2.974   4.370  16.898 -2.3898 -2.4186  0.5487
 7048SOL    HW232607   3.024   4.343  16.762 -0.4222 -1.7887 -1.4990
 7049SOL     OW32608   3.066   1.586  10.191 -0.3206 -0.0135 -0.5345
 7049SOL    HW132609   3.091   1.575  10.283 -0.3818  3.7082 -0.0985
 7049SOL    HW232610   3.139   1.642  10.163  0.5660 -0.2843  1.2522
 7050SOL     OW32611   1.948   3.923   3.934  0.1938  0.1666  0.5042
 7050SOL    HW132612   1.966   3.913   4.027 -0.7457  0.1435  0.6810
 7050SOL    HW232613   1.856   3.948   3.946  0.0269  0.8809 -2.2502
 7051SOL     OW32614   0.796   0.277   7.175 -0.1165  0.0082 -0.0652
 7051SOL    HW132615   0.843   0.203   7.138 -0.1712 -0.7580  1.3894
 7051SOL    HW232616   0.816   0.277   7.269 -2.3639 -3.3308  0.4058
 7052SOL     OW32617   2.709   0.024  17.595 -0.5011 -0.0354 -0.2010
 7052SOL    HW132618   2.632   4.707  17.556 -2.8416  3.5290  0.6531
 7052SOL    HW232619   2.774   0.022  17.525  1.2197  0.1833  1.4012
 7053SOL     OW32620   2.434   1.486  13.161  0.2622  0.0755  0.3186
 7053SOL    HW132621   2.431   1.403  13.115 -0.0835 -0.3142  1.0508
 7053SOL    HW232622   2.364   1.539  13.124  1.0762  0.5165 -0.5874
 7054SOL     OW32623   4.258   3.157   5.067 -0.2483 -0.2560 -0.3384
 7054SOL    HW132624   4.237   3.247   5.093 -0.9975 -0.0140 -1.8142
 7054SOL    HW232625   4.188   3.113   5.116 -0.6788 -1.8379 -2.3738
 7055SOL     OW32626   3.788   4.696   9.369  0.3956 -0.5921 -0.2895
 7055SOL    HW132627   3.744   4.611   9.370 -0.0490 -0.3564 -0.0023
 7055SOL    HW232628   3.818   4.696   9.278  0.4402 -1.1975 -0.2704
 7056SOL     OW32629   3.686   2.085   0.065  0.3941 -0.2952  0.6485
 7056SOL    HW132630   3.728   2.060  17.682 -0.4471  0.2373  0.0538
 7056SOL    HW232631   3.724   2.017   0.120 -1.8008  0.1074  2.6391
 7057SOL     OW32632   1.187   0.905   3.406  0.0650 -0.0043 -0.0991
 7057SOL    HW132633   1.101   0.892   3.365 -0.8380  2.1978  1.0544
 7057SOL    HW232634   1.226   0.818   3.416  0.0190 -0.0973 -0.7295
 7058SOL     OW32635   0.395   4.356  10.108 -0.1308  0.0938  0.1410
 7058SOL    HW132636   0.391   4.409  10.028  2.2672 -0.0073 -0.0683
 7058SOL    HW232637   0.429   4.274  10.073 -1.8683 -0.6659  0.2371
 7059SOL     OW32638   0.558   3.860  11.170  0.0371  0.7444  0.0818
 7059SOL    HW132639   0.645   3.833  11.140  0.0455  1.9645 -0.9768
 7059SOL    HW232640   0.555   3.801  11.246  1.7771 -0.1942 -0.5621
 7060SOL     OW32641   0.354   0.103   9.269  0.2649 -0.4667 -0.4546
 7060SOL    HW132642   0.259   0.105   9.263  0.2463 -0.4755 -0.1698
 7060SOL    HW232643   0.374   0.027   9.324  1.8211  0.0345 -0.3036
 7061SOL     OW32644   0.398   3.132   2.374  0.3504  0.2137  0.1601
 7061SOL    HW132645   0.315   3.163   2.412 -0.8720  0.1629 -2.4818
 7061SOL    HW232646   0.421   3.214   2.332 -0.7169  0.3133 -0.2324
 7062SOL     OW32647   1.047   2.017   2.144 -0.1344 -0.7291 -0.4290
 7062SOL    HW132648   1.064   1.924   2.161 -0.3138 -0.9295 -1.3839
 7062SOL    HW232649   1.012   2.017   2.055  0.1351  0.7200 -0.5298
 7063SOL     OW32650   0.699   0.324  14.975 -0.7427 -0.2836 -0.7474
 7063SOL    HW132651   0.742   0.408  14.956 -1.7703 -0.3188 -3.2203
 7063SOL    HW232652   0.748   0.260  14.922 -0.4636 -1.3899  0.8658
 7064SOL     OW32653   1.137   1.016   3.896 -0.0956  0.0222 -0.2610
 7064SOL    HW132654   1.227   1.044   3.877 -0.4366  2.6821  2.0746
 7064SOL    HW232655   1.125   0.949   3.828  0.2513 -0.1173 -0.1822
 7065SOL     OW32656   0.311   3.558   0.894 -0.4270  0.2587  0.5315
 7065SOL    HW132657   0.384   3.584   0.950  0.7374 -1.0463 -0.3885
 7065SOL    HW232658   0.289   3.645   0.859 -2.7612 -0.7507 -0.5025
 7066SOL     OW32659   2.075   1.624  13.533 -0.1130  0.4381 -0.2260
 7066SOL    HW132660   2.084   1.556  13.599 -0.9967  0.1940 -0.3533
 7066SOL    HW232661   2.124   1.593  13.457  0.1644  1.9291 -0.6652
 7067SOL     OW32662   0.096   1.518   1.617 -0.0738  0.6819 -0.2154
 7067SOL    HW132663   0.045   1.592   1.648  0.2340  0.8860 -0.1921
 7067SOL    HW232664   0.087   1.457   1.691 -0.2527  1.6534  0.5559
 7068SOL     OW32665   1.764   2.130   5.385 -0.0478  0.5038 -0.6351
 7068SOL    HW132666   1.808   2.059   5.431  0.8642  0.0128 -2.2609
 7068SOL    HW232667   1.765   2.100   5.294  1.4042  1.9616 -1.0871
 7069SOL     OW32668   2.420   4.376   5.840 -0.0238 -0.1588 -0.1692
 7069SOL    HW132669   2.416   4.298   5.895 -2.3332  1.5663  2.0884
 7069SOL    HW232670   2.515   4.390   5.845 -0.1011  0.8625 -1.4433
 7070SOL     OW32671   2.321   4.691  13.929 -0.1831 -0.0075  0.0227
 7070SOL    HW132672   2.311   0.035  13.862 -1.2560 -0.5009 -0.3298
 7070SOL    HW232673   2.277   4.624  13.876  0.9768  0.1923 -1.1685
 7071SOL     OW32674   3.158   3.916   2.734  0.6699 -0.0111  0.0851
 7071SOL    HW132675   3.123   3.969   2.663  1.1532 -0.2177 -0.3088
 7071SOL    HW232676   3.077   3.910   2.785  1.1330  1.6772  1.0334
 7072SOL     OW32677   4.639   3.621  14.566 -0.1677 -0.3125 -0.8887
 7072SOL    HW132678   4.670   3.705  14.600 -0.9969 -0.1704 -0.4921
 7072SOL    HW232679   4.706   3.608  14.498  2.3115  0.3787  1.4360
 7073SOL     OW32680   4.538   4.348   6.346  0.6975  0.0530 -0.0882
 7073SOL    HW132681   4.514   4.255   6.341 -1.8505  0.5994  2.1521
 7073SOL    HW232682   4.574   4.351   6.257 -0.8983  1.7735 -0.6479
 7074SOL     OW32683   0.695   4.105   1.515  0.0129  0.9114 -0.1771
 7074SOL    HW132684   0.602   4.126   1.505 -0.1841  0.5692  0.9256
 7074SOL    HW232685   0.717   4.170   1.582  0.5152 -0.4205  0.9533
 7075SOL     OW32686   1.097   4.530   3.234  0.7322  0.4693 -0.1477
 7075SOL    HW132687   1.163   4.592   3.265  2.2452 -0.2110 -2.0297
 7075SOL    HW232688   1.094   4.551   3.141 -0.0254 -1.3545 -0.5260
 7076SOL     OW32689   4.451   0.685  11.556  0.4009 -0.2642  0.1430
 7076SOL    HW132690   4.372   0.654  11.600  0.4136 -2.1489 -1.1408
 7076SOL    HW232691   4.417   0.759  11.506  1.0520  0.5321  0.8936
 7077SOL     OW32692   1.590   0.038  16.677 -0.1897  0.1823 -0.2416
 7077SOL    HW132693   1.620   4.684  16.630 -0.6284 -0.4353  0.5043
 7077SOL    HW232694   1.637   0.008  16.755  0.5338 -0.0911 -0.7793
 7078SOL     OW32695   2.125   0.186   4.916 -0.3984 -0.0790  0.2960
 7078SOL    HW132696   2.104   0.262   4.862  0.8202 -0.1969 -0.3357
 7078SOL    HW232697   2.136   0.116   4.851  0.9878 -1.9055  2.5012
 7079SOL     OW32698   4.705   0.770   8.073  0.5739  0.7895  0.2052
 7079SOL    HW132699   4.691   0.676   8.090  0.1911  0.4535 -1.9472
 7079SOL    HW232700   4.695   0.812   8.158  2.3327  2.9210 -0.6414
 7080SOL     OW32701   4.681   4.228   7.679 -0.0024 -0.4224 -0.3681
 7080SOL    HW132702   4.591   4.253   7.660 -0.0800  0.0709  0.6635
 7080SOL    HW232703   0.005   4.218   7.597 -1.5963  0.2416 -1.3793
 7081SOL     OW32704   3.126   4.392  11.845 -0.3662  0.1246  0.3139
 7081SOL    HW132705   3.190   4.459  11.820  2.5066 -3.4704 -1.8412
 7081SOL    HW232706   3.175   4.316  11.814 -1.7071 -0.6181  0.0451
 7082SOL     OW32707   1.608   3.461   0.719  0.5670  0.0350 -0.0068
 7082SOL    HW132708   1.668   3.535   0.709  0.4231  0.0006 -1.0669
 7082SOL    HW232709   1.565   3.480   0.803 -1.6415 -0.6590 -0.9787
 7083SOL     OW32710   2.127   1.612  11.918  0.6931 -0.0139 -0.3327
 7083SOL    HW132711   2.208   1.585  11.962 -0.1320 -1.8469  0.0899
 7083SOL    HW232712   2.129   1.704  11.941  0.7175  0.9246 -4.1237
 7084SOL     OW32713   0.189   1.276  13.945  0.3082 -0.4081  0.1253
 7084SOL    HW132714   0.098   1.294  13.921 -0.1271 -1.8783  0.7113
 7084SOL    HW232715   0.187   1.278  14.040 -1.2899  0.3498  0.0818
 7085SOL     OW32716   4.449   3.885  16.347 -0.7264 -0.1287 -0.1513
 7085SOL    HW132717   4.502   3.813  16.381  2.4858  2.3082 -0.0247
 7085SOL    HW232718   4.470   3.876  16.254 -3.7819 -2.3771 -0.6207
 7086SOL     OW32719   2.246   0.139   8.923 -0.2910  0.5306  0.3830
 7086SOL    HW132720   2.153   0.160   8.928 -0.0228  1.7414  0.2820
 7086SOL    HW232721   2.262   0.127   8.829  0.9757  3.4288  0.2166
 7087SOL     OW32722   0.464   3.153   9.725  0.1848 -0.3144  0.1670
 7087SOL    HW132723   0.398   3.221   9.738 -1.4753 -1.9115  0.1377
 7087SOL    HW232724   0.408   3.077   9.736  1.9120 -1.5429  0.5413
 7088SOL     OW32725   4.666   0.545  10.826 -0.0054 -0.6027 -0.0875
 7088SOL    HW132726   4.604   0.529  10.897 -1.7487  1.7543 -1.0926
 7088SOL    HW232727   4.718   0.465  10.828  0.1334 -0.5259 -1.0291
 7089SOL     OW32728   0.704   1.339   5.993 -0.3996 -0.1568  0.2006
 7089SOL    HW132729   0.608   1.339   5.991 -0.3922 -0.7433 -0.0696
 7089SOL    HW232730   0.718   1.247   5.972  0.6049  0.3050 -1.1609
 7090SOL     OW32731   4.500   2.841   7.770  0.3932  0.9554 -0.6677
 7090SOL    HW132732   4.547   2.821   7.851 -2.5980 -0.9234  0.6091
 7090SOL    HW232733   4.537   2.783   7.704  3.6060  2.3718 -0.0996
 7091SOL     OW32734   3.335   2.564   8.275  0.0271  0.5178 -0.4402
 7091SOL    HW132735   3.305   2.640   8.325  1.7348  0.5211  0.5819
 7091SOL    HW232736   3.286   2.569   8.193 -0.3880 -0.7999 -0.2677
 7092SOL     OW32737   0.549   2.940   0.473  0.0468  0.9727  0.0268
 7092SOL    HW132738   0.529   2.926   0.566 -0.8996  0.6226 -0.2227
 7092SOL    HW232739   0.464   2.921   0.433  0.3800 -0.4598  0.0075
 7093SOL     OW32740   1.403   3.144  14.513  0.0306 -0.2486 -0.0294
 7093SOL    HW132741   1.364   3.186  14.436  1.6032 -1.3428 -1.4106
 7093SOL    HW232742   1.464   3.076  14.486  0.3274 -0.4537  1.1751
 7094SOL     OW32743   3.026   3.341  10.609 -0.7113 -0.8488  0.0905
 7094SOL    HW132744   2.948   3.290  10.632 -2.0904  1.4754  0.5541
 7094SOL    HW232745   3.041   3.379  10.696 -0.4388 -2.3127  0.6772
 7095SOL     OW32746   2.260   4.316   2.598 -0.5159  0.6523 -0.5384
 7095SOL    HW132747   2.265   4.319   2.502 -4.6881  1.8204 -0.7370
 7095SOL    HW232748   2.326   4.256   2.631 -3.2813 -1.5598  0.9554
 7096SOL     OW32749   0.894   3.992   7.905  0.1659  0.5742 -0.8735
 7096SOL    HW132750   0.821   4.043   7.870 -0.9903  0.5576  1.5079
 7096SOL    HW232751   0.852   3.911   7.932 -0.2063 -0.0181 -3.2266
 7097SOL     OW32752   4.313   0.423   4.322  0.4759 -0.0647 -0.6853
 7097SOL    HW132753   4.297   0.411   4.415 -1.8318  0.4352 -1.0091
 7097SOL    HW232754   4.362   0.345   4.296  0.8490 -0.5724  1.5468
 7098SOL     OW32755   0.103   2.392   6.646 -0.0541 -0.0426  0.0371
 7098SOL    HW132756   0.020   2.390   6.695  0.5271  1.1027  1.0782
 7098SOL    HW232757   0.073   2.421   6.560 -1.1425  0.0436  0.4379
 7099SOL     OW32758   3.646   1.191  12.304 -0.2265 -0.8902  0.2166
 7099SOL    HW132759   3.572   1.219  12.250 -0.2971 -0.6807  0.4211
 7099SOL    HW232760   3.602   1.159  12.383 -1.4234  2.0565  0.7225
 7100SOL     OW32761   0.899   1.604   6.464 -0.4372 -0.3335  0.2263
 7100SOL    HW132762   0.980   1.607   6.413 -0.2034  0.9409  0.6828
 7100SOL    HW232763   0.844   1.654   6.404 -1.5584 -0.6979  0.9507
 7101SOL     OW32764   0.306   3.365   4.583  0.6475 -0.4430 -0.0670
 7101SOL    HW132765   0.246   3.383   4.656  1.8158  1.2045  0.4785
 7101SOL    HW232766   0.336   3.275   4.594  0.4002 -0.6068 -0.7611
 7102SOL     OW32767   2.850   0.468   8.109 -0.5364 -0.7277 -0.8063
 7102SOL    HW132768   2.819   0.380   8.088 -0.8898 -0.6319 -0.6815
 7102SOL    HW232769   2.774   0.507   8.152 -0.5605 -1.3401 -0.3031
 7103SOL     OW32770   1.628   4.268   8.779 -0.4003  0.7376 -0.1153
 7103SOL    HW132771   1.603   4.259   8.871  1.0346 -1.5303  0.0600
 7103SOL    HW232772   1.676   4.186   8.770 -1.4722  0.1426 -0.3785
 7104SOL     OW32773   4.232   1.491   6.576  0.0173 -0.1824  0.2308
 7104SOL    HW132774   4.307   1.448   6.616  0.0463 -0.9972 -0.6982
 7104SOL    HW232775   4.163   1.426   6.570  1.2918 -1.5302  0.3083
 7105SOL     OW32776   3.899   0.419  13.732  0.3635 -0.1221  0.0428
 7105SOL    HW132777   3.860   0.332  13.738  0.3519 -0.1719 -0.6880
 7105SOL    HW232778   3.887   0.462  13.816 -0.4589  1.6298 -0.9802
 7106SOL     OW32779   3.432   3.570   1.274 -0.0340  0.6719  0.9251
 7106SOL    HW132780   3.523   3.569   1.244 -0.0430  1.1091  0.8825
 7106SOL    HW232781   3.437   3.496   1.334 -1.6513  1.2963  1.8582
 7107SOL     OW32782   4.709   4.569   3.927 -0.4578 -0.7617  0.3173
 7107SOL    HW132783   0.079   4.553   3.923 -0.6700 -2.0953  0.6727
 7107SOL    HW232784   4.679   4.483   3.898 -1.2757 -1.2773  2.7649
 7108SOL     OW32785   2.157   2.452   0.288  0.4003 -0.1288  0.6754
 7108SOL    HW132786   2.102   2.529   0.295 -0.3245 -0.1655 -4.1482
 7108SOL    HW232787   2.232   2.476   0.342 -0.6570 -0.4430  2.2614
 7109SOL     OW32788   0.965   2.603  14.787  0.5992  0.7003 -0.3343
 7109SOL    HW132789   0.952   2.669  14.718 -0.8161 -1.6159 -2.2748
 7109SOL    HW232790   1.024   2.535  14.753  0.6543  0.1296  0.9155
 7110SOL     OW32791   4.210   1.018   9.179 -0.3470 -1.4232 -0.2139
 7110SOL    HW132792   4.145   0.975   9.235 -0.9385  0.3686  0.4689
 7110SOL    HW232793   4.292   1.007   9.229  0.5345  1.5224 -1.0043
 7111SOL     OW32794   3.980   4.653   9.549 -0.1101  0.4306  0.0495
 7111SOL    HW132795   3.919   4.608   9.607 -0.6531  2.5604  1.1267
 7111SOL    HW232796   3.920   4.685   9.482  2.9184 -0.6231 -3.2312
 7112SOL     OW32797   3.405   0.876  13.111  0.2803  0.2172  0.0199
 7112SOL    HW132798   3.470   0.847  13.048  2.5667  1.7018  1.7038
 7112SOL    HW232799   3.391   0.966  13.082 -0.3187 -0.1264 -0.7665
 7113SOL     OW32800   1.113   4.059  14.248  0.1476 -0.0105  0.2348
 7113SOL    HW132801   1.105   4.085  14.157  3.0796 -0.8408 -0.2759
 7113SOL    HW232802   1.159   3.975  14.241  1.0443  0.3698  1.4497
 7114SOL     OW32803   1.617   4.409  17.395  0.4164  0.1566 -0.0206
 7114SOL    HW132804   1.677   4.337  17.414 -0.3141 -0.9438 -1.8217
 7114SOL    HW232805   1.605   4.444  17.483 -1.0058  2.8078 -1.2940
 7115SOL     OW32806   4.351   3.844   7.523  0.0287 -0.1182 -0.3615
 7115SOL    HW132807   4.271   3.825   7.473 -0.0023  1.3567 -0.8927
 7115SOL    HW232808   4.333   3.933   7.555  2.6733  0.4376 -0.4386
 7116SOL     OW32809   4.525   3.215   8.970  0.5352  0.7253  0.1659
 7116SOL    HW132810   4.574   3.224   8.888  0.1651 -0.2832 -0.1777
 7116SOL    HW232811   4.528   3.120   8.985 -1.6534  1.0652  2.7699
 7117SOL     OW32812   1.482   3.628   9.042  0.5353 -0.3690  0.1534
 7117SOL    HW132813   1.555   3.678   9.006 -0.1205 -0.0667 -0.7535
 7117SOL    HW232814   1.528   3.560   9.092  0.8138 -0.6609 -0.5057
 7118SOL     OW32815   0.073   3.044   0.350  0.1380 -0.0582 -0.5015
 7118SOL    HW132816   0.046   3.100   0.423 -0.7264  0.2152 -1.0291
 7118SOL    HW232817   4.712   3.026   0.310 -0.2680 -0.1483  0.3900
 7119SOL     OW32818   0.482   1.305   6.221  0.1269  0.3652 -0.3789
 7119SOL    HW132819   0.562   1.351   6.246  0.8234 -0.3058 -1.3459
 7119SOL    HW232820   0.435   1.366   6.165 -1.0708  0.3872  0.6615
 7120SOL     OW32821   0.698   3.260   6.650  0.6163  0.2211 -0.6175
 7120SOL    HW132822   0.706   3.207   6.571 -0.0063  0.1240 -0.6164
 7120SOL    HW232823   0.771   3.240   6.710 -0.7495 -1.1001  0.5940
 7121SOL     OW32824   0.941   1.460   6.042  0.7904  0.6314  0.3735
 7121SOL    HW132825   0.855   1.448   6.002  0.6432 -1.8361  1.4354
 7121SOL    HW232826   1.005   1.417   5.986  0.9657 -0.5039  1.4458
 7122SOL     OW32827   4.514   2.842   4.820  0.0951 -1.1704 -0.1788
 7122SOL    HW132828   4.515   2.925   4.771  0.1771 -1.3370 -0.4569
 7122SOL    HW232829   4.560   2.783   4.761  2.0472 -1.0339  1.1785
 7123SOL     OW32830   1.686   2.742   7.135 -0.0148 -0.2460  0.6456
 7123SOL    HW132831   1.762   2.731   7.192 -0.4520 -3.6558  0.5924
 7123SOL    HW232832   1.655   2.832   7.149 -2.1022 -0.7385 -0.7724
 7124SOL     OW32833   0.287   0.796  15.873  0.1467 -0.7778  0.0198
 7124SOL    HW132834   0.340   0.777  15.796  1.9097  2.1591  0.5078
 7124SOL    HW232835   0.209   0.759  15.832  0.6827 -1.6877 -0.1746
 7125SOL     OW32836   1.996   4.123   7.512  0.2741 -0.2012  0.2983
 7125SOL    HW132837   1.994   4.079   7.427 -0.1246  0.6082 -0.1128
 7125SOL    HW232838   2.072   4.088   7.558 -0.8922 -0.2987  2.1354
 7126SOL     OW32839   0.447   1.435   3.563  0.2034  0.3719  0.1689
 7126SOL    HW132840   0.448   1.431   3.467 -2.5747 -1.5467  0.2208
 7126SOL    HW232841   0.354   1.456   3.573 -0.2107 -0.9942 -0.6829
 7127SOL     OW32842   2.253   1.740   4.681  0.2867 -0.2060 -0.1264
 7127SOL    HW132843   2.280   1.718   4.592 -0.4496  0.5364 -0.5355
 7127SOL    HW232844   2.332   1.783   4.711 -0.4556  2.0868 -1.4308
 7128SOL     OW32845   3.598   1.412   5.487 -0.3475 -0.2153 -0.5323
 7128SOL    HW132846   3.600   1.365   5.570  2.2254  0.4547 -0.2231
 7128SOL    HW232847   3.506   1.438   5.484  0.0357  1.1380 -0.4355
 7129SOL     OW32848   2.125   4.116   9.570 -0.4767  0.1758  0.1823
 7129SOL    HW132849   2.072   4.191   9.542 -1.5428 -0.0568  1.5769
 7129SOL    HW232850   2.106   4.127   9.663 -1.6346  0.0957 -0.0447
 7130SOL     OW32851   3.365   0.556   5.081 -0.3175 -1.0831 -0.1764
 7130SOL    HW132852   3.452   0.593   5.066 -0.8630  0.0974 -0.3804
 7130SOL    HW232853   3.383   0.468   5.113 -0.2824 -0.5900  1.1351
 7131SOL     OW32854   2.686   0.835  15.473 -0.3986  0.2186  0.0315
 7131SOL    HW132855   2.623   0.899  15.505  0.3965  0.4310  1.1662
 7131SOL    HW232856   2.657   0.754  15.515  0.5341 -0.8283 -1.3382
 7132SOL     OW32857   4.601   4.210   4.961  0.6293  0.3198 -0.3305
 7132SOL    HW132858   4.656   4.280   4.997 -1.3013  1.4077  0.5169
 7132SOL    HW232859   4.511   4.236   4.979  0.8055  1.3202 -0.9330
 7133SOL     OW32860   4.433   2.716  12.979  0.0919  0.7006 -0.4705
 7133SOL    HW132861   4.358   2.675  13.023 -1.6268  2.9904 -1.2405
 7133SOL    HW232862   4.415   2.742  12.888 -0.7946 -0.1204 -0.5334
 7134SOL     OW32863   2.139   3.686   3.966 -0.2529  0.4014  0.3007
 7134SOL    HW132864   2.143   3.686   3.871  0.8933  1.1854  0.3515
 7134SOL    HW232865   2.058   3.637   3.983 -0.5062  0.9211  0.6042
 7135SOL     OW32866   4.654   4.593   1.798  0.3922  0.1365 -0.1899
 7135SOL    HW132867   4.690   4.519   1.847 -1.5892 -1.1906 -0.7472
 7135SOL    HW232868   4.687   4.669   1.847  0.7518  1.0905 -1.9300
 7136SOL     OW32869   4.046   1.838  13.108 -0.5666 -0.1472 -0.4344
 7136SOL    HW132870   3.951   1.835  13.097 -0.4881 -0.5593 -0.9850
 7136SOL    HW232871   4.066   1.887  13.028 -1.0514  1.1098  0.2040
 7137SOL     OW32872   0.785   2.955   3.471  0.1212  0.3557  0.2198
 7137SOL    HW132873   0.752   2.892   3.407  0.8755 -0.3289  0.5134
 7137SOL    HW232874   0.871   2.973   3.433  0.0729 -2.3655 -1.1480
 7138SOL     OW32875   2.522   1.177   2.682 -0.1799  0.7059  0.1788
 7138SOL    HW132876   2.569   1.140   2.757 -0.9978  1.3757  1.0153
 7138SOL    HW232877   2.581   1.161   2.609  0.1722 -0.8745  0.7966
 7139SOL     OW32878   4.522   1.775   9.985  0.0951 -0.2009 -0.0219
 7139SOL    HW132879   4.489   1.740  10.068 -0.6921  2.8443  0.9721
 7139SOL    HW232880   4.483   1.704   9.935  1.0785 -0.2591 -0.7201
 7140SOL     OW32881   3.622   2.713   1.356  0.6105 -0.2971 -0.2264
 7140SOL    HW132882   3.565   2.687   1.429  0.5053  0.7763  0.0741
 7140SOL    HW232883   3.707   2.729   1.397  0.6231  0.3095 -0.4861
 7141SOL     OW32884   4.287   3.264  12.445  0.9482 -0.4530 -0.1535
 7141SOL    HW132885   4.368   3.292  12.487 -0.4361  0.8683  1.6395
 7141SOL    HW232886   4.218   3.278  12.511 -0.1060  1.2784 -1.6275
 7142SOL     OW32887   0.809   3.113  11.686 -0.0069  0.0041 -0.1848
 7142SOL    HW132888   0.834   3.027  11.655 -0.2710  0.3463 -1.3402
 7142SOL    HW232889   0.854   3.185  11.642  2.5050 -0.9057  0.9238
 7143SOL     OW32890   4.154   1.766  17.371  0.7496  0.2569  0.2659
 7143SOL    HW132891   4.248   1.747  17.373  0.5193 -0.7017  1.5149
 7143SOL    HW232892   4.168   1.861  17.366  0.0535  0.2900 -1.1694
 7144SOL     OW32893   4.556   3.036   6.845  0.0350 -0.2059 -0.0055
 7144SOL    HW132894   4.553   3.092   6.923  2.7337 -0.0643 -0.0155
 7144SOL    HW232895   4.467   3.053   6.814  0.0309 -0.4877 -0.1467
 7145SOL     OW32896   1.579   0.248   5.337  0.4906  0.1316  0.5156
 7145SOL    HW132897   1.498   0.294   5.359  0.7093  0.3640  0.8373
 7145SOL    HW232898   1.621   0.237   5.422  1.0800 -0.3103  0.1657
 7146SOL     OW32899   4.022   3.595   9.498  0.2686 -0.1221 -0.0594
 7146SOL    HW132900   3.975   3.656   9.554  2.5767  1.1133  0.5294
 7146SOL    HW232901   4.108   3.636   9.501 -0.9585  2.6105 -2.1483
 7147SOL     OW32902   3.983   0.008   8.312 -0.3393 -0.5939 -0.3152
 7147SOL    HW132903   3.918   4.719   8.382 -1.3482 -1.3014 -1.4014
 7147SOL    HW232904   3.933   0.059   8.248  0.5494  1.3941  0.5620
 7148SOL     OW32905   0.039   0.335   7.745 -0.4220 -0.3687 -0.8063
 7148SOL    HW132906   0.009   0.313   7.658  0.1239 -0.3413 -1.0035
 7148SOL    HW232907   0.057   0.249   7.782 -0.1741 -0.9476 -2.2776
 7149SOL     OW32908   3.688   2.345   7.564 -0.2742  0.6420  0.0559
 7149SOL    HW132909   3.621   2.406   7.594 -2.9213 -2.6425  0.7228
 7149SOL    HW232910   3.770   2.392   7.583 -0.3819  1.6338 -1.9205
 7150SOL     OW32911   1.825   1.443   0.189 -0.0622 -0.1552 -0.3466
 7150SOL    HW132912   1.817   1.379   0.118  1.1881 -1.5490  0.7895
 7150SOL    HW232913   1.830   1.390   0.268  2.0809  0.2997 -0.1852
 7151SOL     OW32914   3.941   0.649   1.523 -0.3321  0.0751  0.1770
 7151SOL    HW132915   3.879   0.611   1.461  0.0546  1.6462 -1.1733
 7151SOL    HW232916   3.997   0.694   1.460 -1.3756  0.5649 -0.3859
 7152SOL     OW32917   1.779   3.709   1.964 -0.2720 -0.0189 -0.3644
 7152SOL    HW132918   1.704   3.744   1.917 -0.2926 -0.1644 -0.4400
 7152SOL    HW232919   1.800   3.772   2.033  0.4651 -0.4930 -0.1506
 7153SOL     OW32920   0.731   3.458  13.152 -0.4100  0.7304  0.2971
 7153SOL    HW132921   0.649   3.412  13.168  0.0815 -1.2736 -2.7892
 7153SOL    HW232922   0.721   3.473  13.058  1.0527 -0.1446 -0.0013
 7154SOL     OW32923   3.122   3.380   9.995  0.0891  0.6480  0.2258
 7154SOL    HW132924   3.111   3.304  10.052  0.1430  2.5587  2.7780
 7154SOL    HW232925   3.087   3.458  10.039  1.5918  1.6668 -0.3893
 7155SOL     OW32926   1.871   2.925   1.057  0.5251 -0.2049 -0.1450
 7155SOL    HW132927   1.799   2.869   1.084 -0.1486  0.5196 -0.4348
 7155SOL    HW232928   1.823   3.002   1.026  1.2878  1.0007  1.5867
 7156SOL     OW32929   0.632   1.109   5.737 -0.1149  0.3098  0.6512
 7156SOL    HW132930   0.604   1.042   5.674  2.3333 -0.0001 -0.1267
 7156SOL    HW232931   0.692   1.159   5.682  0.6015  1.0219  2.1038
 7157SOL     OW32932   4.421   2.907   6.420  0.2754 -0.4045 -0.2699
 7157SOL    HW132933   4.330   2.878   6.420  0.4740 -1.0249 -0.6818
 7157SOL    HW232934   4.454   2.825   6.384 -1.7546 -0.2965 -2.4161
 7158SOL     OW32935   3.788   1.712   2.066 -0.2381 -0.8424 -0.2010
 7158SOL    HW132936   3.828   1.625   2.064 -1.1354 -1.2806  1.1369
 7158SOL    HW232937   3.760   1.712   1.974 -1.9534 -0.4793  0.3194
 7159SOL     OW32938   4.139   2.019   3.603  0.5665 -0.2338  0.0467
 7159SOL    HW132939   4.229   2.044   3.585 -0.1918  1.0370 -2.0112
 7159SOL    HW232940   4.083   2.097   3.611  1.2474  0.3365 -0.7593
 7160SOL     OW32941   1.515   2.812  16.625 -0.2332  0.0264 -0.4886
 7160SOL    HW132942   1.458   2.736  16.635  0.7991 -0.7125 -0.2186
 7160SOL    HW232943   1.552   2.813  16.713 -0.0903  0.4000 -0.5513
 7161SOL     OW32944   1.249   0.520   7.563 -0.1273 -0.0894 -0.3046
 7161SOL    HW132945   1.167   0.554   7.597  0.3025  1.4472 -0.8273
 7161SOL    HW232946   1.322   0.553   7.614  0.0627 -0.1265 -0.5502
 7162SOL     OW32947   4.579   4.301   2.448 -0.1890  1.0452  0.4316
 7162SOL    HW132948   4.643   4.362   2.484 -0.8121  0.3654  2.6703
 7162SOL    HW232949   4.607   4.293   2.357  0.9390  1.8583  0.7088
 7163SOL     OW32950   1.016   0.844   6.152 -0.4339 -0.3973  0.8614
 7163SOL    HW132951   1.034   0.916   6.212  0.1459 -0.2135  0.4647
 7163SOL    HW232952   1.000   0.890   6.070 -1.2364  0.3619  1.4426
 7164SOL     OW32953   4.298   1.296   6.269 -0.2019 -0.0840 -0.0587
 7164SOL    HW132954   4.288   1.202   6.254 -1.1106  0.4046 -2.4699
 7164SOL    HW232955   4.364   1.281   6.337  0.6373  0.5676 -0.7279
 7165SOL     OW32956   0.184   3.099   3.644 -0.5830  0.0342  0.1234
 7165SOL    HW132957   0.113   3.104   3.580 -0.9500  0.6983  0.5797
 7165SOL    HW232958   0.140   3.062   3.720  0.3913  0.6759  1.0165
 7166SOL     OW32959   2.433   3.920   4.137  0.7119 -0.0299  0.4625
 7166SOL    HW132960   2.471   3.930   4.224  0.6226 -0.1147  0.5118
 7166SOL    HW232961   2.508   3.885   4.090  0.9648  1.3328 -0.1367
 7167SOL     OW32962   1.679   2.939   6.251 -0.3218 -0.7714  0.2329
 7167SOL    HW132963   1.595   2.984   6.239  0.6881  1.1608  0.3858
 7167SOL    HW232964   1.688   2.877   6.179  0.0308 -0.5326  0.0714
 7168SOL     OW32965   4.588   0.541   0.646 -0.3862 -0.0477  0.2130
 7168SOL    HW132966   4.678   0.507   0.652  0.2346  1.8080  1.2155
 7168SOL    HW232967   4.536   0.462   0.663 -2.3857  1.4717  1.0318
 7169SOL     OW32968   2.640   4.647  10.726  0.1747  0.2422  0.9951
 7169SOL    HW132969   2.717   4.688  10.765 -1.0913  1.5464  2.1209
 7169SOL    HW232970   2.673   4.562  10.699  1.5596  1.8327 -2.3478
 7170SOL     OW32971   4.388   3.158   2.992  0.2996 -0.4388  0.1136
 7170SOL    HW132972   4.454   3.219   3.026 -0.3385 -0.6066  1.6552
 7170SOL    HW232973   4.334   3.177   3.068  0.2735  2.3856 -0.5849
 7171SOL     OW32974   2.414   1.697   1.556 -0.5055 -0.1504  0.2354
 7171SOL    HW132975   2.337   1.687   1.613 -2.1765  0.8347 -1.8463
 7171SOL    HW232976   2.402   1.622   1.498  0.1502 -1.4795  1.8302
 7172SOL     OW32977   0.880   0.721   2.635 -0.3198  0.3486 -0.7100
 7172SOL    HW132978   0.918   0.767   2.560  1.2540  0.4126  0.1363
 7172SOL    HW232979   0.906   0.633   2.607 -2.6882  0.0866 -2.0761
 7173SOL     OW32980   2.039   1.727   4.066  0.0830  0.0580 -0.0122
 7173SOL    HW132981   2.045   1.634   4.089 -1.3571 -0.5545 -2.1549
 7173SOL    HW232982   1.954   1.718   4.023  0.8611 -1.4651 -1.2285
 7174SOL     OW32983   3.927   0.562   1.763 -0.1630 -0.3862 -0.5091
 7174SOL    HW132984   3.992   0.492   1.772 -1.5882 -1.8652 -1.5318
 7174SOL    HW232985   3.951   0.590   1.675  1.7955 -2.6254 -0.6946
 7175SOL     OW32986   4.068   1.735  14.843 -0.0653 -0.2149 -0.1570
 7175SOL    HW132987   4.140   1.786  14.880  0.6232 -0.9938 -0.3940
 7175SOL    HW232988   4.002   1.801  14.825  1.5087  1.2094 -0.6371
 7176SOL     OW32989   3.740   2.489   1.231 -0.1262  0.0363 -0.1061
 7176SOL    HW132990   3.681   2.547   1.279  1.9748  1.0915  1.1632
 7176SOL    HW232991   3.689   2.451   1.159  0.2511 -1.2895  0.3423
 7177SOL     OW32992   2.423   1.995   6.525  0.1210 -0.0364 -0.0027
 7177SOL    HW132993   2.417   1.914   6.575  0.0964  0.4199  0.7224
 7177SOL    HW232994   2.405   1.968   6.435  0.8874 -1.8341  0.3822
 7178SOL     OW32995   2.948   2.261   5.979 -0.1748 -0.0840  0.1467
 7178SOL    HW132996   2.889   2.193   5.947 -1.4475  1.6972 -1.3162
 7178SOL    HW232997   2.997   2.290   5.903 -1.5570 -1.4436 -1.2459
 7179SOL     OW32998   3.990   0.494  14.234 -0.1683 -0.8589 -0.1528
 7179SOL    HW132999   4.075   0.456  14.258 -0.4582 -1.9325 -0.8277
 7179SOL    HW233000   3.953   0.499  14.323  0.0600  0.2462 -0.1221
 7180SOL     OW33001   0.193   3.767   1.523 -0.0937  0.8415 -0.0644
 7180SOL    HW133002   0.220   3.762   1.432  0.1281  0.9145 -0.0024
 7180SOL    HW233003   0.178   3.861   1.537 -1.7904  0.1964  2.4843
 7181SOL     OW33004   3.643   2.412   4.981 -0.8153  0.0213  0.2140
 7181SOL    HW133005   3.604   2.387   4.898  0.2470 -0.6448 -0.0830
 7181SOL    HW233006   3.735   2.385   4.982 -0.4686  1.1273 -1.5187
 7182SOL     OW33007   4.492   4.332   1.379 -0.0829  0.0568 -0.0064
 7182SOL    HW133008   4.530   4.378   1.304 -0.2020 -1.3867 -0.9535
 7182SOL    HW233009   4.402   4.364   1.375  0.2641  1.2452  1.5770
 7183SOL     OW33010   0.861   3.632   1.385 -0.4958 -0.8587  0.0541
 7183SOL    HW133011   0.825   3.677   1.461 -2.7826 -1.1524 -0.8496
 7183SOL    HW233012   0.825   3.544   1.394 -0.3393 -1.0139 -0.7944
 7184SOL     OW33013   1.689   0.126   5.566  0.4701 -0.0974  0.3602
 7184SOL    HW133014   1.775   0.084   5.563 -0.5989 -2.3288  0.8212
 7184SOL    HW233015   1.664   0.126   5.658 -2.7184 -0.2791 -0.5047
 7185SOL     OW33016   1.681   2.189  11.738 -0.2037  0.0261  0.1904
 7185SOL    HW133017   1.719   2.270  11.705  0.0614  0.3412  1.2551
 7185SOL    HW233018   1.596   2.220  11.769  0.7411  1.6409  1.2230
 7186SOL     OW33019   4.337   0.470   3.596  0.4704  0.1545 -0.3885
 7186SOL    HW133020   4.255   0.519   3.594  1.5972  2.0123 -0.3785
 7186SOL    HW233021   4.388   0.521   3.658  1.1793 -0.5601 -0.3733
 7187SOL     OW33022   2.457   4.111   7.891 -0.2910  0.2048  0.4062
 7187SOL    HW133023   2.449   4.094   7.985  0.2895 -2.3856 -0.0325
 7187SOL    HW233024   2.421   4.028   7.863 -1.9741  0.8382  0.7006
 7188SOL     OW33025   1.242   3.578   0.456  0.1585  0.5789 -0.6149
 7188SOL    HW133026   1.253   3.655   0.512 -1.8094  1.1667 -1.0558
 7188SOL    HW233027   1.331   3.565   0.423 -0.0935  2.2631 -1.9384
 7189SOL     OW33028   4.237   0.192   3.855 -0.1697  0.3257 -0.1005
 7189SOL    HW133029   4.154   0.145   3.854  0.8748 -1.5234 -1.9404
 7189SOL    HW233030   4.299   0.132   3.814 -0.8138 -0.0826 -0.4865
 7190SOL     OW33031   3.054   1.039   8.730  0.4876  0.6695 -0.1188
 7190SOL    HW133032   2.998   1.082   8.795 -1.7389 -0.9103 -1.0240
 7190SOL    HW233033   2.990   0.988   8.681  0.2395  1.5479 -0.7071
 7191SOL     OW33034   4.695   2.425   4.516 -0.5886  0.0744 -0.3174
 7191SOL    HW133035   4.700   2.465   4.429  1.0901 -2.8022 -1.5360
 7191SOL    HW233036   0.059   2.390   4.522 -0.7983 -0.4272 -0.1777
 7192SOL     OW33037   3.801   3.120   7.210  0.2054 -0.2559 -0.2402
 7192SOL    HW133038   3.809   3.106   7.304 -1.1810 -4.0914 -0.6893
 7192SOL    HW233039   3.795   3.216   7.208  1.7110 -0.1879 -2.2858
 7193SOL     OW33040   3.365   4.640   0.089 -0.5236 -0.1989 -0.0702
 7193SOL    HW133041   3.406   0.000   0.105  1.3225 -0.5923 -2.6732
 7193SOL    HW233042   3.300   4.634   0.159  1.0060 -1.3818  1.2189
 7194SOL     OW33043   1.576   3.159   6.439 -0.1605  0.5530 -0.3359
 7194SOL    HW133044   1.549   3.068   6.433 -1.0477  0.5730  3.1556
 7194SOL    HW233045   1.560   3.182   6.347 -0.4839  1.5140 -0.0383
 7195SOL     OW33046   0.636   1.151   8.734  0.4231 -0.0347 -0.0748
 7195SOL    HW133047   0.550   1.193   8.734  0.1968 -0.4983  0.3075
 7195SOL    HW233048   0.660   1.156   8.642 -0.5516 -1.3445 -0.4069
 7196SOL     OW33049   3.306   2.760  12.252  0.1714  0.3670 -0.0958
 7196SOL    HW133050   3.339   2.732  12.167  0.9596 -0.2087  0.4002
 7196SOL    HW233051   3.217   2.729  12.233  1.0631 -1.1435 -1.7482
 7197SOL     OW33052   2.892   4.008   8.691 -0.1858  0.0231  0.5741
 7197SOL    HW133053   2.878   3.979   8.601 -0.3752  2.6095 -0.2305
 7197SOL    HW233054   2.984   3.986   8.704 -0.4276 -1.0916  0.4534
 7198SOL     OW33055   0.857   4.076  13.400 -0.1053  0.2238 -0.5025
 7198SOL    HW133056   0.785   4.068  13.464  0.8176 -0.0207  0.5046
 7198SOL    HW233057   0.938   4.085  13.451 -0.2550  1.0557 -0.4055
 7199SOL     OW33058   2.020   2.280   8.519  0.3534  0.2125 -0.4814
 7199SOL    HW133059   2.065   2.307   8.599 -0.0513 -2.1319  0.5263
 7199SOL    HW233060   1.942   2.241   8.558  1.6234 -0.6371  1.1879
 7200SOL     OW33061   0.858   3.168   3.680  0.6267 -0.0420  0.2682
 7200SOL    HW133062   0.791   3.128   3.623  1.3107 -1.6792  0.6029
 7200SOL    HW233063   0.904   3.089   3.709 -0.5338  0.1574  2.7165
 7201SOL     OW33064   2.886   3.642   4.180  0.0446  0.3182  0.0300
 7201SOL    HW133065   2.873   3.727   4.224 -1.3447 -1.2228  2.6143
 7201SOL    HW233066   2.806   3.600   4.211  0.3621 -0.3575 -0.0615
 7202SOL     OW33067   4.295   0.582   4.614 -0.3779  0.4986  0.1024
 7202SOL    HW133068   4.326   0.641   4.546  0.6553 -1.0448 -0.7810
 7202SOL    HW233069   4.200   0.582   4.600 -0.5769  0.7274  1.4112
 7203SOL     OW33070   2.184   0.914   0.996 -0.1913 -0.2633 -0.4237
 7203SOL    HW133071   2.123   0.881   1.062  0.4851  0.4909  0.5810
 7203SOL    HW233072   2.128   0.981   0.957 -0.0895  0.7503  1.1339
 7204SOL     OW33073   2.544   3.873   5.870 -0.0697 -0.1509 -0.6068
 7204SOL    HW133074   2.638   3.887   5.875 -0.0311  0.0660 -1.8519
 7204SOL    HW233075   2.530   3.843   5.960  0.3798 -0.9247 -0.7934
 7205SOL     OW33076   3.582   1.589   6.135  0.3936 -0.4918 -0.2758
 7205SOL    HW133077   3.641   1.660   6.160 -0.5804  0.5238 -0.8527
 7205SOL    HW233078   3.506   1.647   6.135  0.7518 -0.0168 -1.3398
 7206SOL     OW33079   3.680   1.087   1.403  0.2750  0.2880  0.5278
 7206SOL    HW133080   3.775   1.078   1.394  0.2300 -0.4753  0.7771
 7206SOL    HW233081   3.667   1.133   1.486  0.8222 -0.8158  1.2190
 7207SOL     OW33082   3.953   4.724   4.863  0.3202 -0.2186 -0.1606
 7207SOL    HW133083   3.981   0.082   4.823 -1.2676  0.7968  0.8189
 7207SOL    HW233084   4.032   4.691   4.907  0.3379 -1.0383 -0.7972
 7208SOL     OW33085   4.523   4.477   4.597  0.0583 -0.2823  0.5098
 7208SOL    HW133086   4.584   4.447   4.529 -2.3280  0.7161 -2.0242
 7208SOL    HW233087   4.553   4.566   4.613  0.9094 -0.0215 -2.6393
 7209SOL     OW33088   4.329   3.103   6.151 -0.1412 -0.1078  0.4738
 7209SOL    HW133089   4.244   3.144   6.167 -0.3411  0.4123 -1.8648
 7209SOL    HW233090   4.393   3.120   6.220  2.1708  1.6273 -2.0888
 7210SOL     OW33091   1.511   4.565  17.188  0.0738  0.1526 -0.4580
 7210SOL    HW133092   1.531   4.515  17.267  0.8110  0.7849 -0.2498
 7210SOL    HW233093   1.595   4.610  17.180  0.6421 -0.8922 -0.5053
 7211SOL     OW33094   4.442   4.017  14.312  0.0905  0.3449 -0.3247
 7211SOL    HW133095   4.348   4.016  14.330 -0.0416 -2.8105 -1.1679
 7211SOL    HW233096   4.444   3.944  14.250  1.7634  0.7105 -0.6925
 7212SOL     OW33097   2.420   3.128   5.448 -0.2138 -0.0009  0.0559
 7212SOL    HW133098   2.513   3.107   5.444 -0.5879 -1.1907 -2.2928
 7212SOL    HW233099   2.419   3.210   5.498  1.7971 -0.0600  0.1684
 7213SOL     OW33100   0.385   0.552   4.194  0.6575  0.4656  0.1132
 7213SOL    HW133101   0.349   0.476   4.149  0.2590 -0.2982  1.7240
 7213SOL    HW233102   0.474   0.524   4.211  0.3429 -1.0374 -0.7106
 7214SOL     OW33103   1.566   2.843  16.948 -0.2858 -0.1729 -0.0881
 7214SOL    HW133104   1.528   2.770  16.996 -1.7145  0.1580 -0.7088
 7214SOL    HW233105   1.554   2.917  17.008 -2.9795 -0.0917 -0.7385
 7215SOL     OW33106   4.502   0.468   7.353  0.1613 -0.3881  0.2714
 7215SOL    HW133107   4.475   0.487   7.264  2.5706  0.5716 -0.2666
 7215SOL    HW233108   4.450   0.534   7.399  0.1006  0.5921 -1.2095
 7216SOL     OW33109   4.589   2.302   3.347  0.1827 -0.0983  0.0379
 7216SOL    HW133110   4.570   2.278   3.257 -1.5895 -2.3455  1.0232
 7216SOL    HW233111   4.676   2.264   3.357 -1.0394 -2.4875  1.4879
 7217SOL     OW33112   4.172   4.191   8.791 -0.3417  0.0913  0.0191
 7217SOL    HW133113   4.165   4.128   8.719 -0.6093 -0.7188  0.7519
 7217SOL    HW233114   4.092   4.172   8.840  0.6286 -3.1667  0.3547
 7218SOL     OW33115   4.398   1.166   9.685 -0.4888  0.6085  0.5076
 7218SOL    HW133116   4.409   1.145   9.777 -0.4634  0.2189  0.4174
 7218SOL    HW233117   4.305   1.168   9.662 -0.5763 -1.7625  0.6605
 7219SOL     OW33118   3.974   1.528   8.569  0.5497 -0.2020  0.7842
 7219SOL    HW133119   3.980   1.537   8.473  0.1387  1.2979  0.9084
 7219SOL    HW233120   4.066   1.516   8.591  0.1820  1.0704  2.9600
 7220SOL     OW33121   1.513   0.050   6.956  0.3091  0.1305 -0.2831
 7220SOL    HW133122   1.509   0.145   6.969  1.2606  0.3013 -1.1967
 7220SOL    HW233123   1.551   0.051   6.868  0.0287 -1.2005 -0.4146
 7221SOL     OW33124   3.762   0.330   7.172 -0.2388 -0.0312  0.2691
 7221SOL    HW133125   3.841   0.292   7.133 -0.9537 -0.4818 -0.7230
 7221SOL    HW233126   3.794   0.418   7.193 -1.1874  0.1114  1.1163
 7222SOL     OW33127   1.722   2.655  11.203 -0.1737  0.0759  0.0516
 7222SOL    HW133128   1.709   2.733  11.148 -1.0412 -0.7257 -0.8731
 7222SOL    HW233129   1.816   2.639  11.196 -0.4382 -1.3610 -0.1097
 7223SOL     OW33130   4.376   1.602   2.867 -0.3420 -0.3801  0.1766
 7223SOL    HW133131   4.467   1.624   2.845 -0.4506  0.3352  0.4424
 7223SOL    HW233132   4.337   1.596   2.780  0.8533  0.5559 -0.4237
 7224SOL     OW33133   2.299   2.923   9.710 -0.2765  0.3167  0.3201
 7224SOL    HW133134   2.362   2.987   9.677 -1.2540  1.3466  0.4541
 7224SOL    HW233135   2.291   2.946   9.803 -1.1376 -0.9698  0.5513
 7225SOL     OW33136   0.695   2.311   4.543 -0.3051 -0.5309 -0.1817
 7225SOL    HW133137   0.744   2.386   4.578 -0.0800 -2.5202  3.6886
 7225SOL    HW233138   0.656   2.269   4.619 -0.0517 -1.7264 -0.7076
 7226SOL     OW33139   1.796   4.262   4.800 -0.2206  0.4889  0.0472
 7226SOL    HW133140   1.811   4.181   4.752  1.5942  0.2647  1.0262
 7226SOL    HW233141   1.878   4.305   4.824  0.0378  0.2332 -0.3692
 7227SOL     OW33142   1.101   4.712   8.510 -0.1118  0.0623 -0.2483
 7227SOL    HW133143   1.014   0.008   8.477 -1.0571 -1.6832  1.1690
 7227SOL    HW233144   1.149   0.013   8.431  0.4772 -2.3870 -0.6921
 7228SOL     OW33145   2.675   2.595  12.882  0.2034  0.0077 -0.0171
 7228SOL    HW133146   2.766   2.566  12.884  0.3145  0.3454 -0.1784
 7228SOL    HW233147   2.634   2.530  12.940  1.9020 -1.4024 -0.3947
 7229SOL     OW33148   1.326   1.327   5.739 -0.0606  0.3428 -0.6039
 7229SOL    HW133149   1.333   1.259   5.805 -0.0481  1.7235  0.8206
 7229SOL    HW233150   1.308   1.270   5.664 -0.6746 -0.6562  0.3141
 7230SOL     OW33151   4.663   3.224   0.538  0.2312 -0.2717 -0.5065
 7230SOL    HW133152   4.715   3.300   0.563  1.4644 -1.9105  1.9096
 7230SOL    HW233153   4.611   3.261   0.466  0.6882  1.0557 -0.1472
 7231SOL     OW33154   0.405   2.151   4.127 -0.6639  0.0454  0.0091
 7231SOL    HW133155   0.432   2.206   4.054 -0.5033  1.6942  1.2935
 7231SOL    HW233156   0.417   2.064   4.090 -0.5633 -0.1870  0.5890
 7232SOL     OW33157   2.382   4.119   2.740  0.3837 -0.1395  0.0397
 7232SOL    HW133158   2.379   4.071   2.823  1.8456 -1.1001 -0.4644
 7232SOL    HW233159   2.299   4.092   2.700  1.3080 -1.1122 -1.2294
 7233SOL     OW33160   2.372   3.708   7.691  0.0527  0.2025  0.0145
 7233SOL    HW133161   2.378   3.619   7.657 -0.6938 -0.1750  0.8630
 7233SOL    HW233162   2.342   3.690   7.780  0.4777  2.3155  0.5852
 7234SOL     OW33163   0.727   0.014   7.424 -0.0679  0.0883  0.0944
 7234SOL    HW133164   0.665   0.087   7.428 -1.1993 -0.8794  0.2860
 7234SOL    HW233165   0.806   0.054   7.389  0.8879 -1.7307  0.1679
 7235SOL     OW33166   3.848   2.217   5.189 -0.5442 -0.3061  0.6197
 7235SOL    HW133167   3.849   2.142   5.129 -0.8586  0.1394  0.0513
 7235SOL    HW233168   3.906   2.282   5.150 -1.4280 -0.0601 -0.3091
 7236SOL     OW33169   1.132   3.631   6.247  0.3447 -0.0655  0.4717
 7236SOL    HW133170   1.056   3.579   6.271 -1.0000  0.8184 -1.8166
 7236SOL    HW233171   1.184   3.622   6.327  0.5291 -0.2122  0.3351
 7237SOL     OW33172   4.033   4.234   8.181 -0.4209 -0.3783 -0.7298
 7237SOL    HW133173   4.004   4.218   8.270 -0.3129 -0.5954 -0.7334
 7237SOL    HW233174   4.018   4.148   8.142  0.1925 -1.6952  1.9714
 7238SOL     OW33175   3.981   0.649   6.823  0.0159 -0.3883  0.0210
 7238SOL    HW133176   4.043   0.591   6.779  0.7310  1.7724 -1.8486
 7238SOL    HW233177   3.999   0.735   6.784 -1.9001 -0.0348 -0.0981
 7239SOL     OW33178   0.550   0.344   0.021 -0.1928  0.0449  0.7570
 7239SOL    HW133179   0.602   0.271  17.686  0.9291  0.8936  0.6548
 7239SOL    HW233180   0.560   0.339   0.117 -1.3181  0.5660  0.8897
 7240SOL     OW33181   1.023   2.676   9.199  0.3324  0.2188  0.0498
 7240SOL    HW133182   1.114   2.684   9.227  0.0886 -0.8153  1.1614
 7240SOL    HW233183   0.972   2.708   9.274 -0.5944  2.5816 -1.5918
 7241SOL     OW33184   3.972   0.735   5.904  0.0238  0.0980 -0.0041
 7241SOL    HW133185   3.966   0.831   5.908  0.3864  0.1305 -0.2680
 7241SOL    HW233186   4.035   0.722   5.833  0.5775  0.0071  0.5057
 7242SOL     OW33187   3.987   3.177   5.388  0.0933  0.1609  0.2183
 7242SOL    HW133188   3.924   3.207   5.453  1.1565 -1.0216  1.8039
 7242SOL    HW233189   4.007   3.089   5.420 -4.4261 -0.9024  0.1333
 7243SOL     OW33190   1.170   2.182   7.241  0.0274  0.7141 -0.2576
 7243SOL    HW133191   1.175   2.186   7.336 -1.4189  2.0365 -0.2241
 7243SOL    HW233192   1.089   2.135   7.221  1.2191 -1.1813 -0.6117
 7244SOL     OW33193   1.411   1.047  15.233  0.4040  0.2589 -0.1191
 7244SOL    HW133194   1.417   0.975  15.170 -0.3926 -0.7586  0.9626
 7244SOL    HW233195   1.368   1.006  15.307  0.1887  1.1654  0.2554
 7245SOL     OW33196   3.130   0.401  10.058  0.1018  0.5466  0.1561
 7245SOL    HW133197   3.170   0.329  10.009 -1.7191 -0.7705  0.6067
 7245SOL    HW233198   3.069   0.448  10.001 -0.3084 -1.5847 -1.1247
 7246SOL     OW33199   0.558   2.305  10.706 -0.4510 -0.0850  0.2968
 7246SOL    HW133200   0.528   2.378  10.652  0.2241 -0.2294 -0.2667
 7246SOL    HW233201   0.528   2.347  10.786 -0.5460  2.5361 -1.1084
 7247SOL     OW33202   2.289   1.050   2.495  0.0007 -0.2378 -0.2202
 7247SOL    HW133203   2.259   1.100   2.572 -2.7978  0.5116 -1.7836
 7247SOL    HW233204   2.221   0.983   2.486  0.6076 -0.7413 -1.0283
 7248SOL     OW33205   4.513   2.007  16.760  0.0065  0.7439 -0.0556
 7248SOL    HW133206   4.452   2.046  16.823  0.3608 -1.2903  1.5477
 7248SOL    HW233207   4.487   2.064  16.688  0.3521  0.6400 -0.2558
 7249SOL     OW33208   3.160   1.490   3.787 -0.0358 -0.1447  0.2303
 7249SOL    HW133209   3.241   1.492   3.736 -0.6561  0.3620 -0.7217
 7249SOL    HW233210   3.186   1.548   3.859  0.9452 -0.2707 -0.0259
 7250SOL     OW33211   1.016   2.263   6.846 -0.1893 -0.1835  0.4191
 7250SOL    HW133212   1.071   2.310   6.908 -1.1544  1.6525 -0.1302
 7250SOL    HW233213   0.934   2.310   6.863 -0.2978 -0.0507 -0.4738
 7251SOL     OW33214   1.508   1.754   0.225 -0.3003 -0.3308  0.2631
 7251SOL    HW133215   1.444   1.689   0.254  0.4096 -0.4178  1.5998
 7251SOL    HW233216   1.589   1.723   0.265  0.4359  3.3474  1.5451
 7252SOL     OW33217   4.109   1.940   4.096  0.2055  0.5761  0.2122
 7252SOL    HW133218   4.136   1.899   4.013 -0.7323 -0.0217  0.2106
 7252SOL    HW233219   4.148   2.027   4.082 -1.2689  1.0677 -0.8572
 7253SOL     OW33220   2.619   3.048   4.211 -0.2404  0.3765 -0.2721
 7253SOL    HW133221   2.652   3.067   4.123  3.0485 -1.2176  0.6395
 7253SOL    HW233222   2.531   3.014   4.196 -0.2592 -0.0534  0.8159
 7254SOL     OW33223   3.660   1.825   6.771 -0.2195  0.3200 -0.0985
 7254SOL    HW133224   3.620   1.907   6.743  0.2735  0.0446 -1.5923
 7254SOL    HW233225   3.620   1.817   6.858 -1.3051  0.8297 -0.5433
 7255SOL     OW33226   3.830   1.553   4.639 -0.4596 -0.2022 -0.1265
 7255SOL    HW133227   3.925   1.553   4.649 -0.4434  1.8500 -0.4074
 7255SOL    HW233228   3.808   1.464   4.609 -0.1592  0.6250 -2.7923
 7256SOL     OW33229   3.355   3.914   6.010 -0.4437 -0.3192  0.1911
 7256SOL    HW133230   3.429   3.970   5.988  0.6500 -1.6862  0.3573
 7256SOL    HW233231   3.291   3.982   6.029 -1.6237 -0.6412 -2.6962
 7257SOL     OW33232   1.139   0.141   3.173  0.6973  0.3566  0.1337
 7257SOL    HW133233   1.189   0.193   3.111 -0.2261  0.7964 -0.2414
 7257SOL    HW233234   1.207   0.111   3.234  2.3369 -0.3729 -2.0323
 7258SOL     OW33235   2.722   4.106  12.891  0.0251 -0.8990 -0.3049
 7258SOL    HW133236   2.785   4.171  12.858  0.8025 -1.4357  0.1167
 7258SOL    HW233237   2.674   4.154  12.958  0.8858 -0.7271  0.1793
 7259SOL     OW33238   0.427   3.508   4.056 -0.0667  0.2670 -0.1878
 7259SOL    HW133239   0.340   3.544   4.037 -0.7630 -0.8207  0.8389
 7259SOL    HW233240   0.405   3.420   4.086 -2.2545  0.7108 -0.4618
 7260SOL     OW33241   0.764   1.047   5.403 -0.2336  0.1860 -0.1129
 7260SOL    HW133242   0.701   0.995   5.452  0.6546 -0.3516  0.4482
 7260SOL    HW233243   0.787   0.980   5.339  0.4795 -0.4700  0.8381
 7261SOL     OW33244   0.548   2.832   8.268  0.0214 -0.4382  0.3595
 7261SOL    HW133245   0.506   2.818   8.353  1.4765 -1.0900  0.9534
 7261SOL    HW233246   0.503   2.912   8.238  0.9348 -0.6101 -1.4808
 7262SOL     OW33247   3.928   4.502   6.140  0.0302  0.2469 -0.1349
 7262SOL    HW133248   3.833   4.508   6.143  0.0517 -0.3970  1.7646
 7262SOL    HW233249   3.937   4.535   6.051 -0.4998  0.0474 -0.2608
 7263SOL     OW33250   3.012   4.643   8.539 -0.1331 -0.0221 -0.1530
 7263SOL    HW133251   3.012   4.723   8.487  0.3857  0.1877  0.1671
 7263SOL    HW233252   2.919   4.628   8.553  0.4821 -3.1689  0.6618
 7264SOL     OW33253   0.632   0.173   0.757 -0.1709 -0.2090 -0.5877
 7264SOL    HW133254   0.585   0.192   0.838  1.1971  1.6869 -0.2376
 7264SOL    HW233255   0.713   0.135   0.792  0.6987  1.6851 -0.5326
 7265SOL     OW33256   2.281   4.341   7.561 -0.1903 -0.1322  0.0808
 7265SOL    HW133257   2.252   4.370   7.475  1.2106 -1.6776 -0.8973
 7265SOL    HW233258   2.292   4.251   7.531  0.0217 -1.0719  2.9718
 7266SOL     OW33259   3.275   3.523   2.841  0.0747  0.2890  0.8294
 7266SOL    HW133260   3.294   3.442   2.795  1.3751 -0.1775  2.2158
 7266SOL    HW233261   3.222   3.566   2.773  0.2365 -1.2049 -0.2370
 7267SOL     OW33262   3.635   2.558  10.221 -0.0532  0.1446  0.5686
 7267SOL    HW133263   3.551   2.514  10.233  0.2496 -0.4591  0.4301
 7267SOL    HW233264   3.673   2.512  10.147  1.4775 -0.7264  1.8916
 7268SOL     OW33265   4.367   0.165   0.451  0.4778 -0.6769  0.2888
 7268SOL    HW133266   4.401   0.194   0.535  1.6477 -2.1274  0.3139
 7268SOL    HW233267   4.434   0.207   0.397 -1.5256  0.7739 -1.0621
 7269SOL     OW33268   1.183   3.967  11.893  0.1535  0.0531 -0.4828
 7269SOL    HW133269   1.231   3.886  11.905 -2.3519 -1.4009 -0.1924
 7269SOL    HW233270   1.191   3.998  11.983  4.2987  0.1525 -0.9272
 7270SOL     OW33271   2.570   3.386   3.347  0.1707  0.2710 -0.4548
 7270SOL    HW133272   2.482   3.423   3.340  1.0174  2.4321  0.4813
 7270SOL    HW233273   2.605   3.388   3.258  1.9056  0.6132  0.2252
 7271SOL     OW33274   4.317   2.246   7.244 -0.5863 -0.0194  0.1351
 7271SOL    HW133275   4.370   2.260   7.166 -0.2808  0.5310  0.4507
 7271SOL    HW233276   4.356   2.308   7.305  0.0830  0.2161 -0.5401
 7272SOL     OW33277   1.386   2.202   1.108 -0.6832  0.2411  0.5184
 7272SOL    HW133278   1.338   2.203   1.190 -0.8886 -2.6763  0.4205
 7272SOL    HW233279   1.331   2.259   1.052 -1.3144  0.8429  1.7578
 7273SOL     OW33280   3.551   0.488   9.650  0.0775 -0.3016 -0.9981
 7273SOL    HW133281   3.625   0.485   9.590 -0.0883 -2.9074 -1.0672
 7273SOL    HW233282   3.589   0.460   9.733  1.5895  0.0826 -1.5708
 7274SOL     OW33283   1.716   2.811   2.024 -0.0667 -0.3630  0.0330
 7274SOL    HW133284   1.667   2.746   2.076  1.1164 -1.0915  0.2285
 7274SOL    HW233285   1.734   2.768   1.941  2.8498 -0.3741  0.6796
 7275SOL     OW33286   1.991   3.922  14.917  0.1004 -0.7478  0.4884
 7275SOL    HW133287   2.001   3.916  14.822 -2.2095 -0.3611  0.2288
 7275SOL    HW233288   1.895   3.916  14.922  0.0606  0.3752  1.0869
 7276SOL     OW33289   2.347   2.279   6.094  0.3575 -0.0652 -0.3997
 7276SOL    HW133290   2.314   2.353   6.146  1.3138 -0.7977  1.2543
 7276SOL    HW233291   2.428   2.256   6.139 -0.7940  0.4741  1.9499
 7277SOL     OW33292   1.033   4.268   3.541 -0.8356 -0.1524 -0.5053
 7277SOL    HW133293   1.103   4.276   3.607  0.2261 -1.4396 -1.4807
 7277SOL    HW233294   1.092   4.259   3.467  0.5933 -1.2925  0.7694
 7278SOL     OW33295   3.304   4.340   8.837 -0.1850  0.1742 -0.6592
 7278SOL    HW133296   3.399   4.327   8.833 -0.3734 -1.6483  0.6254
 7278SOL    HW233297   3.289   4.386   8.755  0.7264 -1.2758 -1.6418
 7279SOL     OW33298   3.114   2.203  15.969 -0.1190  0.3912 -0.2210
 7279SOL    HW133299   3.076   2.241  15.890 -0.2403 -0.0840 -0.3895
 7279SOL    HW233300   3.130   2.282  16.021 -2.6739  0.2077  0.8385
 7280SOL     OW33301   0.264   3.335   7.916 -0.3069  0.0385 -0.7917
 7280SOL    HW133302   0.343   3.291   7.884 -0.5066 -1.3936  0.6965
 7280SOL    HW233303   0.267   3.307   8.008  0.2706 -0.3218 -0.9204
 7281SOL     OW33304   3.454   0.248   6.340 -0.2857 -0.2479 -0.1941
 7281SOL    HW133305   3.486   0.334   6.315  3.1749 -1.3304  0.4811
 7281SOL    HW233306   3.358   0.250   6.338 -0.2349  1.6180  0.2682
 7282SOL     OW33307   0.283   3.925   7.555  0.6197 -0.0433  0.8012
 7282SOL    HW133308   0.314   4.014   7.541  1.1282 -0.1327  1.3509
 7282SOL    HW233309   0.333   3.894   7.631  1.5893 -2.4364 -0.7975
 7283SOL     OW33310   4.134   3.982  10.393 -0.3525 -0.3060 -0.0689
 7283SOL    HW133311   4.173   3.899  10.363 -1.0496 -0.4791 -0.5066
 7283SOL    HW233312   4.147   4.033  10.314 -0.6478  1.6871  1.1718
 7284SOL     OW33313   2.173   3.535  13.347  0.0476 -0.0111 -0.1193
 7284SOL    HW133314   2.133   3.496  13.269 -1.6387 -1.4218  1.4521
 7284SOL    HW233315   2.190   3.460  13.405 -1.5562  1.1246  1.7933
 7285SOL     OW33316   2.420   3.503  13.113  0.2891  0.0020 -0.0659
 7285SOL    HW133317   2.456   3.535  13.196 -0.3949 -0.8113  0.5413
 7285SOL    HW233318   2.416   3.409  13.130 -0.8318 -0.0666 -0.7386
 7286SOL     OW33319   1.889   4.214  15.720 -0.0806  0.2713 -0.4264
 7286SOL    HW133320   1.858   4.261  15.797 -1.1559 -0.7346 -0.2468
 7286SOL    HW233321   1.977   4.249  15.735 -0.6042  1.3102  0.2110
 7287SOL     OW33322   1.341   0.633   3.361 -0.5145  0.2998 -0.6824
 7287SOL    HW133323   1.346   0.574   3.436  1.6812  0.5006 -0.6760
 7287SOL    HW233324   1.314   0.577   3.289  0.6522 -1.1613  0.0074
 7288SOL     OW33325   3.440   1.696  16.211 -0.5456  0.3919  0.1520
 7288SOL    HW133326   3.424   1.620  16.267  0.7286 -1.0156 -1.4025
 7288SOL    HW233327   3.437   1.767  16.275 -0.3165 -1.2886  2.0430
 7289SOL     OW33328   2.203   2.624  13.926  0.1102 -0.2504 -0.3302
 7289SOL    HW133329   2.188   2.653  14.016  3.3123  0.7318 -0.1392
 7289SOL    HW233330   2.255   2.700  13.900  0.7376 -0.9991 -1.2725
 7290SOL     OW33331   0.627   0.618   4.491 -0.5327 -0.3605  0.3211
 7290SOL    HW133332   0.719   0.636   4.468 -1.0675  0.6030 -1.0652
 7290SOL    HW233333   0.603   0.569   4.412 -3.6789  2.9195 -0.7265
 7291SOL     OW33334   1.253   1.708  10.350 -0.0627  0.1043  0.2562
 7291SOL    HW133335   1.197   1.655  10.292 -0.0021 -1.8113  1.9549
 7291SOL    HW233336   1.333   1.659  10.368  0.2758  1.8133  3.3273
 7292SOL     OW33337   1.052   0.413  15.941 -0.1424 -0.3124  0.0959
 7292SOL    HW133338   1.080   0.389  16.029  1.3620 -2.4921 -0.9836
 7292SOL    HW233339   0.957   0.404  15.949 -0.3284  1.0717 -0.5680
 7293SOL     OW33340   2.074   0.737   8.757  0.3597  0.5213 -0.4260
 7293SOL    HW133341   1.986   0.731   8.795  0.7494 -2.4375 -0.0477
 7293SOL    HW233342   2.119   0.792   8.821  2.2212  0.2723 -1.5384
 7294SOL     OW33343   0.803   0.337   9.113 -0.2708 -0.0626  0.6474
 7294SOL    HW133344   0.750   0.405   9.071  1.0227  0.6145  0.0941
 7294SOL    HW233345   0.819   0.378   9.198 -0.0283 -1.6553  1.3708
 7295SOL     OW33346   3.488   0.630   6.107  0.1786  0.1883  0.2524
 7295SOL    HW133347   3.567   0.642   6.055 -0.3758  0.4475 -0.5448
 7295SOL    HW233348   3.531   0.590   6.182  0.1921  0.2456  0.2754
 7296SOL     OW33349   0.433   0.154   5.508  0.0734 -0.3955 -0.3653
 7296SOL    HW133350   0.418   0.172   5.415 -1.5846 -1.1442 -0.2470
 7296SOL    HW233351   0.347   0.171   5.546  0.1786  1.5363 -0.9649
 7297SOL     OW33352   4.014   0.955   9.367  0.1652  0.0934  0.6461
 7297SOL    HW133353   3.986   0.938   9.457  1.6648 -0.8098  0.9375
 7297SOL    HW233354   3.932   0.930   9.324 -0.0047 -0.9163  1.5774
 7298SOL     OW33355   2.074   3.116   7.568 -0.6857  0.0697 -0.5154
 7298SOL    HW133356   2.025   3.047   7.523 -2.1351 -0.9602  2.6853
 7298SOL    HW233357   2.002   3.173   7.595  0.3196  1.6141 -1.0992
 7299SOL     OW33358   1.543   1.824  10.012 -0.5710 -0.2203 -0.0852
 7299SOL    HW133359   1.482   1.836   9.940  1.8644 -0.5703 -2.2053
 7299SOL    HW233360   1.602   1.898  10.001  1.1998 -1.5543  0.4699
 7300SOL     OW33361   1.098   1.137  13.768 -0.3906  0.8219  0.2972
 7300SOL    HW133362   1.150   1.175  13.697 -2.2754 -0.4696 -1.8017
 7300SOL    HW233363   1.020   1.107  13.720 -0.5593 -0.2494  1.2280
 7301SOL     OW33364   0.832   3.710   7.787  0.1955  0.1842 -0.2883
 7301SOL    HW133365   0.877   3.655   7.850 -2.2111  0.9229  2.0880
 7301SOL    HW233366   0.763   3.753   7.838  0.9801 -0.1031  1.0112
 7302SOL     OW33367   2.237   3.164   0.840 -0.0720 -0.6555  0.4985
 7302SOL    HW133368   2.238   3.211   0.757  0.6909 -1.4554  0.0512
 7302SOL    HW233369   2.331   3.170   0.859  0.4368 -0.1543 -2.0733
 7303SOL     OW33370   3.677   4.086   5.133  0.4025  0.0494  0.1924
 7303SOL    HW133371   3.673   4.008   5.189  2.6622 -0.2296 -0.0264
 7303SOL    HW233372   3.758   4.072   5.084  0.9833  0.1805  1.1174
 7304SOL     OW33373   2.199   3.137  15.199 -0.6204 -0.1207 -0.0306
 7304SOL    HW133374   2.243   3.208  15.152 -1.0500  1.1331  1.4744
 7304SOL    HW233375   2.108   3.167  15.200  0.4522  3.1248  1.2899
 7305SOL     OW33376   2.820   3.590   5.590  0.0572  0.1971  0.0889
 7305SOL    HW133377   2.801   3.581   5.683 -0.3648  0.9071  0.0698
 7305SOL    HW233378   2.737   3.553   5.559  0.0258  0.9662 -0.7472
 7306SOL     OW33379   0.478   1.045   4.689 -0.1837  0.1719 -0.0264
 7306SOL    HW133380   0.397   0.998   4.708  0.6749 -1.2363  0.2220
 7306SOL    HW233381   0.542   0.990   4.735  1.2874  1.4587 -0.5559
 7307SOL     OW33382   1.375   3.118  13.860 -0.8640 -0.1502 -0.5472
 7307SOL    HW133383   1.331   3.039  13.828  1.3997 -1.7713  0.3119
 7307SOL    HW233384   1.328   3.131  13.942 -2.0376 -1.5186 -0.9938
 7308SOL     OW33385   1.901   3.778   8.739  0.1847  0.1602 -0.0168
 7308SOL    HW133386   1.980   3.779   8.684  0.6846 -3.2687  0.6768
 7308SOL    HW233387   1.910   3.716   8.811  1.3872 -0.0507 -0.3511
 7309SOL     OW33388   3.046   4.478  16.627  0.1805 -0.4801 -0.0264
 7309SOL    HW133389   2.954   4.481  16.601  1.3470 -0.1863 -4.0979
 7309SOL    HW233390   3.072   4.569  16.610  0.5456 -0.3757  1.0622
 7310SOL     OW33391   3.656   4.129  15.105 -0.2614  0.2031  0.0076
 7310SOL    HW133392   3.612   4.108  15.187 -0.0428 -0.6126 -0.0842
 7310SOL    HW233393   3.659   4.225  15.111 -1.3214  0.3487 -1.7730
 7311SOL     OW33394   1.584   3.858   2.145 -0.3407  0.2962 -0.3346
 7311SOL    HW133395   1.607   3.914   2.071  0.8593 -2.4203 -2.0266
 7311SOL    HW233396   1.527   3.925   2.182 -0.1979 -0.1305  0.6364
 7312SOL     OW33397   1.337   4.546   6.483  0.5653 -0.1224 -0.0969
 7312SOL    HW133398   1.258   4.494   6.469  0.4933  0.4057 -1.6832
 7312SOL    HW233399   1.393   4.501   6.420 -0.1400 -1.4103  0.1934
 7313SOL     OW33400   1.564   4.680   5.249 -0.4160  0.4648  0.7754
 7313SOL    HW133401   1.478   4.718   5.232 -0.6409  0.1731  1.2461
 7313SOL    HW233402   1.613   0.035   5.267  2.5500 -1.4076  0.9248
 7314SOL     OW33403   1.609   0.080   3.186  0.3129 -0.2961 -0.3823
 7314SOL    HW133404   1.703   0.079   3.164  0.5951  2.2475  0.7516
 7314SOL    HW233405   1.596   0.157   3.242  1.2885 -0.3987  0.0014
 7315SOL     OW33406   2.981   1.234   7.777 -0.2986  0.1507 -0.0813
 7315SOL    HW133407   2.929   1.275   7.708 -0.3626  1.7191  0.8936
 7315SOL    HW233408   2.930   1.155   7.794 -1.8177  1.2185  0.3112
 7316SOL     OW33409   1.307   4.646  11.669 -0.2962  0.4566 -0.1190
 7316SOL    HW133410   1.258   4.578  11.623  0.2378  1.0750 -1.6067
 7316SOL    HW233411   1.260   4.723  11.637 -0.1154 -0.0967 -1.7360
 7317SOL     OW33412   3.844   1.513   6.044 -0.2666  0.8548 -0.1101
 7317SOL    HW133413   3.751   1.514   6.066 -0.3605  2.2703 -0.5463
 7317SOL    HW233414   3.850   1.575   5.971  2.4150  1.5265  0.6686
 7318SOL     OW33415   1.196   2.322  12.753  0.1532 -0.1176  0.1206
 7318SOL    HW133416   1.233   2.408  12.774  1.3154 -0.5261 -0.2226
 7318SOL    HW233417   1.168   2.282  12.835 -2.0466 -3.1875 -2.1550
 7319SOL     OW33418   2.254   3.653   8.377  0.8414 -0.3452  0.7015
 7319SOL    HW133419   2.248   3.658   8.473 -0.4140  0.5653  0.5662
 7319SOL    HW233420   2.184   3.592   8.353  2.2849 -1.4109 -0.7480
 7320SOL     OW33421   2.347   3.014   4.923  0.1055  0.2389 -0.0184
 7320SOL    HW133422   2.416   3.015   4.989  0.6895  0.8557 -0.6338
 7320SOL    HW233423   2.347   2.923   4.895 -2.5100 -0.0890  1.0529
 7321SOL     OW33424   0.605   2.841  15.163 -0.0907 -0.2594  0.3534
 7321SOL    HW133425   0.644   2.761  15.128  0.7059 -0.5202  1.8624
 7321SOL    HW233426   0.530   2.852  15.104 -0.5019  1.3501  1.1584
 7322SOL     OW33427   3.868   3.874   9.935 -0.0251  0.8785  0.1342
 7322SOL    HW133428   3.863   3.779   9.946 -0.1208  0.9717  0.9142
 7322SOL    HW233429   3.921   3.899  10.010 -0.7024 -0.4320  1.0550
 7323SOL     OW33430   0.311   4.233   6.332 -0.2893 -0.0355  0.2403
 7323SOL    HW133431   0.386   4.254   6.275 -1.1413  1.7828 -0.2224
 7323SOL    HW233432   0.279   4.319   6.359 -0.8931 -0.9183  2.3243
 7324SOL     OW33433   2.614   2.618   3.966 -0.4138 -0.0008  0.1790
 7324SOL    HW133434   2.690   2.675   3.957 -0.2088 -0.1587  0.8520
 7324SOL    HW233435   2.549   2.662   3.913  0.3122  1.2940  0.3692
 7325SOL     OW33436   2.131   1.697   8.246 -0.0056 -0.2362  0.2673
 7325SOL    HW133437   2.046   1.734   8.223  0.4503  0.6816  0.0421
 7325SOL    HW233438   2.170   1.697   8.159 -1.1380  0.2130 -0.2338
 7326SOL     OW33439   1.111   1.435  12.338 -0.3993 -0.4135 -0.0132
 7326SOL    HW133440   1.074   1.480  12.262 -0.3079  0.5938  0.5281
 7326SOL    HW233441   1.189   1.489  12.353  1.6607 -2.6259 -2.7919
 7327SOL     OW33442   2.847   3.495   6.677 -0.2971 -0.4484  0.2049
 7327SOL    HW133443   2.821   3.541   6.757 -1.2505  0.6401 -0.7258
 7327SOL    HW233444   2.782   3.425   6.684 -0.7088 -0.2108 -1.2753
 7328SOL     OW33445   2.837   4.301  13.538  0.1434 -0.5793  0.3490
 7328SOL    HW133446   2.838   4.259  13.452  1.4016 -0.4799  0.3235
 7328SOL    HW233447   2.876   4.386  13.521  1.6301 -1.6338 -1.4703
 7329SOL     OW33448   1.927   2.388   8.902  0.1175  0.3057  0.0567
 7329SOL    HW133449   1.860   2.343   8.954  1.5927 -1.3089  0.5656
 7329SOL    HW233450   1.872   2.445   8.848  1.0054  2.5277  1.4975
 7330SOL     OW33451   4.596   2.263  12.834 -0.3783 -0.8424  0.4109
 7330SOL    HW133452   4.664   2.321  12.868 -0.5120 -0.0347 -0.6934
 7330SOL    HW233453   4.640   2.201  12.776 -1.5682  0.0004 -1.3796
 7331SOL     OW33454   1.273   2.012   4.868 -0.0773 -0.0047  0.2033
 7331SOL    HW133455   1.208   1.991   4.935 -0.0956 -2.9863 -0.7408
 7331SOL    HW233456   1.314   2.084   4.916 -0.3300  0.5061 -0.3549
 7332SOL     OW33457   1.912   1.981  12.064  0.1302 -0.1098 -0.3646
 7332SOL    HW133458   1.924   2.048  12.132  0.0335 -1.1553  0.6766
 7332SOL    HW233459   1.992   1.930  12.079 -0.7228 -1.3822 -0.1587
 7333SOL     OW33460   0.979   1.289   5.172  0.5174 -0.0798 -0.1042
 7333SOL    HW133461   0.991   1.233   5.095  0.5816  1.4239 -1.1850
 7333SOL    HW233462   0.891   1.267   5.200 -0.4734  2.3251 -1.3611
 7334SOL     OW33463   3.550   4.465  16.222 -0.5163  0.2966  0.5557
 7334SOL    HW133464   3.582   4.533  16.163 -1.5074  1.2571  1.1336
 7334SOL    HW233465   3.604   4.390  16.196  0.9869  1.3264  0.7071
 7335SOL     OW33466   1.561   1.250   5.231  0.3641 -0.4466 -0.4114
 7335SOL    HW133467   1.548   1.171   5.285 -1.5243 -0.8211 -1.4327
 7335SOL    HW233468   1.546   1.225   5.140 -1.3781  1.7112 -0.7060
 7336SOL     OW33469   3.765   0.264   8.491 -0.0211 -0.8040 -0.6419
 7336SOL    HW133470   3.788   0.340   8.543  0.5794 -0.5317 -1.2967
 7336SOL    HW233471   3.714   0.307   8.422 -0.6605  1.0773  1.0368
 7337SOL     OW33472   2.818   1.552  10.873 -0.1505  0.0436  0.0504
 7337SOL    HW133473   2.861   1.486  10.819 -0.8652 -0.0054 -0.4687
 7337SOL    HW233474   2.789   1.500  10.948 -0.3655  0.6540  0.3980
 7338SOL     OW33475   1.703   2.794  10.964 -0.2086 -0.0977  0.3067
 7338SOL    HW133476   1.646   2.830  10.896  1.0233  2.6137  0.7248
 7338SOL    HW233477   1.782   2.780  10.912 -0.0770  0.2262  0.4180
 7339SOL     OW33478   4.698   0.119  16.651 -0.0540  0.3793  0.4419
 7339SOL    HW133479   0.002   0.171  16.575 -0.6985  0.3575  0.1904
 7339SOL    HW233480   4.618   0.166  16.671  1.0179  1.2689  2.6088
 7340SOL     OW33481   3.948   0.655  11.476 -0.1052 -0.2618  0.2714
 7340SOL    HW133482   3.968   0.631  11.385  0.8761  2.4752 -0.2380
 7340SOL    HW233483   3.966   0.748  11.481  0.5738 -0.2059 -3.0094
 7341SOL     OW33484   0.732   2.552  15.115 -0.3936  1.0916 -0.0742
 7341SOL    HW133485   0.801   2.603  15.071 -0.7725  0.0251 -1.9126
 7341SOL    HW233486   0.778   2.508  15.186 -0.8456  2.6214  1.1769
 7342SOL     OW33487   0.982   1.840  12.235 -0.1755 -0.0530 -0.0093
 7342SOL    HW133488   0.998   1.759  12.186 -0.6989  1.6366 -2.9678
 7342SOL    HW233489   0.978   1.903  12.163  0.1564  0.3396  0.3149
 7343SOL     OW33490   2.606   4.652   7.857 -0.3368  0.6303  0.0018
 7343SOL    HW133491   2.549   4.608   7.794 -1.8456  0.4035  1.5305
 7343SOL    HW233492   2.689   4.643   7.808 -0.6769  0.6111 -0.5750
 7344SOL     OW33493   0.849   3.775   7.232 -0.2225 -0.2250 -0.4012
 7344SOL    HW133494   0.943   3.792   7.224 -0.2657  0.9636  1.4424
 7344SOL    HW233495   0.840   3.745   7.322  1.4945  2.8312  0.7938
 7345SOL     OW33496   0.664   2.339  13.898  0.0865 -0.0662 -0.3295
 7345SOL    HW133497   0.738   2.294  13.940 -0.8978 -0.7002  0.7438
 7345SOL    HW233498   0.596   2.304  13.955 -0.7554  0.0175 -1.2900
 7346SOL     OW33499   3.868   0.789   4.310 -0.0695 -0.3793  0.6467
 7346SOL    HW133500   3.896   0.706   4.273  2.0970  0.3012  0.7600
 7346SOL    HW233501   3.791   0.808   4.256 -0.3625 -1.6542  0.6164
 7347SOL     OW33502   1.107   4.416   8.966 -0.7903  0.1002  0.0648
 7347SOL    HW133503   1.067   4.345   8.917 -0.6465 -2.1306  3.2036
 7347SOL    HW233504   1.049   4.427   9.041  2.0720  1.7116  2.0597
 7348SOL     OW33505   3.409   1.487  16.402 -0.0158  0.1696 -0.3081
 7348SOL    HW133506   3.386   1.415  16.461 -0.8154  2.5826  2.2780
 7348SOL    HW233507   3.434   1.446  16.319  1.4002  0.8931 -0.2401
 7349SOL     OW33508   4.676   0.128   8.058 -0.3092 -0.4910  0.3072
 7349SOL    HW133509   4.581   0.143   8.062 -0.6148 -1.5341 -2.9646
 7349SOL    HW233510   4.706   0.176   8.135 -0.8653  0.0089  0.2149
 7350SOL     OW33511   3.799   0.725   3.160 -0.2046  0.2343  0.3096
 7350SOL    HW133512   3.714   0.767   3.154 -0.5477  0.0395  3.9236
 7350SOL    HW233513   3.790   0.655   3.095 -1.2663  1.2639 -0.6435
 7351SOL     OW33514   3.638   2.747   4.393  0.2866  0.1515  0.1812
 7351SOL    HW133515   3.660   2.769   4.303  0.1309 -2.0310 -0.3829
 7351SOL    HW233516   3.643   2.651   4.397 -3.0709 -0.0594 -0.7990
 7352SOL     OW33517   0.004   3.696   0.876  0.2972  0.5631  0.0460
 7352SOL    HW133518   4.696   3.626   0.933 -0.1653  1.4901  0.9182
 7352SOL    HW233519   0.069   3.732   0.936 -1.0444  1.8468  0.7304
 7353SOL     OW33520   1.423   3.477   0.902  0.4324 -0.3701  0.1386
 7353SOL    HW133521   1.420   3.467   0.997 -1.3482 -0.9985  0.0146
 7353SOL    HW233522   1.374   3.560   0.896 -0.5022 -1.0140 -1.2523
 7354SOL     OW33523   2.109   0.446  13.385  0.2721  0.6355 -0.4165
 7354SOL    HW133524   2.039   0.506  13.362  0.3188  0.7881 -0.1661
 7354SOL    HW233525   2.084   0.408  13.470 -0.1377  1.4009 -0.2021
 7355SOL     OW33526   0.626   2.904   6.994 -0.4817  0.4100 -0.7726
 7355SOL    HW133527   0.711   2.872   7.024 -1.8399 -2.8711 -0.3642
 7355SOL    HW233528   0.576   2.822   6.987 -0.7832  0.5614 -0.4055
 7356SOL     OW33529   2.678   4.432   5.885 -0.4315 -0.3873 -0.5885
 7356SOL    HW133530   2.715   4.404   5.801  0.5959 -0.6168 -0.0636
 7356SOL    HW233531   2.720   4.377   5.951 -1.0827  2.7465  2.4001
 7357SOL     OW33532   2.092   0.633   5.305 -0.4194 -0.1131  0.1179
 7357SOL    HW133533   2.153   0.568   5.338  1.5855  0.5653 -2.2789
 7357SOL    HW233534   2.138   0.665   5.228 -0.3548 -0.6617 -0.0646
 7358SOL     OW33535   3.929   0.386   4.399  0.3152  0.6885 -0.3245
 7358SOL    HW133536   3.851   0.424   4.358  0.5624  0.8770 -0.6223
 7358SOL    HW233537   3.959   0.452   4.461  1.9137 -0.6837  0.3564
 7359SOL     OW33538   2.285   0.933   4.147  0.3807  0.4584  0.6267
 7359SOL    HW133539   2.200   0.896   4.125  0.6279  0.7722 -0.8700
 7359SOL    HW233540   2.264   1.026   4.150 -1.1765  0.0717  1.6280
 7360SOL     OW33541   3.246   1.461   2.673  0.2968  0.1572 -0.3333
 7360SOL    HW133542   3.326   1.504   2.640  1.9105 -1.7973  1.0206
 7360SOL    HW233543   3.202   1.457   2.588  0.9521  1.0286 -0.7158
 7361SOL     OW33544   0.545   1.796  14.048  0.4197  0.4866  0.6615
 7361SOL    HW133545   0.451   1.805  14.035  0.1008 -2.0328  1.2304
 7361SOL    HW233546   0.579   1.817  13.961 -0.2350 -0.7309  0.1142
 7362SOL     OW33547   0.080   2.635   3.945 -0.7590  0.0580  0.3273
 7362SOL    HW133548   0.098   2.543   3.965  0.5940 -0.0783 -1.5592
 7362SOL    HW233549   4.710   2.650   3.941 -0.6863  0.7692  1.2367
 7363SOL     OW33550   0.128   4.279   9.200  0.5717  0.2822  0.0293
 7363SOL    HW133551   0.050   4.305   9.249  0.9320  0.1065  0.6891
 7363SOL    HW233552   0.149   4.190   9.226 -0.8249 -1.0175 -3.2632
 7364SOL     OW33553   1.662   0.536   6.419 -0.2750  0.0994 -0.1799
 7364SOL    HW133554   1.583   0.488   6.439 -0.4471  0.7462  0.6686
 7364SOL    HW233555   1.643   0.626   6.447  1.7488 -0.5018  3.1291
 7365SOL     OW33556   1.198   1.854   7.957  0.4275 -0.1514  0.1036
 7365SOL    HW133557   1.219   1.804   7.878  1.5690 -0.3550  0.5307
 7365SOL    HW233558   1.272   1.914   7.953  1.2038 -0.9499  2.2439
 7366SOL     OW33559   4.326   0.475  16.932 -0.4735 -0.0434  0.1942
 7366SOL    HW133560   4.237   0.441  16.927 -0.1194 -0.6036 -2.4488
 7366SOL    HW233561   4.316   0.570  16.931 -1.3902 -0.1294  2.0537
 7367SOL     OW33562   3.737   4.648   8.981 -0.5111  0.0197 -0.4293
 7367SOL    HW133563   3.800   4.615   8.918 -0.0206  0.1153  0.0168
 7367SOL    HW233564   3.695   4.719   8.931  0.0218 -0.3803 -1.4500
 7368SOL     OW33565   4.222   0.338   5.479 -0.2298  0.2085  0.2271
 7368SOL    HW133566   4.135   0.299   5.479  0.0818 -0.4788 -0.8115
 7368SOL    HW233567   4.240   0.364   5.388  0.3156  1.5535  0.7266
 7369SOL     OW33568   3.328   4.715  17.295  0.6187 -0.1148 -0.4061
 7369SOL    HW133569   3.387   0.030  17.231 -1.0464  1.8090 -0.7264
 7369SOL    HW233570   3.315   0.052  17.367  1.7016 -0.8753  0.4575
 7370SOL     OW33571   1.967   3.254   8.938 -0.1388  0.1725 -0.6084
 7370SOL    HW133572   2.052   3.272   8.980 -0.0142 -0.1879 -0.7093
 7370SOL    HW233573   1.911   3.258   9.015  1.3193  2.7243  0.3511
 7371SOL     OW33574   3.058   3.386   2.542 -0.0384  0.4860 -0.2928
 7371SOL    HW133575   2.980   3.351   2.500  1.4340 -1.4308 -1.4088
 7371SOL    HW233576   3.098   3.425   2.464 -1.4368  2.0845 -0.2179
 7372SOL     OW33577   4.335   3.920   7.878 -0.4095  0.0553  1.0067
 7372SOL    HW133578   4.377   3.867   7.946  3.9302  2.1994  0.0173
 7372SOL    HW233579   4.412   3.938   7.823 -1.3361  1.5614  0.2136
 7373SOL     OW33580   0.560   4.508  13.141  0.1374  0.0690  0.1635
 7373SOL    HW133581   0.491   4.460  13.095 -0.3046  0.2689  0.6106
 7373SOL    HW233582   0.537   4.597  13.112  0.7478  0.3304  0.4720
 7374SOL     OW33583   4.444   2.404   3.553 -0.1407  0.3035 -0.7048
 7374SOL    HW133584   4.383   2.463   3.509 -1.3315  0.3514  1.0293
 7374SOL    HW233585   4.500   2.385   3.478  1.1254 -1.7470  0.7550
 7375SOL     OW33586   4.579   2.573  13.172  0.4232 -0.2219  0.2086
 7375SOL    HW133587   4.577   2.648  13.232 -1.2045 -0.4477  0.4491
 7375SOL    HW233588   4.521   2.617  13.110  0.5289  0.8506  0.8690
 7376SOL     OW33589   1.548   1.417   2.059  0.0455 -0.5750 -0.0121
 7376SOL    HW133590   1.572   1.477   2.129  0.2172 -1.6922  0.8833
 7376SOL    HW233591   1.488   1.356   2.101 -1.7031  0.2868 -1.2813
 7377SOL     OW33592   3.666   0.490   2.219 -0.1639 -0.3690  0.2823
 7377SOL    HW133593   3.637   0.468   2.308 -0.8507  0.0674  0.1642
 7377SOL    HW233594   3.716   0.410   2.202 -0.7339 -0.9180  1.1634
 7378SOL     OW33595   2.155   3.792  16.511  0.0245 -0.5213 -0.0496
 7378SOL    HW133596   2.081   3.806  16.452 -0.3022  2.0399  0.9787
 7378SOL    HW233597   2.221   3.847  16.469 -3.4788  1.8871 -2.4271
 7379SOL     OW33598   2.898   0.379   0.703  0.3272 -0.1525  0.2721
 7379SOL    HW133599   2.842   0.455   0.702 -1.0035 -1.1386  0.1470
 7379SOL    HW233600   2.939   0.378   0.790 -1.1291  0.3679  0.9610
 7380SOL     OW33601   1.997   4.184   1.669  0.0767  0.3957  0.5807
 7380SOL    HW133602   1.980   4.254   1.732 -0.4556 -0.3080  1.2099
 7380SOL    HW233603   2.086   4.210   1.646 -0.1373  2.6856  2.3244
 7381SOL     OW33604   1.310   4.146   2.048  0.3976 -0.3382  0.0822
 7381SOL    HW133605   1.309   4.114   2.138 -0.0194 -0.4149  0.0507
 7381SOL    HW233606   1.404   4.156   2.032  0.3810  2.9263  1.8865
 7382SOL     OW33607   2.262   4.537   4.604 -0.5143  0.5953 -0.3266
 7382SOL    HW133608   2.210   4.616   4.619 -1.7127 -0.6498  2.0415
 7382SOL    HW233609   2.259   4.529   4.508  1.1646 -2.3356 -0.1513
 7383SOL     OW33610   1.054   1.254   7.775 -0.0197  0.5944 -0.1766
 7383SOL    HW133611   1.085   1.201   7.701  0.3976 -0.8834  1.0807
 7383SOL    HW233612   0.980   1.301   7.736  0.3158  1.3259  0.0592
 7384SOL     OW33613   4.622   2.872   5.527 -0.5299  0.0496  0.0491
 7384SOL    HW133614   4.617   2.937   5.457 -0.3005  0.2407  0.2068
 7384SOL    HW233615   4.541   2.901   5.568 -0.4992 -2.0109  1.5865
 7385SOL     OW33616   1.105   3.429   9.315 -0.1586 -0.0359 -0.1976
 7385SOL    HW133617   1.167   3.403   9.383  0.3219  0.7558 -0.3454
 7385SOL    HW233618   1.165   3.453   9.245  0.8195  2.5462  1.5287
 7386SOL     OW33619   1.696   4.041   9.455  0.1645 -0.1638 -0.3550
 7386SOL    HW133620   1.658   4.114   9.406  1.2464  2.5592  2.8791
 7386SOL    HW233621   1.712   3.980   9.383 -1.5223  0.5265 -1.2959
 7387SOL     OW33622   2.346   1.148   8.236 -0.0230 -0.2035 -0.3073
 7387SOL    HW133623   2.432   1.185   8.257 -0.0591 -0.2374 -0.1042
 7387SOL    HW233624   2.290   1.219   8.268 -2.9171 -2.6708  0.0871
 7388SOL     OW33625   0.764   0.915   3.814  0.1488 -0.6214 -0.7438
 7388SOL    HW133626   0.783   0.822   3.804 -0.8421 -0.9871  0.7407
 7388SOL    HW233627   0.810   0.939   3.895 -1.2816 -0.5391  0.0520
 7389SOL     OW33628   4.023   4.164   5.274 -0.5878 -0.4598 -0.0531
 7389SOL    HW133629   4.089   4.190   5.210  0.2020  1.2637  1.4340
 7389SOL    HW233630   3.992   4.251   5.303  1.4196  0.0414  0.5986
 7390SOL     OW33631   4.040   1.092  11.630 -0.5511 -0.2936 -0.1894
 7390SOL    HW133632   4.029   1.106  11.723 -0.2518  0.2510 -0.2332
 7390SOL    HW233633   4.058   1.182  11.603 -2.2692 -0.5207 -2.0413
 7391SOL     OW33634   0.007   2.103   4.263  0.0900  0.0411  0.1977
 7391SOL    HW133635   0.068   2.030   4.263  1.5675  1.2765  0.6818
 7391SOL    HW233636   0.047   2.166   4.204  0.4599  0.5109  0.9395
 7392SOL     OW33637   2.428   1.146   4.618  0.3950  0.3016 -0.1467
 7392SOL    HW133638   2.410   1.066   4.667 -3.3275  1.4790  0.4340
 7392SOL    HW233639   2.440   1.113   4.529 -3.7093 -1.5424 -0.0491
 7393SOL     OW33640   4.483   0.510  11.037 -0.8151 -0.5294  0.1186
 7393SOL    HW133641   4.517   0.441  11.094  0.7238  0.5020  0.4392
 7393SOL    HW233642   4.409   0.537  11.092 -1.1960 -0.3416 -0.4853
 7394SOL     OW33643   0.881   0.768  15.665 -0.0986 -0.2377  0.1666
 7394SOL    HW133644   0.859   0.707  15.735 -2.0922  0.0745 -0.2054
 7394SOL    HW233645   0.942   0.827  15.710 -1.9548  0.0582  2.2515
 7395SOL     OW33646   2.824   4.392   3.155  0.3418  0.6170  0.2733
 7395SOL    HW133647   2.795   4.381   3.245  0.7153 -0.4935  0.2614
 7395SOL    HW233648   2.751   4.362   3.101 -0.4267  0.2890  1.4982
 7396SOL     OW33649   2.968   1.872   6.353 -0.5084  0.0130 -0.7977
 7396SOL    HW133650   2.973   1.961   6.390 -2.1454  0.2832 -1.2469
 7396SOL    HW233651   2.940   1.827   6.433  0.3617 -2.4019 -1.8760
 7397SOL     OW33652   3.420   1.858   0.164  0.5157  0.2448 -0.5680
 7397SOL    HW133653   3.509   1.881   0.139  1.4555 -1.1954  1.4892
 7397SOL    HW233654   3.402   1.932   0.223  1.5716 -1.4609  1.8925
 7398SOL     OW33655   1.647   0.065   8.650 -0.4097 -0.7032  0.7904
 7398SOL    HW133656   1.666   0.150   8.610  2.8053 -3.5155 -3.6268
 7398SOL    HW233657   1.573   0.044   8.594  1.9838 -3.0157 -1.5205
 7399SOL     OW33658   0.045   3.995  15.201  0.5949  0.0658 -0.1565
 7399SOL    HW133659   0.015   4.076  15.241 -0.7169  0.2091 -1.4087
 7399SOL    HW233660   0.132   3.974  15.235  1.6171  2.1495 -1.4896
 7400SOL     OW33661   0.866   2.547  10.497 -0.0319 -0.2099 -0.8691
 7400SOL    HW133662   0.834   2.458  10.492 -3.0492  0.8922 -1.0142
 7400SOL    HW233663   0.956   2.525  10.474 -0.0425 -1.0079 -0.1208
 7401SOL     OW33664   0.896   2.087   1.894  0.5672  0.6847  0.0371
 7401SOL    HW133665   0.898   2.029   1.818  0.9250  1.6335 -0.6774
 7401SOL    HW233666   0.934   2.162   1.848 -0.3973  1.1874  0.0662
 7402SOL     OW33667   1.073   2.181   1.219 -0.1112 -0.4431  0.0562
 7402SOL    HW133668   0.993   2.129   1.209  0.9849 -2.0342 -0.6157
 7402SOL    HW233669   1.063   2.205   1.311  0.7924 -1.1465  0.3480
 7403SOL     OW33670   4.333   4.587   4.418  0.3061  0.9842  0.2147
 7403SOL    HW133671   4.369   4.540   4.493 -0.2834 -0.9222 -0.6907
 7403SOL    HW233672   4.415   4.626   4.387  0.3395  1.8708  1.4298
 7404SOL     OW33673   1.394   3.493   2.929  0.2893  0.0419  0.0581
 7404SOL    HW133674   1.403   3.446   3.012  1.4744 -0.9611 -0.6485
 7404SOL    HW233675   1.403   3.426   2.861  0.7334  0.2537 -0.0869
 7405SOL     OW33676   3.098   3.355   5.870 -0.0918 -0.8870  0.5524
 7405SOL    HW133677   3.040   3.279   5.871  1.5237 -2.1012  1.2269
 7405SOL    HW233678   3.104   3.379   5.778 -0.6286 -2.5750  0.0811
 7406SOL     OW33679   1.648   3.365   4.104  0.4653 -0.3937 -0.3381
 7406SOL    HW133680   1.620   3.336   4.017 -0.9585 -0.0060 -0.0158
 7406SOL    HW233681   1.614   3.454   4.111  3.0517  0.8996 -4.0576
 7407SOL     OW33682   3.052   1.369   3.492  0.1017 -0.4643 -0.2128
 7407SOL    HW133683   3.047   1.440   3.557  1.6094  0.8257 -1.5003
 7407SOL    HW233684   2.991   1.393   3.422 -2.4983 -0.8734  1.9176
 7408SOL     OW33685   1.387   1.965  10.967  0.2235 -0.1273 -0.0826
 7408SOL    HW133686   1.389   2.004  10.879 -0.8456  1.4203  0.5770
 7408SOL    HW233687   1.389   2.048  11.016 -1.4174 -0.1117 -0.0349
 7409SOL     OW33688   0.125   3.996  13.863  0.0574  0.0689  0.5414
 7409SOL    HW133689   0.174   4.042  13.932 -0.0807 -0.3173  0.9015
 7409SOL    HW233690   0.140   3.902  13.875 -2.9085 -0.4715 -0.1714
 7410SOL     OW33691   3.060   1.961   8.037  0.1848 -0.1588  0.4084
 7410SOL    HW133692   3.052   1.960   8.132  1.0852 -1.7182  0.4721
 7410SOL    HW233693   2.982   1.916   8.004  0.2175 -0.3903  0.6409
 7411SOL     OW33694   0.307   1.389   8.728 -0.3032 -0.0840 -0.1823
 7411SOL    HW133695   0.314   1.392   8.632 -0.6955 -0.4254 -0.2241
 7411SOL    HW233696   0.358   1.468   8.746  0.9400 -0.7616 -0.6790
 7412SOL     OW33697   3.800   1.040   1.680 -0.3804  0.0663 -0.5391
 7412SOL    HW133698   3.862   1.020   1.610 -0.5235  2.3925 -1.3488
 7412SOL    HW233699   3.750   0.959   1.682 -3.0923  1.7660  1.1762
 7413SOL     OW33700   2.552   3.818   1.417 -0.7412 -0.0321  1.0576
 7413SOL    HW133701   2.612   3.773   1.476  0.1487 -3.2860 -2.3552
 7413SOL    HW233702   2.585   3.908   1.423 -1.7464  0.5322 -1.7016
 7414SOL     OW33703   4.447   0.330   4.642  0.1367 -0.1797  0.1703
 7414SOL    HW133704   4.408   0.416   4.624  1.2624  0.2332 -0.3125
 7414SOL    HW233705   4.483   0.328   4.554  1.6352  0.4272  0.7657
 7415SOL     OW33706   0.309   1.133   8.825  0.3908 -0.1783  0.1461
 7415SOL    HW133707   0.287   1.220   8.791 -1.9755 -0.7088  0.3122
 7415SOL    HW233708   0.341   1.157   8.911 -2.0676  1.1635  0.7027
 7416SOL     OW33709   2.954   3.421   9.009 -0.1298  0.2087 -0.2891
 7416SOL    HW133710   2.862   3.415   9.036 -0.2137 -0.3210 -0.6906
 7416SOL    HW233711   2.964   3.331   8.978  0.8324  0.1820  0.1089
 7417SOL     OW33712   3.470   0.816   2.575  0.1425  0.0332 -0.1861
 7417SOL    HW133713   3.399   0.817   2.512 -1.3462 -3.0283  1.4382
 7417SOL    HW233714   3.534   0.757   2.534 -2.0584 -2.7834  0.4025
 7418SOL     OW33715   1.132   0.495   2.057  0.5638 -0.3404  0.4043
 7418SOL    HW133716   1.115   0.401   2.049  0.6880 -0.5916  3.1400
 7418SOL    HW233717   1.203   0.507   1.994 -1.3190  2.3469 -1.1995
 7419SOL     OW33718   4.353   1.837   3.223 -0.2146 -0.3162 -0.3620
 7419SOL    HW133719   4.415   1.825   3.295 -0.4934  0.8706  0.0803
 7419SOL    HW233720   4.346   1.932   3.222 -0.7647 -0.3703 -3.0438
 7420SOL     OW33721   3.869   3.349   4.042  0.4202 -0.1971 -0.1197
 7420SOL    HW133722   3.882   3.354   3.947  0.4695  1.6040 -0.0124
 7420SOL    HW233723   3.773   3.348   4.038  0.4172 -1.1461  0.3640
 7421SOL     OW33724   4.265   0.278   2.709 -0.3216  0.0894  0.0428
 7421SOL    HW133725   4.317   0.304   2.632 -0.8925 -0.1766 -0.4355
 7421SOL    HW233726   4.248   0.184   2.700  1.5750 -0.2181 -0.2923
 7422SOL     OW33727   2.399   3.995   4.871  0.1281  0.3524 -0.6796
 7422SOL    HW133728   2.313   3.959   4.894 -0.1501  1.7488  0.4604
 7422SOL    HW233729   2.402   4.075   4.922 -0.4499  0.1294 -0.2917
 7423SOL     OW33730   2.399   4.168   4.592 -0.1647 -0.3403 -0.0019
 7423SOL    HW133731   2.482   4.191   4.550 -0.4261  0.5740 -0.0208
 7423SOL    HW233732   2.432   4.088   4.633  0.8800  0.5527  0.9283
 7424SOL     OW33733   4.631   0.592   2.399  0.3496 -0.0018 -0.0576
 7424SOL    HW133734   4.648   0.531   2.471 -0.5551  0.7029  0.7664
 7424SOL    HW233735   4.629   0.535   2.322  3.1929 -1.6152  1.0408
 7425SOL     OW33736   1.812   3.619   6.239  0.2633 -0.4934 -0.4365
 7425SOL    HW133737   1.737   3.620   6.179  0.8918 -3.1518 -1.2689
 7425SOL    HW233738   1.778   3.591   6.323 -0.6844 -0.3178 -0.7653
 7426SOL     OW33739   3.228   2.045  11.595  0.3843 -0.3524 -0.0015
 7426SOL    HW133740   3.147   2.067  11.550  1.6000  1.6832 -1.1851
 7426SOL    HW233741   3.273   2.000  11.524 -0.3129  1.1616 -1.3953
 7427SOL     OW33742   0.601   1.841  10.596 -0.1666  0.1723 -0.2719
 7427SOL    HW133743   0.596   1.930  10.561 -2.5896 -0.2127 -0.8596
 7427SOL    HW233744   0.695   1.826  10.606  0.3014  2.4710 -1.3057
 7428SOL     OW33745   2.965   4.316  17.688  0.0071 -0.2672 -0.3802
 7428SOL    HW133746   2.916   4.327   0.070 -0.7884 -0.4615 -0.8303
 7428SOL    HW233747   3.026   4.243  17.699 -2.3955 -1.7519  3.2695
 7429SOL     OW33748   0.435   1.185  16.589  0.2662  0.2316 -0.2400
 7429SOL    HW133749   0.354   1.201  16.541 -0.5183  1.3627  1.4785
 7429SOL    HW233750   0.410   1.233  16.668 -2.3458  0.7827 -1.4011
 7430SOL     OW33751   1.057   4.438   0.815  0.1347 -0.1982  0.7429
 7430SOL    HW133752   1.082   4.373   0.751 -0.4955 -0.3960  0.7005
 7430SOL    HW233753   1.140   4.458   0.858  0.6001  0.7307 -0.6134
 7431SOL     OW33754   3.517   1.548   1.491 -0.1684  0.0240  0.5323
 7431SOL    HW133755   3.585   1.533   1.557 -1.2697  1.9952  2.0982
 7431SOL    HW233756   3.491   1.456   1.484 -0.9978  0.1709  1.6570
 7432SOL     OW33757   1.926   0.750  17.363  0.2224  0.3760 -0.4201
 7432SOL    HW133758   1.920   0.665  17.318  1.5829  0.8133 -1.4127
 7432SOL    HW233759   1.858   0.751  17.431 -0.8497  0.6996 -1.5062
 7433SOL     OW33760   3.630   3.663   6.675 -0.1698 -0.3444 -0.6086
 7433SOL    HW133761   3.575   3.669   6.753 -1.4211 -1.2624 -1.4267
 7433SOL    HW233762   3.682   3.742   6.687  2.0387 -1.8601 -0.2891
 7434SOL     OW33763   3.188   3.917  16.203  0.1684 -0.1211  0.0920
 7434SOL    HW133764   3.104   3.872  16.197 -0.1556  0.3577  1.0559
 7434SOL    HW233765   3.168   3.990  16.260 -1.8964  0.2258 -1.0636
 7435SOL     OW33766   2.429   3.170   2.430 -0.2097  0.1297 -0.1314
 7435SOL    HW133767   2.341   3.207   2.434 -0.4406 -0.7373  2.6528
 7435SOL    HW233768   2.479   3.249   2.453 -1.5720  0.5281  1.5107
 7436SOL     OW33769   1.724   0.224   9.519  0.4335 -0.1489  0.3525
 7436SOL    HW133770   1.754   0.204   9.608  0.7699  1.2816  0.5641
 7436SOL    HW233771   1.800   0.261   9.475 -1.4878  0.2638 -2.5536
 7437SOL     OW33772   3.220   0.351   6.596  0.4041  0.7098  0.3852
 7437SOL    HW133773   3.272   0.322   6.670  0.6761 -1.3133 -0.5960
 7437SOL    HW233774   3.141   0.377   6.642 -0.2218 -0.9384  0.2208
 7438SOL     OW33775   3.325   0.018   9.440  0.1795  0.4505 -0.1869
 7438SOL    HW133776   3.377   4.700   9.371 -1.5151 -0.1447 -1.1005
 7438SOL    HW233777   3.248   4.687   9.428 -1.2297  1.9855  1.6872
 7439SOL     OW33778   3.850   0.093   1.690 -0.0718  0.0835  0.3644
 7439SOL    HW133779   3.942   0.092   1.661 -0.4319 -1.2469 -0.6895
 7439SOL    HW233780   3.844   4.724   1.706  0.3648  0.3239  1.9305
 7440SOL     OW33781   1.958   0.260   6.718  0.2953  0.6721 -0.1875
 7440SOL    HW133782   1.952   0.344   6.673 -1.5950  0.5901 -0.0899
 7440SOL    HW233783   1.993   0.286   6.803  1.1416 -0.9266 -0.0415
 7441SOL     OW33784   3.316   4.705   9.730 -0.0798 -0.3890  0.3426
 7441SOL    HW133785   3.316   0.039   9.654  1.6531 -1.5051 -0.5125
 7441SOL    HW233786   3.337   0.038   9.803  0.3830  2.0325 -1.7143
 7442SOL     OW33787   2.972   0.469   3.900  0.1062  0.2822  0.2721
 7442SOL    HW133788   2.940   0.557   3.883 -1.4681 -0.1227  1.0943
 7442SOL    HW233789   2.889   0.422   3.885 -0.2422  0.4047  1.9068
 7443SOL     OW33790   2.651   3.342   2.853 -0.4248  0.4047 -0.2326
 7443SOL    HW133791   2.683   3.258   2.819  2.1074  0.8750  0.9924
 7443SOL    HW233792   2.575   3.361   2.797 -0.0719 -0.2496 -0.9437
 7444SOL     OW33793   2.085   1.304   1.118  0.4933  0.4723  0.4812
 7444SOL    HW133794   2.051   1.391   1.098  1.1536  0.7873  0.6987
 7444SOL    HW233795   2.057   1.243   1.050  0.2311 -0.7466  1.6973
 7445SOL     OW33796   4.615   1.163  14.147  0.4749  0.1861  0.3020
 7445SOL    HW133797   4.648   1.085  14.102  2.0927  1.0897 -0.0809
 7445SOL    HW233798   4.604   1.122  14.232  1.5418 -0.2247  0.2426
 7446SOL     OW33799   0.169   3.427   3.971 -0.3690  0.4223 -0.2907
 7446SOL    HW133800   0.104   3.358   3.983 -0.9289  1.4907  2.8402
 7446SOL    HW233801   0.218   3.391   3.898  1.8889  1.4467  0.7286
 7447SOL     OW33802   0.833   3.537   4.363 -0.1522 -0.2552  0.6218
 7447SOL    HW133803   0.850   3.508   4.273  0.1012 -0.0204  0.5938
 7447SOL    HW233804   0.866   3.627   4.362  4.1767 -1.8362 -0.3054
 7448SOL     OW33805   0.617   2.143   9.605  0.1924  0.7450 -0.7858
 7448SOL    HW133806   0.523   2.133   9.590  0.3706  0.7669 -1.9552
 7448SOL    HW233807   0.630   2.117   9.696  1.1972  3.2544 -0.2036
 7449SOL     OW33808   2.592   0.587  12.132 -0.3417 -0.3509  0.2161
 7449SOL    HW133809   2.662   0.620  12.076  0.1162 -0.2767  0.8264
 7449SOL    HW233810   2.612   0.493  12.137 -1.2751 -0.5798 -0.3580
 7450SOL     OW33811   2.051   4.110  17.406  0.2116  0.2948 -0.2955
 7450SOL    HW133812   2.074   4.018  17.392 -2.6466 -0.6839  1.3124
 7450SOL    HW233813   2.137   4.151  17.414 -0.9642  2.9329 -1.2370
 7451SOL     OW33814   0.805   3.122   4.972  0.2170  0.5499  0.6216
 7451SOL    HW133815   0.758   3.045   5.005  1.4494  0.5443  2.3795
 7451SOL    HW233816   0.824   3.158   5.059  1.3428  2.2513 -0.3351
 7452SOL     OW33817   1.269   3.522  14.457  0.6924  0.1766 -0.3488
 7452SOL    HW133818   1.323   3.600  14.471  1.9879 -1.3227  3.0746
 7452SOL    HW233819   1.180   3.556  14.447  0.6004 -0.1351 -0.5678
 7453SOL     OW33820   1.242   0.001  17.282  0.4736  0.1276 -0.7514
 7453SOL    HW133821   1.246   4.692  17.193 -1.8814  0.6975 -1.0503
 7453SOL    HW233822   1.261   4.644  17.330 -1.1233  0.2698  0.1193
 7454SOL     OW33823   0.547   4.594  15.383  0.3540  0.0545 -0.1510
 7454SOL    HW133824   0.484   4.635  15.324 -1.0499 -0.1222  1.2222
 7454SOL    HW233825   0.630   4.642  15.378 -1.7973  3.6211 -1.3580
 7455SOL     OW33826   2.237   3.826  11.618  0.0334  0.2566 -0.3677
 7455SOL    HW133827   2.219   3.780  11.536 -1.3956  1.7415 -0.8989
 7455SOL    HW233828   2.184   3.777  11.681 -0.8459  2.5023  0.6669
 7456SOL     OW33829   4.475   0.649   4.064  0.2869  0.2782  0.0623
 7456SOL    HW133830   4.402   0.710   4.059 -0.5626 -0.8307 -1.1956
 7456SOL    HW233831   4.470   0.603   3.980 -0.4669  1.3070 -0.4459
 7457SOL     OW33832   2.683   2.994   7.636 -0.4297  0.2271 -0.0267
 7457SOL    HW133833   2.626   2.929   7.596  1.6867  0.3398 -3.1685
 7457SOL    HW233834   2.688   2.943   7.717 -0.2304 -2.6544 -1.8773
 7458SOL     OW33835   3.573   3.106  12.602 -0.3655 -0.2530 -0.1895
 7458SOL    HW133836   3.648   3.067  12.647  0.6446  0.7201 -1.0134
 7458SOL    HW233837   3.610   3.148  12.524  1.8576 -1.7626  0.0434
 7459SOL     OW33838   0.614   0.274   7.712 -0.1619 -0.1358 -0.3511
 7459SOL    HW133839   0.587   0.356   7.670  1.9969  0.9350  0.3565
 7459SOL    HW233840   0.529   0.252   7.751 -0.2419 -0.5386 -0.7419
 7460SOL     OW33841   3.700   1.118   6.010 -0.0492  0.1700  0.0925
 7460SOL    HW133842   3.622   1.063   6.000  1.3808 -1.3844 -2.5419
 7460SOL    HW233843   3.669   1.194   6.060 -1.3057 -0.0542 -0.3405
 7461SOL     OW33844   4.061   2.191   5.386  0.0033 -0.0745  0.0343
 7461SOL    HW133845   3.991   2.186   5.321  2.9370  0.5131 -3.1506
 7461SOL    HW233846   4.127   2.221   5.324  0.7014  0.8464  1.2205
 7462SOL     OW33847   1.451   1.981  14.186  0.7517 -0.0835  0.1314
 7462SOL    HW133848   1.417   2.024  14.108  0.3111  1.6362  1.2562
 7462SOL    HW233849   1.541   2.013  14.191  1.0723 -0.8802 -0.5424
 7463SOL     OW33850   0.080   0.361   7.223 -0.1669 -0.6105 -0.3475
 7463SOL    HW133851   4.724   0.394   7.263 -0.8472 -1.6622 -0.8427
 7463SOL    HW233852   0.139   0.394   7.291  0.0772 -1.5431 -0.1175
 7464SOL     OW33853   2.742   2.202   9.492 -0.3985 -0.1550  0.2509
 7464SOL    HW133854   2.730   2.189   9.398 -1.2949 -1.4120  0.5416
 7464SOL    HW233855   2.712   2.292   9.510 -1.1092 -0.4779  0.7135
 7465SOL     OW33856   4.577   2.183   7.862  0.3837  0.0025 -0.2437
 7465SOL    HW133857   4.671   2.197   7.872  0.8029 -2.7176 -0.3426
 7465SOL    HW233858   4.563   2.102   7.911 -1.2078  2.2564  3.0427
 7466SOL     OW33859   3.709   2.689   5.000  0.0459 -0.0317 -0.3703
 7466SOL    HW133860   3.746   2.698   5.088  2.9015  2.3389 -1.8333
 7466SOL    HW233861   3.700   2.593   5.000  0.0862 -0.0393  0.3639
 7467SOL     OW33862   3.519   2.541   8.958 -0.0736 -0.1715  0.4262
 7467SOL    HW133863   3.457   2.489   9.010 -1.7366  1.8199  0.4245
 7467SOL    HW233864   3.593   2.545   9.019  1.2224 -2.2416 -1.0194
 7468SOL     OW33865   1.041   2.291   4.620  0.2515 -0.7525 -0.3592
 7468SOL    HW133866   1.025   2.353   4.692  1.1541 -0.9421 -0.0000
 7468SOL    HW233867   0.960   2.244   4.643 -0.3583  0.3332 -0.3020
 7469SOL     OW33868   2.032   3.768   0.829 -0.0572 -0.5816  0.0441
 7469SOL    HW133869   2.127   3.763   0.843 -0.1760 -1.0537  0.6721
 7469SOL    HW233870   2.002   3.681   0.853 -2.0552  0.0834 -0.0841
 7470SOL     OW33871   3.797   1.295   4.060 -0.2392 -0.6698  0.5431
 7470SOL    HW133872   3.830   1.385   4.065 -0.0161 -0.8495  2.2380
 7470SOL    HW233873   3.821   1.275   3.969  0.6344  0.1582  0.5925
 7471SOL     OW33874   3.874   1.067   5.146 -0.4257  0.0256 -0.3595
 7471SOL    HW133875   3.957   1.114   5.149 -0.1875 -0.3830 -0.5833
 7471SOL    HW233876   3.846   1.089   5.235 -1.7221  3.6779 -1.6594
 7472SOL     OW33877   1.574   1.280   6.929  0.3070 -0.1184  0.4984
 7472SOL    HW133878   1.543   1.352   6.984  1.1571  0.0370  0.7731
 7472SOL    HW233879   1.504   1.285   6.864  1.4916  1.0307 -0.6773
 7473SOL     OW33880   1.988   0.869   4.733  0.4152  0.1196  0.3758
 7473SOL    HW133881   1.921   0.832   4.675  2.0352 -0.9127 -0.8464
 7473SOL    HW233882   2.017   0.947   4.685  0.1264 -0.2599 -0.4196
 7474SOL     OW33883   3.289   3.308  12.748 -0.2601 -0.3090 -0.9391
 7474SOL    HW133884   3.243   3.386  12.718 -0.7261 -0.1522  0.1889
 7474SOL    HW233885   3.380   3.337  12.758 -0.6168 -0.2118  1.8500
 7475SOL     OW33886   4.288   4.215  14.689 -0.4092  0.3683  0.4500
 7475SOL    HW133887   4.269   4.217  14.783 -0.8013 -1.4344  0.4083
 7475SOL    HW233888   4.264   4.127  14.661  2.6870 -0.5757  0.7338
 7476SOL     OW33889   3.256   1.057   2.159 -0.4333 -0.6834 -0.3017
 7476SOL    HW133890   3.311   1.098   2.226 -0.3681 -1.4607  0.1122
 7476SOL    HW233891   3.269   1.116   2.084  0.8948 -0.3134  0.2194
 7477SOL     OW33892   0.863   4.668   6.461  0.6376 -0.6544  0.1444
 7477SOL    HW133893   0.805   0.016   6.486 -1.6999 -2.2747 -0.4965
 7477SOL    HW233894   0.799   4.603   6.431 -1.5129  1.0614  1.0237
 7478SOL     OW33895   3.355   0.485   2.585 -1.0304  0.5482 -0.2445
 7478SOL    HW133896   3.330   0.397   2.614  0.7243 -0.0099 -0.4535
 7478SOL    HW233897   3.270   0.528   2.578 -1.5707 -0.4401  0.1775
 7479SOL     OW33898   1.452   3.341   9.315  0.2990 -0.4018  0.4161
 7479SOL    HW133899   1.507   3.377   9.385 -2.7332  2.8777  1.1096
 7479SOL    HW233900   1.502   3.382   9.245 -0.8646 -0.9724 -0.7530
 7480SOL     OW33901   1.993   3.434   3.619 -0.6196 -0.1355 -0.2377
 7480SOL    HW133902   1.936   3.387   3.680  1.7289 -0.5878  1.6057
 7480SOL    HW233903   2.019   3.354   3.573 -0.9240 -0.2431 -0.2180
 7481SOL     OW33904   1.918   0.771   5.487 -0.2181  0.4816 -0.0394
 7481SOL    HW133905   1.960   0.718   5.419 -2.9849 -0.9245 -0.6861
 7481SOL    HW233906   1.916   0.857   5.446  1.7643  0.8339  0.6302
 7482SOL     OW33907   1.455   1.659  14.791 -0.3522  0.3173  0.3539
 7482SOL    HW133908   1.497   1.717  14.728  0.5149  0.1169  0.7392
 7482SOL    HW233909   1.515   1.584  14.789 -0.1762  0.4795 -0.5825
 7483SOL     OW33910   4.073   2.118   1.822  0.4775  0.1912  0.4214
 7483SOL    HW133911   4.095   2.119   1.729 -0.1902  0.7722  0.2703
 7483SOL    HW233912   3.996   2.060   1.814  0.9421 -0.7431  2.8093
 7484SOL     OW33913   2.571   4.599   7.132  0.7629  0.1198  0.0063
 7484SOL    HW133914   2.525   4.683   7.131 -1.3653 -1.0130  1.2380
 7484SOL    HW233915   2.517   4.539   7.184  2.2343 -2.1462 -1.1053
 7485SOL     OW33916   0.126   1.828   1.446 -0.4828  0.7061  0.2216
 7485SOL    HW133917   0.166   1.870   1.370  1.3141 -3.0773 -0.9213
 7485SOL    HW233918   0.035   1.832   1.417  0.4694  1.1519 -2.6702
 7486SOL     OW33919   3.771   2.994  12.765 -0.1394 -0.0496  0.2945
 7486SOL    HW133920   3.742   3.008  12.856  1.7433  0.1199  0.8541
 7486SOL    HW233921   3.825   3.072  12.751 -2.3650  1.4619  0.0200
 7487SOL     OW33922   3.646   1.566  10.515 -0.0610 -0.4527  0.0011
 7487SOL    HW133923   3.718   1.572  10.578  0.1301  0.1724 -0.2710
 7487SOL    HW233924   3.692   1.521  10.443 -0.4614 -0.2935 -0.3509
 7488SOL     OW33925   4.325   3.584   6.172  0.2691 -0.3321 -0.3434
 7488SOL    HW133926   4.332   3.658   6.110 -1.7468  2.1020  2.3636
 7488SOL    HW233927   4.307   3.639   6.248  1.5392  1.7562 -1.5489
 7489SOL     OW33928   4.333   2.658   6.112 -0.0668 -0.1451  0.1316
 7489SOL    HW133929   4.266   2.666   6.181 -0.9073  0.3403 -0.7508
 7489SOL    HW233930   4.299   2.577   6.074 -3.5024  1.3193  0.0644
 7490SOL     OW33931   0.763   1.150  17.074 -0.5838 -0.1201  0.0300
 7490SOL    HW133932   0.712   1.198  17.139  1.3671 -0.3352  1.7282
 7490SOL    HW233933   0.821   1.103  17.133  1.4514  1.7286 -0.5187
 7491SOL     OW33934   4.506   3.523   3.852 -0.5031  0.5990  0.6573
 7491SOL    HW133935   4.416   3.555   3.842  0.0070  0.8813 -3.0620
 7491SOL    HW233936   4.549   3.574   3.783 -1.6815  1.3455  0.4767
 7492SOL     OW33937   2.511   4.475   4.703  0.1427  0.4689  0.5281
 7492SOL    HW133938   2.424   4.509   4.681 -0.4670 -0.9932  0.6727
 7492SOL    HW233939   2.488   4.447   4.792 -0.3041  0.7648  0.5059
 7493SOL     OW33940   2.927   2.808   1.937  0.0056  0.2799 -0.1425
 7493SOL    HW133941   2.848   2.786   1.887 -0.1323  0.6908 -0.1077
 7493SOL    HW233942   2.892   2.887   1.978  1.5376  2.1125 -2.3644
 7494SOL     OW33943   3.012   3.699   5.890  0.3314  0.2391  0.0261
 7494SOL    HW133944   3.038   3.712   5.981  0.1746 -0.2097  0.1363
 7494SOL    HW233945   3.098   3.690   5.849  0.1355 -0.3064 -0.2748
 7495SOL     OW33946   0.317   3.261  14.222  0.3601 -0.2925 -0.4888
 7495SOL    HW133947   0.399   3.227  14.260 -0.7404  0.6749  2.7693
 7495SOL    HW233948   0.336   3.355  14.223 -0.6626 -0.0892 -0.4347
 7496SOL     OW33949   2.506   4.665   3.016 -0.0134 -0.4051  0.3330
 7496SOL    HW133950   2.462   4.593   2.971 -2.5969  1.1065  0.4494
 7496SOL    HW233951   2.454   0.013   2.981 -1.2417 -1.1677  0.6019
 7497SOL     OW33952   4.176   2.010   1.577 -0.1027  0.1598  0.3241
 7497SOL    HW133953   4.219   1.932   1.613  1.9405  0.6020 -1.2158
 7497SOL    HW233954   4.217   2.021   1.492  0.3787 -0.0460  0.5286
 7498SOL     OW33955   3.404   3.786   2.255 -0.2975 -0.5784  0.4630
 7498SOL    HW133956   3.410   3.783   2.350  3.4562 -0.6681  0.2616
 7498SOL    HW233957   3.431   3.698   2.229 -0.3341  0.1858 -2.2006
 7499SOL     OW33958   3.351   3.048   2.543  0.5351  0.8406 -0.2758
 7499SOL    HW133959   3.340   2.959   2.509  0.9748  0.0604  1.6050
 7499SOL    HW233960   3.444   3.049   2.521  0.6451 -2.7710  0.0709
 7500SOL     OW33961   3.195   3.502   1.140 -0.1731 -0.2198  0.1933
 7500SOL    HW133962   3.290   3.513   1.151 -0.2015  0.4139 -0.1547
 7500SOL    HW233963   3.187   3.418   1.185  1.4942 -0.3139  0.3437
 7501SOL     OW33964   1.705   3.649   8.594  0.5297  0.0915 -0.3196
 7501SOL    HW133965   1.750   3.690   8.668 -1.1193  1.7022 -0.2160
 7501SOL    HW233966   1.614   3.630   8.616  0.3690 -1.2319 -2.1120
 7502SOL     OW33967   2.680   0.650   4.940 -0.1046 -0.1089  0.0921
 7502SOL    HW133968   2.718   0.600   4.868 -2.1169 -2.8728  0.9356
 7502SOL    HW233969   2.618   0.588   4.980 -0.9371  0.7398  0.0979
 7503SOL     OW33970   0.419   3.123   8.987  0.2815  0.2824 -0.1574
 7503SOL    HW133971   0.434   3.202   8.935 -0.4440 -0.0696 -0.8982
 7503SOL    HW233972   0.462   3.150   9.068 -1.5501  1.4961  0.4125
 7504SOL     OW33973   0.048   0.292  16.455 -0.2237  0.9256  0.4281
 7504SOL    HW133974   0.034   0.365  16.515 -1.1100  1.1489 -0.0502
 7504SOL    HW233975   0.128   0.326  16.415  0.0180  0.8590  0.8630
 7505SOL     OW33976   1.761   2.266   4.442 -0.4064  0.1534  0.2416
 7505SOL    HW133977   1.797   2.195   4.496  1.5374  1.0591  0.1524
 7505SOL    HW233978   1.669   2.242   4.435 -1.4252  3.8845  0.9634
 7506SOL     OW33979   4.497   4.542   7.810  0.2283  0.0891  0.2776
 7506SOL    HW133980   4.472   4.633   7.793  1.3921  0.2713 -0.4488
 7506SOL    HW233981   4.556   4.556   7.884  3.7742 -3.0478 -1.9909
 7507SOL     OW33982   1.318   2.714   4.347 -0.4054  0.0106 -0.2385
 7507SOL    HW133983   1.240   2.761   4.377 -0.0467  0.5679 -0.1754
 7507SOL    HW233984   1.289   2.628   4.377  1.5613  0.0681  1.8567
 7508SOL     OW33985   4.409   4.678   1.031  0.1032  0.1335  0.4035
 7508SOL    HW133986   4.321   4.683   0.994 -0.5174 -0.6450  1.8235
 7508SOL    HW233987   4.454   0.013   0.970  1.0095 -0.8185  0.1432
 7509SOL     OW33988   0.577   1.893   6.794 -0.2502  0.4620 -0.6392
 7509SOL    HW133989   0.621   1.809   6.808  0.8700  1.1179 -0.2379
 7509SOL    HW233990   0.516   1.876   6.722 -0.4631 -1.0105 -0.1054
 7510SOL     OW33991   1.207   1.998   5.929 -0.7953  0.0805  0.1310
 7510SOL    HW133992   1.214   1.944   6.008 -1.2339 -0.7418 -0.4070
 7510SOL    HW233993   1.260   1.953   5.864 -1.9734 -0.2368 -0.6005
 7511SOL     OW33994   1.312   0.933   4.218 -0.1638 -0.2184  0.7063
 7511SOL    HW133995   1.383   0.965   4.161  0.2994  0.7041  1.7989
 7511SOL    HW233996   1.260   1.012   4.200 -1.2132 -0.7759  1.3493
 7512SOL     OW33997   4.669   0.473   1.010 -0.2579 -0.4764  0.0612
 7512SOL    HW133998   4.574   0.488   1.007 -0.1008 -0.1679 -3.9927
 7512SOL    HW233999   4.659   0.378   1.002  0.8921 -0.6387  0.5826
 7513SOL     OW34000   0.477   0.224   3.087 -0.1638  1.1006  0.4134
 7513SOL    HW134001   0.550   0.222   3.150  0.5794 -2.7712 -0.6006
 7513SOL    HW234002   0.466   0.317   3.068  1.3555  1.4406  1.1627
 7514SOL     OW34003   3.527   3.867  10.926 -0.8521 -0.2287 -0.1786
 7514SOL    HW134004   3.518   3.773  10.940 -1.0141 -0.0856  0.6621
 7514SOL    HW234005   3.605   3.868  10.872 -1.0376  1.4375 -0.3967
 7515SOL     OW34006   0.746   2.170  13.088  0.0302  0.2046  0.4069
 7515SOL    HW134007   0.671   2.195  13.141 -1.7680  1.1823 -2.6038
 7515SOL    HW234008   0.814   2.225  13.128 -1.6211  2.9875 -0.5781
 7516SOL     OW34009   4.397   3.588  10.469 -0.1797  0.0907  0.5385
 7516SOL    HW134010   4.336   3.514  10.471 -0.5713  0.4155  0.7118
 7516SOL    HW234011   4.433   3.592  10.558 -0.4474  0.8283  0.6153
 7517SOL     OW34012   0.805   3.293  12.750 -0.3655  0.3459 -0.3306
 7517SOL    HW134013   0.847   3.265  12.668 -1.4323  0.3706 -0.8889
 7517SOL    HW234014   0.818   3.213  12.800 -1.5166  1.1891  1.3078
 7518SOL     OW34015   1.391   2.034  11.954 -0.0699  0.3178  0.7646
 7518SOL    HW134016   1.469   2.036  12.008  0.2606 -1.4978  0.3695
 7518SOL    HW234017   1.391   1.944  11.921 -0.5466 -0.0256  1.7012
 7519SOL     OW34018   4.374   3.224   4.814 -0.3597  0.5623 -0.5826
 7519SOL    HW134019   4.384   3.318   4.831  1.8669  0.0588  0.9238
 7519SOL    HW234020   4.336   3.204   4.900 -0.3299  1.2788 -0.4035
 7520SOL     OW34021   0.946   3.951   2.211 -0.8595 -0.4353 -0.1348
 7520SOL    HW134022   0.921   3.859   2.219  0.5542 -0.7978  0.0864
 7520SOL    HW234023   0.898   3.984   2.135 -1.2508 -0.9635 -0.1172
 7521SOL     OW34024   0.119   4.564  12.641  0.0635  0.0504  0.1395
 7521SOL    HW134025   0.064   4.499  12.684  2.7125 -2.1916  0.1590
 7521SOL    HW234026   0.186   4.512  12.596  1.8306  0.3621  2.4236
 7522SOL     OW34027   1.892   4.245  12.073  0.5288 -0.1363  0.1194
 7522SOL    HW134028   1.977   4.289  12.076  0.5042 -0.1147  0.6624
 7522SOL    HW234029   1.871   4.259  11.981  1.4793 -1.2163 -0.2484
 7523SOL     OW34030   0.724   0.918   6.804  0.0957 -0.1808 -0.2982
 7523SOL    HW134031   0.656   0.939   6.740 -0.8076  3.4972  1.8965
 7523SOL    HW234032   0.770   0.845   6.761 -2.3195 -0.1881 -2.8739
 7524SOL     OW34033   4.156   0.112  13.277 -0.5118  0.1444 -0.4872
 7524SOL    HW134034   4.112   0.172  13.338 -0.5716 -1.2133  0.8079
 7524SOL    HW234035   4.240   0.097  13.320 -0.3210  1.1890 -0.4960
 7525SOL     OW34036   3.456   0.348   7.405  0.0254 -0.0842  0.1406
 7525SOL    HW134037   3.516   0.309   7.340  0.5467 -1.4732  1.4670
 7525SOL    HW234038   3.437   0.437   7.375  1.7836  0.7619  1.5722
 7526SOL     OW34039   2.641   0.897   7.560  0.6804 -0.4591 -0.5250
 7526SOL    HW134040   2.548   0.878   7.555  0.6173 -0.1401 -0.5282
 7526SOL    HW234041   2.676   0.812   7.531  0.9935 -0.9664  1.3066
 7527SOL     OW34042   1.167   1.461  16.460 -0.1867 -0.3472  0.2200
 7527SOL    HW134043   1.087   1.430  16.417 -0.4235 -0.8918  1.0660
 7527SOL    HW234044   1.224   1.487  16.387  1.0047 -1.4027  0.7774
 7528SOL     OW34045   1.119   2.714   2.657 -0.4020  0.3108 -0.1871
 7528SOL    HW134046   1.140   2.806   2.669  1.8828 -0.3025  0.5142
 7528SOL    HW234047   1.024   2.708   2.648 -0.7763  3.2067  1.8490
 7529SOL     OW34048   0.872   0.370   0.752  0.2021  0.1303  0.0246
 7529SOL    HW134049   0.848   0.419   0.831 -1.9243  1.7113 -1.6063
 7529SOL    HW234050   0.917   0.294   0.789 -1.0778 -0.4941  0.2847
 7530SOL     OW34051   1.122   3.244  12.344 -0.0917  0.4592  0.2189
 7530SOL    HW134052   1.053   3.266  12.407  0.3768 -0.4975  1.0727
 7530SOL    HW234053   1.191   3.301  12.377  0.4664 -0.0010 -0.1559
 7531SOL     OW34054   0.785   0.509   4.860  0.2355 -0.5471 -0.3247
 7531SOL    HW134055   0.866   0.545   4.824  2.1307  0.1686  4.6595
 7531SOL    HW234056   0.807   0.418   4.841 -0.0613 -0.8364  0.7322
 7532SOL     OW34057   3.720   1.479   8.638 -0.1553  0.2245  0.5618
 7532SOL    HW134058   3.706   1.462   8.731  1.1840  1.1864  0.9467
 7532SOL    HW234059   3.814   1.495   8.632  0.0660 -0.6819  1.5889
 7533SOL     OW34060   3.613   1.637  13.622  0.1423 -0.0680 -0.0373
 7533SOL    HW134061   3.596   1.600  13.535  1.3549  2.2045 -1.2292
 7533SOL    HW234062   3.526   1.621  13.658 -0.7332  1.6429 -1.4058
 7534SOL     OW34063   1.788   3.405   3.097  0.2925  0.2844 -0.2224
 7534SOL    HW134064   1.770   3.323   3.143  0.3487 -0.8494 -2.2122
 7534SOL    HW234065   1.711   3.459   3.114 -0.4057 -1.5449  2.4067
 7535SOL     OW34066   0.971   0.733   2.020  0.0272  0.1837  0.2101
 7535SOL    HW134067   0.887   0.701   1.987 -1.0413  1.7644  1.4135
 7535SOL    HW234068   1.013   0.655   2.058  1.7751  0.8066 -0.4835
 7536SOL     OW34069   0.388   2.006   7.706  0.2888  0.4151 -0.4882
 7536SOL    HW134070   0.391   2.020   7.801  0.1731 -1.1934 -0.2457
 7536SOL    HW234071   0.384   1.910   7.708 -3.0816  0.5517  0.2263
 7537SOL     OW34072   0.904   3.843  15.517  0.3023 -0.0937  0.4933
 7537SOL    HW134073   0.999   3.854  15.512  0.1213  0.7056 -1.1241
 7537SOL    HW234074   0.893   3.781  15.589 -0.7802 -0.6966 -0.1851
 7538SOL     OW34075   2.273   1.920  11.162 -0.5899  0.2987  0.5468
 7538SOL    HW134076   2.213   1.965  11.102  0.1638 -0.0749 -0.4722
 7538SOL    HW234077   2.250   1.972  11.239  1.6954  2.3761 -0.1816
 7539SOL     OW34078   4.330   0.269   9.212 -0.0096 -0.1924  0.6056
 7539SOL    HW134079   4.269   0.224   9.271  0.4402 -1.1002  0.3806
 7539SOL    HW234080   4.286   0.349   9.184 -1.7833 -1.7761 -1.1502
 7540SOL     OW34081   1.894   1.164   0.600 -0.5874  0.0203 -0.0080
 7540SOL    HW134082   1.822   1.180   0.662 -0.5715  0.0361  0.0063
 7540SOL    HW234083   1.838   1.135   0.528 -0.6992  0.1730  0.0164
 7541SOL     OW34084   1.946   0.511   5.914  0.0692  0.1250  0.2844
 7541SOL    HW134085   2.007   0.548   5.851  0.7755 -2.4231 -0.5403
 7541SOL    HW234086   2.009   0.458   5.963 -0.8790  0.0269  1.3977
 7542SOL     OW34087   0.569   3.495   7.697  0.2406 -0.1075  0.3027
 7542SOL    HW134088   0.527   3.498   7.611 -1.1173  0.5763  0.9963
 7542SOL    HW234089   0.646   3.443   7.678  0.5768  0.0928  1.1181
 7543SOL     OW34090   2.739   4.157   9.093 -0.2410  0.5286  0.2658
 7543SOL    HW134091   2.686   4.152   9.013 -1.0735 -1.0271  0.9144
 7543SOL    HW234092   2.764   4.250   9.098 -0.4121  0.5654  0.4379
 7544SOL     OW34093   3.455   3.948   5.311 -0.1193 -0.3142  0.0690
 7544SOL    HW134094   3.398   4.000   5.368  1.1718  0.5095  0.6077
 7544SOL    HW234095   3.440   3.991   5.227 -1.0285 -1.6961 -0.4679
 7545SOL     OW34096   2.927   1.492   2.303  0.8833 -0.2346 -0.4008
 7545SOL    HW134097   2.905   1.583   2.283 -0.7746 -0.8326 -1.3286
 7545SOL    HW234098   3.018   1.486   2.272  0.6013 -1.6138 -0.9804
 7546SOL     OW34099   4.569   3.551  10.681 -0.2216  0.0087  0.1968
 7546SOL    HW134100   4.640   3.610  10.658 -1.1654  1.4567  1.0246
 7546SOL    HW234101   4.606   3.527  10.766  0.2804 -2.5293 -0.7398
 7547SOL     OW34102   1.778   2.103   8.579  0.4134  0.4901 -0.2075
 7547SOL    HW134103   1.762   2.153   8.660 -0.3834  0.0326 -0.0812
 7547SOL    HW234104   1.703   2.113   8.520 -0.3588  3.0279  1.2054
 7548SOL     OW34105   1.129   0.010  16.584 -0.0838  0.3526 -0.3575
 7548SOL    HW134106   1.170   4.648  16.577 -1.5259 -0.2425 -1.4101
 7548SOL    HW234107   1.198   0.062  16.624  0.5616 -1.2481  0.6380
 7549SOL     OW34108   4.206   4.491   9.805 -0.2254 -0.1263  0.1796
 7549SOL    HW134109   4.200   4.585   9.792  0.3521 -0.4857 -2.6647
 7549SOL    HW234110   4.275   4.448   9.754 -1.0248  1.1626 -1.9737
 7550SOL     OW34111   2.957   0.828  12.967  0.2534  0.6925 -0.1114
 7550SOL    HW134112   2.999   0.788  13.043 -0.3006  2.5111  1.1432
 7550SOL    HW234113   2.866   0.828  12.996 -0.1947  3.2011 -1.4925
 7551SOL     OW34114   3.288   0.453   0.987  0.5139  0.1112 -0.5844
 7551SOL    HW134115   3.380   0.472   0.966  0.8689 -0.8069  0.1072
 7551SOL    HW234116   3.263   0.536   1.027 -0.2362 -1.0190  1.2603
 7552SOL     OW34117   0.574   0.767   9.742 -0.3486 -0.0812 -0.4259
 7552SOL    HW134118   0.615   0.783   9.657 -0.0638 -2.3704 -0.7261
 7552SOL    HW234119   0.564   0.856   9.776 -1.2009  0.0637 -1.0415
 7553SOL     OW34120   2.061   3.501  13.094  0.3555 -0.0048  0.6369
 7553SOL    HW134121   2.043   3.585  13.052 -0.5546  0.0000  1.0463
 7553SOL    HW234122   2.072   3.430  13.031 -1.4850 -2.3867  3.0236
 7554SOL     OW34123   4.503   0.167  13.041  0.0466 -0.3930  0.1227
 7554SOL    HW134124   4.527   0.170  13.133 -0.3305 -1.6629  0.2680
 7554SOL    HW234125   4.410   0.188  13.040 -0.4117 -2.4109 -0.2918
 7555SOL     OW34126   4.186   2.095   7.429  0.7640 -0.2832  0.4475
 7555SOL    HW134127   4.153   2.166   7.484  3.5770  1.0628  0.3878
 7555SOL    HW234128   4.233   2.148   7.364 -0.2257 -0.0797 -0.0985
 7556SOL     OW34129   4.428   0.851  10.356 -1.0276 -0.0062 -0.2435
 7556SOL    HW134130   4.366   0.779  10.352 -1.7981  0.6224  0.4355
 7556SOL    HW234131   4.513   0.806  10.364 -1.7493 -1.6393 -1.7168
 7557SOL     OW34132   2.294   3.740   5.294 -0.4691 -0.1274  0.1114
 7557SOL    HW134133   2.218   3.685   5.278 -1.8634  0.0090  6.0413
 7557SOL    HW234134   2.321   3.700   5.377 -2.3054  0.3694  0.9426
 7558SOL     OW34135   0.241   1.048   4.158  0.1599 -0.3975 -0.5863
 7558SOL    HW134136   0.260   0.961   4.125  0.1501 -1.0833  1.2049
 7558SOL    HW234137   0.165   1.074   4.107  0.7762  0.9103 -0.8395
 7559SOL     OW34138   4.453   2.649   1.773  0.5145  0.4985  0.1944
 7559SOL    HW134139   4.548   2.655   1.784  0.6241  2.2261 -1.6784
 7559SOL    HW234140   4.422   2.681   1.857  0.7908  2.0150 -0.2875
 7560SOL     OW34141   3.766   0.496  15.069  0.1037 -0.0061 -1.0423
 7560SOL    HW134142   3.828   0.443  15.118  1.0944  0.6991 -1.5368
 7560SOL    HW234143   3.785   0.453  14.986  2.8438  1.9361 -1.4107
 7561SOL     OW34144   3.769   3.134   4.510 -0.1059 -0.4072 -0.3355
 7561SOL    HW134145   3.780   3.193   4.585  0.9070 -1.7552  0.5706
 7561SOL    HW234146   3.673   3.132   4.507 -0.1304 -0.1186  0.2752
 7562SOL     OW34147   2.906   3.123   7.045  0.0887  0.1741  0.1759
 7562SOL    HW134148   2.956   3.196   7.008  1.0883 -1.0375 -0.8719
 7562SOL    HW234149   2.860   3.170   7.114 -0.2206 -0.4692  0.4112
 7563SOL     OW34150   4.668   1.421  14.074 -0.1291  0.8724 -0.1094
 7563SOL    HW134151   4.638   1.332  14.088  0.6388  0.4975 -0.8524
 7563SOL    HW234152   4.610   1.475  14.129 -0.9351  0.7276 -0.8234
 7564SOL     OW34153   4.312   3.907   8.306 -0.4665  0.3700  0.3148
 7564SOL    HW134154   4.343   3.840   8.245  1.6825  2.1107 -0.4995
 7564SOL    HW234155   4.327   3.976   8.241 -1.6281  0.0072 -0.3331
 7565SOL     OW34156   4.143   2.727   6.717  0.0684 -0.2804  0.2852
 7565SOL    HW134157   4.087   2.798   6.747  1.2422  0.5807  0.4510
 7565SOL    HW234158   4.081   2.675   6.666 -0.1438  0.9703 -0.7603
 7566SOL     OW34159   3.766   2.824  15.636  0.8272  0.7752 -0.0843
 7566SOL    HW134160   3.684   2.792  15.674  1.3770 -0.1407  0.3327
 7566SOL    HW234161   3.805   2.744  15.600 -2.5232 -0.7810 -0.2882
 7567SOL     OW34162   4.681   3.323   6.622  0.1764  0.2213  0.1744
 7567SOL    HW134163   4.639   3.237   6.625 -0.1709  0.4740  2.2932
 7567SOL    HW234164   4.609   3.384   6.605  1.1573  1.2853 -0.1581
 7568SOL     OW34165   4.022   3.463  16.045 -0.3726  0.4565  0.0764
 7568SOL    HW134166   4.083   3.515  16.097  1.9844 -0.7095 -1.5310
 7568SOL    HW234167   4.069   3.451  15.962 -0.6288  0.0324 -0.0043
 7569SOL     OW34168   2.695   2.764   7.834  0.1087 -0.3958 -0.0620
 7569SOL    HW134169   2.717   2.674   7.859 -0.9742 -0.4010  0.8869
 7569SOL    HW234170   2.710   2.803   7.920 -1.3526 -0.2532  0.1300
 7570SOL     OW34171   2.123   4.468  13.992 -0.2272 -0.1689  0.3833
 7570SOL    HW134172   2.188   4.409  14.030  0.0104  0.6853  1.2848
 7570SOL    HW234173   2.099   4.520  14.069 -1.1836  1.5663 -1.1201
 7571SOL     OW34174   1.558   1.110   8.447  0.5528  0.6924 -0.5959
 7571SOL    HW134175   1.627   1.046   8.426  0.1888 -0.7585  2.7531
 7571SOL    HW234176   1.534   1.077   8.533 -1.2914 -0.4511 -1.5390
 7572SOL     OW34177   2.147   2.864   6.313  0.7883 -0.1352  0.0583
 7572SOL    HW134178   2.232   2.824   6.329  0.6903 -0.4261 -0.1571
 7572SOL    HW234179   2.170   2.954   6.288 -0.9015 -0.0647 -1.2227
 7573SOL     OW34180   4.273   2.982   9.585 -0.2159 -0.2050  0.2065
 7573SOL    HW134181   4.208   2.911   9.589 -0.7421  0.2371 -0.4319
 7573SOL    HW234182   4.283   3.008   9.493 -0.2348 -1.2834 -0.1076
 7574SOL     OW34183   0.521   1.623   5.179 -0.3322 -0.3643 -0.0411
 7574SOL    HW134184   0.516   1.711   5.142 -0.4005 -0.3549 -0.0096
 7574SOL    HW234185   0.602   1.598   5.134  0.4122  1.2350  0.4387
 7575SOL     OW34186   1.567   1.884   7.726  0.1866  0.3366  0.2287
 7575SOL    HW134187   1.599   1.850   7.643  0.9886 -1.4648  1.2661
 7575SOL    HW234188   1.587   1.977   7.727  0.7136  0.2216 -0.3967
 7576SOL     OW34189   4.059   4.085   5.561 -0.6007  0.2329 -0.3887
 7576SOL    HW134190   4.074   4.005   5.511 -0.8487  0.5580 -0.9754
 7576SOL    HW234191   4.063   4.148   5.489 -2.4974 -0.1593 -0.8211
 7577SOL     OW34192   0.085   0.270   9.105  0.3444  0.6193 -0.2709
 7577SOL    HW134193   0.076   0.239   9.195  0.3745  0.2030 -0.4117
 7577SOL    HW234194   0.033   0.349   9.117  0.9443  1.1786 -1.3652
 7578SOL     OW34195   0.697   1.604   1.038  1.1335 -0.2233  0.3224
 7578SOL    HW134196   0.639   1.532   1.013 -0.8971  0.6228  2.5176
 7578SOL    HW234197   0.717   1.636   0.950  1.8664 -0.7790  0.2846
 7579SOL     OW34198   0.759   2.557   3.485 -0.7036 -0.2156 -0.4727
 7579SOL    HW134199   0.728   2.557   3.395 -0.8753 -0.3718 -0.4122
 7579SOL    HW234200   0.730   2.641   3.521 -1.1298 -0.2956 -0.6233
 7580SOL     OW34201   1.880   2.579   3.041  0.2503  0.3046  0.1418
 7580SOL    HW134202   1.822   2.636   3.091  0.8590  1.0177  0.0361
 7580SOL    HW234203   1.953   2.565   3.101  0.7497 -1.8221 -0.9641
 7581SOL     OW34204   0.588   3.806  13.175  0.6777  0.1940 -0.1614
 7581SOL    HW134205   0.547   3.749  13.239 -0.7683  0.0577 -1.2184
 7581SOL    HW234206   0.674   3.824  13.213  1.7163  0.4513 -2.6269
 7582SOL     OW34207   0.357   3.114  12.713 -0.3939 -0.4237 -0.0997
 7582SOL    HW134208   0.399   3.120  12.628 -1.0861  0.5211 -0.3717
 7582SOL    HW234209   0.379   3.023  12.736 -0.7730  0.0899  2.3662
 7583SOL     OW34210   3.797   4.165   8.366  0.5677 -0.2099 -0.1524
 7583SOL    HW134211   3.836   4.093   8.415  0.5404 -0.1037  0.0262
 7583SOL    HW234212   3.721   4.125   8.324  0.2754  0.2141 -0.0233
 7584SOL     OW34213   2.148   4.154   4.684 -0.1551  0.1354  0.2077
 7584SOL    HW134214   2.240   4.146   4.659 -0.5561 -0.1272 -1.1705
 7584SOL    HW234215   2.106   4.147   4.598  1.0613  0.1155 -0.3824
 7585SOL     OW34216   3.478   3.918   5.739 -0.5136  0.3533 -0.0417
 7585SOL    HW134217   3.564   3.878   5.730  0.5463  1.6872  3.9867
 7585SOL    HW234218   3.493   3.971   5.818  1.3177 -1.1102  0.5926
 7586SOL     OW34219   0.819   2.316   5.088 -0.2899  0.1676  0.1849
 7586SOL    HW134220   0.872   2.362   5.153  0.4106 -1.4309  0.7304
 7586SOL    HW234221   0.731   2.335   5.118 -0.8355 -1.3027 -0.4917
 7587SOL     OW34222   1.417   3.484   4.322 -0.2280 -0.1005 -0.2059
 7587SOL    HW134223   1.446   3.558   4.269  2.3528 -1.6419 -0.9807
 7587SOL    HW234224   1.330   3.475   4.282 -0.7480  2.0019  0.5000
 7588SOL     OW34225   1.859   0.975  13.739 -0.0901  0.1275 -0.1241
 7588SOL    HW134226   1.854   1.059  13.785 -1.6483  0.0956 -0.2450
 7588SOL    HW234227   1.773   0.974  13.697 -0.5329  0.4110  0.7844
 7589SOL     OW34228   2.851   3.119   3.285 -0.1757 -0.0484  0.0703
 7589SOL    HW134229   2.823   3.158   3.203 -1.2543  1.5878  1.2126
 7589SOL    HW234230   2.774   3.135   3.340 -1.3334 -2.4731 -0.8708
 7590SOL     OW34231   2.637   1.273  11.421 -0.0732 -0.1020 -0.5708
 7590SOL    HW134232   2.629   1.324  11.501 -0.4307  0.1523 -0.7686
 7590SOL    HW234233   2.546   1.257  11.397 -0.6062 -0.8550  1.9244
 7591SOL     OW34234   4.723   1.419   9.234 -0.2228 -0.6893  0.3772
 7591SOL    HW134235   4.689   1.500   9.196 -1.4719 -0.9232  0.9905
 7591SOL    HW234236   4.700   1.360   9.162 -1.7745 -0.0650  0.3677
 7592SOL     OW34237   3.205   0.554  12.315 -0.8850  0.4157 -0.1979
 7592SOL    HW134238   3.150   0.604  12.376  0.0689  0.1832  0.8709
 7592SOL    HW234239   3.146   0.541  12.241  0.0073  2.1731 -1.2180
 7593SOL     OW34240   1.711   1.947   4.450 -0.2710  0.2927  0.1298
 7593SOL    HW134241   1.726   1.958   4.544 -0.3573 -0.9441  0.2805
 7593SOL    HW234242   1.641   2.008   4.429 -1.1272 -1.0982 -1.0221
 7594SOL     OW34243   4.413   2.331   6.173 -0.5372 -0.4843 -0.0493
 7594SOL    HW134244   4.348   2.269   6.207  0.3185  0.0543  2.5677
 7594SOL    HW234245   4.404   2.407   6.231  0.0912 -1.5324  1.4236
 7595SOL     OW34246   2.088   1.978   6.485  0.0854  0.0944 -0.6508
 7595SOL    HW134247   2.003   1.957   6.446 -0.6548 -0.5970  1.3696
 7595SOL    HW234248   2.052   2.018   6.564 -0.7252 -1.9383  0.0087
 7596SOL     OW34249   4.646   3.331   3.728  0.1555  0.0518  0.1532
 7596SOL    HW134250   4.608   3.406   3.773 -1.1226  0.7048 -1.9894
 7596SOL    HW234251   4.706   3.309   3.799 -1.1904 -1.4584  0.8320
 7597SOL     OW34252   1.785   0.414   0.309 -0.4976  0.1933 -0.6166
 7597SOL    HW134253   1.803   0.486   0.369  0.4851 -0.6797  0.1177
 7597SOL    HW234254   1.872   0.378   0.295 -0.8458 -0.9831  0.3100
 7598SOL     OW34255   4.119   3.334  12.667 -0.1549  0.3499 -0.2790
 7598SOL    HW134256   4.062   3.287  12.729 -0.3572  1.2551  0.2252
 7598SOL    HW234257   4.058   3.347  12.595 -2.0319  0.1258  1.2776
 7599SOL     OW34258   3.542   2.226   4.550 -0.5596  0.1121 -0.2473
 7599SOL    HW134259   3.628   2.225   4.594 -0.2915  0.1234 -0.7771
 7599SOL    HW234260   3.565   2.174   4.473  2.2762  0.9105  0.0624
 7600SOL     OW34261   3.595   3.958   7.292  0.5602 -0.4575 -0.3222
 7600SOL    HW134262   3.612   4.052   7.301  1.0702 -0.5327 -0.4515
 7600SOL    HW234263   3.500   3.958   7.295  0.6747 -0.1935  3.3804
 7601SOL     OW34264   0.122   2.697   2.448 -0.3048  0.4608  0.1044
 7601SOL    HW134265   0.155   2.650   2.525 -0.9903  0.0944  0.1775
 7601SOL    HW234266   0.032   2.721   2.469 -0.8002 -0.8807 -0.4502
 7602SOL     OW34267   2.374   1.525   5.991  0.8969 -0.2605  0.1509
 7602SOL    HW134268   2.403   1.435   6.005  0.6642 -0.4710 -0.7071
 7602SOL    HW234269   2.367   1.521   5.895 -1.0379  1.4478  0.2352
 7603SOL     OW34270   0.573   1.714   4.415  0.8887  0.3382 -0.0529
 7603SOL    HW134271   0.494   1.713   4.469  0.4531  1.0881 -0.6850
 7603SOL    HW234272   0.543   1.652   4.348  1.1078 -2.7165  2.6654
 7604SOL     OW34273   1.557   3.232   6.698  0.1817  0.0258  0.2137
 7604SOL    HW134274   1.571   3.223   6.603  3.9529 -2.5107  1.0018
 7604SOL    HW234275   1.624   3.171   6.730  1.6046  1.8023  0.6008
 7605SOL     OW34276   1.471   1.287  10.124 -0.2466 -0.8943  0.5310
 7605SOL    HW134277   1.506   1.366  10.084  0.7312 -2.6301 -2.0605
 7605SOL    HW234278   1.410   1.258  10.056 -0.0909 -1.6683  0.7204
 7606SOL     OW34279   0.201   4.260   3.494 -0.5438 -0.3338  0.2355
 7606SOL    HW134280   0.279   4.236   3.544  0.7425 -0.9851 -2.0321
 7606SOL    HW234281   0.131   4.213   3.538  0.1461  0.5516  2.2339
 7607SOL     OW34282   3.826   4.370  16.504 -0.0949  0.3717  0.2146
 7607SOL    HW134283   3.910   4.355  16.548  0.9959 -0.4002 -2.1465
 7607SOL    HW234284   3.777   4.397  16.582 -2.4246  0.9125 -1.4359
 7608SOL     OW34285   1.625   3.412   9.103  0.1159 -0.0022 -0.2900
 7608SOL    HW134286   1.673   3.331   9.116 -1.2139 -1.1042 -2.3984
 7608SOL    HW234287   1.589   3.387   9.018 -2.6035 -1.8228  1.3759
 7609SOL     OW34288   2.085   3.530   4.546  0.0459 -0.2313  0.5017
 7609SOL    HW134289   2.130   3.514   4.464  0.2981 -0.4224  0.6772
 7609SOL    HW234290   2.022   3.458   4.546 -0.6086  0.3443  0.0612
 7610SOL     OW34291   4.390   3.441   9.045 -0.2181  0.4254 -0.0403
 7610SOL    HW134292   4.433   3.373   8.993 -1.2645 -0.8686  0.7961
 7610SOL    HW234293   4.353   3.496   8.976 -1.5142  0.9910  1.0936
 7611SOL     OW34294   1.698   3.632   3.513  0.1768  0.4136 -0.3619
 7611SOL    HW134295   1.702   3.702   3.449  0.4202  0.3614 -0.4020
 7611SOL    HW234296   1.745   3.663   3.590  1.1690  2.6613 -1.8873
 7612SOL     OW34297   2.297   4.359   6.381 -0.0765 -0.4153 -0.0749
 7612SOL    HW134298   2.204   4.382   6.378  0.1575  0.5113 -0.0257
 7612SOL    HW234299   2.296   4.288   6.316  2.0986  0.3225 -0.8890
 7613SOL     OW34300   4.724   0.421   3.327  0.1889 -0.2760  0.2084
 7613SOL    HW134301   0.012   0.334   3.365  2.1148 -0.3688 -0.6463
 7613SOL    HW234302   4.710   0.481   3.400 -0.1416 -0.7867  0.5629
 7614SOL     OW34303   3.401   0.996  12.315 -0.7616  0.1552 -0.3275
 7614SOL    HW134304   3.439   1.079  12.286  0.5475  0.7759  3.0562
 7614SOL    HW234305   3.380   1.011  12.407  0.9333  2.0155 -0.2174
 7615SOL     OW34306   0.167   3.467   2.952  0.5914 -0.1166 -0.1459
 7615SOL    HW134307   0.088   3.413   2.950  0.8990 -0.5391 -0.7562
 7615SOL    HW234308   0.150   3.548   3.001 -0.4942 -0.4816  0.0874
 7616SOL     OW34309   4.055   4.568   7.453 -0.6256 -0.0010 -0.2904
 7616SOL    HW134310   4.121   4.613   7.505 -0.1036 -0.1211 -0.8605
 7616SOL    HW234311   3.974   4.615   7.473 -1.4421 -0.7369 -1.8821
 7617SOL     OW34312   2.720   0.704   2.621  0.0966 -0.4811  0.3599
 7617SOL    HW134313   2.714   0.749   2.537 -0.0763  2.8997  2.1509
 7617SOL    HW234314   2.646   0.749   2.663  1.1313  1.8302 -0.2599
 7618SOL     OW34315   1.962   3.503   2.056 -0.2144 -0.4236  0.3835
 7618SOL    HW134316   2.053   3.487   2.083 -0.6714 -0.7734  1.6838
 7618SOL    HW234317   1.932   3.556   2.130 -0.2883 -0.6034  0.4816
 7619SOL     OW34318   1.471   2.644  17.105  0.5576 -0.2105  0.1103
 7619SOL    HW134319   1.536   2.626  17.173  1.4033  0.7390 -0.4402
 7619SOL    HW234320   1.394   2.614  17.153  0.6110  0.2999  0.5171
 7620SOL     OW34321   4.656   0.513   8.142  0.2012 -0.4047 -0.0358
 7620SOL    HW134322   4.574   0.495   8.189 -1.1009  2.3330 -1.1989
 7620SOL    HW234323   4.713   0.513   8.218 -1.3847 -0.6728  1.1614
 7621SOL     OW34324   4.654   4.714   6.115 -0.2525  0.4154 -0.6968
 7621SOL    HW134325   4.613   0.034   6.041 -0.3498 -1.5020 -1.7860
 7621SOL    HW234326   4.630   4.625   6.088 -0.7231 -0.3751  2.4062
 7622SOL     OW34327   0.152   1.752   5.737  0.4951  0.0446 -0.2701
 7622SOL    HW134328   0.069   1.709   5.717  1.1199 -0.7779 -1.0805
 7622SOL    HW234329   0.176   1.778   5.648  1.7344  0.1362  0.0887
 7623SOL     OW34330   3.092   0.571   2.873 -0.0985  0.0537  0.2732
 7623SOL    HW134331   3.129   0.644   2.823 -0.9920 -0.1542 -0.6778
 7623SOL    HW234332   3.042   0.526   2.805  2.3545 -1.1747 -0.7047
 7624SOL     OW34333   2.146   2.799   0.674  0.4736  0.1497 -0.3898
 7624SOL    HW134334   2.075   2.859   0.649 -0.5994 -1.6353 -1.5900
 7624SOL    HW234335   2.122   2.787   0.766  1.7963 -0.1568 -0.0852
 7625SOL     OW34336   3.607   0.837   2.033  0.5849 -0.0973  0.0671
 7625SOL    HW134337   3.608   0.751   1.990  1.7235  0.7876 -1.7074
 7625SOL    HW234338   3.699   0.842   2.061  0.3416 -1.2995  1.0773
 7626SOL     OW34339   3.626   1.317   6.170  0.0923  0.7754 -0.0308
 7626SOL    HW134340   3.597   1.408   6.169  4.9146  2.3399  0.4830
 7626SOL    HW234341   3.686   1.330   6.244 -2.2835 -0.9410  2.1732
 7627SOL     OW34342   1.088   2.023   2.421  0.4935 -0.0063  0.6713
 7627SOL    HW134343   1.001   1.988   2.440  0.1592  1.3734  1.7764
 7627SOL    HW234344   1.098   1.999   2.329  3.5570 -0.4511  1.1095
 7628SOL     OW34345   4.121   1.446  16.142 -0.1035  0.3807  0.5558
 7628SOL    HW134346   4.037   1.491  16.138 -0.7442 -1.0287 -1.5593
 7628SOL    HW234347   4.108   1.398  16.223 -1.0019  0.6471  0.5703
 7629SOL     OW34348   3.138   2.285   6.954 -0.2759  0.9080  1.0761
 7629SOL    HW134349   3.149   2.350   7.024  0.3656  0.6222  1.2342
 7629SOL    HW234350   3.227   2.250   6.950 -0.6271  0.1028  0.4456
 7630SOL     OW34351   1.510   0.243   7.870  0.2059  0.5470  0.1908
 7630SOL    HW134352   1.535   0.203   7.786 -0.8061  0.1347  0.0867
 7630SOL    HW234353   1.501   0.171   7.932 -1.3668 -1.0019 -1.8102
 7631SOL     OW34354   0.847   0.026   3.093  0.1418 -0.0345  0.0351
 7631SOL    HW134355   0.786   0.087   3.135  0.2093  0.3979 -0.5018
 7631SOL    HW234356   0.930   0.061   3.127 -1.2329  3.8458 -0.5843
 7632SOL     OW34357   3.289   4.660   0.762  0.2351 -0.2047 -0.4108
 7632SOL    HW134358   3.310   0.027   0.782  0.7960 -0.7392  1.4588
 7632SOL    HW234359   3.376   4.632   0.735  0.0393 -0.9247 -0.2818
 7633SOL     OW34360   3.012   3.461  17.009 -0.8022  1.1097  0.4789
 7633SOL    HW134361   3.072   3.470  16.935 -1.0039  0.0518  0.1864
 7633SOL    HW234362   2.935   3.453  16.953 -0.7127 -1.5745  0.7481
 7634SOL     OW34363   3.138   2.061  11.841  0.9096 -0.1556  0.8052
 7634SOL    HW134364   3.134   2.155  11.824 -0.7035 -0.7227 -1.9919
 7634SOL    HW234365   3.174   2.031  11.758  2.5007  1.0924  1.0331
 7635SOL     OW34366   3.709   3.558   1.191 -0.3755 -0.8858  0.1019
 7635SOL    HW134367   3.794   3.602   1.198 -0.7987  0.1281 -1.0683
 7635SOL    HW234368   3.720   3.537   1.098  2.8519  0.2955  0.1894
 7636SOL     OW34369   2.986   1.695  10.709 -0.0071 -0.1991  0.3246
 7636SOL    HW134370   3.037   1.615  10.695 -0.4027 -0.3388 -0.3673
 7636SOL    HW234371   2.922   1.660  10.771 -0.5567  2.2215  1.1000
 7637SOL     OW34372   0.602   2.572   6.283 -0.2443  0.5197 -0.2122
 7637SOL    HW134373   0.546   2.648   6.266  0.8674  0.9099 -2.1053
 7637SOL    HW234374   0.695   2.592   6.288  0.8330 -3.9762 -2.0923
 7638SOL     OW34375   4.391   1.491   8.160 -0.4910 -0.3320 -1.0967
 7638SOL    HW134376   4.396   1.577   8.202  1.8087 -0.3847 -1.2639
 7638SOL    HW234377   4.391   1.525   8.071  0.0815  0.1850 -0.8941
 7639SOL     OW34378   3.083   3.002   2.905 -0.1464 -0.0688  0.2219
 7639SOL    HW134379   3.107   3.040   2.989  1.6669 -0.3785 -0.1442
 7639SOL    HW234380   3.112   3.064   2.838 -0.4315  0.2370  0.3877
 7640SOL     OW34381   4.191   4.688   5.700  0.7398 -0.2550  0.1964
 7640SOL    HW134382   4.146   4.672   5.618  2.7295 -0.8670 -0.7666
 7640SOL    HW234383   4.174   4.601   5.737  0.1694  0.1801  0.9702
 7641SOL     OW34384   0.859   3.067   2.012  0.2298 -0.2902  0.0167
 7641SOL    HW134385   0.777   3.021   2.030  0.0001  0.2706  0.4008
 7641SOL    HW234386   0.868   3.059   1.917  2.2222  1.2001  0.0968
 7642SOL     OW34387   2.669   4.601   3.313  0.0686  0.1666 -0.0956
 7642SOL    HW134388   2.596   4.546   3.287 -0.6837  0.0195  2.3189
 7642SOL    HW234389   2.690   4.641   3.228  1.6059 -0.9709 -0.2510
 7643SOL     OW34390   2.264   1.670  13.044  0.4985  0.0601 -0.5219
 7643SOL    HW134391   2.288   1.750  13.090  1.9740 -1.2626  1.0337
 7643SOL    HW234392   2.224   1.706  12.965  0.1101  0.2309 -0.2434
 7644SOL     OW34393   0.429   2.708   9.288  0.0439  0.3882  0.4951
 7644SOL    HW134394   0.483   2.649   9.340  0.1094  0.6465  0.7175
 7644SOL    HW234395   0.419   2.665   9.203  4.1002 -2.2978  1.3812
 7645SOL     OW34396   3.562   2.487   1.767  0.0224 -0.4736  0.4846
 7645SOL    HW134397   3.535   2.552   1.702 -1.1592 -1.7714 -0.3127
 7645SOL    HW234398   3.491   2.423   1.770  2.8017 -3.4741  1.9362
 7646SOL     OW34399   1.808   3.984   1.708  0.4746 -0.5163 -0.3052
 7646SOL    HW134400   1.856   4.063   1.683 -0.9857  0.4893  0.0810
 7646SOL    HW234401   1.868   3.913   1.685 -0.7642 -1.7818  0.4143
 7647SOL     OW34402   2.499   0.294   9.736  0.5605 -0.2778  0.4721
 7647SOL    HW134403   2.473   0.360   9.800  0.3800  1.7112 -1.6372
 7647SOL    HW234404   2.530   0.226   9.796  0.4397  0.7646  1.7051
 7648SOL     OW34405   0.103   2.769   5.665  0.2616 -0.3545  0.6672
 7648SOL    HW134406   0.074   2.806   5.748 -0.3983 -0.7361  0.6061
 7648SOL    HW234407   0.039   2.809   5.606  1.2450  1.9111  1.1507
 7649SOL     OW34408   0.863   0.396   6.301 -0.7778 -0.4301  0.1332
 7649SOL    HW134409   0.914   0.375   6.223 -0.1154  0.5622  0.3111
 7649SOL    HW234410   0.832   0.484   6.281 -0.1246 -0.0543  0.7586
 7650SOL     OW34411   2.317   3.032   2.706 -0.0116  0.0399  0.4817
 7650SOL    HW134412   2.239   3.067   2.749  0.4341  1.5550  0.0257
 7650SOL    HW234413   2.316   3.087   2.628  0.8021 -1.7509 -0.8007
 7651SOL     OW34414   2.950   2.159   5.554 -0.7118  0.4709  0.4313
 7651SOL    HW134415   2.905   2.143   5.471  2.6315 -2.1092 -0.8892
 7651SOL    HW234416   2.958   2.075   5.599  0.8377 -0.5025 -1.6111
 7652SOL     OW34417   2.668   1.750   0.933 -0.2289  0.0631 -0.9737
 7652SOL    HW134418   2.628   1.734   0.847 -1.0306  1.1614 -0.8086
 7652SOL    HW234419   2.715   1.669   0.953 -1.5663 -0.0026  1.9047
 7653SOL     OW34420   2.291   3.459   7.056 -0.1425 -0.3282  0.6592
 7653SOL    HW134421   2.307   3.526   7.122  0.3902 -0.0576  0.2540
 7653SOL    HW234422   2.381   3.432   7.040  0.0225  0.5758  0.0507
 7654SOL     OW34423   1.407   2.793   3.920 -0.6622  0.1955  0.1764
 7654SOL    HW134424   1.395   2.698   3.912 -1.1063  0.4755 -2.5590
 7654SOL    HW234425   1.494   2.804   3.959  0.0513 -1.9904 -0.7983
 7655SOL     OW34426   0.879   2.399   4.817 -0.1246 -0.0891 -0.4677
 7655SOL    HW134427   0.786   2.420   4.806  0.4561  3.4134  1.1349
 7655SOL    HW234428   0.880   2.360   4.904 -0.0779  0.4953 -0.2057
 7656SOL     OW34429   3.999   0.903  11.443 -0.2048  0.2262  0.0818
 7656SOL    HW134430   4.032   0.968  11.504 -0.4788  1.3003 -0.9160
 7656SOL    HW234431   3.912   0.934  11.416  0.5471  0.9308 -1.5092
 7657SOL     OW34432   4.374   1.404   2.214 -0.7396  0.1481 -0.1175
 7657SOL    HW134433   4.324   1.426   2.135 -0.8828  2.0541  0.5136
 7657SOL    HW234434   4.297   1.403   2.271 -0.6772 -2.4784 -0.0890
 7658SOL     OW34435   1.721   2.909   8.438  0.5506  0.3724 -0.2500
 7658SOL    HW134436   1.735   2.932   8.530 -0.5963 -1.1230  0.3050
 7658SOL    HW234437   1.777   2.972   8.394  0.0348 -0.6649 -2.3589
 7659SOL     OW34438   3.010   1.327   6.215  0.1314 -0.1087 -0.1437
 7659SOL    HW134439   3.054   1.242   6.217 -0.0234 -0.1681  0.7645
 7659SOL    HW234440   2.998   1.337   6.309 -1.1056 -0.4226 -0.2591
 7660SOL     OW34441   3.706   1.977   4.817 -0.2425  0.0225 -0.1483
 7660SOL    HW134442   3.739   2.053   4.769  0.0121  1.0663  1.6986
 7660SOL    HW234443   3.709   1.899   4.761  0.1290 -2.6201  3.5608
 7661SOL     OW34444   1.055   3.001  11.875 -0.4187  0.0465 -0.1430
 7661SOL    HW134445   1.096   3.080  11.840  0.2922  0.5215  1.7542
 7661SOL    HW234446   1.112   2.970  11.945 -0.9073  0.1079  0.2823
 7662SOL     OW34447   0.746   2.018   5.106  0.3229  0.3595  0.3494
 7662SOL    HW134448   0.798   1.942   5.078  1.0916  0.6286  1.0673
 7662SOL    HW234449   0.804   2.087   5.074  0.4713  0.7430  1.4430
 7663SOL     OW34450   1.606   4.247   8.246 -0.0074 -0.5056  0.1818
 7663SOL    HW134451   1.637   4.305   8.177  1.7337 -0.1302  1.2678
 7663SOL    HW234452   1.552   4.307   8.297 -1.0179 -0.8949 -0.4244
 7664SOL     OW34453   4.058   3.275   7.856 -0.0474 -0.8725 -0.3873
 7664SOL    HW134454   4.063   3.312   7.767 -0.9345 -0.4175 -0.2457
 7664SOL    HW234455   4.028   3.185   7.840  1.9727 -1.1381 -2.6809
 7665SOL     OW34456   1.639   3.605   6.028  0.1586 -0.4904 -0.4489
 7665SOL    HW134457   1.595   3.539   5.974 -2.7092  0.2307  0.9931
 7665SOL    HW234458   1.728   3.614   5.992  0.8964 -0.2904  1.4278
 7666SOL     OW34459   0.214   2.702   4.886 -0.3196  0.7127 -0.4789
 7666SOL    HW134460   0.191   2.749   4.806 -0.1052  0.5142 -0.6559
 7666SOL    HW234461   0.182   2.612   4.884  5.2959 -1.3147 -0.3591
 7667SOL     OW34462   0.882   4.481   4.937 -0.1787 -0.3966 -0.1976
 7667SOL    HW134463   0.905   4.463   4.846 -0.2885 -0.8178 -0.1402
 7667SOL    HW234464   0.859   4.392   4.964  2.7127 -1.1331 -0.1945
 7668SOL     OW34465   2.458   2.887   3.599  0.4619 -0.5345  0.4592
 7668SOL    HW134466   2.520   2.866   3.529 -0.1056 -1.4832  0.2426
 7668SOL    HW234467   2.511   2.947   3.652 -0.4408 -0.8276  1.6902
 7669SOL     OW34468   0.629   0.388  16.606  0.2374 -0.1476  0.1341
 7669SOL    HW134469   0.542   0.384  16.647  1.4656  0.8679  2.7798
 7669SOL    HW234470   0.690   0.401  16.678  0.4924 -1.4154  0.1485
 7670SOL     OW34471   2.229   1.933   4.078  0.0498 -0.0235 -0.0417
 7670SOL    HW134472   2.163   1.867   4.058  1.2658 -0.7437 -1.6614
 7670SOL    HW234473   2.180   2.003   4.122  2.0778  2.3206 -1.5370
 7671SOL     OW34474   2.829   2.158  14.786 -1.2065  0.1013  0.1599
 7671SOL    HW134475   2.796   2.157  14.877  0.9760 -0.1960  0.9321
 7671SOL    HW234476   2.826   2.066  14.760  1.0275 -0.2915  1.3345
 7672SOL     OW34477   3.805   3.409   7.169 -0.7661 -0.3628 -0.2596
 7672SOL    HW134478   3.879   3.468   7.151 -0.7625  0.3043  1.9930
 7672SOL    HW234479   3.769   3.392   7.082  1.7274 -1.1225 -1.1448
 7673SOL     OW34480   3.405   4.452  16.457  0.0115 -0.2054 -0.2668
 7673SOL    HW134481   3.457   4.458  16.377 -1.8686 -1.3541 -1.5791
 7673SOL    HW234482   3.373   4.542  16.458  0.5895  0.0073 -1.0359
 7674SOL     OW34483   1.814   0.987   8.083  0.9370 -0.3324  0.0696
 7674SOL    HW134484   1.868   0.909   8.099  2.5674  0.6282 -0.7073
 7674SOL    HW234485   1.841   1.043   8.156 -0.4483 -2.1367  1.9795
 7675SOL     OW34486   2.271   1.592  17.418 -0.6124 -0.0305 -0.1701
 7675SOL    HW134487   2.288   1.686  17.412  0.2119 -0.1263  0.6465
 7675SOL    HW234488   2.203   1.579  17.352 -1.5105 -1.3307  1.0114
 7676SOL     OW34489   3.083   1.814   5.932  0.3762  0.3711 -0.0000
 7676SOL    HW134490   3.043   1.748   5.875 -0.3252 -1.0757  2.1467
 7676SOL    HW234491   3.156   1.829   5.872 -0.8424  0.3293 -1.4824
 7677SOL     OW34492   3.258   3.619   6.738 -0.2218  0.1980 -0.2138
 7677SOL    HW134493   3.323   3.677   6.777 -1.7121  1.3033  0.6461
 7677SOL    HW234494   3.185   3.636   6.798  1.0962 -0.0407  1.4305
 7678SOL     OW34495   0.908   0.230   7.395 -0.5476 -0.3858  0.9739
 7678SOL    HW134496   0.887   0.251   7.486 -1.9840 -1.6914  0.9539
 7678SOL    HW234497   1.004   0.226   7.402 -0.4349  2.3677  0.8243
 7679SOL     OW34498   4.640   2.213  10.337 -0.0534  0.5043  0.6482
 7679SOL    HW134499   4.677   2.147  10.395 -1.0026  0.3143  1.0409
 7679SOL    HW234500   4.575   2.267  10.382  0.2184  0.2152  1.3767
 7680SOL     OW34501   3.552   4.231   8.821  0.0641  0.2465 -0.4885
 7680SOL    HW134502   3.494   4.170   8.775 -0.2400  1.5899 -1.8867
 7680SOL    HW234503   3.627   4.233   8.762  0.7671  2.4275  0.4926
 7681SOL     OW34504   2.524   3.843   7.242 -0.4710  0.4430  0.5590
 7681SOL    HW134505   2.589   3.853   7.172 -2.3180 -0.1286 -1.2411
 7681SOL    HW234506   2.457   3.909   7.226 -0.8036 -0.4647 -1.7793
 7682SOL     OW34507   0.597   1.750   9.698  0.5617 -0.3374 -0.2345
 7682SOL    HW134508   0.669   1.691   9.675 -0.4221 -0.5029 -2.8253
 7682SOL    HW234509   0.512   1.706   9.687  0.5415 -0.8694  2.0339
 7683SOL     OW34510   1.451   4.550   8.664 -0.9284 -0.1975  0.0495
 7683SOL    HW134511   1.400   4.621   8.703  0.8644  1.7042 -1.0916
 7683SOL    HW234512   1.383   4.483   8.664  1.1551 -2.3128  2.1606
 7684SOL     OW34513   3.814   1.071   8.493 -0.0309 -0.2799 -0.5864
 7684SOL    HW134514   3.757   1.097   8.564  1.2676  1.1002 -0.0336
 7684SOL    HW234515   3.895   1.047   8.538  0.5505  1.1077 -0.8946
 7685SOL     OW34516   3.938   0.973   4.579  0.8529 -0.1692  0.2151
 7685SOL    HW134517   3.844   0.962   4.596  0.7002  1.1451  0.1585
 7685SOL    HW234518   3.954   0.958   4.486 -2.3027  2.6739 -0.7909
 7686SOL     OW34519   0.348   1.940   9.863  0.0734 -0.4122 -0.1200
 7686SOL    HW134520   0.350   1.890   9.944  1.2466  0.9928  0.7233
 7686SOL    HW234521   0.258   1.971   9.864 -0.0278 -0.7454  0.8998
 7687SOL     OW34522   3.056   2.109   3.576 -0.0766  0.1421 -0.0176
 7687SOL    HW134523   3.116   2.122   3.501  1.2628 -1.6378  0.7418
 7687SOL    HW234524   3.122   2.107   3.645  1.4093  1.5666 -1.3878
 7688SOL     OW34525   0.285   1.392   4.331  0.6433 -0.0444  0.2660
 7688SOL    HW134526   0.330   1.331   4.273  0.8738 -0.9467  1.3910
 7688SOL    HW234527   0.294   1.469   4.275  0.2571  0.2254  0.5762
 7689SOL     OW34528   3.516   4.157  16.693 -0.1888 -0.0076 -0.0881
 7689SOL    HW134529   3.504   4.165  16.599 -2.0772  0.1800  0.1655
 7689SOL    HW234530   3.515   4.065  16.718  1.6760 -0.5822 -2.1841
 7690SOL     OW34531   3.597   0.406   0.946 -0.1772  0.0292 -0.9697
 7690SOL    HW134532   3.566   0.403   1.037 -0.3493  1.5644 -0.9835
 7690SOL    HW234533   3.692   0.402   0.953  0.0122  2.2521 -2.4062
 7691SOL     OW34534   1.920   2.157   9.492 -0.0057  0.6172  0.0997
 7691SOL    HW134535   1.992   2.098   9.470  0.3008  0.6085  1.1293
 7691SOL    HW234536   1.950   2.246   9.477  1.3436  0.0739 -0.3637
 7692SOL     OW34537   2.565   1.906  11.113  0.2513  0.4334 -0.1289
 7692SOL    HW134538   2.480   1.941  11.137 -0.4437 -1.1986 -0.2310
 7692SOL    HW234539   2.557   1.811  11.119 -0.9024  0.5230 -0.2451
 7693SOL     OW34540   3.766   2.452  10.837  0.2067 -0.2215  0.0995
 7693SOL    HW134541   3.800   2.525  10.785 -1.4297  0.7984  0.4359
 7693SOL    HW234542   3.699   2.497  10.889 -0.5228 -2.0291  0.7141
 7694SOL     OW34543   2.425   2.459   6.828  0.0569  0.8706 -0.8825
 7694SOL    HW134544   2.475   2.459   6.747 -0.2959 -3.6994 -1.1228
 7694SOL    HW234545   2.369   2.382   6.811 -0.9624  1.0492  1.6894
 7695SOL     OW34546   3.723   1.877   5.977 -0.7707 -0.2704 -1.3571
 7695SOL    HW134547   3.640   1.917   5.949 -0.2974  0.0514 -2.3044
 7695SOL    HW234548   3.720   1.919   6.063  0.3591 -0.5703 -1.1714
 7696SOL     OW34549   3.700   4.311   6.627 -0.5375  0.4318  0.1941
 7696SOL    HW134550   3.724   4.392   6.581 -0.4455 -0.3507 -1.1479
 7696SOL    HW234551   3.634   4.285   6.563 -0.4065  2.4294 -0.7421
 7697SOL     OW34552   2.566   3.262   4.359 -0.4044 -0.3521 -0.3625
 7697SOL    HW134553   2.472   3.246   4.365  0.2153 -3.2759  1.6087
 7697SOL    HW234554   2.589   3.193   4.297 -0.3510  0.1191 -0.8691
 7698SOL     OW34555   3.734   4.410  11.726  0.3545  0.4774 -0.0407
 7698SOL    HW134556   3.730   4.459  11.644  1.3977  1.7058  0.6333
 7698SOL    HW234557   3.829   4.407  11.741  0.4334  0.3861 -0.5528
 7699SOL     OW34558   3.992   4.208   3.149 -0.6490 -0.3613 -0.2380
 7699SOL    HW134559   4.065   4.270   3.148 -0.1069 -1.0355 -1.2094
 7699SOL    HW234560   4.005   4.179   3.059 -1.5213  1.6326 -1.0085
 7700SOL     OW34561   3.692   2.316   6.687  0.4250  0.2489 -0.3207
 7700SOL    HW134562   3.677   2.355   6.601 -2.0036 -0.8318 -0.3953
 7700SOL    HW234563   3.708   2.395   6.738  1.6722 -0.2041 -0.0147
 7701SOL     OW34564   2.579   1.186  15.528  0.2572  0.2302 -0.4385
 7701SOL    HW134565   2.492   1.155  15.504  0.1148  1.2012 -1.1528
 7701SOL    HW234566   2.552   1.254  15.589 -0.4915 -1.4818  1.1222
 7702SOL     OW34567   2.755   2.488  11.722  0.3536  0.0651  0.1393
 7702SOL    HW134568   2.767   2.527  11.635 -0.3771 -0.0316 -0.0063
 7702SOL    HW234569   2.730   2.565  11.772 -1.3588 -0.9062  0.7516
 7703SOL     OW34570   0.908   3.316  16.470  0.1295  0.8965 -0.3545
 7703SOL    HW134571   0.917   3.301  16.564  1.4873 -0.0819 -0.6221
 7703SOL    HW234572   0.813   3.321  16.465  0.0045 -1.7899 -0.9948
 7704SOL     OW34573   1.495   2.639   0.650 -0.5517  0.1349  0.0574
 7704SOL    HW134574   1.569   2.688   0.686 -1.3136  2.5923 -1.7260
 7704SOL    HW234575   1.510   2.651   0.556 -1.6033 -3.7870 -0.6122
 7705SOL     OW34576   3.901   3.635  16.727  0.7626  0.0575  0.3357
 7705SOL    HW134577   3.828   3.695  16.716 -0.0554 -0.9984 -0.0891
 7705SOL    HW234578   3.969   3.664  16.668  0.1216  0.0945 -0.3828
 7706SOL     OW34579   2.725   0.190   4.776 -0.5463 -0.4046  0.0465
 7706SOL    HW134580   2.776   0.109   4.772  1.3460  0.8006 -0.5443
 7706SOL    HW234581   2.779   0.254   4.729 -1.4772  2.4170  2.7799
 7707SOL     OW34582   0.649   4.327   7.304 -0.9740 -0.3376 -0.0252
 7707SOL    HW134583   0.607   4.242   7.289 -1.0244 -0.4960  0.9932
 7707SOL    HW234584   0.704   4.325   7.225 -2.5353 -1.1208 -1.0937
 7708SOL     OW34585   0.862   0.195   5.982  0.0111 -0.4286 -0.3748
 7708SOL    HW134586   0.881   0.111   5.939 -2.0204 -1.2083  0.2933
 7708SOL    HW234587   0.950   0.224   6.009 -0.7739 -0.2153  1.8952
 7709SOL     OW34588   2.906   0.846  12.688  0.3110  0.1782 -0.0154
 7709SOL    HW134589   2.920   0.850  12.783 -2.3820 -2.7722  0.4736
 7709SOL    HW234590   2.998   0.846  12.661 -0.0026 -0.0181 -1.0660
 7710SOL     OW34591   2.135   3.647   2.490 -0.2323  0.1667  0.1436
 7710SOL    HW134592   2.195   3.695   2.548  0.5239 -0.9387  0.2687
 7710SOL    HW234593   2.162   3.558   2.513 -0.2659  0.3577  0.9359
 7711SOL     OW34594   0.136   2.544   7.845 -0.3818 -0.0810 -0.1095
 7711SOL    HW134595   0.124   2.496   7.927  2.0895 -0.5220 -0.0152
 7711SOL    HW234596   0.051   2.534   7.803 -1.3320  1.6061  1.3960
 7712SOL     OW34597   3.696   0.608   2.588  0.3176 -0.1357  0.1567
 7712SOL    HW134598   3.710   0.519   2.620 -1.3248 -1.2382 -2.1568
 7712SOL    HW234599   3.771   0.656   2.623  0.3393  0.7039 -1.0402
 7713SOL     OW34600   1.174   4.298   2.267  0.7140  0.2533  0.1546
 7713SOL    HW134601   1.238   4.299   2.196  1.0077  0.7679  0.4313
 7713SOL    HW234602   1.092   4.266   2.228  0.8766 -2.1531  1.7476
 7714SOL     OW34603   4.618   4.068   5.617  0.3435  0.1697 -0.4791
 7714SOL    HW134604   4.574   4.010   5.555  0.0588 -0.8465  0.6524
 7714SOL    HW234605   4.562   4.144   5.605  1.6382  0.9691 -1.3498
 7715SOL     OW34606   2.783   1.927   9.574  0.0656 -0.2025 -0.0735
 7715SOL    HW134607   2.796   2.018   9.597 -0.6522  0.4258 -2.1206
 7715SOL    HW234608   2.788   1.921   9.478  1.0790  0.3915 -0.0542
 7716SOL     OW34609   3.327   4.067   2.093  0.0707  0.3748 -0.0072
 7716SOL    HW134610   3.298   3.982   2.126 -0.8847  1.3050  1.5282
 7716SOL    HW234611   3.249   4.115   2.067 -0.3964 -0.6773 -0.5422
 7717SOL     OW34612   0.690   0.689   5.857 -0.0003 -0.6631  0.1406
 7717SOL    HW134613   0.596   0.696   5.876 -0.5084 -1.4189 -2.1460
 7717SOL    HW234614   0.708   0.597   5.877  1.1686 -0.3835  0.3713
 7718SOL     OW34615   2.690   4.416   7.380  0.3494  0.1452 -0.7501
 7718SOL    HW134616   2.783   4.395   7.390  0.1512  0.3720  1.4396
 7718SOL    HW234617   2.674   4.389   7.289  1.8910 -0.8719 -0.7158
 7719SOL     OW34618   3.643   2.720   6.515 -0.4028  0.5292 -0.1797
 7719SOL    HW134619   3.578   2.730   6.585  2.6077 -0.1097  2.7357
 7719SOL    HW234620   3.629   2.805   6.474  0.0154 -0.7331 -2.9299
 7720SOL     OW34621   2.770   1.892  14.815 -0.4059  0.0407 -0.4108
 7720SOL    HW134622   2.681   1.857  14.823 -0.1945 -0.2092  0.8418
 7720SOL    HW234623   2.819   1.854  14.888 -0.0425 -0.5281 -0.9520
 7721SOL     OW34624   2.201   4.406   2.052 -0.3216  0.3123  0.3294
 7721SOL    HW134625   2.229   4.412   1.961 -1.4491 -2.2967 -0.2060
 7721SOL    HW234626   2.174   4.496   2.068 -2.6711 -0.0267 -1.6876
 7722SOL     OW34627   1.216   3.281  17.290 -0.2089  0.1117  0.5575
 7722SOL    HW134628   1.184   3.368  17.268 -0.2374 -0.4459 -1.5520
 7722SOL    HW234629   1.263   3.262  17.209  1.9356  1.3885  1.5014
 7723SOL     OW34630   1.549   0.968   4.660  0.5599  0.0282 -0.1070
 7723SOL    HW134631   1.582   0.903   4.723  0.0937  0.0492  0.1584
 7723SOL    HW234632   1.627   1.024   4.659 -1.3417  2.6553 -0.5335
 7724SOL     OW34633   3.562   1.020   9.752  0.4116  0.2414 -0.0963
 7724SOL    HW134634   3.558   1.031   9.657 -1.1505  4.4132  0.4547
 7724SOL    HW234635   3.579   0.925   9.753  0.1299  0.1946  1.9697
 7725SOL     OW34636   4.039   1.488   9.264 -0.0111  0.2497 -0.7350
 7725SOL    HW134637   4.027   1.513   9.173 -3.0900  1.2064 -0.0648
 7725SOL    HW234638   4.107   1.420   9.264 -1.3712 -1.0975 -1.9861
 7726SOL     OW34639   2.849   1.354   7.988 -0.3448  0.4795 -0.0161
 7726SOL    HW134640   2.930   1.339   7.939  0.4622  0.4090  1.3608
 7726SOL    HW234641   2.783   1.331   7.922  2.0766 -0.6732 -2.0700
 7727SOL     OW34642   1.664   1.834   7.454 -0.1385 -0.1270  0.1095
 7727SOL    HW134643   1.665   1.929   7.438  2.5081 -0.5028 -1.8719
 7727SOL    HW234644   1.651   1.811   7.362  0.4611 -0.9956  0.2468
 7728SOL     OW34645   1.151   0.066  14.166 -0.7232 -0.5380  0.6479
 7728SOL    HW134646   1.167   0.063  14.261  1.5343 -0.2868  0.2702
 7728SOL    HW234647   1.102   0.148  14.163  0.4132  0.2241  2.6922
 7729SOL     OW34648   2.661   3.965   7.026 -0.2167 -0.4991  0.5459
 7729SOL    HW134649   2.691   4.035   6.969  3.1236 -0.7615  1.9950
 7729SOL    HW234650   2.611   3.918   6.959 -0.2721  0.7994 -0.3238
 7730SOL     OW34651   4.434   3.907   2.721 -0.2127  0.1679  0.4826
 7730SOL    HW134652   4.418   3.962   2.644  0.0185 -1.1537 -0.5101
 7730SOL    HW234653   4.355   3.852   2.725 -0.2250  0.2744  1.6915
 7731SOL     OW34654   0.495   1.791   7.459 -0.0849 -0.6682 -0.5022
 7731SOL    HW134655   0.457   1.780   7.546  2.6024  3.1671  1.1498
 7731SOL    HW234656   0.569   1.731   7.456 -0.8815 -1.7388  1.6824
 7732SOL     OW34657   4.074   1.317   1.540 -0.5609 -0.6789  0.6338
 7732SOL    HW134658   4.163   1.294   1.512 -0.2592 -0.2232  1.2064
 7732SOL    HW234659   4.010   1.289   1.475 -2.0262 -0.2083  1.8869
 7733SOL     OW34660   2.499   3.725  16.390  0.0556 -0.1847  0.0619
 7733SOL    HW134661   2.430   3.712  16.325  0.7016  2.7051 -1.1721
 7733SOL    HW234662   2.573   3.676  16.354 -1.9748 -1.5309 -2.3075
 7734SOL     OW34663   2.321   2.092  11.985 -0.0020 -0.2883 -0.1167
 7734SOL    HW134664   2.311   2.184  11.962 -0.1138  0.0542  1.3094
 7734SOL    HW234665   2.414   2.095  12.010  0.1731 -0.1453 -0.7900
 7735SOL     OW34666   2.707   0.615  13.722  0.2741 -0.8213  0.4771
 7735SOL    HW134667   2.797   0.601  13.751  0.0170 -0.8654  1.2592
 7735SOL    HW234668   2.709   0.663  13.639  3.3188 -1.3523  0.2500
 7736SOL     OW34669   2.078   1.313   7.631 -0.3912 -0.4956  0.2167
 7736SOL    HW134670   2.139   1.334   7.702 -0.7773  2.5685 -0.3484
 7736SOL    HW234671   2.003   1.346   7.681 -1.6107 -1.1061 -1.2200
 7737SOL     OW34672   0.935   0.220   2.864 -0.2857 -1.0213 -0.5764
 7737SOL    HW134673   0.866   0.183   2.919 -2.1580 -0.6444 -2.6371
 7737SOL    HW234674   0.883   0.257   2.793  0.1192 -0.2826 -0.4882
 7738SOL     OW34675   4.357   0.576   1.495  0.2563  0.1675  0.1821
 7738SOL    HW134676   4.272   0.572   1.450  0.9461 -0.3137 -1.0772
 7738SOL    HW234677   4.407   0.627   1.432 -3.8945  1.9236 -1.6805
 7739SOL     OW34678   2.785   0.911   5.559 -0.6236 -0.3997 -0.4906
 7739SOL    HW134679   2.827   0.938   5.478  0.3097 -0.7851 -0.1333
 7739SOL    HW234680   2.848   0.845   5.589 -2.9757 -1.2438  2.6311
 7740SOL     OW34681   3.942   0.411   5.314  0.1625  0.3602 -0.1136
 7740SOL    HW134682   3.938   0.359   5.394  0.1713 -0.7028 -0.8071
 7740SOL    HW234683   3.853   0.446   5.319  0.8157  1.9978  0.1457
 7741SOL     OW34684   1.005   1.520   7.246 -0.2660  0.2302 -0.3088
 7741SOL    HW134685   1.080   1.568   7.279 -1.4010  0.7897  1.4148
 7741SOL    HW234686   0.953   1.522   7.326  1.3163 -0.2604  0.7143
 7742SOL     OW34687   0.516   3.479  14.282  0.0912  0.2721  0.5880
 7742SOL    HW134688   0.586   3.469  14.217  1.1480  0.7632  1.6572
 7742SOL    HW234689   0.529   3.413  14.349 -3.1184  1.2676  2.1901
 7743SOL     OW34690   0.113   4.087  11.176  0.1253 -0.1044 -0.1524
 7743SOL    HW134691   0.173   4.017  11.202  1.5440  1.2582  0.2300
 7743SOL    HW234692   0.104   4.115  11.267 -1.2466  0.1261 -0.3595
 7744SOL     OW34693   0.798   1.666   4.554 -0.0995 -0.0747  0.4192
 7744SOL    HW134694   0.721   1.694   4.504 -1.0001 -2.0601  0.6967
 7744SOL    HW234695   0.869   1.654   4.491 -0.0172 -1.0404  0.7059
 7745SOL     OW34696   1.408   3.647  12.478 -0.3272 -0.0229  0.1846
 7745SOL    HW134697   1.379   3.679  12.564 -1.4179  2.1548 -0.9725
 7745SOL    HW234698   1.484   3.701  12.455  0.5058 -1.2357  0.1129
 7746SOL     OW34699   0.673   1.379   2.935 -0.6653 -0.0862 -0.1770
 7746SOL    HW134700   0.668   1.438   2.859  0.5038 -1.8995 -1.6828
 7746SOL    HW234701   0.767   1.381   2.954 -0.8661  0.6554  0.7115
 7747SOL     OW34702   3.088   2.319   6.203 -0.3909 -0.6992 -0.2773
 7747SOL    HW134703   3.046   2.261   6.266  0.4773 -1.1819 -0.1415
 7747SOL    HW234704   3.046   2.290   6.122  0.8757  4.2428 -2.7163
 7748SOL     OW34705   2.025   4.357   3.670  0.5772 -0.1907 -0.2522
 7748SOL    HW134706   2.105   4.328   3.715 -0.6797 -0.7050  1.6625
 7748SOL    HW234707   1.966   4.372   3.744  0.7215  0.3857 -0.2591
 7749SOL     OW34708   0.975   2.397   2.423  0.0705 -0.0526  0.2584
 7749SOL    HW134709   1.021   2.417   2.342 -0.2694 -0.6619 -0.0870
 7749SOL    HW234710   1.042   2.345   2.467  0.1392  0.3951  0.6857
 7750SOL     OW34711   4.192   4.633   4.982 -0.2271  0.3137  0.0128
 7750SOL    HW134712   4.252   4.644   4.908  0.2622 -0.1474  0.3439
 7750SOL    HW234713   4.249   4.659   5.055 -1.1593  2.0827  0.1210
 7751SOL     OW34714   1.114   2.727   2.310 -0.0207 -0.3427 -0.1904
 7751SOL    HW134715   1.120   2.762   2.221 -2.1510 -1.1063 -0.6402
 7751SOL    HW234716   1.206   2.741   2.333  0.1602  0.1062 -1.1839
 7752SOL     OW34717   3.501   3.698   5.191  0.4078  0.4233 -0.0167
 7752SOL    HW134718   3.455   3.640   5.252  0.5756 -1.2708 -1.5236
 7752SOL    HW234719   3.490   3.780   5.239  1.2154  0.3094  0.3723
 7753SOL     OW34720   4.079   3.092  12.313 -0.2824 -0.1934 -0.6236
 7753SOL    HW134721   4.055   3.001  12.331 -0.9552 -0.0745 -0.9027
 7753SOL    HW234722   4.154   3.117  12.367  0.7101 -0.9714 -1.6587
 7754SOL     OW34723   4.180   3.220   5.759 -0.0746  0.5203  0.7475
 7754SOL    HW134724   4.170   3.152   5.693  2.2366  0.9838 -0.0479
 7754SOL    HW234725   4.256   3.201   5.813  0.5274  1.5683  0.2604
 7755SOL     OW34726   0.465   2.802   6.170 -0.1337 -0.0114  0.5766
 7755SOL    HW134727   0.433   2.858   6.241 -1.0875 -0.6821  0.6682
 7755SOL    HW234728   0.416   2.834   6.095  0.4734  1.6491  0.8947
 7756SOL     OW34729   3.157   3.964  12.065 -0.1621 -0.1725 -0.2417
 7756SOL    HW134730   3.210   3.958  11.986 -2.5811 -2.4627 -1.7301
 7756SOL    HW234731   3.218   4.001  12.128 -0.7466 -0.3319  0.4220
 7757SOL     OW34732   1.575   4.194   3.534 -0.4314  0.7026  0.2659
 7757SOL    HW134733   1.572   4.214   3.440  0.8203  0.0154  0.0801
 7757SOL    HW234734   1.484   4.175   3.558 -0.0801 -1.5933 -0.1991
 7758SOL     OW34735   3.163   1.558   7.515 -0.0388  0.3408 -0.0369
 7758SOL    HW134736   3.196   1.573   7.427  0.9689  0.3986  0.3532
 7758SOL    HW234737   3.133   1.467   7.503 -0.7276  0.6835 -0.9204
 7759SOL     OW34738   2.316   3.672   6.872 -0.3881 -0.0846 -0.1163
 7759SOL    HW134739   2.298   3.592   6.921 -0.5105  0.8021  1.2853
 7759SOL    HW234740   2.255   3.670   6.799  1.8620  0.5887 -2.0276
 7760SOL     OW34741   2.559   1.101  11.158  0.2748  0.4667 -0.0164
 7760SOL    HW134742   2.521   1.056  11.082  3.1359  0.7002 -1.5756
 7760SOL    HW234743   2.492   1.117  11.224 -1.3977 -0.3614 -1.5197
 7761SOL     OW34744   4.008   1.495   2.628 -0.0053 -0.1268  0.5717
 7761SOL    HW134745   4.081   1.491   2.566  1.8238  0.2795  2.7080
 7761SOL    HW234746   3.956   1.555   2.575  0.2677 -2.8384 -2.7635
 7762SOL     OW34747   2.703   4.586   8.463 -0.1735 -0.1739  0.5257
 7762SOL    HW134748   2.661   4.632   8.536  2.2422 -0.9902  2.4208
 7762SOL    HW234749   2.705   4.500   8.505  1.0121 -0.7378 -0.7178
 7763SOL     OW34750   1.941   3.504   0.866  0.0727  0.4051 -0.3112
 7763SOL    HW134751   1.996   3.436   0.904  1.1757  2.1188  1.2186
 7763SOL    HW234752   1.897   3.535   0.945  1.9688  2.8210 -0.1697
 7764SOL     OW34753   1.525   1.412   9.482  0.1511  0.4190 -0.0502
 7764SOL    HW134754   1.590   1.411   9.552 -0.1396 -3.1007  0.1544
 7764SOL    HW234755   1.515   1.506   9.469  0.6124  0.2998 -1.3189
 7765SOL     OW34756   1.359   1.866   2.598 -0.0889 -0.4664 -0.3508
 7765SOL    HW134757   1.292   1.803   2.627  0.4581 -0.8553  0.0605
 7765SOL    HW234758   1.319   1.953   2.602 -1.4555 -1.1322  0.7811
 7766SOL     OW34759   1.879   1.080   2.356 -0.1902  0.4969 -0.5657
 7766SOL    HW134760   1.935   1.125   2.419  0.3368  1.8452 -1.9883
 7766SOL    HW234761   1.922   1.111   2.276  1.2229 -1.2032 -0.4645
 7767SOL     OW34762   4.456   3.447   8.217  0.1088 -0.4349  0.1657
 7767SOL    HW134763   4.463   3.375   8.154  2.0470  1.2790 -1.5790
 7767SOL    HW234764   4.369   3.428   8.252 -0.7304  0.9541 -1.1943
 7768SOL     OW34765   2.865   4.437   1.698 -0.8276 -0.2350 -0.0808
 7768SOL    HW134766   2.949   4.416   1.738  0.1174  1.6210 -1.0816
 7768SOL    HW234767   2.825   4.354   1.675 -1.9212  0.2830 -0.0511
 7769SOL     OW34768   3.744   0.588   3.569  0.2972 -0.0409 -0.1905
 7769SOL    HW134769   3.825   0.549   3.538  0.1153 -2.1500  1.9670
 7769SOL    HW234770   3.684   0.528   3.525 -0.0134 -1.3357  2.0230
 7770SOL     OW34771   3.814   0.596  13.523  0.2591 -0.0567 -0.5755
 7770SOL    HW134772   3.812   0.540  13.600  1.9079  0.4322 -0.1725
 7770SOL    HW234773   3.865   0.547  13.459  0.1497 -1.5006  0.4578
 7771SOL     OW34774   2.297   0.662   1.959 -0.3128 -0.4516 -0.0993
 7771SOL    HW134775   2.269   0.670   1.868  0.1387  0.2757 -0.1741
 7771SOL    HW234776   2.390   0.668   1.936 -0.3090  1.7427  0.5311
 7772SOL     OW34777   4.389   4.221   2.642 -0.0836 -0.2268 -0.9142
 7772SOL    HW134778   4.456   4.260   2.586  0.2897  0.2234 -0.1517
 7772SOL    HW234779   4.312   4.238   2.587 -0.2042 -0.7584 -0.9094
 7773SOL     OW34780   3.599   3.994   9.083 -0.3891  0.0167 -0.3185
 7773SOL    HW134781   3.555   3.945   9.152 -0.2357 -0.3237 -0.4663
 7773SOL    HW234782   3.534   4.056   9.049 -0.0081  0.2085 -0.7030
 7774SOL     OW34783   4.706   3.484   0.656  0.0530 -0.0275  0.3956
 7774SOL    HW134784   0.073   3.471   0.632  0.1702  0.5651  0.5267
 7774SOL    HW234785   4.720   3.554   0.719  0.4307  0.4700 -0.2445
 7775SOL     OW34786   2.372   2.261   8.572  0.2219 -0.8786  0.0049
 7775SOL    HW134787   2.312   2.309   8.629 -1.1221 -0.1751 -1.9913
 7775SOL    HW234788   2.444   2.248   8.633  1.9245 -0.4936 -1.9279
 7776SOL     OW34789   3.827   4.254   4.480  0.8266  0.2014  0.2363
 7776SOL    HW134790   3.884   4.268   4.555 -0.0830  0.7373  0.8359
 7776SOL    HW234791   3.787   4.341   4.473  1.3775  0.5153  1.0270
 7777SOL     OW34792   0.162   1.290  16.437 -0.1616 -0.1381  0.2637
 7777SOL    HW134793   0.189   1.377  16.466 -2.4573  0.8075 -0.4668
 7777SOL    HW234794   0.128   1.319  16.352  0.9495  1.4832  0.3699
 7778SOL     OW34795   0.203   0.409   1.056  0.4015 -0.3526 -0.2055
 7778SOL    HW134796   0.121   0.440   1.018  0.4224 -0.0249  0.0171
 7778SOL    HW234797   0.265   0.434   0.987  1.5711 -0.7797  0.6823
 7779SOL     OW34798   2.878   2.303   4.171  0.1216 -0.1553 -0.6621
 7779SOL    HW134799   2.955   2.341   4.128  0.1775  0.1819 -0.2724
 7779SOL    HW234800   2.835   2.266   4.095 -0.2415  1.1227 -1.0889
 7780SOL     OW34801   2.990   1.289   6.485 -0.2282 -0.1234 -0.3133
 7780SOL    HW134802   2.907   1.243   6.475 -0.2262  0.0956 -1.2614
 7780SOL    HW234803   2.958   1.374   6.514  0.1111 -0.0083 -0.2693
 7781SOL     OW34804   1.714   2.100   7.801 -0.5426 -0.2147  0.1788
 7781SOL    HW134805   1.755   2.177   7.841 -2.7819  0.7589  0.5765
 7781SOL    HW234806   1.794   2.055   7.775 -0.0530  0.1737  1.0015
 7782SOL     OW34807   3.014   3.676   6.881 -0.5588  0.1474  0.3885
 7782SOL    HW134808   3.001   3.731   6.958 -0.4245  1.6062 -0.6241
 7782SOL    HW234809   2.995   3.589   6.916  0.2673 -1.1369 -2.3965
 7783SOL     OW34810   3.746   0.575   2.933  0.1212 -0.1841 -0.3001
 7783SOL    HW134811   3.674   0.615   2.884 -0.4024 -1.5975 -0.6932
 7783SOL    HW234812   3.709   0.493   2.964 -0.4404  0.5054  0.8340
 7784SOL     OW34813   1.348   1.434   3.404 -0.0178 -0.0691  0.3861
 7784SOL    HW134814   1.286   1.472   3.467  0.2591  1.0054  0.0182
 7784SOL    HW234815   1.307   1.400   3.325  0.1376  0.6382  0.0035
 7785SOL     OW34816   3.527   0.973  11.841  0.0928 -0.1370 -0.1451
 7785SOL    HW134817   3.600   0.966  11.780  1.5510 -1.9059  1.7995
 7785SOL    HW234818   3.476   1.048  11.810  1.2537  0.7228  0.0721
 7786SOL     OW34819   4.394   3.235  15.602  0.7092  0.0332  0.2065
 7786SOL    HW134820   4.312   3.188  15.620  0.7250 -0.2329 -0.4154
 7786SOL    HW234821   4.451   3.197  15.669  2.3272  2.5235  0.2438
 7787SOL     OW34822   3.016   2.224   9.517 -0.0477 -0.1688 -0.3549
 7787SOL    HW134823   3.014   2.310   9.558  2.6249 -0.2943  0.0506
 7787SOL    HW234824   2.928   2.191   9.535 -0.2380  0.2404 -0.5432
 7788SOL     OW34825   4.540   1.776  13.919 -0.0764 -0.5939 -0.4192
 7788SOL    HW134826   4.508   1.743  13.835  0.6372 -0.6431 -0.6711
 7788SOL    HW234827   4.464   1.752  13.972 -0.2397  2.1095  0.5697
 7789SOL     OW34828   2.525   2.587   4.222 -0.2745  0.2946 -0.1059
 7789SOL    HW134829   2.556   2.630   4.143 -0.5856 -0.2018 -0.4995
 7789SOL    HW234830   2.601   2.535   4.249  0.6202  2.1688  0.9261
 7790SOL     OW34831   3.826   4.016   6.000 -0.1478 -0.2830 -0.2946
 7790SOL    HW134832   3.840   3.932   5.956 -2.2236 -1.0340  0.4824
 7790SOL    HW234833   3.870   4.076   5.939  0.4413 -0.9764 -0.5467
 7791SOL     OW34834   0.411   2.942   0.057 -0.5913 -0.0689  0.2569
 7791SOL    HW134835   0.447   3.030   0.072 -1.1501  0.2237 -0.1208
 7791SOL    HW234836   0.413   2.903   0.145  2.6256 -0.5876 -0.0414
 7792SOL     OW34837   0.502   4.599   7.989  0.1004  0.2712  0.2073
 7792SOL    HW134838   0.500   4.541   7.913  1.9583 -0.2846  0.5925
 7792SOL    HW234839   0.526   4.538   8.059  1.8301  0.4636 -0.2257
 7793SOL     OW34840   1.151   1.361   7.105  0.4119 -0.1927 -0.0732
 7793SOL    HW134841   1.194   1.314   7.177 -0.2247  1.3190  1.3133
 7793SOL    HW234842   1.106   1.434   7.149  1.6908  0.3828  0.2880
 7794SOL     OW34843   3.668   0.161  15.403  0.4142 -0.2432 -0.5590
 7794SOL    HW134844   3.608   0.217  15.452 -1.6550 -2.0473 -0.9955
 7794SOL    HW234845   3.680   0.221  15.330 -1.0281 -0.0156 -0.5980
 7795SOL     OW34846   3.860   0.677   9.107  0.0298 -0.3427  0.1995
 7795SOL    HW134847   3.830   0.755   9.155  1.4566  0.4106 -0.1409
 7795SOL    HW234848   3.952   0.695   9.089  0.4741 -2.1339  0.7412
 7796SOL     OW34849   0.037   3.394   7.279 -0.5153  0.0185 -0.6158
 7796SOL    HW134850   4.685   3.337   7.275 -0.4067 -0.0713 -1.4351
 7796SOL    HW234851   0.100   3.347   7.333  0.9178 -0.1929 -2.4618
 7797SOL     OW34852   3.238   2.600   3.149  0.0161  0.1519  0.3579
 7797SOL    HW134853   3.152   2.557   3.145  0.1061  0.1240 -1.3249
 7797SOL    HW234854   3.268   2.620   3.060  0.7263 -0.9292  0.3576
 7798SOL     OW34855   4.637   3.979   2.149  0.0189  0.3717 -0.2072
 7798SOL    HW134856   4.628   3.885   2.130  0.2473  0.0709  1.1394
 7798SOL    HW234857   4.570   4.016   2.091 -0.2557 -0.5343 -0.4664
 7799SOL     OW34858   2.068   0.369  11.103 -0.1827 -0.3797 -0.4548
 7799SOL    HW134859   2.061   0.454  11.147  0.1176  0.0992 -1.3153
 7799SOL    HW234860   2.121   0.386  11.025  0.3480 -2.4945 -0.5590
 7800SOL     OW34861   3.257   3.087   5.116  0.1958  0.1554  0.1527
 7800SOL    HW134862   3.335   3.078   5.061 -0.8804 -1.1344 -1.1920
 7800SOL    HW234863   3.274   3.169   5.162  0.1689  0.5552 -0.5566
 7801SOL     OW34864   0.821   4.348   0.912  0.5663 -0.2870  0.0686
 7801SOL    HW134865   0.795   4.299   0.833  2.1788  2.9521 -2.4987
 7801SOL    HW234866   0.895   4.400   0.882  0.3871 -0.4959 -0.7579
 7802SOL     OW34867   2.233   2.573  15.611 -0.4767  0.4484  0.6452
 7802SOL    HW134868   2.200   2.497  15.563  2.0134 -0.1899 -0.0424
 7802SOL    HW234869   2.144   2.607  15.624 -0.5425  0.7411 -0.5636
 7803SOL     OW34870   2.549   3.394   2.542  0.1012  0.1556 -0.0970
 7803SOL    HW134871   2.565   3.457   2.472  0.8770 -0.3122 -0.3408
 7803SOL    HW234872   2.504   3.455   2.601 -0.7005 -1.6618  1.1594
 7804SOL     OW34873   2.000   1.167   4.828 -0.7952 -0.6737 -0.0816
 7804SOL    HW134874   1.973   1.258   4.840  0.5954 -0.0895 -1.3221
 7804SOL    HW234875   2.022   1.158   4.735  0.1436  0.5907  0.0199
 7805SOL     OW34876   3.024   4.270   8.451 -0.4771 -0.4680 -0.3535
 7805SOL    HW134877   3.102   4.309   8.411  0.7664 -1.0478  1.4997
 7805SOL    HW234878   3.046   4.177   8.456 -1.3902 -0.7513 -1.5273
 7806SOL     OW34879   4.130   1.947   9.334 -0.2990 -0.0137 -0.0656
 7806SOL    HW134880   4.041   1.960   9.300 -0.2170  4.9921  1.5579
 7806SOL    HW234881   4.128   1.854   9.355  1.6359  0.1663  0.9635
 7807SOL     OW34882   3.882   3.750   2.948 -0.0948 -0.2081  0.1242
 7807SOL    HW134883   3.824   3.685   2.989 -0.1145  1.6353  3.0540
 7807SOL    HW234884   3.883   3.717   2.858 -2.6369  0.0585 -0.0174
 7808SOL     OW34885   1.764   2.166   2.213  0.3944 -0.0824  0.0475
 7808SOL    HW134886   1.689   2.121   2.253  1.5508 -1.2058  0.9905
 7808SOL    HW234887   1.733   2.232   2.151 -0.1143  0.6100  1.0418
 7809SOL     OW34888   1.531   3.234   4.330  0.1801  0.0036  0.2282
 7809SOL    HW134889   1.490   3.315   4.361 -0.4356 -0.1039 -0.3161
 7809SOL    HW234890   1.598   3.266   4.268 -1.4594  1.7635 -0.6396
 7810SOL     OW34891   4.321   1.260   5.201  0.3227 -0.2218 -0.0878
 7810SOL    HW134892   4.392   1.204   5.235  0.4229 -1.5547 -2.4939
 7810SOL    HW234893   4.245   1.214   5.237 -1.0615  0.9963 -1.4716
 7811SOL     OW34894   4.550   0.336   5.269  0.5245 -0.1952 -0.4358
 7811SOL    HW134895   4.506   0.307   5.189 -1.4829 -0.0499  0.6247
 7811SOL    HW234896   4.488   0.403   5.296  0.4687 -0.3071 -0.2872
 7812SOL     OW34897   2.098   0.716  17.596 -0.6543 -0.3390  0.0156
 7812SOL    HW134898   2.045   0.742  17.521 -0.2290 -0.9235 -0.4882
 7812SOL    HW234899   2.132   0.802  17.623 -1.7413 -0.5073  1.9025
 7813SOL     OW34900   2.359   0.138  12.910  0.3246  0.0404  0.2749
 7813SOL    HW134901   2.413   0.060  12.921  1.3034  0.6667 -0.1852
 7813SOL    HW234902   2.388   0.181  12.991  0.0031  0.0927  0.3656
 7814SOL     OW34903   3.122   3.129   6.119  0.1077 -0.6639  0.1050
 7814SOL    HW134904   3.059   3.130   6.047  1.3151  2.2157 -0.9445
 7814SOL    HW234905   3.139   3.223   6.126 -1.1067 -0.5492  1.4073
 7815SOL     OW34906   4.330   4.647   2.899  0.5243  0.7718  0.6167
 7815SOL    HW134907   4.369   4.707   2.964 -1.5550  0.8684  1.7819
 7815SOL    HW234908   4.403   4.587   2.884 -1.6553 -1.7504  0.2305
 7816SOL     OW34909   3.874   4.079   9.126  0.4887  0.3497 -0.2002
 7816SOL    HW134910   3.854   4.172   9.121  0.0966  0.1874 -1.6024
 7816SOL    HW234911   3.783   4.059   9.148  0.5280  0.5955  0.1805
 7817SOL     OW34912   4.199   0.414  10.427 -0.2465  0.3639  0.3696
 7817SOL    HW134913   4.154   0.492  10.394 -0.9712  0.0319  0.5845
 7817SOL    HW234914   4.271   0.472  10.452 -1.2433  1.5981  0.4025
 7818SOL     OW34915   1.546   4.625  13.403  0.0022 -0.0573 -0.3144
 7818SOL    HW134916   1.509   4.550  13.356  0.2702 -0.4146  0.0439
 7818SOL    HW234917   1.529   4.686  13.331 -1.1742 -1.7592 -1.4674
 7819SOL     OW34918   4.511   4.180  15.133  0.2809  0.6078  0.8553
 7819SOL    HW134919   4.580   4.235  15.169 -0.2094  1.1489  0.9579
 7819SOL    HW234920   4.453   4.237  15.082  2.1816  2.0083  0.2902
 7820SOL     OW34921   0.876   1.399   8.806 -0.4983  0.6140  0.5610
 7820SOL    HW134922   0.884   1.464   8.735  2.0261 -1.1535 -0.7759
 7820SOL    HW234923   0.800   1.441   8.847  0.4413 -0.2795  3.1965
 7821SOL     OW34924   4.475   2.458   0.859  0.2565  0.3916  0.1569
 7821SOL    HW134925   4.489   2.496   0.946 -0.2639 -2.0559  1.3127
 7821SOL    HW234926   4.463   2.364   0.873  0.0761  0.8068  2.8820
 7822SOL     OW34927   1.589   3.579   3.173 -0.2515 -0.0263 -0.5214
 7822SOL    HW134928   1.669   3.628   3.153 -0.5842  0.9022  0.3743
 7822SOL    HW234929   1.524   3.646   3.196 -2.0455 -1.2474 -2.0353
 7823SOL     OW34930   3.231   0.686  11.875 -0.5024  0.2650  0.0111
 7823SOL    HW134931   3.233   0.744  11.950  2.7882 -1.1874  1.0524
 7823SOL    HW234932   3.318   0.648  11.886  0.1441  1.7591  0.0391
 7824SOL     OW34933   0.910   2.390  12.926 -0.1960 -0.0529  0.2823
 7824SOL    HW134934   0.982   2.450  12.945  1.3275 -1.7971  0.0447
 7824SOL    HW234935   0.923   2.318  12.988 -1.6241 -0.2499  0.3471
 7825SOL     OW34936   2.890   0.137   1.071 -0.3803  0.4235  0.3686
 7825SOL    HW134937   2.951   0.075   1.032  0.9615  0.9167  1.6537
 7825SOL    HW234938   2.897   0.105   1.161 -0.8105 -1.7147 -0.3742
 7826SOL     OW34939   1.248   3.525   9.108 -0.3161 -0.3154 -0.1400
 7826SOL    HW134940   1.329   3.567   9.080 -0.0417 -0.8827 -0.2028
 7826SOL    HW234941   1.180   3.534   9.042  0.9243 -2.5687 -1.7063
 7827SOL     OW34942   0.228   2.031   6.236 -0.0101 -0.6452 -0.0123
 7827SOL    HW134943   0.193   2.068   6.155  1.3142  0.3759 -0.1255
 7827SOL    HW234944   0.159   1.967   6.253 -0.2133 -0.1726  0.9249
 7828SOL     OW34945   2.399   1.734   3.326 -0.1477 -0.7117 -0.0061
 7828SOL    HW134946   2.444   1.687   3.255  1.4416  0.6901  0.0879
 7828SOL    HW234947   2.313   1.691   3.326 -0.4469 -0.0997  1.5833
 7829SOL     OW34948   1.692   3.755   0.320 -0.8194  0.3525  0.3420
 7829SOL    HW134949   1.764   3.817   0.331  0.6476 -1.2046 -0.4483
 7829SOL    HW234950   1.726   3.674   0.357 -1.1898  0.4759  0.9614
 7830SOL     OW34951   4.435   2.404   7.448 -0.7153  0.2177  0.2209
 7830SOL    HW134952   4.421   2.467   7.519 -1.8040  0.6857 -0.4069
 7830SOL    HW234953   4.494   2.338   7.484 -1.7181  0.5599  2.4497
 7831SOL     OW34954   1.201   1.091   9.688  0.3663  0.1250 -1.1413
 7831SOL    HW134955   1.106   1.101   9.697  0.3726 -1.2363  0.5646
 7831SOL    HW234956   1.230   1.171   9.644 -2.1808  1.1893 -0.9235
 7832SOL     OW34957   3.722   3.082   9.193 -0.1015  0.3487  0.3557
 7832SOL    HW134958   3.798   3.107   9.246 -1.6020  2.2830  1.6597
 7832SOL    HW234959   3.653   3.102   9.257 -0.3816 -1.3562  0.5768
 7833SOL     OW34960   0.843   2.252  10.530 -0.2576 -0.1187 -0.4286
 7833SOL    HW134961   0.771   2.220  10.585  2.8594 -2.0423  2.4903
 7833SOL    HW234962   0.920   2.234  10.584 -0.6781 -0.8885 -0.0878
 7834SOL     OW34963   3.697   4.323  17.316 -0.1849  0.2861 -0.0211
 7834SOL    HW134964   3.643   4.282  17.249  1.4287 -2.1153  0.1728
 7834SOL    HW234965   3.626   4.335  17.379 -0.1778  1.4576 -0.2308
 7835SOL     OW34966   1.997   2.529   5.119 -0.0250  0.2903  0.0213
 7835SOL    HW134967   2.090   2.513   5.100  0.7184  2.1495  1.9529
 7835SOL    HW234968   1.973   2.457   5.061  0.6142 -1.9372  2.5185
 7836SOL     OW34969   2.623   4.468   5.309  0.3032 -0.7115 -0.0963
 7836SOL    HW134970   2.665   4.424   5.236 -0.1327 -3.3368  1.2538
 7836SOL    HW234971   2.595   4.383   5.342  0.4514 -0.3133  1.0559
 7837SOL     OW34972   3.078   0.214  11.625  0.2161 -0.3462 -0.0695
 7837SOL    HW134973   3.116   0.199  11.538 -2.4020  0.8511 -1.4241
 7837SOL    HW234974   3.030   0.296  11.614  0.6015 -0.3757 -1.9323
 7838SOL     OW34975   2.802   0.741   9.589 -0.2880  0.1922 -0.2376
 7838SOL    HW134976   2.844   0.749   9.504  0.1194 -2.7630 -0.3171
 7838SOL    HW234977   2.829   0.821   9.634  1.2860  0.3222 -1.4261
 7839SOL     OW34978   2.982   1.976   6.112  0.1810 -0.4222  0.2519
 7839SOL    HW134979   3.012   1.894   6.073  3.1617  0.0196  1.6352
 7839SOL    HW234980   2.982   1.944   6.202 -0.9267 -1.5301 -0.1425
 7840SOL     OW34981   3.323   2.700   5.099 -0.1414 -0.1061 -0.6284
 7840SOL    HW134982   3.402   2.684   5.151 -1.3572 -0.9549  0.9273
 7840SOL    HW234983   3.351   2.759   5.029 -2.7007 -0.4732 -1.9623
 7841SOL     OW34984   2.084   1.056  13.578 -0.1686 -0.1377 -0.1158
 7841SOL    HW134985   2.059   1.054  13.670  2.5715 -1.0837  0.5979
 7841SOL    HW234986   2.036   1.131  13.542  1.5553  1.4227  0.8008
 7842SOL     OW34987   2.006   2.963   3.645  0.3864 -0.3675  0.0087
 7842SOL    HW134988   1.916   2.940   3.668  1.5813 -2.6664  2.3658
 7842SOL    HW234989   2.039   2.881   3.609 -1.7158 -1.6075  0.9226
 7843SOL     OW34990   3.436   2.979   7.513 -0.5693 -0.2299 -0.1733
 7843SOL    HW134991   3.460   3.066   7.481  3.4643 -1.9444 -1.7975
 7843SOL    HW234992   3.382   2.951   7.439 -1.7179  2.3626 -0.3171
 7844SOL     OW34993   2.732   2.972   5.524 -0.0735 -0.0947  0.4425
 7844SOL    HW134994   2.777   2.959   5.607  0.7592  0.6002  0.1041
 7844SOL    HW234995   2.700   2.883   5.510  2.0677 -1.0692  1.6832
 7845SOL     OW34996   3.562   1.603   0.535  0.5617 -0.4717 -0.6013
 7845SOL    HW134997   3.516   1.687   0.524  1.4557 -0.1723 -2.0369
 7845SOL    HW234998   3.605   1.610   0.620 -0.4885  1.1244 -0.1991
 7846SOL     OW34999   1.147   4.378  10.594  0.0450  0.3960  0.6696
 7846SOL    HW135000   1.236   4.382  10.559 -0.1377  1.5142  0.3387
 7846SOL    HW235001   1.156   4.336  10.680 -1.8327  0.8138  1.0618
 7847SOL     OW35002   2.582   2.759   4.603 -0.2833  0.3978 -0.7300
 7847SOL    HW135003   2.620   2.688   4.654  0.9592  0.5019 -1.5131
 7847SOL    HW235004   2.648   2.779   4.536  1.1822  0.1665  0.6338
 7848SOL     OW35005   3.061   2.904   4.858 -0.1033 -0.1483 -0.2832
 7848SOL    HW135006   3.156   2.912   4.850  0.0651 -0.6358  1.2457
 7848SOL    HW235007   3.036   2.992   4.831  0.9096  0.8838  2.1513
 7849SOL     OW35008   1.978   0.976   5.334  0.7741  0.6621  0.2763
 7849SOL    HW135009   1.945   1.047   5.279 -1.1405 -1.6265 -1.5393
 7849SOL    HW235010   2.071   0.993   5.324  0.9174 -0.9232 -1.1627
 7850SOL     OW35011   3.807   2.559   2.880  0.4771 -0.2535 -0.3036
 7850SOL    HW135012   3.742   2.595   2.940  0.9104  0.2533 -0.1376
 7850SOL    HW235013   3.790   2.465   2.876  1.9691 -0.6111  1.4929
 7851SOL     OW35014   1.666   2.174   9.659 -0.0364 -0.3410 -0.5076
 7851SOL    HW135015   1.662   2.260   9.618  1.9844  0.4386  0.9340
 7851SOL    HW235016   1.759   2.155   9.658  0.0647  0.1924 -0.9302
 7852SOL     OW35017   4.677   0.920   4.305  0.2996  0.1927  0.2047
 7852SOL    HW135018   4.628   0.839   4.323  1.3324 -0.0124  2.0779
 7852SOL    HW235019   4.682   0.920   4.210 -0.0159  0.8033  0.1861
 7853SOL     OW35020   0.383   0.604   7.268 -0.1505  0.3382 -0.1684
 7853SOL    HW135021   0.457   0.549   7.293 -0.7881  0.1827  1.4128
 7853SOL    HW235022   0.315   0.587   7.334 -0.3010  2.7449  0.2764
 7854SOL     OW35023   2.277   1.357   6.855 -0.1014  0.5144  0.2687
 7854SOL    HW135024   2.271   1.379   6.948 -1.8557  1.3468 -0.0394
 7854SOL    HW235025   2.228   1.275   6.850  0.2075  0.3867 -0.6888
 7855SOL     OW35026   1.468   2.602  15.368 -0.0775  0.1364  0.0194
 7855SOL    HW135027   1.406   2.545  15.321  1.1840 -2.2966  1.3116
 7855SOL    HW235028   1.482   2.678  15.311  3.8303 -0.5903  0.0091
 7856SOL     OW35029   0.985   2.337   7.751  0.0734 -0.2131 -0.1640
 7856SOL    HW135030   0.975   2.243   7.767 -2.2115 -0.3159 -2.3215
 7856SOL    HW235031   0.898   2.370   7.728 -0.0731 -0.6110 -0.1693
 7857SOL     OW35032   0.113   1.407   6.226 -0.0736  0.5797 -0.8896
 7857SOL    HW135033   0.140   1.442   6.141  1.8997  1.4182  0.0950
 7857SOL    HW235034   0.055   1.478   6.255  1.0314  1.6723 -1.3838
 7858SOL     OW35035   1.923   2.103  10.045 -0.5948 -0.5492 -0.1469
 7858SOL    HW135036   2.000   2.060  10.008  0.4602 -0.8144  2.3641
 7858SOL    HW235037   1.900   2.036  10.109 -0.0094 -0.1295  0.5041
 7859SOL     OW35038   4.144   1.945  12.876 -0.2753 -0.4383 -0.8470
 7859SOL    HW135039   4.143   1.999  12.798 -0.6231  0.6053 -0.1207
 7859SOL    HW235040   4.213   1.880  12.862  2.3370  1.7671  1.6374
 7860SOL     OW35041   1.760   1.100   7.017  0.5965  1.0523  0.4748
 7860SOL    HW135042   1.748   1.128   7.108 -0.8171  1.2843  0.2114
 7860SOL    HW235043   1.704   1.162   6.971  0.4566  0.1276 -0.6014
 7861SOL     OW35044   3.148   3.404   6.144 -0.0828  0.5941  0.1210
 7861SOL    HW135045   3.102   3.488   6.146 -0.0365  0.6807 -2.4296
 7861SOL    HW235046   3.231   3.435   6.108  0.7210 -0.8534  0.7089
 7862SOL     OW35047   3.753   0.635  11.659  0.5358 -0.3154 -0.2672
 7862SOL    HW135048   3.805   0.682  11.724 -0.5171 -0.5593  0.7520
 7862SOL    HW235049   3.819   0.622  11.592 -2.3329  0.8220 -3.2914
 7863SOL     OW35050   0.867   1.192  13.616 -0.4315  0.3715  0.1712
 7863SOL    HW135051   0.955   1.193  13.579 -0.4186  0.9899  0.2179
 7863SOL    HW235052   0.854   1.285  13.631 -0.3290  0.5980 -1.1998
 7864SOL     OW35053   2.279   1.641   5.376 -0.0731 -0.0861 -0.2455
 7864SOL    HW135054   2.195   1.595   5.369 -0.2687  0.4655 -1.5591
 7864SOL    HW235055   2.327   1.611   5.299  1.2661 -2.1640  1.4162
 7865SOL     OW35056   2.395   2.746   6.414 -0.1229  0.5678 -0.7532
 7865SOL    HW135057   2.471   2.711   6.368 -0.5753 -1.4487  0.0233
 7865SOL    HW235058   2.371   2.669   6.466 -2.2103  0.2597 -2.1746
 7866SOL     OW35059   2.002   4.460   4.832 -0.5229  0.0334 -0.1035
 7866SOL    HW135060   2.005   4.534   4.892  0.1025  0.2653 -0.4182
 7866SOL    HW235061   2.027   4.505   4.752 -0.1118 -0.1874 -0.0983
 7867SOL     OW35062   0.685   1.322   3.198 -0.0739  0.1672 -0.3935
 7867SOL    HW135063   0.659   1.325   3.106 -0.9041  0.8033 -0.1366
 7867SOL    HW235064   0.741   1.245   3.208 -0.4712 -0.0403  0.1854
 7868SOL     OW35065   4.394   4.142   0.480  0.0217  0.6241 -0.1226
 7868SOL    HW135066   4.389   4.221   0.533  3.0666  0.8803 -0.2373
 7868SOL    HW235067   4.304   4.114   0.499 -0.2925  2.5565  1.2574
 7869SOL     OW35068   4.604   1.857   5.126 -0.7774  0.4918  0.0613
 7869SOL    HW135069   4.552   1.788   5.086 -0.2222  1.5348 -2.4652
 7869SOL    HW235070   4.538   1.889   5.188 -0.2124  1.0898  0.3714
 7870SOL     OW35071   2.146   3.914   8.566  0.1694  0.2358 -0.0951
 7870SOL    HW135072   2.082   3.884   8.501  1.2983 -0.7188 -0.7817
 7870SOL    HW235073   2.173   4.000   8.534  0.0974  0.7881  1.3310
 7871SOL     OW35074   1.268   2.383  16.518  0.2424  0.9885 -0.1867
 7871SOL    HW135075   1.339   2.321  16.531 -0.8979 -0.1326  0.6558
 7871SOL    HW235076   1.283   2.409  16.427 -0.1945  0.5761 -0.3756
 7872SOL     OW35077   3.922   3.960  16.726 -0.0712  0.6846 -0.1236
 7872SOL    HW135078   3.985   3.973  16.797  0.2339 -1.4156 -0.0183
 7872SOL    HW235079   3.983   3.973  16.654  2.4034 -2.2563  1.4010
 7873SOL     OW35080   4.163   3.864  13.710 -0.0492  0.0341  0.3507
 7873SOL    HW135081   4.188   3.906  13.627 -0.1438  1.5116  1.0651
 7873SOL    HW235082   4.221   3.912  13.768 -2.2828  0.1974  2.4400
 7874SOL     OW35083   3.982   4.093   2.513 -0.5854 -0.0263  0.0288
 7874SOL    HW135084   3.977   4.019   2.573  2.0416  1.5049  2.1195
 7874SOL    HW235085   4.059   4.072   2.461 -1.9520  0.7721 -2.3403
 7875SOL     OW35086   4.217   0.708   1.999 -0.3047 -0.0637  0.0519
 7875SOL    HW135087   4.134   0.754   1.986 -1.2711 -1.9390 -0.4530
 7875SOL    HW235088   4.260   0.707   1.913  0.7317  2.0601  0.5368
 7876SOL     OW35089   1.808   3.480   1.452  0.4165  0.4621 -0.0380
 7876SOL    HW135090   1.899   3.495   1.475  0.6224 -0.7766 -0.0192
 7876SOL    HW235091   1.835   3.414   1.388 -1.3964 -1.2397  0.9536
 7877SOL     OW35092   1.885   3.594   9.240 -0.5871  0.3900 -0.7251
 7877SOL    HW135093   1.826   3.528   9.204 -1.2833  1.6149 -1.8227
 7877SOL    HW235094   1.933   3.542   9.304 -2.0357  0.3579  0.3334
 7878SOL     OW35095   2.209   1.357   0.809 -0.2230  0.1299 -0.0464
 7878SOL    HW135096   2.280   1.378   0.869  0.1340  2.6419 -1.3680
 7878SOL    HW235097   2.140   1.393   0.864 -1.2375 -1.3289 -0.3526
 7879SOL     OW35098   1.138   3.157  13.995 -0.0422 -0.5404  0.4693
 7879SOL    HW135099   1.053   3.155  13.952  0.0889 -1.1254  0.2519
 7879SOL    HW235100   1.114   3.118  14.079 -1.1467 -1.1058 -0.1090
 7880SOL     OW35101   4.126   1.131   9.615 -0.2365 -0.3278 -0.1226
 7880SOL    HW135102   4.037   1.102   9.633  0.0405 -0.3331  1.1973
 7880SOL    HW235103   4.146   1.129   9.521  0.1674  0.6741 -0.0634
 7881SOL     OW35104   3.724   1.264   8.944 -0.5790 -0.0190 -0.0199
 7881SOL    HW135105   3.641   1.259   8.896 -1.1954 -1.6373  1.2158
 7881SOL    HW235106   3.694   1.320   9.016 -3.2418  0.6091 -1.6414
 7882SOL     OW35107   0.916   1.216   7.164 -0.3772  0.1556 -0.2490
 7882SOL    HW135108   0.910   1.194   7.071 -2.0597  0.7782 -0.3015
 7882SOL    HW235109   0.984   1.280   7.145 -0.4972  0.3911  0.1198
 7883SOL     OW35110   2.658   1.341   7.767  0.2190 -0.6745  0.3709
 7883SOL    HW135111   2.598   1.267   7.764 -2.1347  1.2848 -0.4408
 7883SOL    HW235112   2.610   1.424   7.769  0.1768 -0.7359  1.8641
 7884SOL     OW35113   1.306   4.134   8.684  0.0720 -0.0979  0.2827
 7884SOL    HW135114   1.219   4.108   8.655  0.5065  0.4040 -1.4788
 7884SOL    HW235115   1.297   4.229   8.671  1.0080  0.0375  0.6174
 7885SOL     OW35116   3.808   2.534   6.192  0.5520  0.7946  1.4916
 7885SOL    HW135117   3.721   2.539   6.233  0.3683  0.3827  1.1479
 7885SOL    HW235118   3.864   2.506   6.264  1.3301  0.5956  0.8032
 7886SOL     OW35119   3.559   4.683   4.252  0.1216 -0.7836  0.8185
 7886SOL    HW135120   3.508   4.606   4.275  1.0850 -1.7250 -0.1871
 7886SOL    HW235121   3.541   0.025   4.318  0.5935  0.3663 -0.2125
 7887SOL     OW35122   2.469   0.729   4.134 -0.3196  0.0924 -0.4967
 7887SOL    HW135123   2.394   0.784   4.112  1.0698  2.5344  0.8936
 7887SOL    HW235124   2.464   0.736   4.229  0.8506  1.2841 -0.5298
 7888SOL     OW35125   1.107   3.397   0.611  0.3471 -0.2267  0.2696
 7888SOL    HW135126   1.126   3.452   0.535  2.2201 -0.1541  0.7943
 7888SOL    HW235127   1.193   3.361   0.634  1.1765  0.9887 -0.9808
 7889SOL     OW35128   3.933   2.016   4.292  0.2706 -0.6312  0.0775
 7889SOL    HW135129   3.985   1.989   4.216  0.0842  1.0831 -0.6519
 7889SOL    HW235130   3.997   2.080   4.324 -1.3299  1.5422 -1.1141
 7890SOL     OW35131   2.388   3.490   9.775 -0.3482 -0.3526  0.5579
 7890SOL    HW135132   2.305   3.528   9.805  0.0676  0.3784  0.7883
 7890SOL    HW235133   2.385   3.528   9.687  1.4569  0.1055  0.7081
 7891SOL     OW35134   1.941   4.170  17.171 -0.0026 -0.0497  0.2528
 7891SOL    HW135135   2.032   4.148  17.153  0.0460  1.2754 -1.0921
 7891SOL    HW235136   1.946   4.185  17.266 -0.9148 -0.1248  0.3183
 7892SOL     OW35137   1.018   3.297  11.597  0.4343  0.2639 -0.5900
 7892SOL    HW135138   0.999   3.386  11.567  1.4089  0.6089 -0.1958
 7892SOL    HW235139   1.029   3.315  11.690  1.3306 -1.4080 -0.3670
 7893SOL     OW35140   3.622   0.456   8.743  0.1344 -0.4384 -0.6124
 7893SOL    HW135141   3.528   0.447   8.726  0.1143 -1.0029 -0.1973
 7893SOL    HW235142   3.644   0.520   8.676 -0.2380 -1.1084 -1.3798
 7894SOL     OW35143   1.528   0.561  11.579  0.9131 -0.8879 -0.1162
 7894SOL    HW135144   1.581   0.497  11.626  2.2159 -1.3833 -2.2467
 7894SOL    HW235145   1.557   0.539  11.490 -0.9623 -0.3070 -0.8736
 7895SOL     OW35146   1.195   1.584  14.789  0.2469  0.7483  0.3968
 7895SOL    HW135147   1.229   1.524  14.723  1.6108 -0.2799  2.0397
 7895SOL    HW235148   1.276   1.620  14.824  0.3682  0.4860  0.3891
 7896SOL     OW35149   3.763   3.417  15.033 -0.0066  0.0751 -0.4291
 7896SOL    HW135150   3.702   3.383  15.099 -1.7453  0.4965 -1.8497
 7896SOL    HW235151   3.796   3.346  14.978 -0.2844 -0.1106 -0.3525
 7897SOL     OW35152   4.430   2.614  17.086  0.2935  0.4743 -0.4664
 7897SOL    HW135153   4.449   2.554  17.014  0.0501 -1.3702  1.0017
 7897SOL    HW235154   4.394   2.689  17.038 -0.8030  0.0637 -0.2709
 7898SOL     OW35155   1.131   2.589   7.606  0.2727  0.1219 -0.8495
 7898SOL    HW135156   1.044   2.619   7.632  0.8195 -0.3117  1.4697
 7898SOL    HW235157   1.163   2.565   7.693 -0.5301 -1.4884 -1.0003
 7899SOL     OW35158   4.597   1.868   8.837  0.5895 -0.4762 -0.1885
 7899SOL    HW135159   4.526   1.832   8.890 -0.0542  1.2393  0.1412
 7899SOL    HW235160   4.545   1.922   8.778  1.5899  2.4337  1.5541
 7900SOL     OW35161   3.661   1.348  16.240  0.3285 -0.1148  0.5256
 7900SOL    HW135162   3.611   1.311  16.167  0.1953 -0.8405  0.9847
 7900SOL    HW235163   3.735   1.373  16.185  0.9445  0.0606  1.4340
 7901SOL     OW35164   0.719   0.683   8.799  0.4265  0.1248 -0.0184
 7901SOL    HW135165   0.675   0.668   8.716 -0.2802 -0.3548  0.4384
 7901SOL    HW235166   0.657   0.742   8.842 -0.7593 -1.2735  0.1866
 7902SOL     OW35167   2.589   2.274   6.213 -0.0218  0.0985  0.1435
 7902SOL    HW135168   2.624   2.192   6.247  0.1833 -1.3929 -3.6025
 7902SOL    HW235169   2.668   2.324   6.193  0.9182 -1.5829 -0.3142
 7903SOL     OW35170   2.724   2.859   4.403  0.2003 -0.1372 -0.0451
 7903SOL    HW135171   2.765   2.797   4.343 -1.4533 -0.4560 -0.8684
 7903SOL    HW235172   2.689   2.921   4.339 -2.2158  0.0545  1.4500
 7904SOL     OW35173   4.259   4.356   7.397  0.1274  0.4002 -0.3227
 7904SOL    HW135174   4.188   4.416   7.374  1.2244  1.8172 -0.0299
 7904SOL    HW235175   4.289   4.388   7.482 -3.0494  2.5876 -0.0393
 7905SOL     OW35176   0.235   4.105   0.837 -0.1500  0.2376  0.1024
 7905SOL    HW135177   0.313   4.144   0.799  0.1104  0.1970  0.5990
 7905SOL    HW235178   0.179   4.180   0.857  1.4021  1.5023 -0.3231
 7906SOL     OW35179   0.224   0.267  14.686  0.3084  0.0798 -0.3697
 7906SOL    HW135180   0.271   0.190  14.653  0.1702 -1.9002  4.0341
 7906SOL    HW235181   0.136   0.243  14.658  0.1050 -0.3668  0.6761
 7907SOL     OW35182   4.673   0.685   7.614  0.2640  0.8567 -0.4101
 7907SOL    HW135183   4.613   0.751   7.649 -0.0082 -0.0193  0.7764
 7907SOL    HW235184   4.632   0.606   7.650 -1.5618  1.2458 -1.6547
 7908SOL     OW35185   1.833   3.731   5.712  0.6850 -0.3084 -0.6095
 7908SOL    HW135186   1.788   3.646   5.708 -1.9774  1.1064 -0.5382
 7908SOL    HW235187   1.864   3.734   5.802  1.6918 -0.7065 -0.9485
 7909SOL     OW35188   4.582   3.911   2.954  0.1195 -0.6277 -0.2018
 7909SOL    HW135189   4.674   3.886   2.946  0.2196 -0.1832 -0.4894
 7909SOL    HW235190   4.558   3.904   2.862  1.7023 -1.5370 -0.5304
 7910SOL     OW35191   0.694   3.068   7.806  0.6823 -0.8209  0.1340
 7910SOL    HW135192   0.599   3.065   7.822  0.6953  2.8279  0.7790
 7910SOL    HW235193   0.738   3.021   7.877 -0.9046 -1.5796  0.6358
 7911SOL     OW35194   0.158   0.926   8.324 -0.1433 -0.1045 -0.5752
 7911SOL    HW135195   0.145   0.966   8.410 -0.5783  1.0835 -1.1993
 7911SOL    HW235196   0.069   0.920   8.291 -0.7507  1.7993  0.6937
 7912SOL     OW35197   2.704   0.555   5.752 -0.2760  0.6479 -0.0093
 7912SOL    HW135198   2.691   0.481   5.693  0.7161  3.2353 -3.4074
 7912SOL    HW235199   2.773   0.603   5.706 -0.0247 -1.4928 -1.8975
 7913SOL     OW35200   1.401   1.040   3.831 -0.7106 -0.2078  0.2055
 7913SOL    HW135201   1.434   1.122   3.793 -2.1515  0.1169 -0.3175
 7913SOL    HW235202   1.470   1.013   3.892 -1.0445 -0.1346  0.6102
 7914SOL     OW35203   1.137   0.740   4.116 -0.2659  0.5329 -0.0634
 7914SOL    HW135204   1.213   0.798   4.109 -0.0203  0.3369  0.8801
 7914SOL    HW235205   1.102   0.765   4.201 -0.1228 -1.1547  0.5054
 7915SOL     OW35206   3.348   3.528   5.379 -0.0269 -0.6682 -0.9412
 7915SOL    HW135207   3.259   3.558   5.398  0.7883  0.8534  0.4411
 7915SOL    HW235208   3.385   3.504   5.464 -1.3589 -0.1106 -0.2078
 7916SOL     OW35209   3.578   3.583   4.274 -0.1061  0.1201  0.2142
 7916SOL    HW135210   3.625   3.534   4.207 -0.2472  2.8387 -1.8465
 7916SOL    HW235211   3.601   3.675   4.262 -1.4571  0.4073 -0.1678
 7917SOL     OW35212   3.128   0.353   3.324 -0.1477 -0.1767 -0.2323
 7917SOL    HW135213   3.075   0.273   3.331  2.1866 -1.6647  0.4311
 7917SOL    HW235214   3.108   0.382   3.413  1.8104 -4.6558  1.7014
 7918SOL     OW35215   0.827   3.711   2.227 -0.3680 -0.5418 -0.1583
 7918SOL    HW135216   0.854   3.679   2.141  2.7122 -0.2528  0.6970
 7918SOL    HW235217   0.828   3.633   2.282  2.2521 -0.2428  0.2264
 7919SOL     OW35218   3.077   3.684   3.973  0.6740  0.2733  0.1751
 7919SOL    HW135219   3.147   3.735   4.013 -0.4007  1.9548 -0.0721
 7919SOL    HW235220   3.021   3.668   4.049 -2.2669  2.8813 -1.4037
 7920SOL     OW35221   2.769   2.872   6.274  0.1196  0.2540 -0.1520
 7920SOL    HW135222   2.754   2.824   6.355  0.0997  1.8425  0.7915
 7920SOL    HW235223   2.800   2.953   6.315 -0.8218  0.0471  0.9416
 7921SOL     OW35224   3.217   0.959   7.614 -0.0253 -0.3190  0.0221
 7921SOL    HW135225   3.222   0.875   7.660  1.2750  0.4830  1.3271
 7921SOL    HW235226   3.124   0.980   7.605  0.1144 -0.1608 -1.1385
 7922SOL     OW35227   3.725   1.777   4.565 -0.0737 -0.0709 -1.1245
 7922SOL    HW135228   3.631   1.758   4.568 -0.3842  1.7254  0.7686
 7922SOL    HW235229   3.759   1.689   4.583  0.7094  0.8673  2.1134
 7923SOL     OW35230   3.679   3.439  13.772  0.2261 -0.0744 -0.5362
 7923SOL    HW135231   3.760   3.397  13.801 -0.0696 -0.7507 -0.7034
 7923SOL    HW235232   3.624   3.437  13.850  1.5256  2.5956  0.4583
 7924SOL     OW35233   2.408   3.012   4.551  0.4669  0.0116 -0.5322
 7924SOL    HW135234   2.393   3.081   4.616 -0.0474  1.2424 -1.9547
 7924SOL    HW235235   2.388   3.062   4.472  0.0455 -1.0169 -1.0665
 7925SOL     OW35236   1.628   1.911   1.973 -0.0540  0.4114  1.1218
 7925SOL    HW135237   1.609   1.945   1.886  3.9724 -2.8002 -1.0067
 7925SOL    HW235238   1.709   1.860   1.960 -0.5366  0.3285 -1.5430
 7926SOL     OW35239   4.211   0.973   1.805 -0.4171  0.0706 -0.0829
 7926SOL    HW135240   4.229   0.886   1.771 -0.4099 -0.3004  0.8671
 7926SOL    HW235241   4.126   0.968   1.850 -0.5951  0.8492 -0.3226
 7927SOL     OW35242   0.256   1.817   4.171  0.0193 -0.0419 -0.8664
 7927SOL    HW135243   0.212   1.890   4.129 -1.5030  0.3639  1.4604
 7927SOL    HW235244   0.345   1.851   4.160  0.1685  0.2128  1.1089
 7928SOL     OW35245   1.592   4.084  15.731  0.0265 -0.4162 -0.0946
 7928SOL    HW135246   1.573   4.163  15.781  0.8202 -0.6892  0.6515
 7928SOL    HW235247   1.509   4.061  15.691 -0.1375  1.4117 -0.7763
 7929SOL     OW35248   1.591   4.370  12.641  0.6282  0.3655 -0.1069
 7929SOL    HW135249   1.588   4.305  12.711  2.3869 -0.3663 -0.7176
 7929SOL    HW235250   1.514   4.346  12.590  0.0158  0.4577  0.7699
 7930SOL     OW35251   3.534   1.835   5.632  0.1675 -0.1204 -0.0591
 7930SOL    HW135252   3.541   1.861   5.540  0.7487 -1.6722 -0.4634
 7930SOL    HW235253   3.591   1.759   5.623 -2.9835 -2.2006 -2.7187
 7931SOL     OW35254   1.173   0.761   7.268  0.6447  0.5215  0.0828
 7931SOL    HW135255   1.265   0.751   7.246  0.7849  0.0758  0.8676
 7931SOL    HW235256   1.191   0.813   7.346  0.0342  0.6552  0.1406
 7932SOL     OW35257   3.929   1.210   6.325 -0.1673 -0.3250  0.1816
 7932SOL    HW135258   3.923   1.301   6.295  0.1096 -0.5906 -0.6648
 7932SOL    HW235259   3.980   1.161   6.261 -0.4106 -1.9766  1.2585
 7933SOL     OW35260   1.266   3.625  16.134 -0.6213 -0.2737  0.9141
 7933SOL    HW135261   1.342   3.673  16.103  1.7507 -2.7625  2.8809
 7933SOL    HW235262   1.304   3.538  16.147 -2.9915 -1.3282  0.7309
 7934SOL     OW35263   0.846   4.116   6.790  0.3065 -0.2477 -0.4396
 7934SOL    HW135264   0.780   4.170   6.835  2.3475  2.9794 -1.3245
 7934SOL    HW235265   0.861   4.041   6.848 -0.0408 -0.0381 -0.0721
 7935SOL     OW35266   2.624   0.831   6.715 -0.1796  0.3781 -0.0573
 7935SOL    HW135267   2.680   0.809   6.790  0.6149  2.0260 -0.1624
 7935SOL    HW235268   2.573   0.909   6.738  1.7269  1.5084  0.3396
 7936SOL     OW35269   2.520   3.114  17.077 -0.5073  0.2331 -0.2891
 7936SOL    HW135270   2.464   3.060  17.133 -1.0797  0.6720 -0.4459
 7936SOL    HW235271   2.606   3.090  17.111 -1.4643  0.2110  2.1581
 7937SOL     OW35272   0.377   4.528   7.305  0.3835 -0.1440  0.5200
 7937SOL    HW135273   0.444   4.459   7.312 -0.1660 -0.5693  1.5388
 7937SOL    HW235274   0.344   4.517   7.216 -0.3464  1.5135  0.6003
 7938SOL     OW35275   0.499   4.283  11.792 -0.0783 -0.5614 -0.0165
 7938SOL    HW135276   0.504   4.225  11.716  2.4001  2.5083 -2.1875
 7938SOL    HW235277   0.423   4.333  11.763  2.2726  2.6716 -0.5365
 7939SOL     OW35278   3.988   4.276   7.522 -0.2395  0.1123 -0.3560
 7939SOL    HW135279   4.035   4.296   7.603  0.4158 -0.8506 -0.4981
 7939SOL    HW235280   3.962   4.364   7.497 -0.9372 -0.6267 -2.1910
 7940SOL     OW35281   3.925   4.352  16.827  0.1559 -0.3225 -0.2544
 7940SOL    HW135282   3.928   4.380  16.918  1.4987 -0.6164 -0.2192
 7940SOL    HW235283   3.931   4.257  16.837 -1.8063 -0.2754  1.2955
 7941SOL     OW35284   2.908   0.966   9.686 -0.1986 -0.3641 -0.4106
 7941SOL    HW135285   2.952   1.027   9.626 -0.9059 -0.7619 -1.3308
 7941SOL    HW235286   2.968   0.960   9.760 -1.1680  3.1744  0.6607
 7942SOL     OW35287   2.243   1.479  10.854  0.3161 -0.8328  0.3070
 7942SOL    HW135288   2.280   1.547  10.910 -0.6254  0.5307 -0.7242
 7942SOL    HW235289   2.215   1.531  10.779 -0.6661  0.8215  1.8425
 7943SOL     OW35290   0.467   2.339  15.897 -0.0766  0.7666 -0.1618
 7943SOL    HW135291   0.544   2.365  15.846  1.0376 -0.4458  0.9166
 7943SOL    HW235292   0.489   2.247  15.913  1.5271  1.0618 -0.6866
 7944SOL     OW35293   1.773   0.795  15.852 -0.1550 -0.5051  0.1221
 7944SOL    HW135294   1.723   0.782  15.771 -2.6332 -0.6326  1.6912
 7944SOL    HW235295   1.818   0.877  15.833  0.8809 -0.5941  2.3005
 7945SOL     OW35296   3.598   2.752   6.970 -0.4817 -0.0554  0.0802
 7945SOL    HW135297   3.585   2.830   7.024 -1.3020  0.1394 -0.3925
 7945SOL    HW235298   3.685   2.725   7.001 -0.4421  2.8409  2.5076
 7946SOL     OW35299   2.928   0.018   7.755 -0.2724 -0.2993 -0.5178
 7946SOL    HW135300   2.924   0.072   7.676  0.3203 -0.3392 -0.5748
 7946SOL    HW235301   2.998   4.684   7.726 -0.3697  0.4046 -2.1613
 7947SOL     OW35302   3.759   3.014   3.837 -0.4784  0.7977 -0.7022
 7947SOL    HW135303   3.748   3.104   3.807 -0.8602  0.2729 -2.1349
 7947SOL    HW235304   3.672   2.987   3.866  0.2350  1.9686  2.5315
 7948SOL     OW35305   4.353   1.226   7.131  0.2060 -0.5335 -0.3888
 7948SOL    HW135306   4.389   1.138   7.123 -0.8235 -0.7751 -2.0837
 7948SOL    HW235307   4.287   1.222   7.063 -0.4412  0.3576  0.1827
 7949SOL     OW35308   1.272   4.547  14.142  0.5343 -0.1009 -0.0003
 7949SOL    HW135309   1.220   4.625  14.159  0.1839 -0.6133  1.2719
 7949SOL    HW235310   1.350   4.584  14.100 -0.4395  2.1020  0.1431
 7950SOL     OW35311   0.768   0.323  15.421  0.2268  0.1798 -0.3009
 7950SOL    HW135312   0.823   0.372  15.360  0.8989  1.3989  1.2669
 7950SOL    HW235313   0.688   0.331  15.370  0.1479  0.3502 -0.1526
 7951SOL     OW35314   3.175   1.513  15.607  0.2041 -0.0774  0.0894
 7951SOL    HW135315   3.207   1.433  15.648  0.5242 -0.9225 -1.8305
 7951SOL    HW235316   3.234   1.577  15.647 -0.9821  0.6978  0.6045
 7952SOL     OW35317   0.272   1.782  13.994  0.6064  0.5478 -0.1130
 7952SOL    HW135318   0.211   1.726  13.947 -0.9450  2.1759 -0.0601
 7952SOL    HW235319   0.252   1.766  14.087  0.4159 -2.2051 -0.6293
 7953SOL     OW35320   1.118   2.974   2.679  0.4319  0.9054  0.3207
 7953SOL    HW135321   1.209   2.986   2.651 -0.4089 -0.0244 -2.7829
 7953SOL    HW235322   1.077   3.055   2.648  1.3277  1.8071  1.4866
 7954SOL     OW35323   4.101   0.831   2.993 -0.0968  0.2661  0.1340
 7954SOL    HW135324   4.070   0.799   2.908  1.6604  1.2331 -0.8652
 7954SOL    HW235325   4.162   0.765   3.025  2.9128  3.2786  0.5010
 7955SOL     OW35326   3.454   4.602   4.641  0.1603 -0.2097  0.2003
 7955SOL    HW135327   3.504   4.683   4.651  1.6046 -1.3679  2.1434
 7955SOL    HW235328   3.368   4.631   4.610  1.5431  0.6820 -2.7943
 7956SOL     OW35329   2.988   1.756   3.597  0.2668  0.1981 -0.6285
 7956SOL    HW135330   3.079   1.732   3.582  0.4754  0.1613  0.7170
 7956SOL    HW235331   2.973   1.783   3.507  0.3608 -1.1378 -1.0381
 7957SOL     OW35332   0.681   4.334  12.776 -0.1232 -0.3391 -0.7846
 7957SOL    HW135333   0.667   4.270  12.846  1.1816  0.4304  0.1745
 7957SOL    HW235334   0.676   4.275  12.700 -0.1587 -0.1722 -0.9115
 7958SOL     OW35335   2.655   1.679  15.011  0.2237 -0.5230 -0.0140
 7958SOL    HW135336   2.622   1.754  15.062  0.5432 -1.3484  1.4188
 7958SOL    HW235337   2.593   1.672  14.939  0.8729  0.1960 -0.6419
 7959SOL     OW35338   2.584   3.181  13.939 -0.0088 -0.0827  0.5809
 7959SOL    HW135339   2.621   3.113  13.994  0.9467  0.5129  0.6724
 7959SOL    HW235340   2.658   3.182  13.878  0.7502  0.2573  1.5016
 7960SOL     OW35341   3.638   0.611   8.519 -0.1004  0.0088  0.0688
 7960SOL    HW135342   3.727   0.640   8.498 -0.5373  1.0976 -0.3028
 7960SOL    HW235343   3.584   0.690   8.517 -0.1410 -0.0074  0.5611
 7961SOL     OW35344   1.265   2.377   2.816 -0.1061  0.1822 -0.4819
 7961SOL    HW135345   1.238   2.292   2.850 -0.1695  0.0712 -0.8092
 7961SOL    HW235346   1.261   2.426   2.898 -0.7303 -1.0064  0.2007
 7962SOL     OW35347   4.387   1.047   6.844  0.0851 -0.5008  0.2987
 7962SOL    HW135348   4.386   0.964   6.890 -0.0201 -0.7848 -0.2186
 7962SOL    HW235349   4.448   1.026   6.774  0.3645  1.6185 -0.0903
 7963SOL     OW35350   0.060   2.437   9.030 -0.0775  0.2304  0.1043
 7963SOL    HW135351   0.004   2.360   9.037  0.4332 -0.2148 -0.7472
 7963SOL    HW235352   0.113   2.431   9.109 -2.5983 -1.1617  1.7009
 7964SOL     OW35353   0.625   3.296   7.196 -0.1107 -0.0609  0.4267
 7964SOL    HW135354   0.663   3.255   7.118 -0.8395  1.2171 -0.5980
 7964SOL    HW235355   0.700   3.317   7.251 -0.2223  0.0870  0.5213
 7965SOL     OW35356   2.837   1.516  13.674 -0.1501 -0.1007 -0.8672
 7965SOL    HW135357   2.885   1.454  13.729 -0.7395 -0.0064 -0.2526
 7965SOL    HW235358   2.748   1.487  13.695 -0.6049  0.5788 -1.8549
 7966SOL     OW35359   0.064   3.656   6.201 -0.3923  0.6171 -0.6376
 7966SOL    HW135360   0.094   3.611   6.280 -2.3153 -0.8869 -0.7678
 7966SOL    HW235361   4.717   3.597   6.178  0.1504  0.1052 -1.0402
 7967SOL     OW35362   2.570   0.110   7.628  0.3791  0.0325 -0.2205
 7967SOL    HW135363   2.584   0.039   7.691  0.2417  0.4852  0.3162
 7967SOL    HW235364   2.571   0.072   7.540 -0.1176 -0.4845 -0.0017
 7968SOL     OW35365   1.102   0.645  15.770 -0.3079 -0.1665  0.3455
 7968SOL    HW135366   1.063   0.709  15.829 -0.4704 -1.0498  1.2065
 7968SOL    HW235367   1.086   0.560  15.812 -0.6537 -0.6128 -0.6839
 7969SOL     OW35368   4.165   2.626   4.234  0.4673  0.6549 -0.2855
 7969SOL    HW135369   4.165   2.704   4.290  2.1150  0.3883  0.0840
 7969SOL    HW235370   4.071   2.614   4.226  0.4334  0.6213  0.1315
 7970SOL     OW35371   0.484   0.776   8.016 -0.8551  0.4473 -0.1976
 7970SOL    HW135372   0.441   0.771   8.101 -1.0310 -0.2392 -0.3313
 7970SOL    HW235373   0.404   0.778   7.964 -0.3272  0.4999 -1.0014
 7971SOL     OW35374   4.690   0.053   3.688  0.0965  0.3732 -0.2736
 7971SOL    HW135375   4.642   0.024   3.610  0.7229 -1.8265  0.1476
 7971SOL    HW235376   4.675   4.704   3.748  1.3885 -0.9253 -1.5185
 7972SOL     OW35377   3.300   4.216   2.459  0.4365  0.5294 -0.1483
 7972SOL    HW135378   3.293   4.129   2.419  2.8102 -1.1012  3.0034
 7972SOL    HW235379   3.394   4.210   2.472  0.1620 -0.0704  1.5359
 7973SOL     OW35380   3.190   4.285  16.563 -0.0203 -0.4626  0.0503
 7973SOL    HW135381   3.263   4.338  16.530  1.5233 -2.7470 -0.2210
 7973SOL    HW235382   3.138   4.352  16.607 -0.3511 -0.6608 -0.0400
 7974SOL     OW35383   2.565   2.593  10.863 -0.0745  0.7344  0.4516
 7974SOL    HW135384   2.475   2.614  10.891 -0.2561 -1.3018  1.3679
 7974SOL    HW235385   2.542   2.559  10.777  1.4565  0.0271  0.3329
 7975SOL     OW35386   0.573   0.013  10.957 -0.3903 -0.2169  0.4478
 7975SOL    HW135387   0.600   0.034  10.868 -0.6452  1.0719  0.6701
 7975SOL    HW235388   0.657   0.035  10.996  0.4226  1.3078 -2.1681
 7976SOL     OW35389   2.556   1.715   1.933 -0.7777  0.0985 -0.0031
 7976SOL    HW135390   2.582   1.626   1.907  0.5689  0.3925  0.3434
 7976SOL    HW235391   2.540   1.758   1.849  1.9186 -0.6305 -0.9062
 7977SOL     OW35392   4.675   1.349   5.531 -0.7005 -0.3733  0.5689
 7977SOL    HW135393   4.659   1.389   5.445  1.6546 -1.0422 -0.1897
 7977SOL    HW235394   4.688   1.255   5.518  0.3973 -0.3266  1.3032
 7978SOL     OW35395   1.766   0.630   8.230 -0.1956 -0.5781  0.0051
 7978SOL    HW135396   1.850   0.597   8.197  0.2795 -0.7527  1.3774
 7978SOL    HW235397   1.718   0.550   8.254 -1.7393 -0.6287 -3.2365
 7979SOL     OW35398   4.470   1.434   3.567  0.1731 -0.0603  0.0602
 7979SOL    HW135399   4.509   1.412   3.483 -2.1995 -2.3722 -0.4411
 7979SOL    HW235400   4.538   1.417   3.633  1.5451  0.8126 -1.1443
 7980SOL     OW35401   1.609   2.967   0.614 -0.0326  0.2073 -0.2611
 7980SOL    HW135402   1.652   3.053   0.623  2.9282 -1.2323 -0.6845
 7980SOL    HW235403   1.601   2.944   0.706 -1.5144  0.2464 -0.3914
 7981SOL     OW35404   2.828   3.101   1.925 -0.3579 -0.1067  0.6352
 7981SOL    HW135405   2.751   3.157   1.916 -0.8716 -0.5725  2.1382
 7981SOL    HW235406   2.846   3.096   2.019  1.2395 -0.3334  0.3190
 7982SOL     OW35407   2.813   1.736   1.364  0.0616  0.4763  0.2270
 7982SOL    HW135408   2.861   1.790   1.301  0.2199 -0.1794 -0.2143
 7982SOL    HW235409   2.896   1.706   1.401  0.6944  1.0597 -0.7109
 7983SOL     OW35410   2.634   3.445  12.916 -0.4537 -0.2170 -0.4547
 7983SOL    HW135411   2.594   3.371  12.961 -0.2583  0.2499  0.4771
 7983SOL    HW235412   2.600   3.509  12.978  3.8896  1.3127  0.3312
 7984SOL     OW35413   1.514   2.385   9.482 -0.1014 -0.3440  0.4140
 7984SOL    HW135414   1.489   2.344   9.565 -0.1340 -1.3900 -0.1048
 7984SOL    HW235415   1.437   2.365   9.429  0.0144 -0.1034  0.1523
 7985SOL     OW35416   0.966   4.016   2.471 -0.3887 -0.3010  0.8356
 7985SOL    HW135417   0.962   4.010   2.375  1.4510  0.6494  0.6968
 7985SOL    HW235418   1.058   4.041   2.479 -0.5721  0.9038 -0.7130
 7986SOL     OW35419   1.575   3.752   7.200 -0.0470  0.0813 -0.0021
 7986SOL    HW135420   1.644   3.757   7.266 -1.2328 -0.4706  1.2991
 7986SOL    HW235421   1.604   3.828   7.149  0.1647 -0.2643 -0.3863
 7987SOL     OW35422   0.337   1.554   1.830 -0.0268 -0.3602 -0.4632
 7987SOL    HW135423   0.280   1.630   1.841 -0.0367 -0.2952 -0.9617
 7987SOL    HW235424   0.314   1.518   1.745 -0.3659  2.9105 -1.7529
 7988SOL     OW35425   3.666   1.288   2.624  0.6452 -0.6027  0.1972
 7988SOL    HW135426   3.666   1.198   2.591  3.4203 -0.3960 -0.3560
 7988SOL    HW235427   3.728   1.274   2.695 -0.2462 -1.1741  0.8712
 7989SOL     OW35428   3.066   3.612  16.607 -0.1223  0.2650 -0.3883
 7989SOL    HW135429   3.161   3.610  16.598 -0.1424 -3.3345  0.1584
 7989SOL    HW235430   3.044   3.526  16.571 -0.3071 -0.4847  1.5324
 7990SOL     OW35431   4.221   4.100  15.185 -0.0409  0.4049 -0.3071
 7990SOL    HW135432   4.175   4.108  15.101 -1.0544  0.2478  0.2332
 7990SOL    HW235433   4.166   4.162  15.233 -1.0087 -0.6689 -0.0401
 7991SOL     OW35434   1.778   4.128  11.173  0.1941 -1.0380  0.3463
 7991SOL    HW135435   1.778   4.215  11.135 -2.6827 -0.0300  2.5885
 7991SOL    HW235436   1.855   4.086  11.136  0.4835  0.0275 -0.2205
 7992SOL     OW35437   4.313   2.131  11.282  0.4401 -0.2839  0.7248
 7992SOL    HW135438   4.299   2.200  11.347  2.4721 -0.3776  1.2558
 7992SOL    HW235439   4.269   2.167  11.205 -0.6961  0.4581  1.7179
 7993SOL     OW35440   1.753   3.963   2.870  0.2572  0.8406  0.4575
 7993SOL    HW135441   1.807   4.041   2.854 -1.9081  2.3749  0.6570
 7993SOL    HW235442   1.770   3.916   2.788  0.4187  2.6411 -0.5645
 7994SOL     OW35443   1.183   0.449  15.324 -0.0367  0.1805  0.1194
 7994SOL    HW135444   1.110   0.416  15.272  1.7021 -2.4784 -0.6478
 7994SOL    HW235445   1.134   0.498  15.390 -0.1621 -0.8677  0.7931
 7995SOL     OW35446   1.143   3.563   2.786  0.3819  0.6043  0.1633
 7995SOL    HW135447   1.199   3.506   2.840 -1.5744 -2.0296 -0.6095
 7995SOL    HW235448   1.158   3.533   2.696  1.1940  0.0958  0.4601
 7996SOL     OW35449   0.939   1.501   8.562 -0.6691 -0.0979  0.5757
 7996SOL    HW135450   1.028   1.533   8.547  0.3674 -2.6482  1.1631
 7996SOL    HW235451   0.922   1.465   8.475 -0.9559  4.7662 -1.3735
 7997SOL     OW35452   3.282   4.653   2.648 -0.1767  0.3165  0.1567
 7997SOL    HW135453   3.297   4.682   2.738 -0.5550 -2.1545  1.0260
 7997SOL    HW235454   3.261   4.561   2.662 -0.3426  0.1689 -1.0741
 7998SOL     OW35455   0.614   3.711   4.023  0.6206 -0.6160 -0.4762
 7998SOL    HW135456   0.551   3.644   4.049 -0.6732  1.1657  1.0189
 7998SOL    HW235457   0.687   3.677   4.074  1.1496 -2.0431 -2.2117
 7999SOL     OW35458   3.518   3.877   1.155  0.6411 -0.1949  0.0149
 7999SOL    HW135459   3.546   3.831   1.075 -1.8257  0.7752 -1.3773
 7999SOL    HW235460   3.507   3.804   1.216  2.1455 -1.5348 -1.2969
 8000SOL     OW35461   4.286   4.254   9.299  0.1507  0.1917 -0.0325
 8000SOL    HW135462   4.241   4.338   9.307 -0.6415 -0.1355 -1.0575
 8000SOL    HW235463   4.356   4.254   9.365 -0.2156  1.0913  0.3648
 8001SOL     OW35464   0.781   3.935   2.913 -0.6092  0.0174 -0.3165
 8001SOL    HW135465   0.809   4.026   2.905  0.8761 -0.1939  2.4012
 8001SOL    HW235466   0.841   3.902   2.980 -0.5375  1.1683  0.1926
 8002SOL     OW35467   1.232   2.591  15.566 -0.1070 -0.0686 -0.0007
 8002SOL    HW135468   1.306   2.570  15.510 -1.0181  0.9043 -1.5482
 8002SOL    HW235469   1.211   2.503  15.597  0.4457  0.1053  0.8938
 8003SOL     OW35470   2.353   3.304   6.747  0.0521  0.0319 -0.2695
 8003SOL    HW135471   2.362   3.322   6.841  1.4917 -0.6576 -0.2888
 8003SOL    HW235472   2.316   3.216   6.748  0.2164 -0.0290  0.9029
 8004SOL     OW35473   0.455   1.052   2.957  0.3339  1.0918 -0.2278
 8004SOL    HW135474   0.550   1.049   2.970  0.4252  0.4553 -0.9948
 8004SOL    HW235475   0.443   0.989   2.886 -0.1842  1.0569 -0.1039
 8005SOL     OW35476   4.209   2.288  13.481 -0.1761  0.2720  0.3208
 8005SOL    HW135477   4.257   2.220  13.528 -1.2865  0.8500  2.2558
 8005SOL    HW235478   4.149   2.242  13.422  0.1891 -1.0464  0.9897
 8006SOL     OW35479   3.195   4.277  16.138 -0.0393 -0.8839  0.2190
 8006SOL    HW135480   3.128   4.210  16.126 -1.6733  0.6590  0.6056
 8006SOL    HW235481   3.156   4.344  16.194  1.5596 -1.9633  2.6547
 8007SOL     OW35482   1.070   3.540  17.202 -0.1944  0.3139  0.0285
 8007SOL    HW135483   0.976   3.523  17.195 -0.7313  2.7587  1.5204
 8007SOL    HW235484   1.097   3.554  17.111  2.7310 -1.9651  0.5055
 8008SOL     OW35485   2.738   1.632   9.884  0.5126 -0.0417  0.1935
 8008SOL    HW135486   2.768   1.669   9.968  1.5202 -0.3523 -0.0265
 8008SOL    HW235487   2.716   1.545   9.917 -1.6622  0.6333  0.5155
 8009SOL     OW35488   1.096   0.878   2.991  0.0718 -0.2573  0.0254
 8009SOL    HW135489   1.091   0.809   2.924 -1.4430 -1.0040  0.8959
 8009SOL    HW235490   1.188   0.878   3.017  0.1087  2.1632 -0.1669
 8010SOL     OW35491   0.029   3.409   9.333  0.4946  0.1152 -0.3445
 8010SOL    HW135492   0.081   3.401   9.253 -2.1484 -2.8883 -1.7813
 8010SOL    HW235493   4.675   3.363   9.304 -0.7232  0.3108  2.6335
 8011SOL     OW35494   0.883   4.670  13.616 -0.2601  0.0365  0.5471
 8011SOL    HW135495   0.946   4.611  13.576  0.2030 -0.4882  2.0723
 8011SOL    HW235496   0.803   4.618  13.620 -1.1227  1.4052  1.1549
 8012SOL     OW35497   3.219   2.300   4.546 -1.0492 -0.0833  0.1845
 8012SOL    HW135498   3.311   2.310   4.566 -1.0855 -0.7257  0.6814
 8012SOL    HW235499   3.225   2.324   4.453 -0.2366 -1.0764 -0.0180
 8013SOL     OW35500   2.983   3.129  16.116 -0.0195  0.2669 -0.2825
 8013SOL    HW135501   2.900   3.125  16.164 -0.2491 -0.4270 -0.7425
 8013SOL    HW235502   2.957   3.153  16.027  1.7260 -0.9964 -1.1344
 8014SOL     OW35503   2.406   1.793  10.887 -0.2991 -0.1558  0.2077
 8014SOL    HW135504   2.325   1.790  10.937  0.0379 -0.7471  0.7051
 8014SOL    HW235505   2.457   1.740  10.947 -1.8165 -1.2276  0.5427
 8015SOL     OW35506   3.199   4.068  15.570 -0.2024 -0.6422 -0.6911
 8015SOL    HW135507   3.149   4.036  15.495  2.1534 -2.7599 -1.3463
 8015SOL    HW235508   3.284   4.032  15.545  1.6495  0.6789  3.7568
 8016SOL     OW35509   2.043   4.384   6.392 -0.3934  0.3544 -0.2987
 8016SOL    HW135510   1.964   4.415   6.437  1.1547  1.6514  1.5005
 8016SOL    HW235511   2.008   4.312   6.340  0.9712 -0.4002 -0.1677
 8017SOL     OW35512   4.574   1.469  10.106  0.3027  0.6054 -0.0484
 8017SOL    HW135513   4.630   1.396  10.133 -0.5345  0.2618  0.7406
 8017SOL    HW235514   4.618   1.544  10.147  2.4168 -1.9134  2.3082
 8018SOL     OW35515   1.470   2.222   7.591  0.0311  0.0726 -0.0235
 8018SOL    HW135516   1.390   2.253   7.632  0.1802 -0.1938  0.4713
 8018SOL    HW235517   1.435   2.170   7.518 -0.4194 -0.4174  0.5438
 8019SOL     OW35518   3.223   0.106  16.000  0.1276 -0.3113  0.3158
 8019SOL    HW135519   3.270   0.157  16.065  0.0199  0.9519 -0.6020
 8019SOL    HW235520   3.287   0.037  15.982 -0.2610 -0.5780 -0.0555
 8020SOL     OW35521   1.182   0.238   4.053  0.0500  0.7584  0.1106
 8020SOL    HW135522   1.254   0.301   4.046 -1.6087  2.6314 -0.0636
 8020SOL    HW235523   1.230   0.167   4.097  0.1110  0.6921 -0.0609
 8021SOL     OW35524   1.879   0.108   3.808  0.5822  0.0672 -0.5604
 8021SOL    HW135525   1.849   0.111   3.717  2.0820 -1.6576 -1.1031
 8021SOL    HW235526   1.962   0.154   3.815  0.2954  0.4157  0.4925
 8022SOL     OW35527   3.492   1.777  13.888 -0.5247 -0.4451  0.3234
 8022SOL    HW135528   3.403   1.776  13.924 -0.5319  1.6205  0.3903
 8022SOL    HW235529   3.485   1.780  13.793  0.3628 -2.5503  0.1797
 8023SOL     OW35530   4.063   0.811   5.405 -0.2211  0.2528 -0.5163
 8023SOL    HW135531   4.145   0.841   5.446 -0.0989  1.3004 -1.5535
 8023SOL    HW235532   4.096   0.785   5.319 -1.5707  1.7271 -1.4745
 8024SOL     OW35533   0.529   1.730   3.517  0.3081  0.4544 -0.7147
 8024SOL    HW135534   0.593   1.760   3.453  1.7063  0.9762  0.9291
 8024SOL    HW235535   0.522   1.636   3.500  3.1725  0.0159  0.4173
 8025SOL     OW35536   3.073   1.730   4.462 -0.0351 -0.2871  0.2978
 8025SOL    HW135537   3.026   1.734   4.546 -2.2084 -0.8410 -0.8933
 8025SOL    HW235538   3.096   1.637   4.457  1.2644 -0.0652  2.0075
 8026SOL     OW35539   3.781   4.502   9.680  0.0232 -0.0025 -0.5994
 8026SOL    HW135540   3.749   4.559   9.750 -1.6814 -0.1884 -1.2133
 8026SOL    HW235541   3.699   4.477   9.638 -0.0326  0.0452 -0.5195
 8027SOL     OW35542   0.167   2.905   7.429 -0.5853 -0.2539  0.3424
 8027SOL    HW135543   0.205   2.964   7.494 -0.5821  1.1817 -0.9591
 8027SOL    HW235544   0.216   2.932   7.352 -3.0720  2.0894 -0.4185
 8028SOL     OW35545   3.759   4.713   0.772  0.0172 -0.0667 -0.3524
 8028SOL    HW135546   3.686   4.677   0.721 -0.8566  0.5599  0.4489
 8028SOL    HW235547   3.703   0.054   0.815 -2.8304 -0.6817 -3.1048
 8029SOL     OW35548   0.588   3.166   0.326 -0.5521 -0.2182 -0.3888
 8029SOL    HW135549   0.568   3.101   0.394  1.7778 -0.1571  0.3312
 8029SOL    HW235550   0.651   3.227   0.364  2.2300 -2.6711 -1.0842
 8030SOL     OW35551   1.962   3.919  10.451 -0.2883 -0.4180  0.6095
 8030SOL    HW135552   2.015   3.840  10.444  0.6506  0.3651 -1.1907
 8030SOL    HW235553   1.969   3.938  10.544  0.7261 -0.7415  0.6004
 8031SOL     OW35554   2.435   0.401  11.146 -0.0196  0.0283  0.0123
 8031SOL    HW135555   2.389   0.347  11.081  1.8534 -1.2954 -0.2445
 8031SOL    HW235556   2.478   0.464  11.088  0.9266  0.0407  0.7205
 8032SOL     OW35557   1.665   4.124  17.151  0.0258 -0.2967 -0.1727
 8032SOL    HW135558   1.689   4.058  17.216 -1.9775  0.5685  1.4685
 8032SOL    HW235559   1.755   4.154  17.141 -0.3970  1.9361  2.5946
 8033SOL     OW35560   3.031   1.762  15.274 -0.1914  0.0011 -0.0646
 8033SOL    HW135561   3.017   1.821  15.200  0.3234 -0.0430 -0.1954
 8033SOL    HW235562   2.960   1.697  15.272 -0.9546  0.9190 -3.2430
 8034SOL     OW35563   2.486   2.452   9.502 -0.0013 -0.5248 -0.0295
 8034SOL    HW135564   2.456   2.524   9.557 -0.0510 -0.5340 -0.0444
 8034SOL    HW235565   2.581   2.459   9.489 -0.0943  2.6403  1.1856
 8035SOL     OW35566   3.528   2.307  15.683  0.4215  0.2575 -0.3145
 8035SOL    HW135567   3.532   2.255  15.603 -0.0728 -1.6644  0.9108
 8035SOL    HW235568   3.541   2.396  15.651  2.1772  0.6788  1.6134
 8036SOL     OW35569   1.988   3.046   8.498 -0.4419  0.3679  0.5487
 8036SOL    HW135570   1.995   3.016   8.589 -2.2804  0.3739  0.6954
 8036SOL    HW235571   1.968   3.138   8.513 -0.4268  0.7482 -1.7999
 8037SOL     OW35572   1.917   3.324   4.528  0.3437  0.1075  0.3731
 8037SOL    HW135573   1.910   3.256   4.596 -1.3460 -0.1603 -0.0577
 8037SOL    HW235574   1.906   3.284   4.442 -1.1070  1.2179  0.0552
 8038SOL     OW35575   0.454   0.419   6.426  0.1967  0.1913  0.1020
 8038SOL    HW135576   0.458   0.367   6.506  0.2350 -0.3846 -0.2768
 8038SOL    HW235577   0.474   0.506   6.461  3.2936 -0.6825  0.5286
 8039SOL     OW35578   1.662   3.956   3.657  0.2280 -0.1841 -0.7047
 8039SOL    HW135579   1.710   3.925   3.580  2.4506  1.9859 -0.1910
 8039SOL    HW235580   1.633   4.039   3.619  2.4202  1.5128  1.3437
 8040SOL     OW35581   1.342   1.070  11.058 -0.1447  0.2803 -0.1353
 8040SOL    HW135582   1.311   1.105  10.975  1.6570  0.9548 -0.5288
 8040SOL    HW235583   1.378   1.146  11.104 -0.6727 -0.1220  0.9420
 8041SOL     OW35584   2.496   0.557   2.443  0.3729  0.3585 -0.6794
 8041SOL    HW135585   2.574   0.577   2.495  0.2823 -1.4392  0.1539
 8041SOL    HW235586   2.472   0.642   2.407  1.0589 -0.1839 -2.4035
 8042SOL     OW35587   1.817   3.253   8.583  0.1993  0.1080  0.3076
 8042SOL    HW135588   1.871   3.331   8.597  0.9101 -0.7925  2.5601
 8042SOL    HW235589   1.733   3.281   8.547  0.2974  2.4478  1.9000
 8043SOL     OW35590   1.935   3.148  16.374 -0.3534 -0.0638 -0.2048
 8043SOL    HW135591   1.879   3.086  16.326 -1.1497  0.4584  0.0544
 8043SOL    HW235592   1.901   3.227  16.332  2.5654  0.8288 -0.9126
 8044SOL     OW35593   3.462   3.733   2.523  0.9224 -0.5996  0.1364
 8044SOL    HW135594   3.472   3.655   2.577  2.2637  1.3406  2.6635
 8044SOL    HW235595   3.453   3.800   2.591  0.8091 -2.8220  2.3138
 8045SOL     OW35596   4.545   0.676  11.843 -0.3847  0.8638  0.1640
 8045SOL    HW135597   4.543   0.712  11.755 -1.3375 -0.2224 -0.2609
 8045SOL    HW235598   4.604   0.601  11.836 -1.5054 -0.3188  3.3576
 8046SOL     OW35599   0.465   1.913   3.998 -0.2788  0.2268 -0.7741
 8046SOL    HW135600   0.532   1.854   3.963 -0.7146  0.9238 -2.8064
 8046SOL    HW235601   0.390   1.881   3.947 -1.3001  1.3668 -0.0039
 8047SOL     OW35602   1.375   3.344  13.690  0.6706  0.0120 -0.2776
 8047SOL    HW135603   1.351   3.287  13.763 -1.9399  0.0358 -1.1146
 8047SOL    HW235604   1.372   3.275  13.624  0.7381 -1.6083  1.4228
 8048SOL     OW35605   0.709   0.400   5.859 -0.0169 -0.3251 -0.4098
 8048SOL    HW135606   0.704   0.365   5.770  0.1879  1.0941 -0.9839
 8048SOL    HW235607   0.757   0.331   5.905  0.4037  0.7092  0.6927
 8049SOL     OW35608   1.954   0.492   4.522 -0.8172 -0.4782 -0.6742
 8049SOL    HW135609   1.994   0.505   4.437 -0.6386 -0.7045 -0.6229
 8049SOL    HW235610   1.901   0.570   4.539  0.2259 -0.1873  1.3529
 8050SOL     OW35611   3.449   3.252   9.021 -0.0931 -0.2342  0.1522
 8050SOL    HW135612   3.511   3.206   8.964  1.5091  0.2357  1.5144
 8050SOL    HW235613   3.406   3.173   9.053 -0.7918 -0.0749 -0.3812
 8051SOL     OW35614   3.630   0.776  10.687  0.5892  0.1495 -0.7750
 8051SOL    HW135615   3.686   0.743  10.616  1.4729 -1.0854  0.5098
 8051SOL    HW235616   3.683   0.770  10.766  0.6326 -0.5207 -0.8509
 8052SOL     OW35617   3.223   0.599  12.820  0.2870 -0.3690 -0.1204
 8052SOL    HW135618   3.139   0.557  12.832 -0.8131  1.1500 -2.3525
 8052SOL    HW235619   3.281   0.523  12.810 -1.4077 -1.5353 -1.0482
 8053SOL     OW35620   2.492   3.843   3.180 -0.4736  0.1447  0.1272
 8053SOL    HW135621   2.425   3.879   3.238  0.2969 -1.3056  1.8954
 8053SOL    HW235622   2.572   3.879   3.219 -1.7677  0.9671  2.0037
 8054SOL     OW35623   0.213   1.751  12.299  0.5388 -0.2339  0.1393
 8054SOL    HW135624   0.193   1.665  12.336  0.3381 -0.7570 -1.2194
 8054SOL    HW235625   0.278   1.716  12.238 -0.9915 -2.0474 -0.4331
 8055SOL     OW35626   2.991   3.546   7.507  0.0074  0.2685 -0.0256
 8055SOL    HW135627   2.933   3.540   7.583 -0.5370 -1.1623 -0.5525
 8055SOL    HW235628   3.066   3.585   7.552  0.2501 -0.7494  0.4517
 8056SOL     OW35629   3.836   0.535   7.671  0.5608  0.0670 -0.2063
 8056SOL    HW135630   3.802   0.453   7.635 -1.0271  1.1663 -1.1583
 8056SOL    HW235631   3.757   0.553   7.722  0.3633 -0.6306 -0.2660
 8057SOL     OW35632   0.252   4.528   2.634  0.1797 -0.3105  0.0022
 8057SOL    HW135633   0.319   4.545   2.569 -0.1873 -1.1371 -0.6026
 8057SOL    HW235634   0.287   4.448   2.675  0.5200 -1.6401 -2.8999
 8058SOL     OW35635   0.916   2.322   5.353 -0.2376 -0.0386  0.0685
 8058SOL    HW135636   0.971   2.288   5.424  0.7462 -1.6543 -1.4551
 8058SOL    HW235637   0.830   2.282   5.366 -0.1591 -0.1346  0.2852
 8059SOL     OW35638   2.208   3.502  15.232  0.6525  0.3259 -0.3562
 8059SOL    HW135639   2.249   3.448  15.165 -0.4333  0.7171 -1.3302
 8059SOL    HW235640   2.125   3.527  15.192 -0.6523 -1.7501  1.0495
 8060SOL     OW35641   3.717   1.030   2.552 -0.6717  0.1779  0.0912
 8060SOL    HW135642   3.671   0.954   2.515  0.4154 -0.6253  0.3724
 8060SOL    HW235643   3.757   0.999   2.633  1.4936  1.6323 -0.4094
 8061SOL     OW35644   1.674   3.597   2.371 -0.4310  0.3559 -0.7467
 8061SOL    HW135645   1.602   3.555   2.323 -0.1806 -0.6064 -0.2806
 8061SOL    HW235646   1.639   3.599   2.460  0.3654 -0.5249 -0.4158
 8062SOL     OW35647   3.247   0.209   7.692  0.1741  0.2491 -0.2910
 8062SOL    HW135648   3.203   0.142   7.639 -1.6876  1.6647 -0.5494
 8062SOL    HW235649   3.194   0.288   7.683 -0.9632 -0.1643  2.9992
 8063SOL     OW35650   3.188   1.200   3.650  0.2746  0.3389 -0.4828
 8063SOL    HW135651   3.191   1.288   3.689 -1.1000 -0.6127  1.7583
 8063SOL    HW235652   3.145   1.230   3.570  0.3914  2.9630  0.4376
 8064SOL     OW35653   0.009   3.080   9.140  0.4160  0.4522 -0.3435
 8064SOL    HW135654   4.661   3.025   9.112  0.0785  0.3723  0.6943
 8064SOL    HW235655   0.085   3.031   9.107  0.1679 -0.2534  0.1187
 8065SOL     OW35656   2.269   0.767   5.811  0.0239 -0.2935  0.1184
 8065SOL    HW135657   2.178   0.741   5.797 -0.1698 -0.5466  1.9061
 8065SOL    HW235658   2.297   0.776   5.719 -0.0869  0.3216  0.1478
 8066SOL     OW35659   0.348   2.091   8.008 -0.4239 -0.0192 -0.3552
 8066SOL    HW135660   0.312   2.096   8.096 -0.7650 -0.8296 -0.4492
 8066SOL    HW235661   0.438   2.117   8.029 -0.2351 -0.4334 -0.6532
 8067SOL     OW35662   0.212   1.949   4.777 -0.0175 -0.0241 -0.5190
 8067SOL    HW135663   0.168   1.942   4.692 -1.9277  2.4447  0.2778
 8067SOL    HW235664   0.184   1.870   4.823 -0.4930  1.0786  1.0860
 8068SOL     OW35665   2.565   4.614   4.360 -0.7184 -0.3271 -0.2159
 8068SOL    HW135666   2.538   4.536   4.311  1.4523  0.7956 -3.2175
 8068SOL    HW235667   2.527   4.689   4.315  1.0787  0.3660 -0.6099
 8069SOL     OW35668   0.734   2.944   2.856  0.7423  0.1716 -0.6850
 8069SOL    HW135669   0.710   2.974   2.769  0.7069 -0.7695 -0.9908
 8069SOL    HW235670   0.682   2.865   2.866 -0.0960  0.4369 -3.0094
 8070SOL     OW35671   2.961   4.451   0.434 -0.1909 -0.6091 -0.2050
 8070SOL    HW135672   2.927   4.539   0.449 -1.8201 -1.2083 -0.3580
 8070SOL    HW235673   3.049   4.472   0.401 -0.2129  0.5932  0.5080
 8071SOL     OW35674   2.896   4.126   4.961 -0.0569  0.5694 -0.2667
 8071SOL    HW135675   2.918   4.067   5.033  2.3947  2.2861  0.4174
 8071SOL    HW235676   2.811   4.092   4.935 -1.3990  1.9901  2.1949
 8072SOL     OW35677   1.658   3.745   8.265 -0.1946 -0.0445 -0.3933
 8072SOL    HW135678   1.742   3.760   8.221  0.8032  1.3090  1.9949
 8072SOL    HW235679   1.698   3.702   8.340 -1.4115  2.0721  1.4524
 8073SOL     OW35680   0.048   2.958   3.880 -0.0416  0.1918  0.0478
 8073SOL    HW135681   0.004   2.902   3.817  3.1809 -1.5686 -0.6318
 8073SOL    HW235682   0.134   2.918   3.897 -1.5599 -3.8801 -2.1031
 8074SOL     OW35683   3.953   4.375   4.868  0.3270 -0.1683 -0.4906
 8074SOL    HW135684   3.869   4.356   4.909  0.4973  3.2286  1.5105
 8074SOL    HW235685   3.950   4.470   4.857  1.7311 -0.1367 -0.6370
 8075SOL     OW35686   1.323   0.891  14.713  0.4825 -0.0135  0.0862
 8075SOL    HW135687   1.241   0.860  14.675  0.9209 -0.0416 -0.8415
 8075SOL    HW235688   1.332   0.975  14.668 -1.0770  1.0328  1.7551
 8076SOL     OW35689   0.396   0.311  16.767  0.0839 -0.2859  0.2991
 8076SOL    HW135690   0.326   0.376  16.775  1.0592  0.9021 -0.8770
 8076SOL    HW235691   0.350   0.227  16.764  1.7053 -1.2012  1.6228
 8077SOL     OW35692   0.277   2.755   3.273  0.2299 -0.3572  0.5082
 8077SOL    HW135693   0.291   2.801   3.355  0.4776  1.6743 -0.6715
 8077SOL    HW235694   0.349   2.797   3.226  0.3564 -1.7485 -0.5393
 8078SOL     OW35695   4.693   0.123   9.544 -0.3750 -0.2774 -0.2934
 8078SOL    HW135696   0.011   0.138   9.628  1.2956  0.6434 -1.3062
 8078SOL    HW235697   4.696   0.028   9.533 -1.5981 -0.0476 -2.6872
 8079SOL     OW35698   4.064   1.341   4.350  0.0024  0.3339  0.4186
 8079SOL    HW135699   4.014   1.260   4.346  0.2449  0.1197  1.8243
 8079SOL    HW235700   4.119   1.338   4.428  1.4641 -0.1927 -0.6351
 8080SOL     OW35701   2.943   1.305   5.293 -0.1659  0.7178 -0.2900
 8080SOL    HW135702   2.918   1.379   5.238  0.0454  1.0383  0.0403
 8080SOL    HW235703   3.035   1.299   5.266  0.4693 -1.1584  2.3714
 8081SOL     OW35704   4.364   1.651  10.498 -0.7653  0.9858 -0.2265
 8081SOL    HW135705   4.396   1.650  10.589 -0.9484 -2.6346 -0.1983
 8081SOL    HW235706   4.397   1.569  10.461  2.0884  1.8212  0.4063
 8082SOL     OW35707   4.077   4.435   1.565  0.0969 -0.3234 -0.4481
 8082SOL    HW135708   4.049   4.376   1.635  3.3815  0.5533  1.6217
 8082SOL    HW235709   4.087   4.512   1.622 -1.6263  0.0459 -0.6240
 8083SOL     OW35710   0.187   3.385  13.932 -0.5803 -0.3657 -0.1765
 8083SOL    HW135711   0.222   3.409  14.017 -1.0556 -1.0162  0.2056
 8083SOL    HW235712   0.269   3.399  13.886 -0.1622 -2.1103  0.0250
 8084SOL     OW35713   1.987   0.911   6.945  0.5952  0.2462 -0.3041
 8084SOL    HW135714   1.915   0.973   6.956 -0.0539 -0.6435  0.4433
 8084SOL    HW235715   1.939   0.843   6.897  1.1209 -0.4942  0.2067
 8085SOL     OW35716   4.353   2.864  16.917 -0.1169  0.2986 -0.2447
 8085SOL    HW135717   4.407   2.830  16.845 -0.6561 -1.3350  0.1231
 8085SOL    HW235718   4.395   2.950  16.925 -0.7152  0.5616  0.0320
 8086SOL     OW35719   3.797   3.194   8.629 -0.7066 -0.1785 -0.0356
 8086SOL    HW135720   3.818   3.259   8.696  1.5777  0.4069 -1.3298
 8086SOL    HW235721   3.702   3.191   8.638 -0.6792  3.5587  1.5665
 8087SOL     OW35722   4.359   0.643   7.829 -0.3807 -0.1991 -0.2388
 8087SOL    HW135723   4.449   0.619   7.849 -0.7678 -1.6709 -0.3129
 8087SOL    HW235724   4.349   0.731   7.868  1.2098 -0.5011  0.8413
 8088SOL     OW35725   2.381   2.153   4.617  0.3272 -0.2260 -0.2627
 8088SOL    HW135726   2.430   2.213   4.561 -0.6640  0.1330 -0.7393
 8088SOL    HW235727   2.350   2.097   4.546  4.9862  0.1415 -2.5857
 8089SOL     OW35728   3.278   0.702   1.129  0.1016  0.0977 -0.2461
 8089SOL    HW135729   3.315   0.789   1.142 -1.4682  1.2158 -3.2305
 8089SOL    HW235730   3.247   0.677   1.216 -0.8407  2.6352  0.1424
 8090SOL     OW35731   3.398   0.815   6.543 -0.4817 -0.5973 -0.5783
 8090SOL    HW135732   3.430   0.825   6.453 -0.7360 -0.1719 -0.6214
 8090SOL    HW235733   3.306   0.799   6.525 -0.5789  0.8340 -1.3879
 8091SOL     OW35734   4.557   1.977   5.989 -0.3221 -0.2159 -0.1387
 8091SOL    HW135735   4.501   2.018   5.923  0.7783  0.2140 -0.8043
 8091SOL    HW235736   4.507   1.900   6.015 -0.6550  0.2170  0.4916
 8092SOL     OW35737   0.043   0.650   8.639  0.0118  0.0537  0.0591
 8092SOL    HW135738   0.050   0.605   8.723  0.9998  1.9491  0.9872
 8092SOL    HW235739   4.716   0.729   8.658 -0.3239 -1.0794  3.8433
 8093SOL     OW35740   0.461   2.638  16.368  0.6329  0.5119  0.0910
 8093SOL    HW135741   0.453   2.634  16.273  0.7417  3.5669 -0.0252
 8093SOL    HW235742   0.519   2.562  16.380 -0.7864 -0.0952  3.1623
 8094SOL     OW35743   3.761   0.498   6.871  0.4419 -0.3268  0.0641
 8094SOL    HW135744   3.830   0.559   6.847  1.4323 -1.1345  0.8835
 8094SOL    HW235745   3.806   0.448   6.939  1.3281  1.0361  0.4671
 8095SOL     OW35746   0.047   1.397   4.106 -0.1418 -0.0463  0.2793
 8095SOL    HW135747   4.707   1.457   4.145 -1.2276  0.3691 -2.1751
 8095SOL    HW235748   0.131   1.437   4.126  1.2556 -1.9140 -1.9212
 8096SOL     OW35749   2.941   4.319   6.486  0.2452 -0.2065 -0.6963
 8096SOL    HW135750   3.019   4.315   6.540  1.2055  4.0648 -1.8180
 8096SOL    HW235751   2.887   4.255   6.532 -0.3127  1.5410  1.0440
 8097SOL     OW35752   1.717   2.327  16.011 -0.5366 -0.3712  0.0131
 8097SOL    HW135753   1.700   2.388  16.083 -4.1841  0.3834 -1.5046
 8097SOL    HW235754   1.704   2.386  15.937  0.7007 -2.7091 -2.0472
 8098SOL     OW35755   3.734   1.634   1.308 -0.4537 -0.2404 -0.3167
 8098SOL    HW135756   3.754   1.657   1.398  2.1962 -2.0320 -0.4338
 8098SOL    HW235757   3.652   1.587   1.322 -0.3678 -0.1377  0.5076
 8099SOL     OW35758   1.172   3.689   4.168 -0.6111  0.1555 -0.4223
 8099SOL    HW135759   1.082   3.675   4.140 -0.3724 -2.1031  0.0012
 8099SOL    HW235760   1.172   3.678   4.263 -3.4950 -1.4811 -0.6113
 8100SOL     OW35761   0.981   1.918   6.451 -0.0199 -0.1088  0.1881
 8100SOL    HW135762   0.937   1.996   6.485  2.4727  2.1137 -1.6131
 8100SOL    HW235763   1.065   1.923   6.497 -0.7016 -0.9484  1.5124
 8101SOL     OW35764   1.394   4.364  13.591  0.3886 -0.1113  0.4958
 8101SOL    HW135765   1.448   4.288  13.567 -0.4739 -0.4313 -0.4501
 8101SOL    HW235766   1.338   4.363  13.513 -1.2544  2.0073  1.6657
 8102SOL     OW35767   0.726   3.636   6.632 -0.0656  0.2019 -0.1352
 8102SOL    HW135768   0.771   3.662   6.712  0.9550 -3.0132  0.3388
 8102SOL    HW235769   0.684   3.720   6.612  0.3039  1.1268  3.0881
 8103SOL     OW35770   2.884   0.361   5.217 -0.0250 -0.2652 -0.0356
 8103SOL    HW135771   2.876   0.454   5.241 -0.8717 -0.4077  0.2239
 8103SOL    HW235772   2.967   0.339   5.260  0.8470  1.9503 -0.5709
 8104SOL     OW35773   0.181   1.653   3.196 -0.4938 -0.4875 -0.1268
 8104SOL    HW135774   0.256   1.613   3.153 -0.9263  0.0310 -1.3731
 8104SOL    HW235775   0.191   1.737   3.153 -2.1903  0.7364  1.8786
 8105SOL     OW35776   2.694   1.132   3.776 -0.0990  0.1000  0.3790
 8105SOL    HW135777   2.629   1.160   3.840 -1.5418 -0.5265 -0.8103
 8105SOL    HW235778   2.730   1.214   3.742  0.3440 -0.1259  0.2871
 8106SOL     OW35779   2.170   2.012   6.012  0.0842  0.0402  0.0051
 8106SOL    HW135780   2.248   1.996   6.066  0.5984 -0.6521 -0.9385
 8106SOL    HW235781   2.197   1.975   5.928  3.5701 -1.6724  1.8915
 8107SOL     OW35782   4.133   2.794   8.241  0.1368 -0.5446 -0.4135
 8107SOL    HW135783   4.046   2.823   8.210  0.2470 -0.0304 -0.2498
 8107SOL    HW235784   4.103   2.741   8.315  0.8212  0.2462  0.4258
 8108SOL     OW35785   0.102   2.192   3.451  0.0379 -0.3146  0.7754
 8108SOL    HW135786   0.181   2.138   3.458  0.0497  0.0021  3.0237
 8108SOL    HW235787   0.127   2.279   3.483  1.6017 -0.3694 -0.3085
 8109SOL     OW35788   1.706   4.482  12.413  0.8594  0.3539  0.3534
 8109SOL    HW135789   1.673   4.398  12.381  0.7294  0.6828 -0.3864
 8109SOL    HW235790   1.680   4.468  12.504 -0.0878  0.4760  0.1011
 8110SOL     OW35791   0.311   2.881   3.523  0.3254  0.3709 -0.1185
 8110SOL    HW135792   0.270   2.966   3.541  0.3762  0.1125  1.2449
 8110SOL    HW235793   0.282   2.823   3.594  1.1274  0.1830  0.0569
 8111SOL     OW35794   4.452   1.115   2.189  0.2410 -0.0223 -0.4035
 8111SOL    HW135795   4.426   1.206   2.177  1.8254  0.4298 -0.4442
 8111SOL    HW235796   4.399   1.097   2.266  1.4866  0.7985  0.6485
 8112SOL     OW35797   3.911   2.870  12.449 -0.1718 -0.1368 -0.0233
 8112SOL    HW135798   3.871   2.811  12.385 -1.0655 -1.7729  2.0252
 8112SOL    HW235799   3.937   2.808  12.517  0.4367 -1.1772 -1.1911
 8113SOL     OW35800   2.414   0.951   0.878 -0.1088  0.4240  0.4973
 8113SOL    HW135801   2.336   0.954   0.932 -0.0409  1.6215  0.5342
 8113SOL    HW235802   2.380   0.994   0.799  2.7267  0.7613 -0.5503
 8114SOL     OW35803   1.465   4.472   6.931 -0.4558  0.0615 -0.0656
 8114SOL    HW135804   1.397   4.539   6.924  1.3318  1.9901  1.0566
 8114SOL    HW235805   1.501   4.478   6.842  0.1110  1.7173  0.2867
 8115SOL     OW35806   2.978   3.360   6.360  0.0117 -0.0498 -0.1543
 8115SOL    HW135807   3.026   3.350   6.277 -0.1365 -1.6703 -0.0511
 8115SOL    HW235808   3.047   3.399   6.413 -0.1224  0.6703 -0.5138
 8116SOL     OW35809   1.605   2.180  10.927 -0.4048  0.6694 -0.0994
 8116SOL    HW135810   1.544   2.187  11.000 -0.3073 -0.6911  0.1203
 8116SOL    HW235811   1.623   2.274  10.927  0.1291  0.5675  1.5553
 8117SOL     OW35812   1.450   4.274   8.451  0.1817  0.4886 -0.4149
 8117SOL    HW135813   1.453   4.179   8.461 -2.2398  0.4751  0.1493
 8117SOL    HW235814   1.357   4.294   8.462  0.0707  0.7749 -1.8402
 8118SOL     OW35815   1.715   0.288   8.500 -0.0038  0.5539  0.2337
 8118SOL    HW135816   1.805   0.302   8.472 -0.0647 -0.3111 -0.4085
 8118SOL    HW235817   1.708   0.343   8.578 -2.9642 -2.1008  1.8607
 8119SOL     OW35818   0.190   2.859   9.338  0.1497 -0.2844 -0.1898
 8119SOL    HW135819   0.281   2.840   9.360  0.5270  0.0451 -1.5058
 8119SOL    HW235820   0.189   2.863   9.243  4.0957  1.0193 -0.1383
 8120SOL     OW35821   2.206   1.691   2.340  0.1508 -0.4722 -0.1320
 8120SOL    HW135822   2.129   1.744   2.360  0.1867 -1.3119  2.2079
 8120SOL    HW235823   2.204   1.675   2.245 -0.0886 -3.2942  0.3419
 8121SOL     OW35824   3.388   3.534  11.711  0.9164  0.1704  0.9051
 8121SOL    HW135825   3.318   3.535  11.777 -0.3968  0.5063 -0.4980
 8121SOL    HW235826   3.351   3.603  11.656  1.5451  0.5029  0.8998
 8122SOL     OW35827   0.230   0.063  16.709 -0.3092 -0.1391  0.1233
 8122SOL    HW135828   0.259   0.057  16.618  1.7467  1.1968  0.6946
 8122SOL    HW235829   0.135   0.069  16.698 -0.2292 -0.5535 -0.7957
 8123SOL     OW35830   3.354   1.496  15.936  0.0432  0.2269 -1.1992
 8123SOL    HW135831   3.278   1.439  15.947  0.4567  0.1432  1.1865
 8123SOL    HW235832   3.352   1.515  15.842  2.2701 -1.5099 -1.5885
 8124SOL     OW35833   1.073   4.384   5.704  0.3648 -0.0182 -0.1696
 8124SOL    HW135834   0.990   4.365   5.750  0.6156  1.1943  0.7831
 8124SOL    HW235835   1.072   4.297   5.663 -0.2417 -0.6584  1.1824
 8125SOL     OW35836   1.241   2.271  16.991 -0.3108  0.9348  0.6886
 8125SOL    HW135837   1.304   2.218  17.039 -1.1265 -0.3812  0.3119
 8125SOL    HW235838   1.156   2.230  17.008 -0.3182  1.1533  1.1637
 8126SOL     OW35839   3.391   2.640   1.197 -0.3246  0.4260  0.4586
 8126SOL    HW135840   3.446   2.581   1.146  1.4482  2.1575  0.3321
 8126SOL    HW235841   3.463   2.684   1.242  0.8917 -0.1501 -0.9297
 8127SOL     OW35842   2.957   0.881   3.102 -0.2122  0.0196  0.3182
 8127SOL    HW135843   3.001   0.895   3.018  0.5422  1.1773  0.9072
 8127SOL    HW235844   2.979   0.789   3.115 -3.2525 -0.9823 -1.7649
 8128SOL     OW35845   1.435   1.468  10.401 -0.1167 -0.2988 -0.4406
 8128SOL    HW135846   1.515   1.479  10.453 -0.1154 -1.3765 -0.2150
 8128SOL    HW235847   1.476   1.457  10.315  0.3866  0.4167 -0.2899
 8129SOL     OW35848   3.879   0.773   8.463  0.3413 -0.1002  0.7086
 8129SOL    HW135849   3.890   0.849   8.406 -1.4483 -1.5840 -1.5872
 8129SOL    HW235850   3.967   0.735   8.472 -0.2571 -1.5600  0.4097
 8130SOL     OW35851   2.956   3.404   4.519  0.4250 -0.0523  0.5964
 8130SOL    HW135852   2.946   3.496   4.494  0.2100 -0.2574 -0.0968
 8130SOL    HW235853   2.969   3.396   4.613  3.5041 -1.7105  0.0573
 8131SOL     OW35854   1.604   2.913  14.799  0.0547  0.1066  0.5160
 8131SOL    HW135855   1.577   3.005  14.811  2.7316  0.8929  0.5234
 8131SOL    HW235856   1.674   2.909  14.734  0.7527 -2.3903  1.4530
 8132SOL     OW35857   0.834   0.568   8.056  0.1992  0.0180  0.2890
 8132SOL    HW135858   0.805   0.616   7.979  0.1888  0.3165  0.4779
 8132SOL    HW235859   0.751   0.566   8.104  0.3242  0.5894  0.5283
 8133SOL     OW35860   1.273   4.016   3.176  0.1080 -0.0629 -0.5669
 8133SOL    HW135861   1.252   3.990   3.087 -2.2944  0.3991 -0.1257
 8133SOL    HW235862   1.282   4.111   3.168  1.0786 -0.0784  0.1864
 8134SOL     OW35863   1.509   1.522   9.783  0.1897  0.0389 -0.1904
 8134SOL    HW135864   1.540   1.589   9.722 -2.6548  0.2233 -1.4536
 8134SOL    HW235865   1.569   1.452   9.758  0.3783  0.7722 -1.8192
 8135SOL     OW35866   0.713   2.938   3.892  0.1220  0.1953 -0.3053
 8135SOL    HW135867   0.801   2.943   3.854  1.5422  0.6334  3.0054
 8135SOL    HW235868   0.653   2.986   3.835  0.7252 -0.1782 -1.2399
 8136SOL     OW35869   3.403   3.011  11.601  0.0550  0.3053  0.1128
 8136SOL    HW135870   3.329   3.071  11.589 -0.0678 -0.0884 -1.0996
 8136SOL    HW235871   3.423   3.005  11.508 -1.6505  3.8213 -0.4724
 8137SOL     OW35872   1.307   4.431   9.623 -0.4322 -0.1528  0.5834
 8137SOL    HW135873   1.214   4.430   9.648 -0.5529  2.3723  0.2292
 8137SOL    HW235874   1.305   4.422   9.528  2.6571  1.2344  0.4009
 8138SOL     OW35875   2.042   1.053   8.567  0.4935  0.3017  0.0448
 8138SOL    HW135876   2.041   1.053   8.662  1.8316 -0.0879  0.0660
 8138SOL    HW235877   2.001   1.138   8.551  1.5081  0.6853 -0.4943
 8139SOL     OW35878   0.866   3.223  15.451 -0.5096 -1.1334 -0.0771
 8139SOL    HW135879   0.854   3.298  15.393 -1.5962 -0.1862  1.3774
 8139SOL    HW235880   0.923   3.164  15.402  1.5079 -1.1834  2.2921
 8140SOL     OW35881   3.399   4.181  10.280 -0.1755 -0.1465  0.2380
 8140SOL    HW135882   3.448   4.236  10.218  0.8280 -1.4090 -0.0790
 8140SOL    HW235883   3.368   4.119  10.213 -0.5816  0.2788  0.0290
 8141SOL     OW35884   4.629   1.928   9.176  0.8762 -0.1788 -0.2255
 8141SOL    HW135885   4.668   1.939   9.263  0.4975  1.9089 -0.3289
 8141SOL    HW235886   4.549   1.884   9.205  0.0644  1.1768 -0.4128
 8142SOL     OW35887   3.351   0.980   4.174 -0.4425  0.0804  0.4626
 8142SOL    HW135888   3.405   1.046   4.130  0.5571  0.4241  2.2166
 8142SOL    HW235889   3.273   1.030   4.197 -0.2192  0.7000 -0.1178
 8143SOL     OW35890   3.399   1.413   7.131  0.2564 -0.1265 -0.2154
 8143SOL    HW135891   3.367   1.323   7.142 -0.4313 -0.0693 -1.7271
 8143SOL    HW235892   3.465   1.418   7.199  1.8290  1.1725 -1.8682
 8144SOL     OW35893   1.116   0.199   8.297  0.1838  0.0717 -0.4070
 8144SOL    HW135894   1.053   0.128   8.293 -1.0770  1.1089  0.8710
 8144SOL    HW235895   1.117   0.219   8.204  0.3615 -0.1342 -0.4491
 8145SOL     OW35896   3.839   3.177   2.330  0.3911 -0.0441 -0.8170
 8145SOL    HW135897   3.880   3.157   2.246 -0.7460  2.4372 -1.9552
 8145SOL    HW235898   3.856   3.271   2.338 -0.2019 -0.0759  0.7454
 8146SOL     OW35899   1.262   4.452   5.469  0.3591  0.0835  0.5220
 8146SOL    HW135900   1.312   4.532   5.486 -0.8597  1.0025 -0.2375
 8146SOL    HW235901   1.174   4.482   5.489 -0.5033 -1.4362 -0.9607
 8147SOL     OW35902   1.785   2.436   9.616  0.0972 -0.1594  0.4602
 8147SOL    HW135903   1.877   2.435   9.589 -0.2864  0.0338 -0.8805
 8147SOL    HW235904   1.760   2.519   9.574 -2.8714 -1.0230  0.5402
 8148SOL     OW35905   2.581   2.862   4.845 -0.1582 -0.2875  0.6127
 8148SOL    HW135906   2.572   2.956   4.832  0.5721 -0.0871  1.5591
 8148SOL    HW235907   2.572   2.841   4.752  0.2562 -1.4296  0.8295
 8149SOL     OW35908   1.858   1.883   2.756 -0.5502 -0.4980  0.5124
 8149SOL    HW135909   1.905   1.963   2.733 -0.5333 -0.5116  0.4996
 8149SOL    HW235910   1.801   1.880   2.679  0.4173  0.2094 -0.2302
 8150SOL     OW35911   2.724   0.144   8.250  0.2541 -0.0418 -0.3872
 8150SOL    HW135912   2.685   0.137   8.163 -1.6999  1.1173  0.3889
 8150SOL    HW235913   2.662   0.092   8.301 -1.2318  0.3879 -1.7426
 8151SOL     OW35914   2.236   0.730   2.405 -0.4031 -0.0486 -0.1306
 8151SOL    HW135915   2.216   0.760   2.316  1.4621  3.7775  0.7244
 8151SOL    HW235916   2.327   0.760   2.401 -0.8112  1.1632 -0.2479
 8152SOL     OW35917   2.739   3.984   6.126  0.6723  0.2135 -0.2368
 8152SOL    HW135918   2.780   3.930   6.058 -0.1239 -1.4098  0.5685
 8152SOL    HW235919   2.666   3.931   6.160 -0.2338  2.3576  1.1277
 8153SOL     OW35920   3.869   2.650  12.295 -0.1205  0.5900 -0.0838
 8153SOL    HW135921   3.901   2.566  12.329  1.8816  1.0137 -0.8848
 8153SOL    HW235922   3.776   2.634  12.310 -0.6671  2.5414 -1.3621
 8154SOL     OW35923   2.784   0.787   6.956  0.0605  0.0548  0.4740
 8154SOL    HW135924   2.876   0.808   6.937  0.4093 -1.5499  0.3805
 8154SOL    HW235925   2.768   0.845   7.031  1.7716 -0.0727  0.9446
 8155SOL     OW35926   2.469   1.908   7.084 -0.2695 -0.3489 -0.2774
 8155SOL    HW135927   2.501   1.981   7.136  0.0555 -1.2033  0.7299
 8155SOL    HW235928   2.424   1.956   7.016 -0.3385 -0.4632 -0.3125
 8156SOL     OW35929   0.716   2.765   3.268 -0.1426  0.5250  0.4196
 8156SOL    HW135930   0.630   2.791   3.235 -0.2688 -1.4000 -0.7692
 8156SOL    HW235931   0.774   2.771   3.192 -1.6604 -0.7726 -0.8378
 8157SOL     OW35932   0.468   2.314   7.303  0.0366  0.0099  0.0941
 8157SOL    HW135933   0.439   2.394   7.346  1.7018  0.5502  0.2169
 8157SOL    HW235934   0.443   2.246   7.367  0.5243  2.0025  2.4217
 8158SOL     OW35935   0.395   3.385   2.564  0.0419 -0.2412  0.1652
 8158SOL    HW135936   0.332   3.429   2.507  2.3815  0.4387 -1.8897
 8158SOL    HW235937   0.466   3.378   2.500  0.3065  0.0658  0.4279
 8159SOL     OW35938   1.012   3.393   2.375  0.3509  0.1930 -0.3232
 8159SOL    HW135939   1.055   3.446   2.443  0.9873 -1.6773  0.7141
 8159SOL    HW235940   1.093   3.355   2.340  0.0880 -0.2886 -0.4024
 8160SOL     OW35941   3.971   1.495  16.516  0.0785  0.2787 -0.2114
 8160SOL    HW135942   4.034   1.567  16.515  0.9158 -0.4868 -2.7428
 8160SOL    HW235943   3.916   1.532  16.585  0.5585  0.1890  0.2225
 8161SOL     OW35944   0.488   0.026   8.247  0.0175  0.0443 -0.3555
 8161SOL    HW135945   0.543   0.079   8.189 -0.1657 -0.0622 -0.6204
 8161SOL    HW235946   0.522   0.045   8.335  2.1158  3.0309 -1.8017
 8162SOL     OW35947   1.267   0.119   0.122 -0.0543  0.0969 -0.0433
 8162SOL    HW135948   1.334   0.183   0.099 -0.3553  0.6529  0.6218
 8162SOL    HW235949   1.240   0.082   0.038 -0.0443  3.2925 -1.4797
 8163SOL     OW35950   0.790   2.065   0.487  0.2689  0.5199 -0.0810
 8163SOL    HW135951   0.825   2.071   0.576  0.0486  0.2546  0.0213
 8163SOL    HW235952   0.752   2.153   0.485 -2.4120 -0.6025  2.2266
 8164SOL     OW35953   0.842   2.313   3.572  0.4068 -0.4236  0.2395
 8164SOL    HW135954   0.930   2.351   3.571  0.7331 -1.0862  2.5719
 8164SOL    HW235955   0.780   2.384   3.556  2.1228  1.1466  0.4929
 8165SOL     OW35956   4.515   1.901  15.731  0.5422 -0.4030  0.0250
 8165SOL    HW135957   4.431   1.945  15.722  1.0207  0.6163  0.5271
 8165SOL    HW235958   4.501   1.861  15.817  0.4832 -0.0447  0.1825
 8166SOL     OW35959   2.276   2.283   7.011  0.1704 -0.0964  0.4958
 8166SOL    HW135960   2.207   2.266   7.075 -0.6191  0.5930 -0.1759
 8166SOL    HW235961   2.263   2.201   6.963  2.4272  0.0487 -0.3609
 8167SOL     OW35962   0.638   2.046   8.970  0.3579  0.1468  0.6551
 8167SOL    HW135963   0.621   2.121   9.027  1.2049 -0.3197  1.5215
 8167SOL    HW235964   0.644   1.981   9.039 -0.2423  0.5292  1.0679
 8168SOL     OW35965   4.561   4.604   8.802  0.3392  0.8302 -0.3374
 8168SOL    HW135966   4.483   4.610   8.856 -0.4638  0.5508 -1.4609
 8168SOL    HW235967   4.533   4.641   8.718 -2.7999  0.5284  0.6013
 8169SOL     OW35968   2.130   0.431   4.768 -0.6291  0.4582  0.0397
 8169SOL    HW135969   2.082   0.444   4.687 -0.0784  1.0965 -0.1844
 8169SOL    HW235970   2.054   0.453   4.822 -0.8578  0.8157 -0.4305
 8170SOL     OW35971   1.082   0.094   2.654 -0.1384 -0.9758 -0.3065
 8170SOL    HW135972   0.992   0.091   2.622  0.3773 -3.4369 -1.5643
 8170SOL    HW235973   1.058   0.145   2.731  2.5825  0.2666 -0.2719
 8171SOL     OW35974   2.195   1.143   7.248 -0.2668 -0.0042  0.5536
 8171SOL    HW135975   2.209   1.216   7.189 -2.0138 -0.2476 -0.1804
 8171SOL    HW235976   2.196   1.069   7.187  1.6757  0.8199 -0.3758
 8172SOL     OW35977   0.991   2.625  11.833 -0.0185  0.1992 -0.7182
 8172SOL    HW135978   1.026   2.570  11.903 -0.8328  0.8438  0.1792
 8172SOL    HW235979   1.060   2.605  11.769  0.1067 -3.1183  0.4377
 8173SOL     OW35980   0.369   0.073   6.468  0.1256 -0.2675 -0.0676
 8173SOL    HW135981   0.457   0.096   6.438 -0.8616  0.0665 -2.7243
 8173SOL    HW235982   0.333   0.155   6.435  1.5487 -0.2284 -1.5587
 8174SOL     OW35983   0.604   1.104   3.738 -0.2645 -0.5249  0.2302
 8174SOL    HW135984   0.673   1.060   3.788 -0.5437 -1.4013 -0.1512
 8174SOL    HW235985   0.554   1.028   3.709 -2.4237  0.8324  0.4352
 8175SOL     OW35986   3.207   3.768   7.084  0.0042 -0.5799  0.4641
 8175SOL    HW135987   3.184   3.816   7.004  0.3012  2.9813  2.5222
 8175SOL    HW235988   3.280   3.817   7.121  0.8916 -0.4991 -1.3741
 8176SOL     OW35989   2.685   0.775   8.983 -0.4174  0.1909 -0.3573
 8176SOL    HW135990   2.769   0.766   9.028 -1.4883  0.3716  1.6490
 8176SOL    HW235991   2.645   0.709   9.038 -0.4395  0.5378  0.0424
 8177SOL     OW35992   3.941   0.573   4.177  0.4137  0.2782  0.1156
 8177SOL    HW135993   3.986   0.578   4.092  2.1646  1.9667  1.1426
 8177SOL    HW235994   3.962   0.479   4.186 -1.2262 -0.0342  0.6259
 8178SOL     OW35995   3.971   0.044   7.157  0.0211  0.1947 -0.3270
 8178SOL    HW135996   4.044   0.090   7.197 -0.9269  0.5913  0.9433
 8178SOL    HW235997   4.007   4.682   7.177  0.1138  0.6083  1.2801
 8179SOL     OW35998   2.949   0.596  11.878 -0.6032 -0.0139  0.4233
 8179SOL    HW135999   2.942   0.601  11.974 -0.1296  1.3484  0.3934
 8179SOL    HW236000   3.042   0.605  11.858 -1.0626  1.5895 -1.0168
 8180SOL     OW36001   0.456   3.349  13.179  0.1675 -0.1660  0.2596
 8180SOL    HW136002   0.472   3.256  13.193 -0.4320 -0.0577  1.6348
 8180SOL    HW236003   0.444   3.347  13.084 -2.4100  0.2965  0.5649
 8181SOL     OW36004   3.998   1.455  12.249 -0.0667 -0.0402 -0.2255
 8181SOL    HW136005   4.036   1.517  12.187 -2.1328  1.1718 -0.2926
 8181SOL    HW236006   4.080   1.443  12.297  1.0914  0.3085 -2.1051
 8182SOL     OW36007   0.831   2.510  13.384  0.0718  0.2726  0.4462
 8182SOL    HW136008   0.767   2.545  13.446 -0.2829 -0.7884  0.6679
 8182SOL    HW236009   0.904   2.486  13.440 -0.5086  0.9062  1.4666
 8183SOL     OW36010   1.882   3.612   8.402 -0.4666 -0.1519 -0.1487
 8183SOL    HW136011   1.817   3.623   8.471  2.2158  0.3787  2.2834
 8183SOL    HW236012   1.942   3.552   8.445  0.6731 -0.8696 -2.7429
 8184SOL     OW36013   4.106   4.077   2.917  0.5806  0.5588  0.3175
 8184SOL    HW136014   4.178   4.022   2.947 -0.7352 -0.6396  1.2845
 8184SOL    HW236015   4.077   4.019   2.846 -2.1922  2.0920  0.2023
 8185SOL     OW36016   2.045   3.685   2.922 -1.0345  0.4566  0.2139
 8185SOL    HW136017   2.122   3.693   2.865 -0.1867  0.2359  1.3252
 8185SOL    HW236018   2.084   3.616   2.976 -1.6192 -0.8809 -1.0682
 8186SOL     OW36019   4.218   0.338   3.377 -0.1468 -0.3796  0.3798
 8186SOL    HW136020   4.221   0.254   3.423 -1.8453  0.1895  1.5337
 8186SOL    HW236021   4.272   0.395   3.431 -0.7668  0.0709  0.5229
 8187SOL     OW36022   3.869   2.238  13.690  0.1774  0.2104  0.4855
 8187SOL    HW136023   3.925   2.162  13.706  2.1571  1.2594 -1.6244
 8187SOL    HW236024   3.798   2.194  13.644  0.8381 -2.4237  1.9289
 8188SOL     OW36025   2.934   0.248  13.947 -0.1754  0.0033  0.0245
 8188SOL    HW136026   2.853   0.293  13.972 -0.0311 -0.3074  1.0776
 8188SOL    HW236027   2.989   0.274  14.022 -0.9304  1.3671  0.1003
 8189SOL     OW36028   2.896   0.598  12.142  0.1400 -0.0802 -0.2082
 8189SOL    HW136029   2.875   0.553  12.224 -0.7188 -1.7459 -1.3305
 8189SOL    HW236030   2.905   0.691  12.163 -1.9460 -0.3662  2.0040
 8190SOL     OW36031   2.975   2.963   1.388  0.2652  0.1097  0.4390
 8190SOL    HW136032   2.941   3.008   1.465 -0.8587 -0.5592  0.3360
 8190SOL    HW236033   2.909   2.979   1.320  0.8891  0.9774  0.0481
 8191SOL     OW36034   4.333   1.072   2.841 -0.3370 -0.3167 -0.5602
 8191SOL    HW136035   4.410   1.093   2.788  1.1195  2.5727  2.6743
 8191SOL    HW236036   4.280   1.151   2.833  0.4827  0.3924  0.8665
 8192SOL     OW36037   0.179   1.081   2.430  0.7151 -0.1901  0.5513
 8192SOL    HW136038   0.213   1.005   2.384  3.5140  0.0412  2.1993
 8192SOL    HW236039   0.240   1.151   2.406 -0.3495  0.8787  0.9385
 8193SOL     OW36040   2.264   4.716   1.368  0.3098  0.1049 -0.6260
 8193SOL    HW136041   2.232   0.070   1.412  0.1690 -0.7068  0.7303
 8193SOL    HW236042   2.353   4.722   1.404  0.6296 -1.4105 -1.1578
 8194SOL     OW36043   3.366   2.020   7.557 -0.1500 -0.4386  0.2674
 8194SOL    HW136044   3.366   2.029   7.652  4.1410  0.4885  0.1762
 8194SOL    HW236045   3.460   2.013   7.539 -0.1228 -2.0034  1.0869
 8195SOL     OW36046   2.013   1.460   4.080  0.3017 -0.0833 -0.2829
 8195SOL    HW136047   2.055   1.405   4.014  0.9695  0.0466  0.0241
 8195SOL    HW236048   1.920   1.446   4.062  0.1091  0.1289  0.5386
 8196SOL     OW36049   0.014   0.499   4.143  0.3211  0.4020  0.0502
 8196SOL    HW136050   4.675   0.473   4.076  1.6424 -0.2232 -0.9649
 8196SOL    HW236051   0.078   0.430   4.124  0.4705  0.4830  0.2595
 8197SOL     OW36052   2.654   1.201   1.408 -0.5627 -0.3750 -0.3432
 8197SOL    HW136053   2.697   1.279   1.373  0.3494  1.0202  3.9651
 8197SOL    HW236054   2.596   1.187   1.333  1.6135 -1.7695 -1.7497
 8198SOL     OW36055   2.458   3.890   4.444  0.2473 -0.3857  0.1333
 8198SOL    HW136056   2.531   3.928   4.494  0.8684  2.3001 -2.8054
 8198SOL    HW236057   2.465   3.803   4.483 -0.1963  0.2613  1.6598
 8199SOL     OW36058   4.295   3.696   3.762 -0.1158  0.0413  0.1466
 8199SOL    HW136059   4.220   3.755   3.772  0.9835  0.8776  3.4399
 8199SOL    HW236060   4.315   3.695   3.668 -0.2221 -0.6810  0.1280
 8200SOL     OW36061   0.194   3.336   9.122 -0.2597  0.3598 -0.0031
 8200SOL    HW136062   0.219   3.338   9.030 -2.1457  1.0338 -0.4944
 8200SOL    HW236063   0.146   3.253   9.114 -0.4504  0.4542  0.1684
 8201SOL     OW36064   1.264   1.182   9.959 -0.3314 -0.0531  0.3133
 8201SOL    HW136065   1.279   1.154   9.868 -0.1262  2.6238 -0.4600
 8201SOL    HW236066   1.173   1.157   9.975 -0.4198  0.7684  1.0469
 8202SOL     OW36067   3.521   2.011   1.483 -0.3710 -0.1672 -0.0763
 8202SOL    HW136068   3.543   1.969   1.566  0.9041  1.2691  0.3066
 8202SOL    HW236069   3.482   1.937   1.436 -2.2742 -0.2624  1.6300
 8203SOL     OW36070   4.616   1.735   2.392  0.1005 -0.3021  0.1932
 8203SOL    HW136071   4.528   1.751   2.428  0.6577  0.0657  1.3888
 8203SOL    HW236072   4.667   1.787   2.454  2.5480 -0.1498 -1.9589
 8204SOL     OW36073   1.043   2.770   3.309 -0.6126 -0.1154  0.1273
 8204SOL    HW136074   1.016   2.855   3.341 -1.1731 -1.1438  2.3672
 8204SOL    HW236075   0.989   2.772   3.230  2.4686 -1.6354 -2.0131
 8205SOL     OW36076   2.029   1.139  14.382  0.3893  0.2993  0.4988
 8205SOL    HW136077   2.044   1.178  14.467  0.9360 -0.9752  0.9880
 8205SOL    HW236078   1.934   1.124  14.389  0.1458  1.4965 -0.2087
 8206SOL     OW36079   1.783   4.507   9.369  0.3616 -0.0060  0.4275
 8206SOL    HW136080   1.853   4.524   9.431 -0.1790 -0.9160  1.2897
 8206SOL    HW236081   1.706   4.531   9.420 -1.1388 -0.1031 -1.7767
 8207SOL     OW36082   1.774   1.540   4.606 -0.0765  0.2694 -0.7745
 8207SOL    HW136083   1.692   1.552   4.557 -0.6952 -0.3270  0.1177
 8207SOL    HW236084   1.830   1.543   4.528  0.9940  0.5381  0.0046
 8208SOL     OW36085   1.770   1.462   3.998 -0.8237  0.5609  0.5968
 8208SOL    HW136086   1.764   1.438   3.906  0.1729  2.6560 -0.0222
 8208SOL    HW236087   1.695   1.521   4.006 -0.2671  1.3544 -0.0421
 8209SOL     OW36088   2.492   4.663   5.447  0.1186 -0.4794  0.2187
 8209SOL    HW136089   2.550   4.593   5.418 -0.5324 -2.0981  2.7620
 8209SOL    HW236090   2.422   4.615   5.492 -0.4932  2.3666  2.3352
 8210SOL     OW36091   4.546   4.085   5.340 -0.3532  0.1881  0.4107
 8210SOL    HW136092   4.617   4.148   5.349 -0.7423  0.9332 -1.7151
 8210SOL    HW236093   4.595   4.004   5.327  0.9801  0.8444  1.4306
 8211SOL     OW36094   1.016   3.693   9.912  0.6415  0.1075  0.2807
 8211SOL    HW136095   1.026   3.682  10.007  1.8760  0.3502  0.1821
 8211SOL    HW236096   0.964   3.614   9.898  0.5109  0.1881  0.3182
 8212SOL     OW36097   1.858   4.130  13.744 -0.0333  0.2904  0.3380
 8212SOL    HW136098   1.765   4.106  13.738 -0.3256  1.4765  0.1521
 8212SOL    HW236099   1.895   4.078  13.672  0.8090 -0.1868  1.1154
 8213SOL     OW36100   2.522   1.385   7.166  0.3122  0.1375 -0.3083
 8213SOL    HW136101   2.610   1.412   7.192  0.1326  0.6898 -0.2749
 8213SOL    HW236102   2.543   1.304   7.119  0.6738  0.8581 -1.3914
 8214SOL     OW36103   3.568   0.068   8.061 -0.2277  0.0975 -0.5854
 8214SOL    HW136104   3.540   0.071   8.152 -1.1324  0.6101 -0.8735
 8214SOL    HW236105   3.483   0.056   8.017 -0.2426  0.0419 -0.5417
 8215SOL     OW36106   0.747   3.462   9.078  0.1053  0.0347  0.2526
 8215SOL    HW136107   0.692   3.539   9.066 -1.0975 -0.9114 -0.1830
 8215SOL    HW236108   0.764   3.461   9.173 -0.6711  1.8907  0.4034
 8216SOL     OW36109   3.871   1.565   3.956 -0.3233 -0.0221  0.3711
 8216SOL    HW136110   3.835   1.654   3.957 -0.2360  0.0041  3.2132
 8216SOL    HW236111   3.949   1.585   4.007  0.3249  1.9010 -1.3721
 8217SOL     OW36112   4.434   1.512  17.270  0.1847  0.1135  0.4250
 8217SOL    HW136113   4.433   1.608  17.270  0.5026  0.1176  1.6184
 8217SOL    HW236114   4.420   1.491  17.363  2.3177 -0.3369  0.6255
 8218SOL     OW36115   0.064   2.454  12.920  0.0672  0.0975 -0.4661
 8218SOL    HW136116   0.097   2.512  12.989 -0.2779 -0.0564 -0.1725
 8218SOL    HW236117   0.093   2.509  12.846  1.8500 -0.4118 -0.1575
 8219SOL     OW36118   3.287   4.288  12.889  0.3363 -0.1645  0.5956
 8219SOL    HW136119   3.336   4.249  12.962 -0.1386 -1.3365  0.2801
 8219SOL    HW236120   3.241   4.208  12.865 -0.1762  0.5978 -0.9226
 8220SOL     OW36121   2.588   1.341  17.298  0.0222 -0.2963  0.5207
 8220SOL    HW136122   2.580   1.403  17.226 -0.3128 -2.1276 -1.0142
 8220SOL    HW236123   2.613   1.262  17.249 -1.5114 -0.8827  0.6845
 8221SOL     OW36124   1.628   1.760   6.297 -0.0091 -0.1956 -0.0853
 8221SOL    HW136125   1.539   1.781   6.322 -0.1073 -0.8071  0.0892
 8221SOL    HW236126   1.637   1.768   6.202  0.2442  2.2216  0.1507
 8222SOL     OW36127   1.263   0.896   6.853  0.5147 -0.0697  0.2405
 8222SOL    HW136128   1.177   0.867   6.881  0.6746 -1.7971 -1.0612
 8222SOL    HW236129   1.271   0.968   6.916  0.1555 -2.1872  2.6791
 8223SOL     OW36130   2.646   1.756   7.510 -0.1301  0.1327  0.5512
 8223SOL    HW136131   2.739   1.751   7.492 -0.7781 -1.8764 -2.2054
 8223SOL    HW236132   2.644   1.775   7.604 -0.5593  0.1476  0.5388
 8224SOL     OW36133   3.654   2.586   9.585 -0.0885  0.2986 -0.3740
 8224SOL    HW136134   3.586   2.521   9.570  1.1138 -0.6390 -1.7325
 8224SOL    HW236135   3.603   2.657   9.625 -2.2832 -1.6551  0.2775
 8225SOL     OW36136   1.089   3.052   7.114 -0.4836  0.2733 -0.1165
 8225SOL    HW136137   1.065   3.045   7.207 -1.8731 -0.2798 -0.5226
 8225SOL    HW236138   1.044   2.975   7.081  0.0521 -0.5570  1.0971
 8226SOL     OW36139   2.103   2.289   3.988 -0.6792 -0.4277  0.0484
 8226SOL    HW136140   2.147   2.374   3.995 -0.1757 -0.7078  0.2090
 8226SOL    HW236141   2.130   2.267   3.899 -0.0727  1.2964 -0.1888
 8227SOL     OW36142   1.440   1.349   7.604  0.2831 -0.3949 -0.2580
 8227SOL    HW136143   1.374   1.346   7.536  0.6139  0.3201 -0.6069
 8227SOL    HW236144   1.488   1.266   7.596  1.7609  0.5788 -1.4978
 8228SOL     OW36145   0.079   0.706   6.748  0.4160  0.3051  0.3982
 8228SOL    HW136146   0.076   0.726   6.841 -0.2706  1.7110  0.0834
 8228SOL    HW236147   0.156   0.759   6.726  1.8405 -0.9885  2.2387
 8229SOL     OW36148   0.644   3.155  14.218 -0.4923  0.2322  0.4996
 8229SOL    HW136149   0.632   3.062  14.238 -0.4142  0.3201  0.9392
 8229SOL    HW236150   0.597   3.187  14.295  1.6587 -1.0975  2.3370
 8230SOL     OW36151   3.949   3.514   4.418  0.0229 -0.4221 -0.2368
 8230SOL    HW136152   3.986   3.474   4.497 -1.2963 -0.3176  0.4364
 8230SOL    HW236153   3.958   3.446   4.351 -0.1920  0.3941 -1.1078
 8231SOL     OW36154   2.621   4.545   0.323 -0.7018 -0.5058 -0.1429
 8231SOL    HW136155   2.564   4.590   0.385  0.0536 -1.7103  1.4191
 8231SOL    HW236156   2.626   4.461   0.370 -1.4155 -0.9269 -0.8141
 8232SOL     OW36157   3.517   3.349   6.149  0.1571 -0.4195  0.4218
 8232SOL    HW136158   3.497   3.391   6.066 -1.8555 -0.4844  0.8805
 8232SOL    HW236159   3.530   3.423   6.209 -2.2051  0.8131 -0.5863
 8233SOL     OW36160   1.077   2.804   5.667  0.2699 -0.2159 -0.6055
 8233SOL    HW136161   0.991   2.817   5.626 -0.9889  1.1518  2.3890
 8233SOL    HW236162   1.116   2.729   5.622 -0.9631 -0.0495 -1.9598
 8234SOL     OW36163   0.939   3.274  14.295  0.1615 -0.0525 -0.5113
 8234SOL    HW136164   0.892   3.279  14.378 -2.0556  0.7133 -1.8328
 8234SOL    HW236165   0.956   3.182  14.278  2.6707  0.0212  1.5471
 8235SOL     OW36166   1.854   1.641   2.016  0.0814  0.0518 -0.2996
 8235SOL    HW136167   1.778   1.633   2.075  0.7101  0.2110  0.5277
 8235SOL    HW236168   1.887   1.729   2.033 -1.7029  0.5626  0.5870
 8236SOL     OW36169   3.606   4.108  11.789 -0.3332 -0.3267 -0.1768
 8236SOL    HW136170   3.695   4.077  11.797  0.4047  1.0235 -3.0118
 8236SOL    HW236171   3.616   4.196  11.752 -0.1844  0.1833  1.0749
 8237SOL     OW36172   3.255   2.927   3.897  0.4047  0.2832 -0.0089
 8237SOL    HW136173   3.223   2.842   3.927 -0.0842 -0.0224 -1.4078
 8237SOL    HW236174   3.211   2.934   3.812  1.0384 -2.0269 -0.5346
 8238SOL     OW36175   1.370   0.891   7.962  0.6304 -0.7270  0.6018
 8238SOL    HW136176   1.406   0.866   8.048  0.2184 -2.9248  0.1283
 8238SOL    HW236177   1.449   0.909   7.911  0.7845  0.1607  1.1502
 8239SOL     OW36178   2.485   1.503  15.210 -0.5281 -0.1966  0.6699
 8239SOL    HW136179   2.432   1.439  15.257 -0.8843  1.6242  2.7646
 8239SOL    HW236180   2.434   1.526  15.133  2.1158 -0.7302 -1.2414
 8240SOL     OW36181   3.069   4.369  12.115 -0.1807 -0.1239 -0.2087
 8240SOL    HW136182   3.083   4.394  12.024  0.9988  1.6961  0.4548
 8240SOL    HW236183   3.158   4.370  12.150 -0.4466  0.1970  0.4658
 8241SOL     OW36184   3.988   3.928   3.475  0.4148  0.1327  0.1891
 8241SOL    HW136185   3.946   3.999   3.523 -1.5014 -0.1080 -1.1403
 8241SOL    HW236186   3.998   3.973   3.391 -0.1212 -1.5949 -0.7919
 8242SOL     OW36187   0.399   0.533   3.079  0.2605  0.4869 -0.3351
 8242SOL    HW136188   0.433   0.529   2.989 -0.7079 -1.6763 -0.5945
 8242SOL    HW236189   0.304   0.528   3.067  0.2502  0.2995 -0.1686
 8243SOL     OW36190   2.887   2.821  15.195  0.2527 -0.1260  0.1010
 8243SOL    HW136191   2.976   2.816  15.230 -0.7965  2.2949  3.1803
 8243SOL    HW236192   2.864   2.912  15.213 -0.6993 -0.5100  0.8242
 8244SOL     OW36193   0.108   3.117   4.873 -0.3536  0.0236 -1.0180
 8244SOL    HW136194   0.107   3.056   4.947 -0.5511  0.8529 -0.3377
 8244SOL    HW236195   0.019   3.149   4.885 -0.6541 -0.5393 -1.7741
 8245SOL     OW36196   1.031   2.585   2.890  0.2239  0.3451  0.0594
 8245SOL    HW136197   1.098   2.587   2.821 -1.0365 -1.9843 -1.2051
 8245SOL    HW236198   0.969   2.526   2.848 -0.3899  0.8538  0.2534
 8246SOL     OW36199   3.740   4.022   4.124 -0.1199 -0.2213 -0.1318
 8246SOL    HW136200   3.807   4.004   4.190  1.3224  0.5018 -1.3783
 8246SOL    HW236201   3.758   4.114   4.103 -2.1082  0.9256  3.2848
 8247SOL     OW36202   0.089   0.649   7.188 -0.8484 -0.0917  0.3737
 8247SOL    HW136203   4.722   0.672   7.176 -0.0620  2.7664 -0.1700
 8247SOL    HW236204   0.109   0.645   7.282  0.4849 -0.1183  0.0950
 8248SOL     OW36205   4.167   2.450   3.723 -0.5100  0.5404 -0.7293
 8248SOL    HW136206   4.221   2.509   3.669  2.0581 -1.9354 -0.8600
 8248SOL    HW236207   4.185   2.494   3.806 -0.6704  0.2351 -0.5358
 8249SOL     OW36208   1.696   2.369   1.154 -0.1390  0.7393 -0.4208
 8249SOL    HW136209   1.633   2.339   1.220 -2.1367  0.2492 -2.5617
 8249SOL    HW236210   1.765   2.408   1.208  2.7919 -3.2830 -1.2828
 8250SOL     OW36211   2.296   4.362   9.537  0.0175  0.2290  0.4782
 8250SOL    HW136212   2.249   4.279   9.539 -1.9169  1.3238  0.7304
 8250SOL    HW236213   2.390   4.344   9.542  0.5495  3.0452  0.7792
 8251SOL     OW36214   3.967   1.287   1.213 -1.0512 -0.3886 -0.5771
 8251SOL    HW136215   3.900   1.306   1.148  1.4927  0.1001 -3.0662
 8251SOL    HW236216   4.008   1.214   1.167 -0.5786 -0.2723 -0.3408
 8252SOL     OW36217   2.687   3.569   3.564  0.4789  0.4916  0.0902
 8252SOL    HW136218   2.612   3.523   3.526 -1.1107  0.5797  3.1429
 8252SOL    HW236219   2.762   3.521   3.528  0.8079  0.0077  1.4159
 8253SOL     OW36220   1.716   3.847  15.506  0.3774 -0.4720  0.0795
 8253SOL    HW136221   1.706   3.928  15.456  3.5022 -0.6418 -0.8232
 8253SOL    HW236222   1.672   3.782  15.451  0.4129 -0.5567  0.1494
 8254SOL     OW36223   2.293   0.620   2.669 -0.0935 -0.1744 -0.2210
 8254SOL    HW136224   2.261   0.645   2.582 -1.7755  1.6993  0.9556
 8254SOL    HW236225   2.377   0.666   2.666 -0.1173 -0.0929  0.4649
 8255SOL     OW36226   0.624   1.456  11.107 -0.7345  1.0329 -0.1636
 8255SOL    HW136227   0.634   1.377  11.054 -0.4947  1.3998 -0.6546
 8255SOL    HW236228   0.648   1.522  11.043  2.1074 -1.0066 -1.2046
 8256SOL     OW36229   2.005   0.494  13.660 -0.7733  0.3464  0.1131
 8256SOL    HW136230   2.021   0.581  13.696 -2.4473  0.6419  0.1266
 8256SOL    HW236231   2.033   0.441  13.735  0.6296 -1.4964 -1.7028
 8257SOL     OW36232   2.453   2.788  11.317  0.1397 -0.9690  0.6268
 8257SOL    HW136233   2.382   2.730  11.345  0.2029 -1.7900 -0.9148
 8257SOL    HW236234   2.516   2.732  11.271  1.4315  1.6722 -0.7873
 8258SOL     OW36235   2.578   3.536  16.575  0.4024  0.5062  0.0311
 8258SOL    HW136236   2.642   3.606  16.589  0.2687  0.5895  0.2150
 8258SOL    HW236237   2.500   3.589  16.557  1.1751  1.4069 -0.7064
 8259SOL     OW36238   4.296   2.560   7.640 -0.5151 -0.2130 -0.3275
 8259SOL    HW136239   4.272   2.650   7.664 -1.1574 -0.7722  1.1114
 8259SOL    HW236240   4.242   2.506   7.698 -0.0540 -0.1573  0.1565
 8260SOL     OW36241   3.287   2.259   8.532  0.3888  0.1151 -1.2528
 8260SOL    HW136242   3.247   2.194   8.589 -1.0575  1.2458 -0.9704
 8260SOL    HW236243   3.331   2.307   8.603  0.3572 -2.0567  0.2405
 8261SOL     OW36244   0.010   2.629  17.410  0.3268 -0.2537  0.0304
 8261SOL    HW136245   0.053   2.544  17.398  1.0848 -0.0053  0.9631
 8261SOL    HW236246   0.022   2.633  17.505 -0.3536  1.1981  0.0571
 8262SOL     OW36247   0.890   4.118   3.834 -0.3185  0.8371 -0.2108
 8262SOL    HW136248   0.896   4.072   3.750 -1.7100  1.5965 -0.7226
 8262SOL    HW236249   0.799   4.140   3.851  0.3402  0.1859  4.0661
 8263SOL     OW36250   3.280   2.443   5.565 -0.2027 -0.1220 -0.5391
 8263SOL    HW136251   3.258   2.535   5.551 -0.7533  0.1330  1.9731
 8263SOL    HW236252   3.305   2.438   5.657 -3.0671  1.4019  0.3148
 8264SOL     OW36253   0.493   1.892   5.088 -0.5585 -0.1298  0.0693
 8264SOL    HW136254   0.570   1.949   5.096 -2.2336  2.3498 -1.8565
 8264SOL    HW236255   0.478   1.890   4.994  0.6752  2.0651 -0.1724
 8265SOL     OW36256   2.600   4.049   5.103  0.0783 -0.2362  0.8534
 8265SOL    HW136257   2.641   4.017   5.184  0.4371 -2.3268 -0.1568
 8265SOL    HW236258   2.509   4.031   5.128 -0.4713 -0.1980 -1.1144
 8266SOL     OW36259   1.485   3.106   8.032  0.3147 -0.1695 -0.4749
 8266SOL    HW136260   1.573   3.079   8.057  0.8251  0.7995 -1.2475
 8266SOL    HW236261   1.456   3.021   7.997  0.5859  0.5534 -2.4116
 8267SOL     OW36262   3.560   3.835   4.496  0.3867  0.2412  0.0440
 8267SOL    HW136263   3.647   3.806   4.470  0.2672  0.7478 -0.8936
 8267SOL    HW236264   3.528   3.849   4.407 -0.7650  0.1543  0.4447
 8268SOL     OW36265   0.171   1.255  13.064  0.3876  0.6018  0.0355
 8268SOL    HW136266   0.241   1.301  13.108  0.7762 -1.9013  2.0392
 8268SOL    HW236267   0.129   1.213  13.140  1.0759 -1.4091 -0.6890
 8269SOL     OW36268   4.340   3.976  15.903 -0.2948 -0.5313 -0.0990
 8269SOL    HW136269   4.248   3.966  15.928 -0.5119  2.8281  0.3817
 8269SOL    HW236270   4.345   4.071  15.889  2.0991 -1.0910 -2.9480
 8270SOL     OW36271   3.617   3.972  14.823 -0.8312 -0.2981  0.0726
 8270SOL    HW136272   3.605   3.952  14.916 -0.3248 -2.2185 -0.2679
 8270SOL    HW236273   3.586   4.062  14.814  0.1466  0.0806  0.5313
 8271SOL     OW36274   0.981   1.394  10.000  0.6315 -0.8762 -0.5004
 8271SOL    HW136275   0.958   1.331   9.931  2.0823 -1.2258 -0.6660
 8271SOL    HW236276   1.052   1.424   9.942  0.3671  0.8431  0.0662
 8272SOL     OW36277   0.469   3.170  17.611  0.1164  0.5490 -0.0626
 8272SOL    HW136278   0.559   3.145  17.590  0.3113  0.7094  0.5629
 8272SOL    HW236279   0.483   3.240  17.675  1.1223 -0.5567  0.9452
 8273SOL     OW36280   0.447   3.452   2.964 -0.9578 -0.1541  0.3657
 8273SOL    HW136281   0.405   3.536   2.977 -1.7078 -0.1780 -2.0344
 8273SOL    HW236282   0.372   3.394   2.949 -2.0509  1.4057 -0.1446
 8274SOL     OW36283   1.994   1.535   6.218 -0.1499  0.8509  0.1712
 8274SOL    HW136284   1.920   1.537   6.158 -0.6800  3.7094  0.9148
 8274SOL    HW236285   2.044   1.600   6.168  0.8034 -0.7840 -1.0188
 8275SOL     OW36286   0.927   4.149  15.347 -0.0464  0.3084  0.3343
 8275SOL    HW136287   1.003   4.124  15.400  0.0704  0.1684  0.0972
 8275SOL    HW236288   0.894   4.221  15.402 -2.3093  0.2322 -0.9279
 8276SOL     OW36289   2.372   0.920   4.806 -0.0454 -0.6355 -0.1056
 8276SOL    HW136290   2.338   0.841   4.765 -2.3781  1.0785 -1.5090
 8276SOL    HW236291   2.285   0.944   4.840  0.9221  0.8708  1.3191
 8277SOL     OW36292   2.461   2.884  15.321 -0.3638  0.3533  0.3358
 8277SOL    HW136293   2.463   2.957  15.382 -2.0310  2.0616 -1.6275
 8277SOL    HW236294   2.503   2.823  15.382 -0.8665 -0.5304 -0.1981
 8278SOL     OW36295   2.712   0.715   5.292  0.0957 -0.7905  0.7405
 8278SOL    HW136296   2.724   0.750   5.204  2.3290 -2.5127  0.3645
 8278SOL    HW236297   2.805   0.708   5.313  0.1365  0.6132  1.0695
 8279SOL     OW36298   0.750   0.852   0.944 -0.1523  0.0873 -0.2340
 8279SOL    HW136299   0.831   0.807   0.967 -0.1570  0.5939  0.7839
 8279SOL    HW236300   0.761   0.862   0.850  1.0243  0.0685 -0.1022
 8280SOL     OW36301   1.905   0.271   4.343 -0.3847 -0.3205 -0.3397
 8280SOL    HW136302   1.946   0.336   4.286 -1.0246  0.7432  0.4026
 8280SOL    HW236303   1.827   0.321   4.366 -0.6512 -0.4412 -0.9828
 8281SOL     OW36304   3.448   0.083   2.842  0.1863 -0.2310 -0.1295
 8281SOL    HW136305   3.428   0.142   2.769  0.0545 -2.0448 -1.5471
 8281SOL    HW236306   3.535   0.117   2.865  0.5748 -1.7512  0.6784
 8282SOL     OW36307   4.006   0.096   8.651 -0.1564  0.3745 -0.2037
 8282SOL    HW136308   4.090   0.097   8.606  0.4203 -1.2258  0.8187
 8282SOL    HW236309   3.964   0.177   8.622 -0.1667  1.1573  2.0337
 8283SOL     OW36310   0.976   3.990  10.648 -0.4326 -0.1499  0.3618
 8283SOL    HW136311   1.069   4.008  10.644 -0.9140  2.1836 -0.4081
 8283SOL    HW236312   0.959   3.954  10.736  3.0484 -2.9036 -0.1124
 8284SOL     OW36313   2.836   3.108   8.294  0.2364  0.0057 -0.0984
 8284SOL    HW136314   2.782   3.033   8.272  0.6153 -0.2179 -0.2630
 8284SOL    HW236315   2.769   3.176   8.295 -0.7429 -0.9554 -0.2297
 8285SOL     OW36316   3.243   0.222   2.130 -0.9498 -0.2255  0.5333
 8285SOL    HW136317   3.185   0.248   2.202  0.5926  0.8160  1.4070
 8285SOL    HW236318   3.213   0.133   2.116  0.0661 -0.8264  2.1972
 8286SOL     OW36319   3.455   2.094   9.301 -0.5059 -0.0841  0.4256
 8286SOL    HW136320   3.519   2.152   9.341 -0.8994  1.4236 -1.1731
 8286SOL    HW236321   3.487   2.067   9.215 -0.5000 -0.2640  0.4842
 8287SOL     OW36322   4.233   0.408  14.317 -0.5690  0.1244  0.0529
 8287SOL    HW136323   4.261   0.458  14.394 -0.8548  0.1728  0.1273
 8287SOL    HW236324   4.311   0.353  14.316 -0.2320  0.6230 -1.0704
 8288SOL     OW36325   3.508   1.053   3.588 -0.4614 -0.1844  0.3539
 8288SOL    HW136326   3.439   1.094   3.536  0.4757 -1.0404 -1.5645
 8288SOL    HW236327   3.532   0.971   3.545  0.1891  0.1984 -0.0110
 8289SOL     OW36328   0.767   4.103   1.267 -0.5442  0.2688  0.4285
 8289SOL    HW136329   0.741   4.121   1.357 -1.0721 -0.3702  0.4054
 8289SOL    HW236330   0.784   4.188   1.227 -0.8266  0.3961  0.5808
 8290SOL     OW36331   4.420   3.445  14.584  0.4868 -0.4037  0.7058
 8290SOL    HW136332   4.420   3.409  14.495 -1.9614  1.1031  0.1113
 8290SOL    HW236333   4.485   3.515  14.581  0.6510 -0.6581 -1.6588
 8291SOL     OW36334   3.038   0.302   5.982 -0.0648 -0.4660 -0.1088
 8291SOL    HW136335   3.053   0.363   6.054 -1.6785  1.4653 -1.3939
 8291SOL    HW236336   3.013   0.226   6.034  0.3177 -0.6908 -0.2588
 8292SOL     OW36337   2.927   2.598   4.352 -0.3974  0.2407  0.1135
 8292SOL    HW136338   2.953   2.620   4.262  2.7194 -2.1833  0.4426
 8292SOL    HW236339   2.987   2.658   4.396  0.8949 -1.3762  0.5456
 8293SOL     OW36340   2.693   1.298   6.150  0.7586 -0.5134 -0.3390
 8293SOL    HW136341   2.769   1.356   6.158 -0.2979  0.4887  2.2061
 8293SOL    HW236342   2.661   1.306   6.240 -1.8088  0.9053 -1.3796
 8294SOL     OW36343   3.430   3.823   4.743 -0.0147 -0.0300 -0.2758
 8294SOL    HW136344   3.460   3.811   4.653 -1.0589  2.1171 -0.9197
 8294SOL    HW236345   3.430   3.918   4.754 -1.2839 -0.1126  0.3820
 8295SOL     OW36346   2.411   2.832  13.883  0.2186 -0.2412  0.0244
 8295SOL    HW136347   2.373   2.877  13.958  0.2610 -1.8352  0.9968
 8295SOL    HW236348   2.458   2.761  13.926 -0.0128 -1.1964 -1.2942
 8296SOL     OW36349   3.017   2.524   2.699 -0.2770 -0.3183 -0.9034
 8296SOL    HW136350   2.944   2.472   2.733  1.3307 -0.3107  2.6115
 8296SOL    HW236351   3.025   2.596   2.761 -0.0190 -0.2873 -0.9720
 8297SOL     OW36352   0.519   2.711   4.574 -0.8847  0.0692 -0.5424
 8297SOL    HW136353   0.518   2.761   4.656 -2.4830 -1.1893  0.2157
 8297SOL    HW236354   0.434   2.731   4.537 -1.7218 -1.0662  0.7449
 8298SOL     OW36355   1.249   0.332   5.231  0.0843  0.0391 -0.3178
 8298SOL    HW136356   1.330   0.343   5.181  0.7263 -0.0139  0.7305
 8298SOL    HW236357   1.284   0.366   5.313  0.8056  1.0166 -1.0283
 8299SOL     OW36358   1.015   0.745   0.407  0.4098  0.3979  0.0332
 8299SOL    HW136359   0.925   0.777   0.409 -0.4082 -1.7683 -1.5294
 8299SOL    HW236360   1.022   0.687   0.483 -0.5625  0.4744  0.1892
 8300SOL     OW36361   3.124   0.740   3.439  0.0358  0.7153  0.0852
 8300SOL    HW136362   3.130   0.835   3.433 -1.3851  0.7753 -0.5605
 8300SOL    HW236363   3.102   0.727   3.532 -0.3010 -2.8485 -0.4984
 8301SOL     OW36364   2.609   3.937  15.343 -0.5407  0.3734  0.3348
 8301SOL    HW136365   2.540   3.933  15.410 -0.1294  0.2827  0.7533
 8301SOL    HW236366   2.584   3.994  15.271 -0.1467  0.2605  0.1110
 8302SOL     OW36367   3.138   0.007   5.469  0.4000 -0.3571  0.1486
 8302SOL    HW136368   3.141   0.053   5.553  0.3699  0.6553 -0.4038
 8302SOL    HW236369   3.050   4.693   5.466 -0.4629  1.7714 -1.6839
 8303SOL     OW36370   3.426   0.152   6.037 -0.3818 -0.1407  0.3456
 8303SOL    HW136371   3.377   0.115   6.110  0.6765  0.1118  1.1737
 8303SOL    HW236372   3.398   0.244   6.038 -0.2597 -0.1119  0.9641
 8304SOL     OW36373   0.243   2.026   4.443 -0.0504 -0.0685 -0.1367
 8304SOL    HW136374   0.337   2.038   4.436 -0.0046  0.2597  1.0518
 8304SOL    HW236375   0.243   1.935   4.414  1.2996 -0.6781  1.7327
 8305SOL     OW36376   0.647   2.444  11.528  0.2574 -0.5456 -0.1437
 8305SOL    HW136377   0.556   2.449  11.559  0.5318 -0.3618  0.6378
 8305SOL    HW236378   0.655   2.367  11.472  0.7520  0.0526 -0.8895
 8306SOL     OW36379   0.780   1.273   8.014 -0.2989  0.7834  0.2568
 8306SOL    HW136380   0.743   1.346   7.965 -0.3476  1.7051  1.6661
 8306SOL    HW236381   0.713   1.205   8.009  0.5041  0.0383 -0.4995
 8307SOL     OW36382   4.083   0.751   6.313 -0.0784  0.2396  0.1364
 8307SOL    HW136383   4.157   0.807   6.290  1.6143 -1.7671  0.7709
 8307SOL    HW236384   4.107   0.724   6.401  1.6451 -1.0011 -0.7293
 8308SOL     OW36385   0.504   2.532   1.474  0.3021 -0.2922 -0.4116
 8308SOL    HW136386   0.567   2.460   1.474  1.1877  0.4840 -0.7520
 8308SOL    HW236387   0.559   2.600   1.435  1.2063 -1.4125 -1.1053
 8309SOL     OW36388   1.554   1.996   5.897  0.2410  0.2625 -0.5621
 8309SOL    HW136389   1.486   1.930   5.882 -0.1468 -0.2976  3.7665
 8309SOL    HW236390   1.596   1.955   5.973 -1.7122 -2.1745 -0.7994
 8310SOL     OW36391   1.172   3.093  11.599 -0.4516  0.4025  0.1538
 8310SOL    HW136392   1.154   3.055  11.513 -1.2445 -0.0015  0.4940
 8310SOL    HW236393   1.108   3.164  11.611  0.6200  1.3361  0.3389
 8311SOL     OW36394   2.238   2.353   7.473  1.2004 -0.5184 -0.3235
 8311SOL    HW136395   2.147   2.326   7.463 -0.1210  3.3624  1.0624
 8311SOL    HW236396   2.245   2.370   7.567  0.3397  1.3148 -0.5902
 8312SOL     OW36397   2.706   3.916   3.335 -0.0627  0.0763  0.1875
 8312SOL    HW136398   2.790   3.960   3.315  0.9423 -1.0216  2.0363
 8312SOL    HW236399   2.704   3.900   3.429  1.8353  1.5728  0.4969
 8313SOL     OW36400   1.611   2.395   3.122  0.4754  0.1280  0.3392
 8313SOL    HW136401   1.541   2.419   3.183 -0.4948 -0.4977 -0.5353
 8313SOL    HW236402   1.684   2.375   3.180 -1.5181 -1.3339  2.3415
 8314SOL     OW36403   1.017   0.588   7.739 -0.2861 -0.4752  0.0310
 8314SOL    HW136404   1.090   0.573   7.799 -0.0704  1.6432  0.3286
 8314SOL    HW236405   0.979   0.667   7.779 -2.4656 -1.0794 -0.8692
 8315SOL     OW36406   0.235   0.016   8.271  0.2357  0.6499  0.3951
 8315SOL    HW136407   0.224   0.006   8.365  0.1772 -1.1294  0.1931
 8315SOL    HW236408   0.330   0.015   8.256  0.1674 -0.5459  0.0251
 8316SOL     OW36409   3.340   4.336  16.888 -0.3719  0.0217  0.1296
 8316SOL    HW136410   3.246   4.322  16.878 -0.5825  2.5286 -1.5355
 8316SOL    HW236411   3.371   4.279  16.818  0.3887 -0.7264  1.0815
 8317SOL     OW36412   4.088   1.149   7.357  0.0457 -0.2598  0.2767
 8317SOL    HW136413   4.090   1.234   7.312  3.4046  1.4111  3.5360
 8317SOL    HW236414   4.097   1.091   7.282 -1.7276  0.8939 -0.8359
 8318SOL     OW36415   4.377   3.353   7.142 -0.2433  0.0875 -0.2832
 8318SOL    HW136416   4.462   3.316   7.122 -0.1540  0.7071 -1.0349
 8318SOL    HW236417   4.391   3.443   7.112  0.2750  0.2429  0.4215
 8319SOL     OW36418   2.568   0.940   1.710  0.0709 -0.0902  0.1695
 8319SOL    HW136419   2.508   0.948   1.636  0.9403 -1.1175 -0.6390
 8319SOL    HW236420   2.528   0.980   1.788  1.2416  1.3702  0.0127
 8320SOL     OW36421   2.176   4.524   5.833  0.0874 -0.0326  0.2980
 8320SOL    HW136422   2.271   4.513   5.841  0.1740  1.0821  0.8691
 8320SOL    HW236423   2.158   4.524   5.927 -0.4138 -3.6099  0.1803
 8321SOL     OW36424   4.475   0.806   5.833  0.3326 -0.0703  0.5313
 8321SOL    HW136425   4.566   0.807   5.805  0.2854  0.5326  0.3952
 8321SOL    HW236426   4.480   0.756   5.915  1.8490  0.2328  0.6115
 8322SOL     OW36427   2.842   0.418   9.285  0.1851  0.5786 -0.2219
 8322SOL    HW136428   2.847   0.381   9.374 -0.0807  1.9339  0.3489
 8322SOL    HW236429   2.913   0.380   9.234  0.0394  0.0009  0.0060
 8323SOL     OW36430   0.377   1.133   1.221 -0.1790 -0.4512  0.6575
 8323SOL    HW136431   0.449   1.104   1.277  0.2088 -2.3375 -0.7945
 8323SOL    HW236432   0.394   1.081   1.142  0.8205  0.9896 -0.0854
 8324SOL     OW36433   2.339   3.989   5.191  0.2911  0.2672 -0.1813
 8324SOL    HW136434   2.321   3.896   5.206 -0.8599  0.2207 -1.9494
 8324SOL    HW236435   2.259   4.023   5.231 -0.3771 -0.6342 -0.7553
 8325SOL     OW36436   1.226   4.394   8.696 -0.1108  0.2140 -0.1576
 8325SOL    HW136437   1.201   4.392   8.788  0.3189  0.8899 -0.0314
 8325SOL    HW236438   1.139   4.405   8.658  0.6013  1.1227 -1.5019
 8326SOL     OW36439   2.588   1.257   8.302  0.3885  0.3167  0.0214
 8326SOL    HW136440   2.584   1.213   8.387  0.7695 -1.1177 -0.7052
 8326SOL    HW236441   2.683   1.266   8.296  0.3441  1.3422  0.6868
 8327SOL     OW36442   2.602   3.418   4.610 -0.0209  0.3789 -0.3300
 8327SOL    HW136443   2.542   3.359   4.654  0.3801 -1.1479 -1.8342
 8327SOL    HW236444   2.603   3.380   4.522 -0.9996 -0.3063 -0.0334
 8328SOL     OW36445   0.412   1.273   3.872 -0.1280  0.8263 -0.5343
 8328SOL    HW136446   0.317   1.285   3.877  0.0455  0.8478  2.4112
 8328SOL    HW236447   0.420   1.220   3.793  0.0601  0.1851 -0.0793
 8329SOL     OW36448   4.489   0.676   5.143  0.2695 -0.2369  0.0209
 8329SOL    HW136449   4.479   0.747   5.079  0.1285  0.2622  0.6010
 8329SOL    HW236450   4.553   0.709   5.205 -0.8200 -0.9817  1.5353
 8330SOL     OW36451   2.212   1.982   1.947 -0.4907  0.4165 -0.1544
 8330SOL    HW136452   2.185   1.991   1.856  1.4524  2.5406 -0.5180
 8330SOL    HW236453   2.307   1.995   1.939 -0.3998 -0.7721 -1.0669
 8331SOL     OW36454   1.684   0.092  15.888  0.3133 -0.2188  0.1320
 8331SOL    HW136455   1.668   0.107  15.981 -1.5581 -0.3832 -0.1690
 8331SOL    HW236456   1.764   0.142  15.870  0.7970 -1.6710 -1.6699
 8332SOL     OW36457   0.920   0.786  16.876 -0.1477  0.5422  0.0169
 8332SOL    HW136458   0.860   0.768  16.949  1.6660 -0.1274  1.3501
 8332SOL    HW236459   0.864   0.779  16.799  0.7473  0.7240 -0.6484
 8333SOL     OW36460   3.835   1.701   5.827  0.5942  0.6420  0.1791
 8333SOL    HW136461   3.784   1.708   5.746  0.7010 -2.2830 -0.1505
 8333SOL    HW236462   3.792   1.769   5.879 -3.1293 -1.6021  0.0582
 8334SOL     OW36463   3.112   2.379   3.713 -0.1936  1.0989 -0.5399
 8334SOL    HW136464   3.156   2.397   3.629  0.6546 -1.2513 -0.5932
 8334SOL    HW236465   3.059   2.307   3.679  3.3732 -2.8572  2.3898
 8335SOL     OW36466   3.950   1.616   5.409 -0.0388 -0.0015  0.3914
 8335SOL    HW136467   4.008   1.583   5.341 -1.1038  1.4025 -1.1906
 8335SOL    HW236468   3.955   1.711   5.395  0.6962 -0.3793 -1.8817
 8336SOL     OW36469   1.370   4.531   2.920  0.5621 -0.4564  0.0608
 8336SOL    HW136470   1.368   4.502   2.829 -2.1578 -0.4091  0.1022
 8336SOL    HW236471   1.281   4.565   2.930  0.3177 -1.0949  0.0795
 8337SOL     OW36472   4.465   3.286   0.386 -0.6284  0.8281 -0.5762
 8337SOL    HW136473   4.413   3.313   0.462  0.3385  1.4160 -0.1305
 8337SOL    HW236474   4.440   3.349   0.318  1.5973  1.6052 -0.6524
 8338SOL     OW36475   2.682   1.123   3.356 -0.2750  0.5460 -0.2373
 8338SOL    HW136476   2.723   1.042   3.387 -0.2717  0.7046  0.1827
 8338SOL    HW236477   2.632   1.096   3.279 -1.3126 -1.3474  1.1001
 8339SOL     OW36478   4.132   0.209   9.397  0.4271 -0.2485  0.3366
 8339SOL    HW136479   4.113   0.267   9.471 -2.8547 -3.0936  1.7546
 8339SOL    HW236480   4.045   0.204   9.358  1.7158 -1.0703 -2.3981
 8340SOL     OW36481   2.110   2.460   3.336  0.1078  0.1707  0.1224
 8340SOL    HW136482   2.151   2.493   3.256  0.3796 -0.5123 -0.0210
 8340SOL    HW236483   2.172   2.468   3.408  0.3069 -0.9430  0.0755
 8341SOL     OW36484   2.813   0.614   8.806 -0.4965  0.1577  0.1148
 8341SOL    HW136485   2.747   0.674   8.841 -0.1284 -1.2616  3.2864
 8341SOL    HW236486   2.780   0.533   8.844 -0.3698 -0.0986 -0.3191
 8342SOL     OW36487   2.441   1.553   2.430 -0.6982  0.0137  0.3492
 8342SOL    HW136488   2.414   1.464   2.407 -0.9206  0.3147 -0.5795
 8342SOL    HW236489   2.363   1.607   2.415 -1.6514 -0.9752  1.6950
 8343SOL     OW36490   3.846   0.001   2.349  0.1360 -0.0737  0.0153
 8343SOL    HW136491   3.937   4.701   2.365  0.5561 -0.1265 -2.4678
 8343SOL    HW236492   3.795   4.654   2.386  2.4903 -2.3309 -1.0398
 8344SOL     OW36493   2.549   1.991   6.051 -0.1756 -0.5041 -0.5637
 8344SOL    HW136494   2.548   1.897   6.065 -1.2280 -0.0908  2.3112
 8344SOL    HW236495   2.568   2.024   6.139  0.1142  0.3268 -0.9392
 8345SOL     OW36496   1.033   3.460   1.043 -0.0584 -0.0102  0.2308
 8345SOL    HW136497   1.026   3.401   0.968  0.1610  1.9728 -1.3503
 8345SOL    HW236498   1.118   3.439   1.082  0.4154  1.5867  0.0478
 8346SOL     OW36499   0.074   2.093   9.925  0.0270 -0.4467 -0.2282
 8346SOL    HW136500   0.091   2.166   9.866 -1.9779 -0.1840 -0.4802
 8346SOL    HW236501   0.097   2.139  10.006  0.0023  0.0889 -0.5277
 8347SOL     OW36502   2.790   0.111   3.489  0.1091  0.0151  0.3288
 8347SOL    HW136503   2.885   0.102   3.479  0.3682  0.9779  1.8784
 8347SOL    HW236504   2.762   0.025   3.459  0.0729 -0.1335  0.7911
 8348SOL     OW36505   0.077   2.653   0.710 -0.0481  0.1288 -0.0058
 8348SOL    HW136506   0.021   2.667   0.787  1.2843  2.5431  0.5163
 8348SOL    HW236507   0.151   2.703   0.744 -0.9305  0.4311  1.4923
 8349SOL     OW36508   2.365   1.502   1.395  0.1413 -0.7407  0.1284
 8349SOL    HW136509   2.366   1.506   1.300  3.0026 -3.6993  0.0559
 8349SOL    HW236510   2.297   1.435   1.402 -1.7348  1.0561 -0.6061
 8350SOL     OW36511   0.375   0.725   9.185  0.1404 -0.0639  0.5952
 8350SOL    HW136512   0.365   0.659   9.254 -0.6163  0.4718  1.0008
 8350SOL    HW236513   0.289   0.766   9.178  0.1712  0.1585  1.4913
 8351SOL     OW36514   1.101   1.062   7.559 -0.0315  0.2341  0.1595
 8351SOL    HW136515   1.167   1.011   7.512 -0.6662 -0.2840 -0.1813
 8351SOL    HW236516   1.024   1.040   7.506  0.1588 -1.8607  0.7258
 8352SOL     OW36517   2.182   0.447   2.872  0.0909  0.1447 -0.1160
 8352SOL    HW136518   2.198   0.508   2.799 -1.3466  0.2480 -0.3434
 8352SOL    HW236519   2.101   0.487   2.903  0.5784  0.4174  0.7849
 8353SOL     OW36520   1.435   0.175  17.065 -0.0764  0.2213 -0.2194
 8353SOL    HW136521   1.444   0.232  17.142  0.8522 -0.3144  0.0600
 8353SOL    HW236522   1.524   0.142  17.064 -0.0463  0.3186 -0.9085
 8354SOL     OW36523   4.398   4.226   5.896  0.4075 -0.0253 -0.3104
 8354SOL    HW136524   4.318   4.180   5.923 -0.1985  1.9300  1.3134
 8354SOL    HW236525   4.459   4.155   5.911  2.1445  1.4787 -0.2149
 8355SOL     OW36526   1.989   3.925  11.535 -0.4220 -0.6347  0.6637
 8355SOL    HW136527   1.952   3.940  11.622  1.4672 -1.3132  1.5867
 8355SOL    HW236528   2.081   3.928  11.558  0.2623 -0.2446 -2.1186
 8356SOL     OW36529   4.561   3.513   9.558  0.1663 -0.0922 -0.0551
 8356SOL    HW136530   4.485   3.525   9.616  1.0395 -0.2688  1.1365
 8356SOL    HW236531   4.529   3.523   9.469 -0.7815  0.6328  0.3576
 8357SOL     OW36532   1.574   3.586   2.665  0.3481  0.4962 -0.2693
 8357SOL    HW136533   1.551   3.574   2.757 -0.2747 -2.2969 -0.7824
 8357SOL    HW236534   1.668   3.568   2.655  0.1204 -0.6705 -0.3341
 8358SOL     OW36535   4.321   1.639   9.853 -0.3215  0.6665 -0.2748
 8358SOL    HW136536   4.241   1.586   9.856  0.7279 -0.5476  6.1761
 8358SOL    HW236537   4.294   1.712   9.797 -1.3316  0.2380 -0.3446
 8359SOL     OW36538   3.418   1.669  10.684 -0.0051  0.7425 -0.2104
 8359SOL    HW136539   3.471   1.745  10.708 -1.4889  1.6253  0.1949
 8359SOL    HW236540   3.461   1.653  10.600 -0.5403  0.2518 -0.3856
 8360SOL     OW36541   1.679   1.334   5.826  0.2433  0.1590 -0.1056
 8360SOL    HW136542   1.691   1.290   5.742 -0.4211 -0.9402  0.3690
 8360SOL    HW236543   1.644   1.263   5.880  2.2655  0.5492  1.7080
 8361SOL     OW36544   0.598   0.339   0.279 -0.2547 -0.0493  0.6275
 8361SOL    HW136545   0.604   0.325   0.374  0.3139  0.1204  0.6151
 8361SOL    HW236546   0.664   0.407   0.268 -0.4582 -0.0353 -0.4591
 8362SOL     OW36547   3.390   1.469   3.632 -0.5173  0.6008 -0.5127
 8362SOL    HW136548   3.471   1.519   3.616 -1.3349  2.0931  0.0481
 8362SOL    HW236549   3.400   1.402   3.564  0.5830  0.7821 -0.5326
 8363SOL     OW36550   2.789   2.900   5.227 -0.5918  0.4521 -0.5342
 8363SOL    HW136551   2.794   2.933   5.317  0.0084 -0.1966 -0.3248
 8363SOL    HW236552   2.884   2.907   5.213 -0.5493 -0.0362 -0.4707
 8364SOL     OW36553   0.694   2.485   8.813 -0.2356 -0.0263 -0.3142
 8364SOL    HW136554   0.683   2.395   8.783 -0.8533 -0.4780  1.2659
 8364SOL    HW236555   0.775   2.474   8.863 -1.6873  1.8179  2.4924
 8365SOL     OW36556   3.609   1.643   5.096 -0.0143 -0.1696 -0.0728
 8365SOL    HW136557   3.683   1.591   5.128  0.5277  1.5083  1.4492
 8365SOL    HW236558   3.641   1.648   5.006  1.0837  0.7327  0.3636
 8366SOL     OW36559   0.788   3.344   5.594 -0.4725 -0.7953  0.1700
 8366SOL    HW136560   0.851   3.283   5.557  1.2486 -1.4458  4.1907
 8366SOL    HW236561   0.854   3.408   5.618 -0.5905  0.2651 -2.3090
 8367SOL     OW36562   0.298   3.202   8.155  0.0683 -0.2025 -0.0091
 8367SOL    HW136563   0.255   3.131   8.201 -0.7109 -0.6075 -1.3668
 8367SOL    HW236564   0.362   3.220   8.224 -0.0438 -0.0499  0.0541
 8368SOL     OW36565   4.219   2.802   1.148  0.2660  0.3457  0.1445
 8368SOL    HW136566   4.176   2.887   1.141 -1.4477 -0.3349  2.4383
 8368SOL    HW236567   4.246   2.806   1.240  1.2986 -3.0003 -0.0357
 8369SOL     OW36568   2.240   1.648  11.101  0.3303 -0.1189  0.3481
 8369SOL    HW136569   2.238   1.735  11.141 -1.2538 -0.1985  0.4792
 8369SOL    HW236570   2.154   1.614  11.126 -0.0513  0.8732  0.3894
 8370SOL     OW36571   2.671   0.770  17.160  0.0632 -0.0915  0.2718
 8370SOL    HW136572   2.669   0.852  17.209 -0.0707  0.5512 -0.7951
 8370SOL    HW236573   2.750   0.787  17.109 -0.6708  2.5815  0.0392
 8371SOL     OW36574   0.771   3.358   0.432 -0.1646 -0.0584 -0.1982
 8371SOL    HW136575   0.693   3.395   0.472  1.7129  3.0764  0.5203
 8371SOL    HW236576   0.837   3.359   0.501  0.1895  1.0468 -0.5533
 8372SOL     OW36577   4.578   1.034  12.301  0.1973 -0.0956  0.3184
 8372SOL    HW136578   4.484   1.038  12.284  0.3012  0.8068 -0.0351
 8372SOL    HW236579   4.608   0.996  12.219 -0.5344  2.9373 -1.3588
 8373SOL     OW36580   3.683   4.421   2.848 -0.2654  0.0145  0.5298
 8373SOL    HW136581   3.611   4.429   2.910  0.1238 -1.4684  1.1697
 8373SOL    HW236582   3.700   4.328   2.832  0.5055  0.4306 -1.1612
 8374SOL     OW36583   2.585   4.326   0.486 -0.0738  0.1418 -0.1149
 8374SOL    HW136584   2.500   4.316   0.529  0.9619 -0.8839  1.7066
 8374SOL    HW236585   2.626   4.378   0.555 -0.6558  1.4900 -0.7849
 8375SOL     OW36586   2.228   2.497   4.990  0.1835 -0.9276 -0.0624
 8375SOL    HW136587   2.245   2.431   4.923 -0.8555 -2.0025  0.7279
 8375SOL    HW236588   2.310   2.545   5.000  1.0090 -3.0368  3.2668
 8376SOL     OW36589   3.721   3.620  14.825  0.2443 -0.0939 -0.5062
 8376SOL    HW136590   3.746   3.531  14.800 -1.6944 -0.8158  0.2030
 8376SOL    HW236591   3.724   3.630  14.920 -0.5577  0.3470 -0.5320
 8377SOL     OW36592   3.599   0.565   1.963 -0.1421  0.0969  0.3181
 8377SOL    HW136593   3.505   0.547   1.955 -0.2806  0.9738 -0.0998
 8377SOL    HW236594   3.615   0.529   2.050  2.4123  2.3561  0.7952
 8378SOL     OW36595   0.444   3.653  11.343 -0.0677  0.3822 -0.0485
 8378SOL    HW136596   0.393   3.579  11.376 -0.7843  0.9867  0.2033
 8378SOL    HW236597   0.432   3.615  11.256  4.4039  1.1741 -1.0009
 8379SOL     OW36598   0.916   2.641  10.746  0.1725  0.3825  0.3628
 8379SOL    HW136599   0.827   2.607  10.761  0.4615  0.1396  1.5603
 8379SOL    HW236600   0.917   2.633  10.651 -0.3819  3.5161  0.1030
 8380SOL     OW36601   2.943   1.343  10.112 -0.8491 -0.3619  0.0207
 8380SOL    HW136602   3.027   1.389  10.109 -0.4495 -0.9025  2.8682
 8380SOL    HW236603   2.884   1.414  10.140  0.6391  0.8131  0.1705
 8381SOL     OW36604   1.064   1.208   6.722  0.4740 -0.4486  0.6105
 8381SOL    HW136605   1.064   1.274   6.791 -0.6536 -2.0849  2.2040
 8381SOL    HW236606   1.076   1.255   6.640 -3.0819 -0.1381  0.2637
 8382SOL     OW36607   2.611   1.216   4.995 -0.0993  0.1332 -0.4600
 8382SOL    HW136608   2.605   1.175   5.081  0.8246 -0.9191 -0.8912
 8382SOL    HW236609   2.521   1.244   4.976 -1.0767 -3.0497 -0.4092
 8383SOL     OW36610   3.801   1.331   8.361  0.1188 -0.3001  0.0107
 8383SOL    HW136611   3.802   1.354   8.454 -1.7242 -1.4117  0.2916
 8383SOL    HW236612   3.832   1.241   8.370 -1.4421 -0.5851  2.5711
 8384SOL     OW36613   2.926   4.034   3.214  0.2538  0.2767 -1.1945
 8384SOL    HW136614   2.959   4.089   3.143 -0.0545  2.0248  0.0064
 8384SOL    HW236615   3.010   4.001   3.246 -1.3030 -2.1320  0.4268
 8385SOL     OW36616   0.192   4.300   7.824 -0.0378 -0.0701  0.1679
 8385SOL    HW136617   0.101   4.309   7.794  0.2321 -0.2872 -0.7109
 8385SOL    HW236618   0.172   4.272   7.914  0.4583  0.8224  0.5483
 8386SOL     OW36619   4.103   2.654   5.904  0.2363  0.5341 -0.0350
 8386SOL    HW136620   4.105   2.587   5.973 -1.1374  3.5147  2.9197
 8386SOL    HW236621   4.009   2.675   5.904  0.2213  0.4134 -2.6608
 8387SOL     OW36622   0.730   1.816   5.747  0.2782  0.1296  0.2029
 8387SOL    HW136623   0.656   1.876   5.752  0.0135 -0.1312 -0.7875
 8387SOL    HW236624   0.792   1.853   5.684 -0.8907  2.0104  0.1512
 8388SOL     OW36625   1.296   3.877   0.274  0.1880  0.2369  0.1510
 8388SOL    HW136626   1.303   3.893   0.368 -2.5329  2.4419 -0.0186
 8388SOL    HW236627   1.202   3.862   0.270  0.0462  1.0049  0.4858
 8389SOL     OW36628   0.918   0.120  14.487  0.0885 -0.1517 -0.1993
 8389SOL    HW136629   0.939   0.048  14.428  0.3654 -0.7721  0.6541
 8389SOL    HW236630   0.973   0.188  14.448 -0.8142  0.4751 -0.3750
 8390SOL     OW36631   3.484   2.028   5.922  0.3042 -0.2359 -0.2482
 8390SOL    HW136632   3.481   2.099   5.858 -1.9776  0.2324  0.3719
 8390SOL    HW236633   3.406   2.042   5.976 -1.4854 -1.7103 -2.4521
 8391SOL     OW36634   3.080   0.400  10.633  0.3212  0.1190  0.2935
 8391SOL    HW136635   3.062   0.459  10.560 -1.4305  0.3594  0.9116
 8391SOL    HW236636   3.043   0.318  10.602 -1.1555  0.2129  1.7937
 8392SOL     OW36637   0.345   0.055   3.305 -0.5794  0.2466  0.2010
 8392SOL    HW136638   0.305   0.066   3.219 -0.2568  1.1006  0.1571
 8392SOL    HW236639   0.280   4.723   3.347  0.5876 -1.4127 -0.2462
 8393SOL     OW36640   3.483   1.133   4.489  0.5110 -0.2171 -0.2240
 8393SOL    HW136641   3.557   1.185   4.456  2.0593 -1.3056  1.5182
 8393SOL    HW236642   3.487   1.149   4.584 -0.2191 -2.3160  0.1642
 8394SOL     OW36643   1.085   1.528   5.212  0.0907  0.0036  0.3340
 8394SOL    HW136644   1.072   1.439   5.181 -0.5066  0.2178 -0.0174
 8394SOL    HW236645   1.103   1.566   5.126 -0.8215  0.9626  0.5696
 8395SOL     OW36646   4.593   4.045   6.958 -0.0262  0.0052  0.2553
 8395SOL    HW136647   4.583   4.002   6.873  1.0379 -3.4174  1.8779
 8395SOL    HW236648   4.666   4.106   6.945 -0.5090  0.3516 -0.8515
 8396SOL     OW36649   0.395   3.990  17.445  0.0911 -0.3047 -0.1441
 8396SOL    HW136650   0.353   3.929  17.505  0.5766 -0.8587 -0.3701
 8396SOL    HW236651   0.480   3.951  17.424  1.2615  1.5225  1.1506
 8397SOL     OW36652   2.309   1.037   0.078 -0.0734 -0.0014 -0.0071
 8397SOL    HW136653   2.343   0.949   0.065 -0.2248 -0.0624  0.0131
 8397SOL    HW236654   2.217   1.030   0.052 -0.1162  0.1388  0.1042
 8398SOL     OW36655   4.511   2.784  16.722  0.3402 -0.7526  0.1489
 8398SOL    HW136656   4.527   2.702  16.769 -0.7915 -1.1268 -0.1175
 8398SOL    HW236657   4.584   2.772  16.661 -0.3570  0.3277 -0.8995
 8399SOL     OW36658   3.224   1.441  11.822  0.5184 -0.6958 -0.3772
 8399SOL    HW136659   3.256   1.511  11.764 -1.2015  0.1255 -0.3311
 8399SOL    HW236660   3.300   1.429  11.878 -2.0169 -4.1894  2.2701
 8400SOL     OW36661   1.264   0.472   3.165  0.0221 -0.4805 -0.1908
 8400SOL    HW136662   1.287   0.385   3.133 -1.9949 -1.5238  1.1565
 8400SOL    HW236663   1.239   0.515   3.083  0.7559 -0.8363 -0.5993
 8401SOL     OW36664   1.375   0.073   8.896  0.2253 -0.1625  0.4534
 8401SOL    HW136665   1.388   0.167   8.906  0.8632 -0.1638 -0.3473
 8401SOL    HW236666   1.279   0.071   8.895  0.2552 -0.6678 -1.9196
 8402SOL     OW36667   0.577   0.763  16.199  0.2579  0.4544  0.0192
 8402SOL    HW136668   0.650   0.720  16.154  0.1554 -1.9879  2.1585
 8402SOL    HW236669   0.591   0.731  16.288 -3.3918  2.4888  1.2914
 8403SOL     OW36670   4.081   0.341   1.799 -0.1152 -0.1357 -0.5173
 8403SOL    HW136671   4.154   0.289   1.835 -0.7090  0.6166  1.7838
 8403SOL    HW236672   4.020   0.337   1.873  0.6481  0.6319  0.1533
 8404SOL     OW36673   1.644   2.632  16.440  0.2492 -0.3839  0.8495
 8404SOL    HW136674   1.709   2.580  16.487 -1.9082 -3.2055  0.6328
 8404SOL    HW236675   1.618   2.691  16.511  2.0697 -0.9885  2.0355
 8405SOL     OW36676   4.386   3.035   8.702  1.1125 -0.3691 -0.1005
 8405SOL    HW136677   4.413   3.019   8.792 -1.6944  1.6557  1.0843
 8405SOL    HW236678   4.468   3.023   8.654 -0.2749 -2.0950 -2.0848
 8406SOL     OW36679   1.990   2.677  15.438  0.3398  0.1579  0.3428
 8406SOL    HW136680   1.959   2.700  15.351  0.5266 -0.6692  0.0556
 8406SOL    HW236681   2.078   2.715  15.431 -0.3134  1.4696 -0.6189
 8407SOL     OW36682   0.691   1.996   8.238 -0.2365 -0.4918 -0.1664
 8407SOL    HW136683   0.774   1.950   8.247 -0.3389 -0.4942  0.8174
 8407SOL    HW236684   0.687   2.040   8.323  2.7953 -1.3897  0.4418
 8408SOL     OW36685   2.800   1.682   2.100  0.0414  0.3310 -0.5219
 8408SOL    HW136686   2.729   1.622   2.118 -0.2280  0.3791 -1.4179
 8408SOL    HW236687   2.752   1.744   2.045 -0.2467 -1.6878 -2.5321
 8409SOL     OW36688   1.065   1.613   9.010 -0.3113  0.3671 -0.2088
 8409SOL    HW136689   0.983   1.581   8.973  1.3792 -3.9357 -0.1474
 8409SOL    HW236690   1.047   1.706   9.027  0.2382  0.5474 -0.6198
 8410SOL     OW36691   0.111   3.121   8.501  0.1886  0.6144  0.4172
 8410SOL    HW136692   0.140   3.210   8.483 -0.6411  0.2174 -2.8760
 8410SOL    HW236693   0.177   3.101   8.568  0.3981  0.4064  0.1499
 8411SOL     OW36694   3.863   2.695   8.625  0.8343 -0.1238 -0.3793
 8411SOL    HW136695   3.818   2.706   8.708  2.1784 -2.0629  0.5994
 8411SOL    HW236696   3.903   2.782   8.625  0.9791 -0.1898 -0.3822
 8412SOL     OW36697   0.408   1.207   2.305  0.3118 -0.0574 -0.6769
 8412SOL    HW136698   0.394   1.119   2.271 -0.1095 -0.4672  0.5607
 8412SOL    HW236699   0.494   1.239   2.278  0.6666 -2.0755 -1.9356
 8413SOL     OW36700   0.261   1.907   9.254  0.1236 -0.3651  0.1820
 8413SOL    HW136701   0.335   1.967   9.245  2.1861 -2.5218  2.7620
 8413SOL    HW236702   0.186   1.965   9.270 -1.2078 -1.6016 -1.6647
 8414SOL     OW36703   3.074   1.970   7.652 -0.0743 -0.7700 -0.1063
 8414SOL    HW136704   3.056   1.877   7.665 -0.9854 -0.9641 -2.9204
 8414SOL    HW236705   3.145   1.990   7.714 -1.6609 -2.0625  2.1001
 8415SOL     OW36706   0.915   0.560   3.133  0.5871 -0.3203  0.0168
 8415SOL    HW136707   0.902   0.601   3.047 -0.2892 -1.8677 -0.5889
 8415SOL    HW236708   0.908   0.465   3.123 -0.0130 -0.2422 -0.3766
 8416SOL     OW36709   1.965   2.606   4.067 -0.3782 -0.1943  0.3998
 8416SOL    HW136710   1.890   2.638   4.117 -0.2760  1.3353 -0.4120
 8416SOL    HW236711   2.040   2.611   4.126  0.5675 -0.1758 -0.7822
 8417SOL     OW36712   4.423   0.971   9.328  0.0384 -0.0911  0.6594
 8417SOL    HW136713   4.424   0.976   9.423  0.0736 -0.4626  0.6784
 8417SOL    HW236714   4.497   1.032   9.317 -0.4224  0.8436  2.6916
 8418SOL     OW36715   1.896   3.541   4.045  0.4088 -0.1522 -0.3504
 8418SOL    HW136716   1.894   3.574   4.135  0.0151  2.2647 -1.2596
 8418SOL    HW236717   1.826   3.477   4.035  0.0812  0.3355 -1.1833
 8419SOL     OW36718   3.467   2.998   3.082 -0.0327 -0.6340 -0.7993
 8419SOL    HW136719   3.551   2.953   3.091 -0.0248 -0.2563  0.8538
 8419SOL    HW236720   3.400   2.935   3.108 -1.5764  0.4597 -2.1137
 8420SOL     OW36721   4.534   1.839   7.824  0.6524 -0.3000 -0.2898
 8420SOL    HW136722   4.472   1.862   7.755  0.2239  0.1896  0.2579
 8420SOL    HW236723   4.602   1.801   7.768  2.2563  1.4706  0.4454
 8421SOL     OW36724   4.437   4.637  13.382 -0.0946 -0.0967  0.3680
 8421SOL    HW136725   4.395   4.586  13.451 -1.7326 -0.7078 -1.0802
 8421SOL    HW236726   4.402   4.600  13.301 -0.0987 -0.4083  0.5124
 8422SOL     OW36727   1.998   4.546   3.509  0.0399 -0.1133  0.1185
 8422SOL    HW136728   2.092   4.556   3.496 -0.2051  1.0019 -0.7408
 8422SOL    HW236729   1.993   4.462   3.555 -2.4821 -0.2400 -0.3934
 8423SOL     OW36730   0.516   3.586   6.959 -0.5491 -0.1943 -0.7158
 8423SOL    HW136731   0.518   3.524   6.886  2.3522  0.9216 -1.5972
 8423SOL    HW236732   0.449   3.645   6.925  1.5797  1.2742 -2.3973
 8424SOL     OW36733   4.078   1.004   4.829 -0.6819  0.0083 -0.0785
 8424SOL    HW136734   4.034   0.999   4.745  0.1020  1.7827 -0.5993
 8424SOL    HW236735   4.008   0.973   4.887  0.3862 -0.8016  0.7891
 8425SOL     OW36736   3.865   3.949  15.124 -0.0260  0.5689 -0.8459
 8425SOL    HW136737   3.797   4.014  15.107 -0.3660  0.7727  1.2727
 8425SOL    HW236738   3.939   3.997  15.087  0.3007  1.4465  0.9451
 8426SOL     OW36739   2.680   0.568  11.649  0.0872  0.1449  0.0552
 8426SOL    HW136740   2.639   0.482  11.649  1.1707 -0.3711  0.4000
 8426SOL    HW236741   2.619   0.617  11.594  0.3645 -0.9531 -1.2332
 8427SOL     OW36742   4.703   3.092  15.556 -0.3731 -0.5550  0.0193
 8427SOL    HW136743   4.685   3.086  15.650  0.3245  3.5541  0.3900
 8427SOL    HW236744   0.061   3.141  15.565 -0.1358 -1.1685  1.2270
 8428SOL     OW36745   1.941   3.600   4.760  0.2448 -0.6869 -0.4347
 8428SOL    HW136746   1.962   3.516   4.800  1.9852 -1.0937 -2.2206
 8428SOL    HW236747   1.997   3.611   4.683 -0.1287 -1.5067 -0.8193
 8429SOL     OW36748   3.715   1.314  17.116 -0.1870 -0.6366 -0.8415
 8429SOL    HW136749   3.723   1.400  17.075 -0.3508 -1.2778 -2.2138
 8429SOL    HW236750   3.693   1.264  17.038  0.1056  1.4239 -2.2336
 8430SOL     OW36751   1.013   1.070   2.649  0.4089  0.4743  0.1261
 8430SOL    HW136752   0.962   1.107   2.577  0.2192  1.2593  0.6687
 8430SOL    HW236753   0.942   1.032   2.700 -0.2959 -0.6786 -1.7306
 8431SOL     OW36754   4.520   4.244  15.471 -0.5097  0.3467  0.3628
 8431SOL    HW136755   4.603   4.264  15.426 -0.5520 -0.7050 -0.1692
 8431SOL    HW236756   4.465   4.309  15.426 -1.2554 -1.2565 -1.0179
 8432SOL     OW36757   1.218   1.766   6.127  0.3221  0.0578 -0.0130
 8432SOL    HW136758   1.124   1.761   6.147  0.3439  0.8351  0.3028
 8432SOL    HW236759   1.229   1.699   6.061  1.5834 -0.2622  0.5366
 8433SOL     OW36760   1.724   3.015   8.096  0.0199  0.1291  0.2521
 8433SOL    HW136761   1.788   3.084   8.080  1.3189 -1.2832 -0.5721
 8433SOL    HW236762   1.745   2.950   8.029 -0.3274  1.3064 -1.0163
 8434SOL     OW36763   2.034   1.725  17.048 -0.3356 -0.1314 -0.1719
 8434SOL    HW136764   2.118   1.746  17.008  0.3140  0.7361  1.6867
 8434SOL    HW236765   2.007   1.813  17.074 -1.8991 -0.6556 -0.0257
 8435SOL     OW36766   4.475   3.886  14.801  0.3708 -0.2320  0.2849
 8435SOL    HW136767   4.568   3.907  14.790 -0.3693  2.6254 -0.4419
 8435SOL    HW236768   4.435   3.952  14.745 -1.2052 -1.0521  0.4630
 8436SOL     OW36769   4.252   3.751   5.358 -0.3067 -0.3656 -0.2953
 8436SOL    HW136770   4.251   3.677   5.419 -1.4862 -0.4373 -0.3935
 8436SOL    HW236771   4.158   3.768   5.352 -0.0727  0.4202 -1.7859
 8437SOL     OW36772   2.269   3.113   6.308 -0.2634 -0.1958 -0.5104
 8437SOL    HW136773   2.345   3.122   6.251 -0.1898 -0.5773 -0.4679
 8437SOL    HW236774   2.312   3.082   6.387  1.1019  0.5707 -0.9511
 8438SOL     OW36775   3.033   3.680   8.914  0.1458 -0.6754 -0.3029
 8438SOL    HW136776   3.025   3.597   8.961  0.4565 -0.9590 -0.7445
 8438SOL    HW236777   3.109   3.717   8.958  0.6450  1.7386 -3.1627
 8439SOL     OW36778   3.977   1.105   5.577 -0.0110  0.4163 -0.2360
 8439SOL    HW136779   3.920   1.169   5.620 -0.0584 -0.7888  1.5065
 8439SOL    HW236780   3.979   1.050   5.656  0.6679  3.5331  1.9061
 8440SOL     OW36781   2.704   3.170   7.946  0.2765  0.8609  0.5394
 8440SOL    HW136782   2.621   3.213   7.925  1.5473  2.7486 -0.6469
 8440SOL    HW236783   2.756   3.251   7.950 -0.1763  1.1143  1.3376
 8441SOL     OW36784   2.849   4.338   7.007  0.6438 -0.1092 -0.0387
 8441SOL    HW136785   2.875   4.288   7.085  1.1487  0.1051 -0.0653
 8441SOL    HW236786   2.854   4.422   7.052 -0.3175  0.2433 -0.6058
 8442SOL     OW36787   0.183   4.626  14.525 -0.1456 -1.1217  0.2446
 8442SOL    HW136788   0.141   4.627  14.611 -0.7641  0.7597 -0.0763
 8442SOL    HW236789   0.255   4.688  14.533 -1.1271 -0.0891  0.9729
 8443SOL     OW36790   1.457   1.921   5.558  0.2414 -0.0310  0.4395
 8443SOL    HW136791   1.411   1.863   5.498 -0.9077 -0.8437  2.1000
 8443SOL    HW236792   1.544   1.923   5.518 -1.0560 -3.8036 -2.5991
 8444SOL     OW36793   0.303   2.909  17.414  0.0587  0.4261  0.2062
 8444SOL    HW136794   0.350   2.934  17.334 -1.9818  0.1432 -1.1020
 8444SOL    HW236795   0.266   2.822  17.398  2.1586  0.1297 -3.2187
 8445SOL     OW36796   2.051   4.265   4.310 -0.1210 -0.1106 -0.2508
 8445SOL    HW136797   2.129   4.217   4.282  0.1632  0.6550 -0.7762
 8445SOL    HW236798   2.097   4.322   4.372 -0.3467 -1.2957  1.0088
 8446SOL     OW36799   2.213   0.991   8.847  0.1583 -0.2937 -0.4784
 8446SOL    HW136800   2.258   1.006   8.930  1.3473 -2.8145 -0.6809
 8446SOL    HW236801   2.140   1.053   8.840  0.1754 -0.1197  0.9382
 8447SOL     OW36802   0.410   4.086   4.113 -0.2089 -0.1062  0.2312
 8447SOL    HW136803   0.330   4.066   4.163 -0.6649  2.4762  0.5207
 8447SOL    HW236804   0.442   4.163   4.159 -2.8239  1.9028 -1.2967
 8448SOL     OW36805   1.314   1.213   5.496 -1.1846  0.0540  0.0072
 8448SOL    HW136806   1.269   1.221   5.411  0.5064  1.8926 -0.7223
 8448SOL    HW236807   1.379   1.148   5.469 -0.2378  1.8646 -2.0635
 8449SOL     OW36808   3.595   3.761   5.463 -0.4085 -0.2042 -0.4937
 8449SOL    HW136809   3.643   3.827   5.513 -0.8103 -0.1143 -0.2301
 8449SOL    HW236810   3.565   3.816   5.392  2.7778  1.2897 -0.6705
 8450SOL     OW36811   3.056   2.706   2.879  0.1466  0.2104 -0.2964
 8450SOL    HW136812   3.003   2.706   2.959 -0.5497 -1.8515 -0.7437
 8450SOL    HW236813   3.062   2.801   2.867 -1.1451  0.5224  1.5420
 8451SOL     OW36814   3.438   4.047   8.641  0.1479 -0.2797  0.0256
 8451SOL    HW136815   3.459   4.110   8.572 -0.8662  2.3285  2.0955
 8451SOL    HW236816   3.431   3.970   8.585 -0.9823  1.5032 -2.2886
 8452SOL     OW36817   1.014   1.768   3.624 -0.8787 -0.4114 -0.0028
 8452SOL    HW136818   0.991   1.767   3.717 -0.1534  2.1964  0.2082
 8452SOL    HW236819   0.981   1.850   3.588  1.1398  0.4250  0.0560
 8453SOL     OW36820   3.942   2.884   5.415 -0.4007  0.4080 -0.3309
 8453SOL    HW136821   3.965   2.815   5.477 -1.2382  0.0929 -0.3763
 8453SOL    HW236822   3.852   2.899   5.444 -0.3742 -0.2340  0.0631
 8454SOL     OW36823   4.480   4.282   9.536 -0.2098 -0.6686 -0.2628
 8454SOL    HW136824   4.473   4.245   9.624 -1.9774  1.5846  0.5558
 8454SOL    HW236825   4.464   4.374   9.559  2.6857 -0.5826  1.3371
 8455SOL     OW36826   0.087   1.006   2.704  0.1384  0.0654  0.3384
 8455SOL    HW136827   0.171   1.019   2.748  0.2921 -1.4410  0.4904
 8455SOL    HW236828   0.119   1.043   2.621 -0.4514  1.1230  0.5782
 8456SOL     OW36829   0.258   3.395   7.609 -0.0792 -0.1336 -0.3868
 8456SOL    HW136830   0.333   3.433   7.564  0.3558 -0.7307 -0.1537
 8456SOL    HW236831   0.212   3.477   7.630  0.0719  0.5069 -2.6377
 8457SOL     OW36832   0.803   1.951   2.464 -0.1792  0.0819  0.0548
 8457SOL    HW136833   0.765   2.036   2.486 -0.5804 -0.3149  0.8913
 8457SOL    HW236834   0.833   1.921   2.549  0.0928  1.6196  0.4946
 8458SOL     OW36835   0.617   2.675   1.915 -0.5823 -0.2415 -0.0430
 8458SOL    HW136836   0.687   2.619   1.949 -0.1355  1.3658  1.6693
 8458SOL    HW236837   0.554   2.603   1.915 -0.5566 -0.2627 -0.2287
 8459SOL     OW36838   0.246   1.894   5.945 -0.2270 -0.2290 -0.0570
 8459SOL    HW136839   0.189   1.969   5.931  0.1519  0.0358 -0.1903
 8459SOL    HW236840   0.217   1.832   5.878  0.6809 -0.3564 -0.3345
 8460SOL     OW36841   4.026   3.603   7.166  0.3734 -0.0221 -0.1735
 8460SOL    HW136842   4.089   3.672   7.145 -1.0989  1.0429 -1.1170
 8460SOL    HW236843   4.033   3.611   7.261 -2.4244 -2.2698  0.1949
 8461SOL     OW36844   1.614   0.491   9.571  0.0448 -0.2453 -0.0946
 8461SOL    HW136845   1.601   0.505   9.477 -1.8591  0.9115  0.3378
 8461SOL    HW236846   1.685   0.555   9.583 -0.5838  0.3596  0.3505
 8462SOL     OW36847   0.675   1.894   9.206 -0.2511  0.0540  0.1231
 8462SOL    HW136848   0.634   1.808   9.212 -0.4258  0.1614  0.4178
 8462SOL    HW236849   0.670   1.915   9.299 -1.9166  3.1906 -0.6786
 8463SOL     OW36850   3.612   2.902  16.702  0.3625  0.3907  0.5303
 8463SOL    HW136851   3.553   2.875  16.631 -0.1113 -0.8253  1.3868
 8463SOL    HW236852   3.692   2.904  16.649  0.4672 -1.9605  0.5958
 8464SOL     OW36853   2.752   3.596   7.710  0.4529 -0.4631  0.1520
 8464SOL    HW136854   2.739   3.683   7.748  0.5703 -1.1215  1.7053
 8464SOL    HW236855   2.684   3.599   7.643 -1.7366 -2.4468  2.2989
 8465SOL     OW36856   4.049   2.710   5.057  0.0840  0.7250  0.5502
 8465SOL    HW136857   4.001   2.755   4.987  0.9933 -0.8634 -1.1139
 8465SOL    HW236858   4.134   2.695   5.017  0.5212  0.7475  1.4683
 8466SOL     OW36859   4.228   4.390   5.471 -0.0871  0.1876  0.0754
 8466SOL    HW136860   4.302   4.359   5.522 -1.1718 -0.6833  1.1373
 8466SOL    HW236861   4.266   4.375   5.384 -0.7851 -1.0501 -0.0268
 8467SOL     OW36862   3.396   3.840   7.547 -0.1814 -0.2301 -0.1997
 8467SOL    HW136863   3.349   3.909   7.500 -0.7323 -2.3792 -2.7595
 8467SOL    HW236864   3.399   3.775   7.477 -0.9872  0.4672 -0.8861
 8468SOL     OW36865   1.123   1.967   5.111 -0.0588  0.5097  0.3646
 8468SOL    HW136866   1.132   2.062   5.116 -2.1157  0.8340 -1.7299
 8468SOL    HW236867   1.094   1.944   5.199  1.7950  0.5199  0.9794
 8469SOL     OW36868   3.872   2.490   5.471  0.3651  0.1989 -0.4254
 8469SOL    HW136869   3.908   2.564   5.520  0.2942 -0.1717  0.1863
 8469SOL    HW236870   3.927   2.418   5.498 -1.3798 -0.8595  0.3230
 8470SOL     OW36871   2.902   0.771  13.510  0.4273 -0.3099 -0.0961
 8470SOL    HW136872   2.943   0.857  13.520 -0.2321 -0.1938  1.6049
 8470SOL    HW236873   2.948   0.719  13.577 -0.4887 -0.1049  0.6907
 8471SOL     OW36874   4.468   3.107   3.664  0.2846 -0.6171 -0.4201
 8471SOL    HW136875   4.522   3.085   3.587  1.2150 -1.9751  0.6043
 8471SOL    HW236876   4.522   3.172   3.709  0.9991 -2.5880  1.5702
 8472SOL     OW36877   2.231   0.501   5.830  0.4877  0.1243  0.5153
 8472SOL    HW136878   2.204   0.486   5.739  1.3627  0.1360  0.2527
 8472SOL    HW236879   2.278   0.585   5.828 -1.1037  1.0228  0.5846
 8473SOL     OW36880   2.423   0.060   9.257  0.3405 -0.2804 -0.3855
 8473SOL    HW136881   2.465   0.022   9.180  2.8980  1.0877  0.3456
 8473SOL    HW236882   2.399   4.703   9.301  0.5161  0.4065  0.9943
 8474SOL     OW36883   2.234   2.214   1.771 -0.3315 -0.0507 -0.0044
 8474SOL    HW136884   2.173   2.214   1.697 -0.2404 -0.8885 -0.0833
 8474SOL    HW236885   2.312   2.185   1.723 -1.0782 -1.9041 -0.1009
 8475SOL     OW36886   1.548   4.697   4.690  0.4017 -0.6880  0.3388
 8475SOL    HW136887   1.547   4.605   4.718  0.3087 -1.3638 -1.9207
 8475SOL    HW236888   1.573   4.693   4.598 -0.0393  1.1258  0.1444
 8476SOL     OW36889   1.539   1.596   4.480  0.4953  1.0182 -0.6522
 8476SOL    HW136890   1.453   1.599   4.522  0.9736  0.0014  0.4084
 8476SOL    HW236891   1.580   1.682   4.471  0.5157  1.1622  0.7887
 8477SOL     OW36892   2.292   3.886   8.207 -0.5079  0.4256 -0.0366
 8477SOL    HW136893   2.275   3.821   8.276  1.5384 -2.2047 -1.9932
 8477SOL    HW236894   2.250   3.962   8.246 -0.4812  0.2987  0.2466
 8478SOL     OW36895   3.462   0.324   4.517 -0.0140  0.2978 -0.1143
 8478SOL    HW136896   3.518   0.402   4.515  0.5002 -0.0848 -0.6638
 8478SOL    HW236897   3.393   0.343   4.454  0.1593  2.8287  0.4868
 8479SOL     OW36898   1.062   2.412   6.295 -0.2230  0.5239  0.9505
 8479SOL    HW136899   0.973   2.443   6.309 -1.5547 -2.7976 -0.2371
 8479SOL    HW236900   1.097   2.458   6.372  0.6619 -2.1204  2.1168
 8480SOL     OW36901   1.192   3.621   2.482 -0.0955  0.0176 -0.0177
 8480SOL    HW136902   1.277   3.579   2.494 -1.7038 -3.0893  0.5828
 8480SOL    HW236903   1.213   3.688   2.417  1.2504 -0.6616 -0.2695
 8481SOL     OW36904   3.018   2.079   3.953 -0.1615 -0.0591  0.0696
 8481SOL    HW136905   2.930   2.042   3.959 -1.4928  3.4096  2.3561
 8481SOL    HW236906   3.076   2.006   3.931 -0.5306 -0.0518 -0.9142
 8482SOL     OW36907   3.254   3.438   8.528  0.0291  0.2524  0.5450
 8482SOL    HW136908   3.280   3.476   8.612 -1.5048  1.1784  0.6047
 8482SOL    HW236909   3.246   3.515   8.471  1.0771 -1.9836 -2.5670
 8483SOL     OW36910   3.776   2.712   7.962  0.2044  0.6594 -0.0754
 8483SOL    HW136911   3.798   2.779   8.027 -1.4841  2.2374 -1.0924
 8483SOL    HW236912   3.689   2.749   7.942  0.0662  0.9054  0.9663
 8484SOL     OW36913   1.932   2.182  12.237  0.1161 -0.1031 -0.1888
 8484SOL    HW136914   1.903   2.249  12.175 -1.4674 -0.0286  0.6565
 8484SOL    HW236915   1.876   2.204  12.312  1.3543 -1.8916  1.2494
 8485SOL     OW36916   1.929   3.336   2.382 -0.4703 -0.1836 -0.3199
 8485SOL    HW136917   1.943   3.398   2.311 -0.6284 -0.2621 -0.4197
 8485SOL    HW236918   1.836   3.356   2.396 -0.1308  0.4838  0.9270
 8486SOL     OW36919   3.841   1.130   8.078  0.0747  0.5877 -0.3566
 8486SOL    HW136920   3.878   1.153   7.993 -0.0061 -1.3821 -0.9292
 8486SOL    HW236921   3.853   1.215   8.120  1.1043  0.8611 -1.2089
 8487SOL     OW36922   1.070   1.013  13.461  0.2871 -0.2211  0.0706
 8487SOL    HW136923   1.138   0.974  13.407 -0.5897 -0.3687 -0.9281
 8487SOL    HW236924   1.022   1.057  13.391  0.3101 -0.2220  0.0543
 8488SOL     OW36925   2.739   1.025   2.860 -0.0891  0.3478 -0.3278
 8488SOL    HW136926   2.680   0.954   2.888 -1.6515  1.8021  0.0510
 8488SOL    HW236927   2.821   0.977   2.845 -0.9322 -1.1430 -0.2166
 8489SOL     OW36928   0.741   2.102   7.548  0.1347 -0.4617 -0.0053
 8489SOL    HW136929   0.714   2.079   7.637 -1.0367 -1.5009 -0.6436
 8489SOL    HW236930   0.815   2.042   7.539 -0.4328 -1.3504  1.3176
 8490SOL     OW36931   0.935   3.405   4.148 -0.2342  0.1280 -0.0246
 8490SOL    HW136932   0.904   3.494   4.129 -0.3216 -0.1866 -1.2979
 8490SOL    HW236933   0.946   3.364   4.063 -1.5518  0.0608 -0.1755
 8491SOL     OW36934   2.831   0.824  11.752  0.0390 -0.1134 -0.6077
 8491SOL    HW136935   2.770   0.765  11.708 -2.1125  1.2282  0.5857
 8491SOL    HW236936   2.890   0.757  11.786  0.6176 -0.0500 -1.4747
 8492SOL     OW36937   4.103   1.339   2.969  0.4184 -0.0299 -0.0748
 8492SOL    HW136938   4.118   1.400   3.040 -1.1253  2.2738 -1.7418
 8492SOL    HW236939   4.044   1.387   2.911 -0.0176 -0.3631  0.0867
 8493SOL     OW36940   1.344   3.549   8.711 -0.1411  0.0117  0.4104
 8493SOL    HW136941   1.279   3.512   8.651  1.4150  0.6095 -1.6309
 8493SOL    HW236942   1.302   3.635   8.719  5.2928  2.6807  0.1009
 8494SOL     OW36943   4.651   1.186   4.503 -0.7460 -0.6371  0.4548
 8494SOL    HW136944   4.721   1.130   4.469 -0.2137  0.9025 -1.0028
 8494SOL    HW236945   4.574   1.137   4.473 -0.7832  0.2848 -0.9579
 8495SOL     OW36946   4.146   0.365  16.055  0.3511 -0.1825  0.4378
 8495SOL    HW136947   4.237   0.393  16.062 -0.4077  2.2254  0.4179
 8495SOL    HW236948   4.107   0.447  16.084 -0.9400 -0.7089  0.2138
 8496SOL     OW36949   4.606   1.606   6.244 -0.0687 -0.1771  0.1916
 8496SOL    HW136950   4.654   1.599   6.327  0.4356  0.3440 -0.0494
 8496SOL    HW236951   4.522   1.565   6.262  1.5984 -3.0945  1.3080
 8497SOL     OW36952   1.224   3.487   6.926 -0.2473  0.4009 -0.3756
 8497SOL    HW136953   1.276   3.413   6.957  2.1327  1.8690 -0.8880
 8497SOL    HW236954   1.136   3.449   6.933 -0.1182 -0.1307 -1.5923
 8498SOL     OW36955   0.752   3.755   6.020  0.2887  0.4526  0.3774
 8498SOL    HW136956   0.846   3.744   6.008 -0.0035 -1.7987  0.1017
 8498SOL    HW236957   0.732   3.666   6.051  0.1818  0.5375  0.5502
 8499SOL     OW36958   3.639   0.513  12.782 -0.4105  0.2663 -0.0788
 8499SOL    HW136959   3.677   0.478  12.702 -1.6226 -1.9341  0.3016
 8499SOL    HW236960   3.551   0.476  12.774  0.2609 -0.8484 -2.1754
 8500SOL     OW36961   3.188   0.779   3.903  0.1705 -0.0524  0.4812
 8500SOL    HW136962   3.094   0.780   3.916 -0.1772 -4.4917 -1.7504
 8500SOL    HW236963   3.215   0.868   3.878  0.2000 -0.4200 -0.8160
 8501SOL     OW36964   0.872   2.405   3.884 -0.1518  0.3535  0.0831
 8501SOL    HW136965   0.862   2.481   3.827  0.0222 -0.1504 -0.6194
 8501SOL    HW236966   0.959   2.425   3.917 -0.0238  0.1561 -0.1296
 8502SOL     OW36967   4.489   0.547   7.092  0.1223  0.0683 -0.0806
 8502SOL    HW136968   4.502   0.639   7.069 -0.7211  0.3365  0.5126
 8502SOL    HW236969   4.523   0.492   7.021 -0.9533  1.6888 -1.8536
 8503SOL     OW36970   0.140   3.474   3.353  0.5033  0.2899  0.4260
 8503SOL    HW136971   0.220   3.446   3.309 -0.4404  0.2274 -1.2338
 8503SOL    HW236972   0.103   3.386   3.360  2.5480 -0.6160 -0.1437
 8504SOL     OW36973   0.048   3.758  10.609  0.4331 -0.3297  0.3876
 8504SOL    HW136974   0.119   3.822  10.608  0.2009 -0.1420 -3.4997
 8504SOL    HW236975   4.700   3.813  10.578  0.9394  0.5744  0.8034
 8505SOL     OW36976   3.236   0.007   9.111 -0.1579 -0.2345  0.1248
 8505SOL    HW136977   3.242   0.066   9.036  0.4962 -2.1124 -1.3133
 8505SOL    HW236978   3.322   4.690   9.115  0.3066  0.4693 -2.3814
 8506SOL     OW36979   0.325   0.489   7.033 -0.4036  0.2847  0.2323
 8506SOL    HW136980   0.372   0.512   7.113 -2.2064  3.0269  0.5133
 8506SOL    HW236981   0.243   0.535   7.045 -0.2215  0.1727  1.9114
 8507SOL     OW36982   0.819   0.038  15.638  0.0456 -0.1155 -0.3035
 8507SOL    HW136983   0.812   0.033  15.542  0.7880 -0.7513 -0.3266
 8507SOL    HW236984   0.743   4.717  15.673 -1.4043  0.2151 -3.0130
 8508SOL     OW36985   3.669   2.478   4.411  0.1247  0.4435  0.3615
 8508SOL    HW136986   3.762   2.487   4.434  0.2350 -0.6133  0.3412
 8508SOL    HW236987   3.669   2.383   4.397  1.4396  0.0924  2.7006
 8509SOL     OW36988   1.559   1.418   9.209  0.5686  0.1805 -0.7396
 8509SOL    HW136989   1.566   1.406   9.304  2.3858 -0.1160 -0.9207
 8509SOL    HW236990   1.471   1.456   9.198  1.2374  1.9803  0.1286
 8510SOL     OW36991   1.147   0.573   0.870  0.2282  0.2142  0.7131
 8510SOL    HW136992   1.237   0.595   0.848  0.6265 -0.6038  1.5584
 8510SOL    HW236993   1.163   0.482   0.891 -0.2333  0.2242  1.1138
 8511SOL     OW36994   3.302   2.294  11.467 -0.0927 -0.3707 -0.0848
 8511SOL    HW136995   3.271   2.237  11.397  3.5009 -1.6290 -0.6625
 8511SOL    HW236996   3.216   2.311  11.505 -0.9269 -1.0815 -1.6683
 8512SOL     OW36997   0.666   3.768   2.467 -0.5037  0.2958 -0.2361
 8512SOL    HW136998   0.713   3.787   2.547 -0.8104 -0.6022  0.1587
 8512SOL    HW236999   0.716   3.818   2.403  0.9946 -1.6417 -0.5781
 8513SOL     OW37000   3.099   3.061   9.925  0.3116  0.8362  0.3209
 8513SOL    HW137001   3.114   3.101  10.010 -0.3291  3.3723 -0.7431
 8513SOL    HW237002   3.065   2.976   9.953 -0.3038  0.9833  0.0390
 8514SOL     OW37003   0.363   0.155  12.664 -0.1195  0.1283  0.1558
 8514SOL    HW137004   0.368   0.148  12.759  1.1332 -0.7659  0.0263
 8514SOL    HW237005   0.296   0.224  12.671 -1.1870 -0.6139 -2.4888
 8515SOL     OW37006   1.908   1.940   5.505 -0.0212  0.3233 -0.1516
 8515SOL    HW137007   1.890   1.857   5.461 -0.7523  1.0969 -1.3015
 8515SOL    HW237008   1.976   1.972   5.445 -0.3502 -2.2671 -1.9019
 8516SOL     OW37009   0.319   4.046   1.131 -0.0073  0.0260 -0.4971
 8516SOL    HW137010   0.404   4.079   1.099 -0.3327 -0.8134 -2.2425
 8516SOL    HW237011   0.281   4.011   1.051 -0.0878 -1.9319  0.4083
 8517SOL     OW37012   0.639   3.352  16.485 -0.2749  0.3987  0.2389
 8517SOL    HW137013   0.633   3.287  16.554  1.3169  0.7070  0.6484
 8517SOL    HW237014   0.547   3.358  16.458 -0.5257  2.0555  1.4525
 8518SOL     OW37015   0.069   1.274   6.899  0.1880  0.5940 -0.0418
 8518SOL    HW137016   0.118   1.349   6.933  2.4938 -1.2171  0.5889
 8518SOL    HW237017   4.723   1.266   6.963  1.1733 -3.6138  0.5173
 8519SOL     OW37018   3.505   3.571   6.388 -0.2811  0.2086 -0.0484
 8519SOL    HW137019   3.495   3.645   6.328  0.6906  0.6608  0.3460
 8519SOL    HW237020   3.557   3.599   6.463 -2.0523 -2.1337  2.0634
 8520SOL     OW37021   3.694   4.623   7.117 -0.3062 -0.2346 -0.2099
 8520SOL    HW137022   3.677   4.584   7.203 -1.6757 -0.3980 -0.5515
 8520SOL    HW237023   3.784   4.652   7.132 -1.0073  2.1546 -0.7081
 8521SOL     OW37024   0.189   4.427   7.490 -0.6685 -0.3277 -0.3493
 8521SOL    HW137025   0.241   4.458   7.416  0.4264 -0.1125  0.5085
 8521SOL    HW237026   0.130   4.368   7.442 -1.2702  0.2278 -0.3016
 8522SOL     OW37027   3.484   3.560  12.198 -0.5687 -0.2621  0.0178
 8522SOL    HW137028   3.465   3.543  12.290 -2.5046  1.1139 -0.1320
 8522SOL    HW237029   3.551   3.494  12.181 -0.2529  0.3831 -1.3483
 8523SOL     OW37030   0.396   1.646   8.863 -0.2961  0.3102 -1.1625
 8523SOL    HW137031   0.332   1.646   8.934  0.9667  0.1872 -0.0290
 8523SOL    HW237032   0.383   1.734   8.827 -2.5054  0.2639 -0.5090
 8524SOL     OW37033   0.192   1.879   5.500 -0.0456  0.4464 -0.2378
 8524SOL    HW137034   0.238   1.843   5.424  2.2597 -1.2894  1.9768
 8524SOL    HW237035   0.145   1.952   5.461  0.9644  0.1683 -1.9789
 8525SOL     OW37036   3.107   2.754   2.330 -0.9319  0.5727  0.0430
 8525SOL    HW137037   3.022   2.720   2.304 -0.2623 -0.3125 -1.0312
 8525SOL    HW237038   3.084   2.795   2.413 -1.3624  3.1052 -1.3627
 8526SOL     OW37039   3.733   2.357   3.763  0.9419  0.1642  0.0056
 8526SOL    HW137040   3.731   2.452   3.776 -0.4621  0.0662  0.4976
 8526SOL    HW237041   3.640   2.340   3.778  1.0703  0.6958  1.3879
 8527SOL     OW37042   0.619   4.125   3.584  0.5506 -0.0140  0.3219
 8527SOL    HW137043   0.692   4.187   3.581 -0.6407  1.1671 -3.5433
 8527SOL    HW237044   0.658   4.042   3.613  2.5022  0.1094 -1.9861
 8528SOL     OW37045   3.691   3.281  17.135  0.5381 -0.1813  0.2421
 8528SOL    HW137046   3.769   3.233  17.162 -1.5642 -3.5601  0.3425
 8528SOL    HW237047   3.682   3.361  17.186  1.6934  1.5994 -2.3311
 8529SOL     OW37048   2.350   4.232  14.914  0.0933 -0.4078  0.1609
 8529SOL    HW137049   2.436   4.256  14.950  1.5343 -1.0799 -2.7955
 8529SOL    HW237050   2.369   4.199  14.826  2.3747 -0.6461  0.7479
 8530SOL     OW37051   4.005   2.215   2.826 -1.1544 -0.0031  0.0226
 8530SOL    HW137052   4.014   2.126   2.862 -1.0049  0.1192  0.2852
 8530SOL    HW237053   4.056   2.218   2.745 -0.2408  0.0309  0.6021
 8531SOL     OW37054   2.123   4.141  15.041  0.7013  0.7111 -0.8220
 8531SOL    HW137055   2.104   4.057  14.999  0.3244  0.9288 -1.0800
 8531SOL    HW237056   2.195   4.175  14.990  0.6344 -0.2453 -1.5532
 8532SOL     OW37057   0.326   3.623   8.367  0.0225  0.1855  0.0233
 8532SOL    HW137058   0.268   3.676   8.311 -0.1811  1.3184  1.3087
 8532SOL    HW237059   0.394   3.601   8.304  0.5367  2.0211 -0.0705
 8533SOL     OW37060   2.117   0.447   9.942  0.2464 -0.1087  0.1004
 8533SOL    HW137061   2.089   0.389  10.014 -0.6199 -0.0593 -0.2006
 8533SOL    HW237062   2.042   0.435   9.883 -0.1306  0.0766  0.5441
 8534SOL     OW37063   1.622   1.963  11.618  0.0339 -0.2188  0.4555
 8534SOL    HW137064   1.711   1.929  11.609  0.5944  1.5344 -0.6322
 8534SOL    HW237065   1.637   2.052  11.649 -0.6384 -0.1641  0.6352
 8535SOL     OW37066   1.299   0.594   4.444 -0.1397 -0.0857  0.2435
 8535SOL    HW137067   1.307   0.678   4.489  0.4835  0.7264 -1.3899
 8535SOL    HW237068   1.323   0.618   4.355  0.0153  2.6478  1.0159
 8536SOL     OW37069   4.526   3.777  10.316 -0.2729 -0.8997  0.7359
 8536SOL    HW137070   4.469   3.705  10.343 -0.2263  0.0831  3.4440
 8536SOL    HW237071   4.475   3.796  10.237 -1.0141 -0.4001  1.3415
 8537SOL     OW37072   2.313   1.302   8.767 -0.3050 -0.0347 -0.2210
 8537SOL    HW137073   2.332   1.324   8.859  0.1554  1.8620 -0.7545
 8537SOL    HW237074   2.269   1.219   8.785 -2.4630  0.8930 -1.2471
 8538SOL     OW37075   3.091   2.268   7.793  0.2932  0.3433  0.2383
 8538SOL    HW137076   3.114   2.312   7.875  0.1029 -0.1360  0.5456
 8538SOL    HW237077   3.129   2.181   7.796 -0.0313  0.1953  0.0960
 8539SOL     OW37078   1.887   0.843   4.306 -0.0572 -0.0542 -0.1414
 8539SOL    HW137079   1.941   0.846   4.227 -1.0553  1.7636 -0.7639
 8539SOL    HW237080   1.838   0.763   4.285  0.1833  0.0075 -0.9415
 8540SOL     OW37081   0.232   2.411  15.879  0.0165 -0.5995 -0.6596
 8540SOL    HW137082   0.189   2.341  15.831 -3.0961  0.7410  0.1825
 8540SOL    HW237083   0.323   2.381  15.880  0.4712  0.7817  1.8764
 8541SOL     OW37084   1.767   2.201  13.252  0.0021 -0.2564  0.1336
 8541SOL    HW137085   1.718   2.148  13.189  2.0202 -1.1957 -0.6476
 8541SOL    HW237086   1.709   2.198  13.329 -1.6463 -0.7614 -1.1105
 8542SOL     OW37087   0.315   3.006   1.349  0.7498 -0.2132 -0.0588
 8542SOL    HW137088   0.290   3.096   1.328 -1.0688 -0.4697  0.9974
 8542SOL    HW237089   0.234   2.955   1.342 -0.4649  1.7015 -0.1595
 8543SOL     OW37090   4.514   0.463   8.497  0.3444  0.1943 -0.3550
 8543SOL    HW137091   4.525   0.510   8.579 -1.5348 -3.4940  2.0086
 8543SOL    HW237092   4.440   0.408   8.522  0.7945  0.0251  0.5927
 8544SOL     OW37093   3.275   4.384   4.567  0.5202  0.2725 -0.1778
 8544SOL    HW137094   3.313   4.450   4.509  0.5119  1.2947  0.9697
 8544SOL    HW237095   3.235   4.450   4.624 -1.9421 -0.4090 -1.0999
 8545SOL     OW37096   2.825   4.575   6.415  0.4836  0.1683 -0.1381
 8545SOL    HW137097   2.760   4.532   6.360 -0.1508  0.2314  0.5554
 8545SOL    HW237098   2.831   4.500   6.475 -1.2279 -0.4354 -0.7148
 8546SOL     OW37099   3.276   0.199  13.105  0.0903 -0.6338  0.1347
 8546SOL    HW137100   3.230   0.276  13.139  2.5850  0.3172  1.3147
 8546SOL    HW237101   3.353   0.241  13.068  0.2511 -0.6639  0.4371
 8547SOL     OW37102   3.185   1.716   7.909 -0.3269 -0.0602 -0.2816
 8547SOL    HW137103   3.234   1.792   7.941 -3.1184  1.0453  1.3848
 8547SOL    HW237104   3.113   1.721   7.971  1.2256 -0.0964  1.5349
 8548SOL     OW37105   2.307   0.302   4.057  0.0608  0.1068  0.2872
 8548SOL    HW137106   2.293   0.264   3.970 -1.4287  2.3685 -0.4648
 8548SOL    HW237107   2.367   0.374   4.043 -0.5378  0.1867 -1.8622
 8549SOL     OW37108   4.005   4.602   3.489 -0.4499 -0.0965  0.2101
 8549SOL    HW137109   4.093   4.596   3.453 -0.3308  0.7008  0.3526
 8549SOL    HW237110   4.012   4.646   3.574  1.2318 -3.2630  1.6992
 8550SOL     OW37111   1.078   4.477  11.528 -0.4489  0.3363 -0.4428
 8550SOL    HW137112   1.037   4.560  11.554  1.9390  1.0687  1.0113
 8550SOL    HW237113   1.039   4.411  11.585  2.4490 -1.5051 -0.6143
 8551SOL     OW37114   1.061   2.511  16.654 -0.9160 -0.1281 -0.5002
 8551SOL    HW137115   0.991   2.523  16.589 -2.3889 -0.7514  0.9890
 8551SOL    HW237116   1.124   2.455  16.608  0.3327  1.1631 -0.3621
 8552SOL     OW37117   0.373   4.479   4.967 -0.7024  0.9130  0.2211
 8552SOL    HW137118   0.385   4.450   4.876  0.1033  3.7256 -0.5856
 8552SOL    HW237119   0.456   4.525   4.983 -2.2817  3.8007  0.0822
 8553SOL     OW37120   4.185   4.326   2.840  0.0863 -0.1066 -0.2090
 8553SOL    HW137121   4.255   4.271   2.808  0.2131  0.0674 -0.2325
 8553SOL    HW237122   4.125   4.254   2.858  1.3139 -1.7608 -2.8585
 8554SOL     OW37123   1.656   0.211   9.236 -0.3999 -0.0688 -0.3373
 8554SOL    HW137124   1.622   0.122   9.223  1.6644 -1.2095  2.1685
 8554SOL    HW237125   1.678   0.220   9.328 -3.1902 -0.2334  0.3371
 8555SOL     OW37126   4.423   4.533   9.584  0.3771  0.7392  0.4033
 8555SOL    HW137127   4.398   4.593   9.513 -0.8496 -1.6366 -1.1571
 8555SOL    HW237128   4.498   4.572   9.629  0.6363 -0.1764  0.7521
 8556SOL     OW37129   4.055   4.471   8.360  0.1197  0.7082  0.1744
 8556SOL    HW137130   4.082   4.562   8.346 -3.0036  1.4481 -0.9377
 8556SOL    HW237131   4.118   4.427   8.302  0.1188  2.5975 -1.2649
 8557SOL     OW37132   1.869   3.849   6.723  0.0371 -0.2841 -0.2201
 8557SOL    HW137133   1.953   3.878   6.688 -0.9267  1.0271 -1.3933
 8557SOL    HW237134   1.807   3.887   6.662 -0.6402 -0.1727  0.5377
 8558SOL     OW37135   4.367   2.907  15.942  0.0436 -0.1289  0.1914
 8558SOL    HW137136   4.294   2.861  15.983  0.5694 -0.3892  0.8435
 8558SOL    HW237137   4.377   2.864  15.858 -0.7497 -1.0904  0.5899
 8559SOL     OW37138   3.593   3.180   4.765  0.5332  0.1972 -0.0239
 8559SOL    HW137139   3.674   3.230   4.766  2.0983 -2.3768 -0.2343
 8559SOL    HW237140   3.619   3.118   4.833 -0.4034 -2.5680 -2.1645
 8560SOL     OW37141   2.777   1.618   7.794  0.9210 -0.1784  0.4066
 8560SOL    HW137142   2.745   1.529   7.778 -1.3390  0.5492  0.7904
 8560SOL    HW237143   2.869   1.620   7.771  0.5113 -0.2680 -1.2412
 8561SOL     OW37144   1.901   2.304   7.911 -0.3655  0.5170  0.4578
 8561SOL    HW137145   1.991   2.276   7.895 -0.9437 -1.6990  1.0536
 8561SOL    HW237146   1.909   2.373   7.977  1.3744 -0.2276  1.0326
 8562SOL     OW37147   1.892   3.851   7.737 -0.5817 -0.1043 -0.5797
 8562SOL    HW137148   1.829   3.860   7.666 -1.8880  0.2034  0.6182
 8562SOL    HW237149   1.980   3.859   7.699 -1.3509  1.1360 -2.0851
 8563SOL     OW37150   1.564   1.349   8.930  0.5406  0.1917 -0.3809
 8563SOL    HW137151   1.561   1.370   9.023 -1.0321  1.2226 -0.6600
 8563SOL    HW237152   1.502   1.411   8.892 -0.2562 -0.5888 -0.3607
 8564SOL     OW37153   0.495   4.474   3.128 -0.5171 -0.2230  0.5180
 8564SOL    HW137154   0.457   4.402   3.179 -1.7872  0.7890  0.9998
 8564SOL    HW237155   0.539   4.515   3.202 -0.6574  0.2557  0.3360
 8565SOL     OW37156   4.420   2.519   2.966 -0.1492 -0.3602  0.5516
 8565SOL    HW137157   4.340   2.490   3.012 -0.7090 -0.6122 -0.5845
 8565SOL    HW237158   4.439   2.593   3.024  2.0494 -0.3320 -0.2383
 8566SOL     OW37159   0.033   1.987   2.800  0.3150  0.3486 -0.0295
 8566SOL    HW137160   0.087   2.062   2.825 -3.1441  1.7388  3.3919
 8566SOL    HW237161   0.091   1.916   2.827 -0.6926 -0.8545 -1.0335
 8567SOL     OW37162   3.120   3.130  13.802 -0.1595 -0.1249  0.3060
 8567SOL    HW137163   3.178   3.053  13.799 -1.2215 -1.0129  2.2351
 8567SOL    HW237164   3.034   3.097  13.826 -0.5474  0.3204 -0.4882
 8568SOL     OW37165   4.184   0.947   3.592 -0.2336  0.1256 -0.2665
 8568SOL    HW137166   4.260   1.003   3.577  1.7826 -2.3001  0.6945
 8568SOL    HW237167   4.117   1.010   3.568 -1.7402 -1.3232  0.1231
 8569SOL     OW37168   1.546   3.414   3.853 -0.0567  0.6360  0.6803
 8569SOL    HW137169   1.453   3.436   3.859 -0.0560 -0.3301  3.9310
 8569SOL    HW237170   1.573   3.485   3.794  1.7117 -2.2792 -2.0805
 8570SOL     OW37171   4.238   0.497   9.127 -0.2002  0.0906  0.3274
 8570SOL    HW137172   4.300   0.569   9.130 -1.0438  0.9130 -1.5209
 8570SOL    HW237173   4.240   0.488   9.031 -1.6914 -0.3763  0.3437
 8571SOL     OW37174   0.062   1.682   5.233 -0.0786  0.0221  0.3721
 8571SOL    HW137175   0.143   1.732   5.221  0.2230 -0.5478  0.0068
 8571SOL    HW237176   4.721   1.732   5.183  1.5299  0.8793 -0.8918
 8572SOL     OW37177   0.139   3.367   4.784 -0.0464 -0.0949  0.0456
 8572SOL    HW137178   0.046   3.385   4.790 -0.3204 -1.2510 -0.7285
 8572SOL    HW237179   0.140   3.271   4.791  0.8319 -0.0567  0.5225
 8573SOL     OW37180   3.211   4.578  15.769  0.2483  0.3250  0.2613
 8573SOL    HW137181   3.184   4.486  15.772  1.1407  0.1227  2.3976
 8573SOL    HW237182   3.305   4.565  15.775  0.0940  1.0346  3.9264
 8574SOL     OW37183   1.246   4.600   5.781 -0.0398  0.0317 -0.6947
 8574SOL    HW137184   1.187   4.528   5.759 -2.2348  1.9373 -1.0310
 8574SOL    HW237185   1.246   4.656   5.703  2.0620  0.4657 -0.3901
 8575SOL     OW37186   2.162   2.609   3.127  0.2266 -0.3807 -0.0206
 8575SOL    HW137187   2.223   2.673   3.162  0.5183 -1.5937  1.6769
 8575SOL    HW237188   2.150   2.636   3.036  0.5489 -1.7061 -0.4494
 8576SOL     OW37189   3.813   0.020  15.636  0.3407  0.2095  0.0285
 8576SOL    HW137190   3.739   0.074  15.664 -0.0953 -1.9095  2.9286
 8576SOL    HW237191   3.821   0.050  15.545  0.0107  0.1338 -0.0287
 8577SOL     OW37192   3.745   1.636   5.560 -0.2827  0.4522 -0.4085
 8577SOL    HW137193   3.711   1.549   5.539 -0.7741  1.2584 -2.8988
 8577SOL    HW237194   3.829   1.630   5.514 -0.2915  1.0598 -0.4978
 8578SOL     OW37195   1.258   2.907   8.721 -0.7297  0.4392 -0.2459
 8578SOL    HW137196   1.172   2.950   8.713 -0.0878  1.5995 -0.9367
 8578SOL    HW237197   1.255   2.884   8.814 -0.6787  0.9525 -0.1169
 8579SOL     OW37198   1.987   1.311   5.527  0.5427 -0.7537  0.1101
 8579SOL    HW137199   1.979   1.406   5.524  1.0035 -0.6555  2.1118
 8579SOL    HW237200   2.069   1.294   5.574  1.7314 -1.0022 -2.0261
 8580SOL     OW37201   1.225   3.410   4.806  0.1644  0.5370  0.8264
 8580SOL    HW137202   1.281   3.360   4.866 -1.2771 -0.6491  1.1693
 8580SOL    HW237203   1.280   3.425   4.729 -1.8631  1.5661 -0.4311
 8581SOL     OW37204   3.568   1.434   0.317 -0.2374  0.3321 -0.5671
 8581SOL    HW137205   3.473   1.424   0.312 -0.5357  3.3056 -0.8538
 8581SOL    HW237206   3.573   1.488   0.396  0.1382 -2.0989  1.0713
 8582SOL     OW37207   0.614   1.527   2.704 -1.2703 -0.1824 -0.2266
 8582SOL    HW137208   0.654   1.507   2.619 -0.0567 -0.9493  0.5367
 8582SOL    HW237209   0.573   1.611   2.687  0.7296  0.6827 -0.7720
 8583SOL     OW37210   3.662   1.778   3.393  0.1258 -0.5311 -0.1874
 8583SOL    HW137211   3.667   1.723   3.471  0.6004 -0.5327 -0.2184
 8583SOL    HW237212   3.740   1.833   3.405 -0.3378 -0.2344  1.4923
 8584SOL     OW37213   1.599   3.759   3.848  0.2670  0.0484  0.0541
 8584SOL    HW137214   1.603   3.850   3.820 -2.0243 -0.5202 -2.1159
 8584SOL    HW237215   1.678   3.731   3.803  0.8016 -0.2274  1.1452
 8585SOL     OW37216   3.888   2.911   8.179 -0.3373  0.2489  0.1197
 8585SOL    HW137217   3.888   3.004   8.158 -1.9674  0.1045 -0.5306
 8585SOL    HW237218   3.811   2.901   8.235  2.4158 -2.1844  3.4974
 8586SOL     OW37219   3.064   4.561  10.735 -0.4217  0.6158  0.0415
 8586SOL    HW137220   3.132   4.494  10.728 -0.8117  0.0317  1.9967
 8586SOL    HW237221   3.105   4.624  10.794 -0.2826  0.9544 -0.4131
 8587SOL     OW37222   4.067   3.697   5.124 -0.2933  0.0587  0.6151
 8587SOL    HW137223   4.142   3.744   5.088  0.6754 -1.7704  0.2476
 8587SOL    HW237224   4.006   3.750   5.073  2.7688  2.2491 -0.7633
 8588SOL     OW37225   1.441   2.072   7.341 -0.3210 -0.5096  0.0592
 8588SOL    HW137226   1.353   2.042   7.365  0.0762 -0.8431  1.1167
 8588SOL    HW237227   1.433   2.073   7.246 -0.3043  2.7907  0.0789
 8589SOL     OW37228   2.967   2.380  15.335  0.1476 -0.1103  0.6062
 8589SOL    HW137229   3.015   2.300  15.313  2.0874  1.5765 -1.2332
 8589SOL    HW237230   2.939   2.411  15.249  0.2905 -0.2519  0.5082
 8590SOL     OW37231   3.637   2.343   9.385 -0.2210  0.0569  0.0781
 8590SOL    HW137232   3.721   2.334   9.430  0.0280 -0.4974 -0.4882
 8590SOL    HW237233   3.664   2.337   9.293 -2.4885 -0.2048 -0.5494
 8591SOL     OW37234   4.663   1.587   5.688  0.0251  0.1752 -0.1192
 8591SOL    HW137235   4.688   1.501   5.654  0.9194  0.5575 -0.4071
 8591SOL    HW237236   4.586   1.612   5.636 -0.6461 -0.0745  0.7565
 8592SOL     OW37237   1.617   3.870   5.537 -0.3342  0.6272  0.3142
 8592SOL    HW137238   1.695   3.886   5.590 -1.0671 -0.5746  1.7556
 8592SOL    HW237239   1.555   3.901   5.603 -1.2285  1.1472 -0.7772
 8593SOL     OW37240   1.388   3.038  11.901  0.0800  0.8235 -0.1620
 8593SOL    HW137241   1.342   3.122  11.896 -1.6066 -0.0267  1.0362
 8593SOL    HW237242   1.345   3.009  11.981 -1.0945 -2.2648 -1.9120
 8594SOL     OW37243   0.511   0.567   0.631  0.4130 -0.1274  0.0798
 8594SOL    HW137244   0.582   0.505   0.616  0.3763  0.1777 -1.3217
 8594SOL    HW237245   0.538   0.644   0.582  0.5782 -1.0109 -1.2025
 8595SOL     OW37246   2.502   2.423   7.089  0.4812  0.3694  0.1739
 8595SOL    HW137247   2.425   2.378   7.053  1.1542 -0.1014 -0.6722
 8595SOL    HW237248   2.525   2.467   7.006  0.3566  2.2772  1.1434
 8596SOL     OW37249   1.999   1.804   6.093  0.1891  0.0681 -0.3793
 8596SOL    HW137250   2.063   1.873   6.076 -1.0484  1.9127  2.4373
 8596SOL    HW237251   1.988   1.822   6.186  2.8397  0.6884 -0.1965
 8597SOL     OW37252   1.880   0.404   9.765  0.6125 -0.3672 -0.3797
 8597SOL    HW137253   1.864   0.408   9.670  3.3360 -0.6388 -0.8348
 8597SOL    HW237254   1.861   0.312   9.787 -0.6831 -0.3186 -1.2529
 8598SOL     OW37255   2.920   1.492   2.590  0.1573  0.2479 -0.2165
 8598SOL    HW137256   2.933   1.488   2.495  0.6138  1.3463 -0.2037
 8598SOL    HW237257   2.826   1.509   2.589  0.3862  1.3246 -2.8199
 8599SOL     OW37258   2.504   2.095   7.850  0.1753 -0.4791  0.3298
 8599SOL    HW137259   2.517   2.011   7.894 -1.6635 -0.7468  0.3584
 8599SOL    HW237260   2.482   2.066   7.761 -0.6337  3.6479 -0.8178
 8600SOL     OW37261   0.838   2.927   4.411 -0.4584  0.4848 -0.7633
 8600SOL    HW137262   0.875   2.929   4.323  0.8486  3.0704 -0.1411
 8600SOL    HW237263   0.782   3.002   4.428  1.4399  1.5605  0.6816
 8601SOL     OW37264   4.433   4.168   8.175  0.2720  0.2475  0.3414
 8601SOL    HW137265   4.448   4.189   8.083  0.4623 -1.3780  0.0024
 8601SOL    HW237266   4.393   4.253   8.196  0.4445  0.6305 -0.8756
 8602SOL     OW37267   0.776   4.603   0.477  0.2238 -0.1797  0.4614
 8602SOL    HW137268   0.744   4.515   0.457  1.2748 -0.3616 -0.4382
 8602SOL    HW237269   0.859   4.589   0.524  1.1697  0.3740 -1.0322
 8603SOL     OW37270   2.185   0.476  17.691  0.2001  0.2687  0.5633
 8603SOL    HW137271   2.191   0.563  17.650 -2.2419  0.9550  1.6273
 8603SOL    HW237272   2.255   0.486   0.056 -0.3676  0.2153  1.1784
 8604SOL     OW37273   1.811   1.786  13.259 -0.1282  0.4708 -0.2118
 8604SOL    HW137274   1.732   1.737  13.281 -0.2246  0.1637 -1.2333
 8604SOL    HW237275   1.876   1.738  13.311  0.3427  2.3345  0.9237
 8605SOL     OW37276   4.183   2.201   4.063  0.4397  0.0569 -0.0805
 8605SOL    HW137277   4.218   2.255   4.134  0.6732 -1.1121  0.6831
 8605SOL    HW237278   4.215   2.262   3.996 -0.4657  1.6980  0.9699
 8606SOL     OW37279   1.113   4.101   8.940  0.2783  0.4232  0.0889
 8606SOL    HW137280   1.100   4.107   8.845  0.4232 -1.0224 -0.0207
 8606SOL    HW237281   1.071   4.019   8.967 -0.8846  0.9062 -0.2669
 8607SOL     OW37282   1.016   3.676   9.206  0.0508  0.6567  0.2996
 8607SOL    HW137283   1.109   3.698   9.216  0.6143 -1.0758 -1.2485
 8607SOL    HW237284   1.025   3.586   9.238 -0.9195  0.1407 -0.8838
 8608SOL     OW37285   4.309   3.937   5.170  0.5696  0.2384  0.5439
 8608SOL    HW137286   4.352   4.009   5.216  0.1553 -0.1212  1.4942
 8608SOL    HW237287   4.276   3.884   5.243  1.5544 -0.6204  0.3658
 8609SOL     OW37288   1.105   1.352  16.109  0.4634  0.5439  0.1104
 8609SOL    HW137289   1.019   1.358  16.149  0.7294  0.2300  0.7359
 8609SOL    HW237290   1.163   1.310  16.173  3.5450  3.8645 -0.4734
 8610SOL     OW37291   2.311   3.099   8.517 -0.2712 -0.1843 -0.0800
 8610SOL    HW137292   2.281   3.105   8.607 -0.3528  0.1800 -0.1336
 8610SOL    HW237293   2.229   3.128   8.478 -0.1959  0.3561  0.1755
 8611SOL     OW37294   3.832   4.296   2.253  0.0994 -0.1253 -1.0841
 8611SOL    HW137295   3.778   4.367   2.218  0.3802  0.7639  0.2627
 8611SOL    HW237296   3.767   4.227   2.244 -0.7659  0.4282  0.9165
 8612SOL     OW37297   1.692   1.706   3.652  0.2012  0.0921 -0.2669
 8612SOL    HW137298   1.726   1.674   3.568  0.7732 -2.0353  0.7722
 8612SOL    HW237299   1.599   1.682   3.644  0.6623 -1.8882  0.3644
 8613SOL     OW37300   2.742   2.104   5.894 -0.1332 -0.2085 -0.4119
 8613SOL    HW137301   2.662   2.130   5.848  0.1498  0.9679 -0.2458
 8613SOL    HW237302   2.699   2.066   5.971 -1.9528  2.4323 -0.1409
 8614SOL     OW37303   1.880   2.502   8.105 -0.1374 -0.0564  0.2401
 8614SOL    HW137304   1.943   2.574   8.113 -0.9710  0.5456  1.3374
 8614SOL    HW237305   1.856   2.488   8.196 -0.7796 -1.2865 -0.1276
 8615SOL     OW37306   2.184   2.146   5.603 -0.5606 -0.1377 -1.1747
 8615SOL    HW137307   2.268   2.190   5.594 -1.0335  1.2755  1.3254
 8615SOL    HW237308   2.135   2.205   5.661  3.5209  0.1615  1.9689
 8616SOL     OW37309   3.639   0.627   7.860  0.7641 -0.3591  0.1211
 8616SOL    HW137310   3.604   0.612   7.947 -0.7160 -0.7160 -0.5383
 8616SOL    HW237311   3.680   0.713   7.867  1.0628 -0.6298  1.5995
 8617SOL     OW37312   2.831   3.757  10.561  0.4278 -0.0515 -0.3100
 8617SOL    HW137313   2.794   3.707  10.633 -2.3098  3.1590  0.5625
 8617SOL    HW237314   2.903   3.795  10.610 -0.9628  0.2986  1.4604
 8618SOL     OW37315   0.236   2.684   7.072 -0.0282 -0.2069  0.2242
 8618SOL    HW137316   0.143   2.661   7.079  0.7363 -3.3410  0.2370
 8618SOL    HW237317   0.275   2.625   7.137  0.2378 -0.6328 -0.3266
 8619SOL     OW37318   3.467   2.604   6.131 -0.3556  0.4692  0.1401
 8619SOL    HW137319   3.426   2.519   6.147 -1.4597  0.7080 -1.4599
 8619SOL    HW237320   3.407   2.668   6.169  0.1507  0.4442  0.9758
 8620SOL     OW37321   0.664   4.454  11.902 -0.2578 -0.8613  0.2959
 8620SOL    HW137322   0.666   4.421  11.991  1.4895 -1.6704 -0.0540
 8620SOL    HW237323   0.621   4.384  11.852  1.2471 -2.6935  1.6105
 8621SOL     OW37324   0.718   0.659   1.974  0.1317  0.1185 -0.3786
 8621SOL    HW137325   0.690   0.583   1.924  0.8590 -1.5942  1.8087
 8621SOL    HW237326   0.634   0.704   1.982  0.6214  0.7396  1.3341
 8622SOL     OW37327   0.932   2.649   8.020 -0.1063  0.5970  0.2204
 8622SOL    HW137328   0.852   2.666   8.069  0.6959 -0.0805  1.7451
 8622SOL    HW237329   0.893   2.601   7.946  1.4662  0.2777 -0.4033
 8623SOL     OW37330   3.268   2.991   7.750 -0.9898  0.0252  0.4235
 8623SOL    HW137331   3.236   2.901   7.738 -0.4162 -0.0463 -0.5339
 8623SOL    HW237332   3.342   2.991   7.690 -1.7810  0.3213 -0.5448
 8624SOL     OW37333   4.560   1.880  12.845 -0.0758 -0.0215  0.2405
 8624SOL    HW137334   4.498   1.849  12.780  1.4803 -1.4542 -0.5487
 8624SOL    HW237335   4.623   1.933  12.797 -0.0445 -0.2097  0.0745
 8625SOL     OW37336   3.848   3.884   7.726  0.0125 -0.4583  0.3165
 8625SOL    HW137337   3.916   3.848   7.783  0.3101  1.6823  1.3407
 8625SOL    HW237338   3.810   3.804   7.691 -0.1339 -0.2983  0.1059
 8626SOL     OW37339   1.420   1.342   6.517  0.0569  0.0521  0.6285
 8626SOL    HW137340   1.416   1.299   6.602  0.8035  0.5005  0.8909
 8626SOL    HW237341   1.486   1.290   6.471  0.5315  0.4510  0.8677
 8627SOL     OW37342   0.280   1.850   3.791 -0.0479 -0.1664  0.4326
 8627SOL    HW137343   0.221   1.807   3.729 -0.8087 -0.8102  1.6122
 8627SOL    HW237344   0.330   1.898   3.725 -2.1419  0.2243 -0.8661
 8628SOL     OW37345   4.551   0.697   6.360  0.1319 -0.4000 -0.2481
 8628SOL    HW137346   4.617   0.713   6.292 -0.2720  0.2504 -0.4910
 8628SOL    HW237347   4.611   0.657   6.422  2.6364  2.8961 -0.5298
 8629SOL     OW37348   0.494   3.900   7.780  0.1813  0.4767  0.7162
 8629SOL    HW137349   0.538   3.863   7.704 -0.9736 -1.2789  0.9005
 8629SOL    HW237350   0.552   3.972   7.806  1.5906 -0.3359 -0.1746
 8630SOL     OW37351   1.936   4.396  10.559 -0.1063  0.3772  0.0358
 8630SOL    HW137352   2.011   4.406  10.618 -1.2026  1.2381  1.3027
 8630SOL    HW237353   1.865   4.423  10.618 -1.8318  1.4356 -2.5375
 8631SOL     OW37354   4.427   2.471  13.660  0.1718 -0.3704  0.0908
 8631SOL    HW137355   4.384   2.518  13.731 -3.0833 -0.8477 -1.5838
 8631SOL    HW237356   4.467   2.390  13.692 -2.0113 -1.4985 -0.0470
 8632SOL     OW37357   4.276   0.288   6.989  0.0054 -0.0182  0.1966
 8632SOL    HW137358   4.305   0.341   6.914  0.5341 -1.4211 -0.5887
 8632SOL    HW237359   4.338   0.215   6.991 -0.9806 -0.7503  4.0933
 8633SOL     OW37360   2.868   2.843   8.968 -1.0459 -0.5413  0.2252
 8633SOL    HW137361   2.950   2.802   8.937  1.0228  2.0838  2.2602
 8633SOL    HW237362   2.808   2.779   8.930 -0.0931 -1.0218 -0.4816
 8634SOL     OW37363   1.460   2.925   5.377 -0.1003  0.6604 -0.3727
 8634SOL    HW137364   1.367   2.904   5.362  0.1074 -0.4864 -0.1085
 8634SOL    HW237365   1.477   2.877   5.459  1.2461 -1.1337 -1.6911
 8635SOL     OW37366   1.646   3.458   9.476  0.2451  0.2134  0.3537
 8635SOL    HW137367   1.714   3.486   9.538  0.3268 -1.6056  1.0611
 8635SOL    HW237368   1.624   3.542   9.435  0.1115  0.6228  1.2662
 8636SOL     OW37369   2.279   2.977   1.134 -0.4040  0.8958  0.0986
 8636SOL    HW137370   2.240   3.008   1.052 -2.8883 -1.5687  0.3156
 8636SOL    HW237371   2.347   2.921   1.098 -0.9583 -0.0396  0.4818
 8637SOL     OW37372   2.755   4.150  16.746  0.3219 -0.1859 -0.9211
 8637SOL    HW137373   2.764   4.070  16.798  4.4000  1.0493  0.2559
 8637SOL    HW237374   2.824   4.203  16.787 -0.4229  1.0451 -1.2724
 8638SOL     OW37375   0.930   2.327  13.206 -0.1192  0.4778 -0.5234
 8638SOL    HW137376   0.869   2.393  13.239 -1.1135 -0.7077  0.0138
 8638SOL    HW237377   0.996   2.323  13.276 -0.0441  1.6013 -0.5366
 8639SOL     OW37378   3.970   2.547   7.867  0.1584  0.3667 -0.5097
 8639SOL    HW137379   3.902   2.603   7.905 -1.8951 -0.8476 -2.3694
 8639SOL    HW237380   3.943   2.530   7.777 -1.8736 -0.3396  0.2178
 8640SOL     OW37381   4.138   2.045  17.401 -0.0178 -0.2589  0.3734
 8640SOL    HW137382   4.182   2.093  17.471  0.4446 -1.9085  1.2109
 8640SOL    HW237383   4.057   2.095  17.398 -0.0445 -0.4890 -3.8163
 8641SOL     OW37384   0.084   4.042   6.706  0.0641  0.6102  0.2841
 8641SOL    HW137385   0.011   4.016   6.651  0.2810  0.1981  0.1873
 8641SOL    HW237386   0.150   3.976   6.686 -0.0513  0.8014 -0.7352
 8642SOL     OW37387   0.301   3.892   7.970 -0.2014 -0.0825 -0.9230
 8642SOL    HW137388   0.361   3.874   8.042  0.2960 -0.3702 -1.4035
 8642SOL    HW237389   0.361   3.897   7.895 -0.0815  0.3208 -0.8028
 8643SOL     OW37390   2.186   0.811   2.135  0.1809 -0.0955 -0.1118
 8643SOL    HW137391   2.244   0.755   2.084 -0.5552 -0.6375 -0.3578
 8643SOL    HW237392   2.165   0.881   2.074  0.7400 -0.8669 -1.1732
 8644SOL     OW37393   3.689   0.461   4.283 -0.1098  0.1814 -0.0599
 8644SOL    HW137394   3.683   0.503   4.197 -0.2717 -2.1741 -1.1992
 8644SOL    HW237395   3.632   0.385   4.270 -0.5474 -0.0294  2.8975
 8645SOL     OW37396   2.281   0.969   7.850  0.0684  0.3005  0.0285
 8645SOL    HW137397   2.215   0.936   7.788 -1.1140  0.1705  1.3351
 8645SOL    HW237398   2.228   0.993   7.926  0.2085 -1.7617  0.7933
 8646SOL     OW37399   1.719   0.204   4.750 -0.0219 -0.3900  0.0025
 8646SOL    HW137400   1.768   0.230   4.672 -1.0146 -0.2770 -0.5793
 8646SOL    HW237401   1.679   0.120   4.725  0.7871 -0.3912 -1.3221
 8647SOL     OW37402   0.049   0.112  12.763 -0.3221  0.0458 -0.4101
 8647SOL    HW137403   0.052   0.176  12.693  1.8020  0.1880 -0.1901
 8647SOL    HW237404   0.065   0.036  12.707 -1.6649 -0.8289  0.3821
 8648SOL     OW37405   1.215   1.659  16.637  0.2169  0.0013  0.4104
 8648SOL    HW137406   1.207   1.575  16.591 -2.1946 -0.9890  2.6276
 8648SOL    HW237407   1.306   1.667  16.608 -0.2319 -0.2220 -1.0528
 8649SOL     OW37408   4.011   2.186   9.800 -0.0411 -0.3433 -0.3584
 8649SOL    HW137409   4.080   2.240   9.761 -1.3431  0.2384 -1.8636
 8649SOL    HW237410   4.060   2.104   9.802 -0.5174 -0.6423 -1.1146
 8650SOL     OW37411   2.686   2.871  12.154 -0.2472 -0.7423  0.5972
 8650SOL    HW137412   2.762   2.918  12.187  0.4424 -1.8256  0.5696
 8650SOL    HW237413   2.716   2.853  12.065 -0.8515 -0.1800  0.2861
 8651SOL     OW37414   4.163   1.533   3.133 -0.4788 -0.1102 -0.1363
 8651SOL    HW137415   4.089   1.582   3.096 -0.0135  0.1729 -0.6913
 8651SOL    HW237416   4.188   1.584   3.210  0.0072  0.2309 -0.5248
 8652SOL     OW37417   2.698   2.579  12.030  0.3790 -0.3842 -0.3354
 8652SOL    HW137418   2.647   2.563  12.109 -0.4855 -1.9043 -1.2033
 8652SOL    HW237419   2.647   2.649  11.990 -0.2966 -0.0129  1.2137
 8653SOL     OW37420   3.676   1.641   4.850  0.2239  0.5546  0.0405
 8653SOL    HW137421   3.756   1.592   4.828  0.2572  0.9930 -0.7993
 8653SOL    HW237422   3.619   1.613   4.779  0.3387  0.5548 -0.0511
 8654SOL     OW37423   0.510   3.522  13.862  0.2728  0.6626 -0.5362
 8654SOL    HW137424   0.523   3.592  13.926 -1.9603  0.2487  0.3514
 8654SOL    HW237425   0.586   3.472  13.891  0.2453 -0.9371 -3.2147
 8655SOL     OW37426   1.245   0.320   4.823  0.0019 -0.5310  0.3073
 8655SOL    HW137427   1.301   0.243   4.830  0.4884 -0.2595 -0.7110
 8655SOL    HW237428   1.302   0.359   4.757 -0.6239  0.4378  0.3350
 8656SOL     OW37429   3.524   1.852   2.128 -0.0252  0.2885 -0.1236
 8656SOL    HW137430   3.483   1.778   2.173 -1.4769  0.6143 -0.9309
 8656SOL    HW237431   3.567   1.797   2.062  0.6407 -0.0443  0.5789
 8657SOL     OW37432   1.988   3.173   0.691 -0.6064 -0.4388  0.3982
 8657SOL    HW137433   1.966   3.086   0.660  1.2526 -0.5233 -0.7036
 8657SOL    HW237434   2.027   3.164   0.778  0.2353  3.1042  0.4274
 8658SOL     OW37435   2.195   0.521   3.388 -0.2989  0.1346  0.1870
 8658SOL    HW137436   2.187   0.430   3.359  2.1705  0.1664 -0.5390
 8658SOL    HW237437   2.194   0.563   3.302 -1.1927  1.3282  0.7769
 8659SOL     OW37438   3.445   0.730   3.844 -0.1880 -0.0749  0.0702
 8659SOL    HW137439   3.438   0.730   3.749  4.9543 -0.4289 -0.3094
 8659SOL    HW237440   3.352   0.741   3.862 -0.2801  1.9906 -1.7293
 8660SOL     OW37441   2.150   0.921   3.099  0.9447  0.8597 -0.4675
 8660SOL    HW137442   2.093   0.978   3.047 -2.5779 -0.7474  1.6373
 8660SOL    HW237443   2.221   0.896   3.040  2.3264  0.7133  1.2749
 8661SOL     OW37444   1.108   0.139   8.031 -0.2943 -0.0508 -0.0663
 8661SOL    HW137445   1.041   0.092   7.980 -2.4143  1.4190  1.3663
 8661SOL    HW237446   1.098   0.226   7.993  3.0014  0.4607  0.2472
 8662SOL     OW37447   4.521   3.961   2.398 -0.1680  0.3121 -0.2953
 8662SOL    HW137448   4.471   3.890   2.358 -1.1405  0.5730  0.4599
 8662SOL    HW237449   4.574   3.983   2.321 -0.2543 -2.0170 -1.0091
 8663SOL     OW37450   1.559   0.672  10.424 -0.4960  0.1904 -0.6468
 8663SOL    HW137451   1.501   0.601  10.397 -0.4748  0.0443 -0.3093
 8663SOL    HW237452   1.507   0.717  10.491 -1.2490  0.2644 -1.2919
 8664SOL     OW37453   1.246   0.085   7.721 -0.1027 -0.4006 -0.6100
 8664SOL    HW137454   1.153   0.087   7.744  0.2608  0.3180  0.8131
 8664SOL    HW237455   1.296   0.103   7.801 -1.2128 -1.1270  0.2520
 8665SOL     OW37456   2.060   0.901   6.567 -0.3778 -0.5074  0.5831
 8665SOL    HW137457   1.992   0.959   6.601 -1.2670 -1.7273  0.9116
 8665SOL    HW237458   2.001   0.830   6.539  1.4204 -1.8208  0.1326
 8666SOL     OW37459   4.150   0.904   2.530 -0.3052 -0.2119 -0.3736
 8666SOL    HW137460   4.185   0.815   2.537  0.2764  0.1277  1.0819
 8666SOL    HW237461   4.145   0.933   2.621 -1.7797 -1.5354 -0.0260
 8667SOL     OW37462   1.220   3.706   4.660  0.0171 -0.0796  0.4090
 8667SOL    HW137463   1.276   3.768   4.706 -1.3407 -0.0592  2.0706
 8667SOL    HW237464   1.281   3.632   4.662 -1.2291 -1.1161  0.1608
 8668SOL     OW37465   0.721   2.382   1.506  0.0626 -0.2558 -0.6228
 8668SOL    HW137466   0.760   2.362   1.591 -2.4680 -0.0597  0.5863
 8668SOL    HW237467   0.797   2.396   1.449  0.0195  1.2144 -0.3016
 8669SOL     OW37468   4.628   3.920   7.703 -0.2714  0.3201 -0.0384
 8669SOL    HW137469   4.645   3.875   7.786  1.7728 -0.7050 -1.0331
 8669SOL    HW237470   4.700   3.982   7.697  0.0671 -0.2158 -1.3480
 8670SOL     OW37471   2.552   4.179   3.605 -0.0631  0.3330 -0.3822
 8670SOL    HW137472   2.607   4.225   3.541 -0.2085  2.0939  0.7404
 8670SOL    HW237473   2.612   4.107   3.623 -0.3201 -0.0622 -1.1450
 8671SOL     OW37474   2.296   0.613   6.507 -0.0488  0.2152 -0.4342
 8671SOL    HW137475   2.306   0.708   6.498 -0.6779  0.5342  2.2810
 8671SOL    HW237476   2.361   0.573   6.450  0.3779 -1.1746  1.0490
 8672SOL     OW37477   2.020   3.254  11.955 -0.3013 -0.0678  0.0279
 8672SOL    HW137478   2.052   3.230  11.868 -1.2186 -2.4783  0.3616
 8672SOL    HW237479   2.034   3.176  12.009 -0.1319 -0.5594 -0.7293
 8673SOL     OW37480   1.297   0.289   8.451 -0.0569  0.1259  0.6276
 8673SOL    HW137481   1.307   0.381   8.425  1.5535 -0.5289 -1.0522
 8673SOL    HW237482   1.235   0.256   8.386 -0.0137  0.0164  0.6418
 8674SOL     OW37483   2.672   0.367   6.149  0.4718  0.0776  0.5304
 8674SOL    HW137484   2.639   0.307   6.217 -1.2009 -0.3426 -0.6473
 8674SOL    HW237485   2.762   0.368   6.180  1.3728 -0.5486 -2.0927
 8675SOL     OW37486   0.368   0.970  15.613  0.4953  0.2501  0.1722
 8675SOL    HW137487   0.404   1.054  15.640  4.1970 -1.4029  0.3014
 8675SOL    HW237488   0.452   0.926  15.607 -0.7900 -2.1429 -0.1147
 8676SOL     OW37489   2.318   3.822   1.621  0.0277 -0.9531  0.0523
 8676SOL    HW137490   2.394   3.769   1.598  0.4992 -0.7644  1.1844
 8676SOL    HW237491   2.288   3.856   1.537 -1.1606  1.7410  1.5744
 8677SOL     OW37492   2.649   1.338   3.557 -0.5051 -0.3143  0.2554
 8677SOL    HW137493   2.680   1.271   3.496 -1.2321 -0.7675  0.3857
 8677SOL    HW237494   2.671   1.417   3.507 -3.0566 -0.7511 -1.5504
 8678SOL     OW37495   0.114   2.898   8.751  0.1602 -0.5848  0.1709
 8678SOL    HW137496   0.172   2.856   8.814 -0.7254 -1.4293  0.4114
 8678SOL    HW237497   0.158   2.982   8.735 -0.0011 -0.4670  0.3462
 8679SOL     OW37498   0.425   4.380   1.270 -0.3272  0.2131  0.2497
 8679SOL    HW137499   0.358   4.377   1.201  0.3227 -0.0881 -0.3637
 8679SOL    HW237500   0.400   4.451   1.329  0.0296  1.5241 -1.1864
 8680SOL     OW37501   1.731   4.470  10.736 -0.0830  0.0733 -0.4727
 8680SOL    HW137502   1.716   4.562  10.756 -0.9280 -0.3299  0.6762
 8680SOL    HW237503   1.648   4.437  10.767  0.1410 -1.2532 -1.2877
 8681SOL     OW37504   1.744   1.468   7.441 -0.1790 -0.3952  0.1519
 8681SOL    HW137505   1.803   1.516   7.499 -1.4779  0.6394  0.6061
 8681SOL    HW237506   1.657   1.503   7.461  0.9060  1.3741  1.7880
 8682SOL     OW37507   0.366   1.510   0.025 -0.1376  0.3931 -0.9576
 8682SOL    HW137508   0.369   1.588  17.669  0.1644  1.2437  0.2527
 8682SOL    HW237509   0.283   1.473  17.694 -1.3127  1.5344  0.8295
 8683SOL     OW37510   4.218   3.489   3.397  0.0920 -0.3457  0.4325
 8683SOL    HW137511   4.234   3.422   3.463 -0.6528  0.9010  1.8839
 8683SOL    HW237512   4.236   3.573   3.438  1.1842  0.4982 -1.7662
 8684SOL     OW37513   2.128   0.954   0.537  0.2505 -0.2788 -0.2288
 8684SOL    HW137514   2.060   1.022   0.529 -0.9430 -1.2227  1.8966
 8684SOL    HW237515   2.190   0.997   0.596 -1.4187  0.4615  1.0005
 8685SOL     OW37516   3.303   0.249   0.788 -0.0564 -0.8360 -0.7442
 8685SOL    HW137517   3.313   0.314   0.857  1.0682  0.3543 -2.0235
 8685SOL    HW237518   3.223   0.275   0.742 -0.5335 -0.9364  0.0271
 8686SOL     OW37519   3.923   4.710   2.051 -0.1475 -0.6459  0.0190
 8686SOL    HW137520   3.909   4.711   2.146 -2.3160 -1.0145 -0.2937
 8686SOL    HW237521   3.831   4.710   2.026 -0.3158  0.4415  0.6481
 8687SOL     OW37522   0.458   3.546   7.951 -0.3056 -0.1748 -0.2228
 8687SOL    HW137523   0.517   3.529   7.878 -0.4728  0.8281 -0.5937
 8687SOL    HW237524   0.382   3.501   7.914 -2.1591  2.9196 -0.1896
 8688SOL     OW37525   0.223   2.682   1.269 -0.5224 -0.2257 -0.3620
 8688SOL    HW137526   0.253   2.706   1.356 -0.2008  0.5222 -0.6731
 8688SOL    HW237527   0.298   2.688   1.210  0.4485 -1.3444  0.7749
 8689SOL     OW37528   2.913   1.988   2.204  0.0384  0.4485 -0.2186
 8689SOL    HW137529   2.835   2.039   2.229  0.1429  0.2628  0.4920
 8689SOL    HW237530   2.884   1.958   2.118 -1.1237  2.9170 -0.6665
 8690SOL     OW37531   3.249   0.043   4.598  0.1041 -0.1091 -0.6890
 8690SOL    HW137532   3.201   0.109   4.648 -0.2465 -1.0869  0.2539
 8690SOL    HW237533   3.243   0.076   4.508  1.4883 -0.8548 -1.0499
 8691SOL     OW37534   4.475   3.157   6.531  0.2545 -0.5642 -0.0328
 8691SOL    HW137535   4.393   3.176   6.577  0.5803 -0.4608  0.5124
 8691SOL    HW237536   4.461   3.069   6.497 -0.6491 -1.1034  1.7263
 8692SOL     OW37537   1.678   2.621   9.440  0.3899  0.0269 -0.9451
 8692SOL    HW137538   1.614   2.551   9.451 -0.2807  0.5010 -1.8304
 8692SOL    HW237539   1.624   2.672   9.379  0.3381 -1.3037 -2.0083
 8693SOL     OW37540   0.820   1.718   2.295 -0.0198 -0.0686 -0.1230
 8693SOL    HW137541   0.902   1.743   2.251 -1.1320  0.2228 -2.0354
 8693SOL    HW237542   0.800   1.802   2.336 -0.0449  0.4599 -1.2204
 8694SOL     OW37543   1.619   3.604   4.960  0.0094 -0.2698  0.1425
 8694SOL    HW137544   1.645   3.528   4.907 -2.7919 -0.2534 -1.2421
 8694SOL    HW237545   1.524   3.599   4.969 -0.0586  0.0096 -0.4368
 8695SOL     OW37546   3.913   2.955   8.546  0.5345 -0.0500 -0.1600
 8695SOL    HW137547   3.865   2.972   8.465 -1.0036 -0.2353  0.7051
 8695SOL    HW237548   3.888   3.037   8.590  1.9785  1.4488 -2.1137
 8696SOL     OW37549   3.569   0.406   8.371 -0.4339 -0.0439  0.3048
 8696SOL    HW137550   3.550   0.439   8.283 -0.7179 -0.3045  0.2693
 8696SOL    HW237551   3.608   0.486   8.406  1.1075 -0.2439 -0.9532
 8697SOL     OW37552   3.847   3.631  11.990  0.5882 -0.0392 -0.0210
 8697SOL    HW137553   3.831   3.578  11.912  0.1328 -1.3824  0.9907
 8697SOL    HW237554   3.915   3.693  11.963  1.7103 -1.2439  0.0434
 8698SOL     OW37555   1.346   4.205   4.373  0.0585 -0.1327  0.1406
 8698SOL    HW137556   1.363   4.175   4.462  1.1474  1.6016  0.5148
 8698SOL    HW237557   1.286   4.135   4.346  1.1974 -1.8893  2.1759
 8699SOL     OW37558   3.742   0.874  15.231  0.0561  0.4467  0.0719
 8699SOL    HW137559   3.690   0.844  15.157  0.8299 -0.2086 -0.2101
 8699SOL    HW237560   3.829   0.840  15.208 -1.1161 -0.4210 -3.0928
 8700SOL     OW37561   0.043   1.634  11.878  0.3925 -0.4825  0.1012
 8700SOL    HW137562   0.055   1.548  11.838 -0.7973 -0.1858 -0.9091
 8700SOL    HW237563   0.128   1.673  11.859  0.0744  0.5226  0.7296
 8701SOL     OW37564   0.001   1.915  10.138 -0.3233  0.4185 -0.1141
 8701SOL    HW137565   0.021   1.940  10.048  0.6359 -2.8590 -0.8087
 8701SOL    HW237566   4.631   1.896  10.139 -0.2557  0.0341 -1.1949
 8702SOL     OW37567   3.167   1.114   7.965 -0.0164 -0.2740  0.0156
 8702SOL    HW137568   3.124   1.133   7.881  0.8899  2.4383  0.1697
 8702SOL    HW237569   3.200   1.202   7.984  1.0295 -0.3905 -1.2718
 8703SOL     OW37570   0.004   3.892  14.690 -0.5329  0.2041  0.4250
 8703SOL    HW137571   4.698   3.967  14.640  0.2018  0.3774  0.2415
 8703SOL    HW237572   0.098   3.909  14.692 -0.5187  0.3084 -1.3674
 8704SOL     OW37573   1.510   4.645  14.041  0.3182 -0.0603 -0.1019
 8704SOL    HW137574   1.558   4.593  14.105 -1.4390 -0.3694  0.9717
 8704SOL    HW237575   1.555   4.609  13.965 -0.4105 -1.5683  0.1880
 8705SOL     OW37576   2.390   0.123   2.616  0.2695 -0.4089 -0.3164
 8705SOL    HW137577   2.450   0.055   2.646  1.5736  0.7435 -0.3130
 8705SOL    HW237578   2.428   0.155   2.534 -1.6327 -1.1062 -1.4894
 8706SOL     OW37579   2.571   4.561   7.588  0.3705 -0.1073  0.2572
 8706SOL    HW137580   2.609   4.521   7.510 -1.2912 -2.0473  0.4093
 8706SOL    HW237581   2.538   4.481   7.630 -0.3524 -0.6760 -1.3812
 8707SOL     OW37582   1.968   2.218   7.469 -0.6173  0.4846 -0.4155
 8707SOL    HW137583   2.000   2.128   7.478 -0.9339  0.4027 -0.1286
 8707SOL    HW237584   1.885   2.208   7.423 -0.3981  0.7663 -0.8688
 8708SOL     OW37585   2.644   1.570   5.682  0.2183  0.3550  0.7769
 8708SOL    HW137586   2.699   1.503   5.725  2.2220  1.3044 -0.2838
 8708SOL    HW237587   2.698   1.642   5.652 -3.1309  3.5023  2.3304
 8709SOL     OW37588   0.712   4.428   1.235 -0.7056 -0.0870  0.1940
 8709SOL    HW137589   0.626   4.392   1.253 -0.8533  1.2792  2.1626
 8709SOL    HW237590   0.738   4.428   1.327  2.6603 -0.0546 -0.7240
 8710SOL     OW37591   1.789   0.690  10.551  0.2173 -0.7871  0.3672
 8710SOL    HW137592   1.829   0.604  10.543  2.0405  0.2929 -1.9350
 8710SOL    HW237593   1.710   0.665  10.504  0.6747  0.6078 -1.1427
 8711SOL     OW37594   1.829   3.201   7.635  0.1959  0.2806 -0.4150
 8711SOL    HW137595   1.830   3.277   7.576 -0.8840 -0.6705 -1.6807
 8711SOL    HW237596   1.736   3.179   7.635 -0.3792  2.7115 -0.1244
 8712SOL     OW37597   0.243   4.420   4.257 -0.4227 -0.2300 -0.4295
 8712SOL    HW137598   0.243   4.512   4.284  1.1223 -0.3540  0.0322
 8712SOL    HW237599   0.325   4.427   4.208 -0.9087  1.7749 -0.9731
 8713SOL     OW37600   4.407   3.839   4.655 -0.1080 -0.4616  0.1158
 8713SOL    HW137601   4.408   3.890   4.736 -0.2694 -1.4928  0.7718
 8713SOL    HW237602   4.473   3.881   4.600  1.1896 -2.1891  0.3514
 8714SOL     OW37603   1.664   0.809   6.425  0.1120 -0.5461  0.5088
 8714SOL    HW137604   1.639   0.872   6.493 -2.4039  0.3849 -1.2771
 8714SOL    HW237605   1.697   0.875   6.364  2.3263  0.2036  2.5409
 8715SOL     OW37606   1.078   1.561   7.562 -0.3501 -0.2119  0.9332
 8715SOL    HW137607   0.998   1.545   7.611 -1.0688 -2.9430 -1.1317
 8715SOL    HW237608   1.103   1.638   7.612 -1.0623  1.3116 -1.0550
 8716SOL     OW37609   2.254   1.467  16.185  0.8741  0.2570  0.6025
 8716SOL    HW137610   2.259   1.436  16.275 -0.8852 -1.1866  0.1947
 8716SOL    HW237611   2.183   1.530  16.194  0.9937  0.6553 -1.2156
 8717SOL     OW37612   3.376   2.688   4.127 -0.2198 -0.4232 -0.9505
 8717SOL    HW137613   3.424   2.763   4.163  0.5839 -0.9372 -0.9556
 8717SOL    HW237614   3.320   2.735   4.064 -0.3006  0.5941 -0.1249
 8718SOL     OW37615   0.457   4.414   7.812  0.1244 -0.1877 -0.2570
 8718SOL    HW137616   0.455   4.426   7.717 -0.0301 -4.3516 -0.7698
 8718SOL    HW237617   0.363   4.404   7.828  0.3201 -0.7611  0.5388
 8719SOL     OW37618   0.216   3.384   0.563 -0.4125 -0.2750  0.1403
 8719SOL    HW137619   0.267   3.433   0.498  0.0650 -1.8365 -0.6577
 8719SOL    HW237620   0.254   3.297   0.573 -0.4204 -0.2473  0.4099
 8720SOL     OW37621   2.383   0.800   7.653  1.3957  0.0675 -0.0818
 8720SOL    HW137622   2.382   0.759   7.739 -1.6422  0.3185 -0.0036
 8720SOL    HW237623   2.353   0.889   7.673  0.2945 -0.4661  0.6181
 8721SOL     OW37624   2.535   3.999  14.921 -0.4850  0.0028  0.2410
 8721SOL    HW137625   2.492   3.914  14.907 -1.8150  0.4943  1.3973
 8721SOL    HW237626   2.516   4.028  15.010  0.2855 -1.1440  0.7810
 8722SOL     OW37627   2.554   0.467   3.238 -0.0277  0.2031  0.4468
 8722SOL    HW137628   2.626   0.403   3.239  0.1619  0.4215  1.0128
 8722SOL    HW237629   2.564   0.496   3.147 -2.6437  1.6057  0.6146
 8723SOL     OW37630   1.057   0.714  12.555 -0.5807 -0.1027 -0.1145
 8723SOL    HW137631   1.079   0.806  12.536  1.9940 -1.1496 -2.2640
 8723SOL    HW237632   1.119   0.659  12.506  1.2777  0.4795  1.5821
 8724SOL     OW37633   0.470   4.597   1.528 -0.2533  0.0171  0.5845
 8724SOL    HW137634   0.423   4.522   1.565  1.9655 -0.8285  1.6801
 8724SOL    HW237635   0.408   4.662   1.561 -0.4625 -0.9560  2.1463
 8725SOL     OW37636   0.010   2.098   7.225 -0.1186 -0.2316 -0.3107
 8725SOL    HW137637   0.070   2.058   7.288 -0.8268  0.0325  0.5285
 8725SOL    HW237638   0.048   2.072   7.141  2.3914 -0.7709  0.9935
 8726SOL     OW37639   2.568   1.106  17.478 -0.5266 -0.2654 -0.0401
 8726SOL    HW137640   2.509   1.066  17.415  1.6235 -1.9173 -1.0130
 8726SOL    HW237641   2.531   1.193  17.494  0.1419 -0.0358  0.2684
 8727SOL     OW37642   3.167   4.350   9.544  0.6807  0.1419  0.1483
 8727SOL    HW137643   3.189   4.380   9.632  2.0427 -0.4535  0.0069
 8727SOL    HW237644   3.122   4.428   9.510 -1.0290 -0.8266  0.1738
 8728SOL     OW37645   4.264   1.820   0.790  0.0616  0.0436  0.3338
 8728SOL    HW137646   4.179   1.847   0.757  0.3059  1.3903  0.7974
 8728SOL    HW237647   4.236   1.768   0.865  0.9915  1.3874  1.6165
 8729SOL     OW37648   2.941   3.099   8.884 -0.0681  0.3591 -0.2620
 8729SOL    HW137649   2.879   3.086   8.813 -2.5773 -0.2396  2.0263
 8729SOL    HW237650   2.948   3.017   8.932 -1.0963 -0.2028 -1.0829
 8730SOL     OW37651   3.327   3.301   7.923 -0.4435 -0.2427  0.2000
 8730SOL    HW137652   3.333   3.396   7.916  1.3373 -0.6494 -3.9012
 8730SOL    HW237653   3.232   3.290   7.911  0.1363 -2.8995 -1.9993
 8731SOL     OW37654   3.323   3.934   6.641  0.1578 -0.5315  0.0738
 8731SOL    HW137655   3.241   3.979   6.659 -0.9854 -2.3557 -0.6612
 8731SOL    HW237656   3.357   3.926   6.730 -3.1182 -0.2087  1.3325
 8732SOL     OW37657   1.563   0.281   3.369  1.0156 -0.4473 -0.0016
 8732SOL    HW137658   1.595   0.279   3.459  2.7617  0.7888 -0.6003
 8732SOL    HW237659   1.555   0.377   3.369  3.7486 -0.2334  0.2398
 8733SOL     OW37660   0.241   0.398   0.025  0.8914  0.1021  0.3498
 8733SOL    HW137661   0.333   0.373   0.016  0.2226 -2.0869 -0.3535
 8733SOL    HW237662   0.193   0.337  17.669 -0.3053  1.1162  0.2805
 8734SOL     OW37663   3.185   3.659   7.668 -0.1638  0.2654  0.0977
 8734SOL    HW137664   3.232   3.700   7.595 -0.2078 -0.5625 -0.4003
 8734SOL    HW237665   3.148   3.731   7.718  2.2032  0.4722  1.5390
 8735SOL     OW37666   4.434   3.292   8.503 -0.0960 -0.2267  0.1806
 8735SOL    HW137667   4.415   3.227   8.570  1.4211  0.9961  1.8060
 8735SOL    HW237668   4.354   3.290   8.451 -0.0613  0.1379  0.1128
 8736SOL     OW37669   0.452   1.534  15.091  0.1769 -0.4715 -0.1189
 8736SOL    HW137670   0.531   1.586  15.077 -0.1598  0.0773  0.0064
 8736SOL    HW237671   0.395   1.597  15.136 -0.6280 -1.7349  0.6195
 8737SOL     OW37672   0.501   2.676  11.368  0.7219  0.0406  0.6539
 8737SOL    HW137673   0.587   2.668  11.328  0.2495  2.0130 -0.7376
 8737SOL    HW237674   0.534   2.699  11.454 -0.4097  2.9928  0.2921
 8738SOL     OW37675   2.445   2.598  16.613  0.2733  0.5223 -0.3448
 8738SOL    HW137676   2.505   2.663  16.649  2.0409 -1.5002  0.3350
 8738SOL    HW237677   2.431   2.636  16.526  0.7056  0.4671 -0.4364
 8739SOL     OW37678   4.385   3.720   6.731 -0.1555 -0.0674 -0.0559
 8739SOL    HW137679   4.292   3.733   6.715  0.1687  1.2065 -0.9075
 8739SOL    HW237680   4.386   3.687   6.821 -1.4197  0.6089  0.2054
 8740SOL     OW37681   3.398   3.387   7.561 -0.4259  0.2497 -0.1840
 8740SOL    HW137682   3.320   3.341   7.592 -0.4696 -1.6597 -3.0570
 8740SOL    HW237683   3.375   3.468   7.516  1.9780  0.0744 -1.7365
 8741SOL     OW37684   3.224   1.410   2.376  0.1234  0.1654  0.4048
 8741SOL    HW137685   3.212   1.468   2.302  2.9574  0.6186  0.3123
 8741SOL    HW237686   3.152   1.347   2.369  0.7405 -0.4453 -0.4172
 8742SOL     OW37687   4.510   1.278  15.708 -0.4533 -0.5397 -0.1514
 8742SOL    HW137688   4.528   1.189  15.739 -2.0820 -1.0138 -0.5371
 8742SOL    HW237689   4.538   1.272  15.616  0.8871  1.7674  0.1217
 8743SOL     OW37690   2.001   0.264   8.810 -0.2306  0.5283 -0.2415
 8743SOL    HW137691   2.050   0.346   8.798 -0.5211  0.6628 -0.4919
 8743SOL    HW237692   1.916   0.306   8.799 -0.3910  0.1186 -0.5757
 8744SOL     OW37693   2.792   2.384   7.096 -0.3354  0.0598 -0.3793
 8744SOL    HW137694   2.698   2.390   7.112 -0.9000 -1.4777 -3.0355
 8744SOL    HW237695   2.793   2.318   7.027  0.7965  1.7468 -1.9904
 8745SOL     OW37696   1.012   3.350  11.128  0.0257  0.8206  0.3920
 8745SOL    HW137697   1.102   3.357  11.160  0.0858  0.4474  0.3057
 8745SOL    HW237698   1.032   3.354  11.034 -2.3616  1.2506 -0.0891
 8746SOL     OW37699   0.686   2.523   6.829  0.3935  0.2521  0.4035
 8746SOL    HW137700   0.680   2.461   6.902  0.7364  0.8699  0.9612
 8746SOL    HW237701   0.602   2.568   6.824 -0.1528 -1.0181 -1.7383
 8747SOL     OW37702   1.405   3.504   4.613 -0.3199  0.5872 -0.1166
 8747SOL    HW137703   1.395   3.497   4.518 -0.1298  3.7843 -0.3692
 8747SOL    HW237704   1.501   3.505   4.617 -0.2043 -0.2695 -2.7240
 8748SOL     OW37705   2.878   1.350   6.847  0.1405  0.5224 -0.8628
 8748SOL    HW137706   2.954   1.407   6.865  1.2172 -0.1476 -3.2440
 8748SOL    HW237707   2.809   1.413   6.869  0.7823  0.7290  0.5902
 8749SOL     OW37708   4.161   2.244  12.737  0.5128  0.5213  0.0117
 8749SOL    HW137709   4.088   2.306  12.740  0.3767  0.4209 -1.3053
 8749SOL    HW237710   4.167   2.216  12.645  2.0827  0.5292  0.1135
 8750SOL     OW37711   3.104   4.591  17.155  0.1245 -0.4538 -0.2616
 8750SOL    HW137712   3.176   4.653  17.168  1.5946 -2.2130 -0.0518
 8750SOL    HW237713   3.097   4.560  17.245 -3.4807 -2.2723 -1.1920
 8751SOL     OW37714   0.336   3.719   3.035 -0.0249 -0.0310 -0.0567
 8751SOL    HW137715   0.390   3.798   3.040  2.2235 -1.6440  1.0393
 8751SOL    HW237716   0.294   3.730   3.120  1.0507 -0.0598  0.4807
 8752SOL     OW37717   3.653   3.577   8.945 -1.3728  0.3096  0.3102
 8752SOL    HW137718   3.674   3.607   9.034  0.2119 -0.8190  0.3276
 8752SOL    HW237719   3.662   3.659   8.897  0.0538  2.1389  3.7245
 8753SOL     OW37720   0.187   0.181   3.792 -0.5207 -0.1551 -0.7610
 8753SOL    HW137721   0.132   0.104   3.779  0.1921 -0.5554 -1.4084
 8753SOL    HW237722   0.270   0.151   3.756 -0.0370 -1.0113  1.1014
 8754SOL     OW37723   0.486   2.025   2.527  0.2385 -0.1507 -0.3534
 8754SOL    HW137724   0.510   2.107   2.484  0.7300  0.0308  0.2647
 8754SOL    HW237725   0.476   1.967   2.452 -0.6313 -0.3174 -0.1111
 8755SOL     OW37726   3.527   1.502   4.632 -0.5186 -0.2099  0.2230
 8755SOL    HW137727   3.563   1.416   4.613  0.1663  0.2253 -0.5023
 8755SOL    HW237728   3.503   1.533   4.545  1.4408  1.2082  0.1749
 8756SOL     OW37729   4.037   4.271   9.599  0.5782  0.1359 -0.3997
 8756SOL    HW137730   3.969   4.240   9.659  1.2072  0.7838  0.6299
 8756SOL    HW237731   4.019   4.216   9.522  1.0493 -0.3818 -0.1371
 8757SOL     OW37732   2.346   2.018   1.007  0.0659 -0.0777 -0.4107
 8757SOL    HW137733   2.440   2.000   1.013 -0.0203  0.2881  1.9635
 8757SOL    HW237734   2.352   2.103   1.052 -1.6363 -0.8778  1.3040
 8758SOL     OW37735   4.485   1.880   6.973  0.9689 -0.4274  0.2818
 8758SOL    HW137736   4.542   1.872   7.049 -1.5631  0.7768  2.3088
 8758SOL    HW237737   4.415   1.821   7.002 -0.7258  0.3801 -2.1207
 8759SOL     OW37738   1.610   3.984   9.711 -0.6332 -0.2403 -0.0632
 8759SOL    HW137739   1.555   4.062   9.720 -0.8984 -0.4408  0.0085
 8759SOL    HW237740   1.661   4.000   9.631  0.7172  1.5619  1.1492
 8760SOL     OW37741   1.879   3.380   7.205 -0.0889 -0.5980  0.5796
 8760SOL    HW137742   1.935   3.408   7.132 -1.4591  2.6556  0.7805
 8760SOL    HW237743   1.874   3.288   7.177 -1.7711 -0.2486 -0.2667
 8761SOL     OW37744   2.904   0.480  13.073  0.0857  0.6785  0.0793
 8761SOL    HW137745   2.908   0.572  13.098  0.9487 -0.1912  3.0459
 8761SOL    HW237746   2.836   0.485  13.006 -0.3131  0.7066  0.4853
 8762SOL     OW37747   2.118   1.654   0.507  0.1133 -0.0217 -0.6041
 8762SOL    HW137748   2.041   1.699   0.474 -0.3491 -0.5398 -0.2358
 8762SOL    HW237749   2.068   1.588   0.554 -0.2040  0.8858  0.3322
 8763SOL     OW37750   0.881   3.689   1.919  0.5106  0.3600  0.4541
 8763SOL    HW137751   0.943   3.749   1.876  0.5285  0.2237  0.2939
 8763SOL    HW237752   0.905   3.600   1.895 -0.4746  0.3718 -0.5585
 8764SOL     OW37753   3.206   4.566   3.908  0.7388 -0.1432  0.3599
 8764SOL    HW137754   3.123   4.587   3.867 -0.1961  0.5327  2.5960
 8764SOL    HW237755   3.270   4.631   3.878  0.4325  0.6527  1.4296
 8765SOL     OW37756   3.403   0.700   1.618 -0.7410 -0.2078 -0.6615
 8765SOL    HW137757   3.421   0.789   1.587 -0.2626  0.6129  1.9254
 8765SOL    HW237758   3.315   0.692   1.582 -0.9961  0.8077 -0.2776
 8766SOL     OW37759   0.464   2.398  14.370 -0.2754  0.4799 -0.4380
 8766SOL    HW137760   0.391   2.395  14.309 -0.8755 -0.6085  0.3252
 8766SOL    HW237761   0.504   2.485  14.374 -0.0349  0.2894  1.5303
 8767SOL     OW37762   1.562   3.884   1.666 -0.1235 -0.0079  0.3224
 8767SOL    HW137763   1.501   3.946   1.624 -0.2558 -0.6066 -0.3714
 8767SOL    HW237764   1.644   3.933   1.665 -0.0637 -0.0964  1.0124
 8768SOL     OW37765   3.856   1.546  10.668  0.0522 -0.0293  0.2895
 8768SOL    HW137766   3.859   1.451  10.666  0.2600 -0.0158 -0.1674
 8768SOL    HW237767   3.946   1.562  10.639  1.6077 -0.8281  4.5629
 8769SOL     OW37768   3.783   1.765  13.132  0.5595  0.1287  0.3361
 8769SOL    HW137769   3.722   1.838  13.116  0.0306 -0.5339 -0.6541
 8769SOL    HW237770   3.728   1.716  13.194 -0.4789 -0.8018 -1.3191
 8770SOL     OW37771   3.257   3.629  12.078 -0.3473 -0.3054 -0.3114
 8770SOL    HW137772   3.334   3.610  12.132  1.7135 -2.3647 -3.9825
 8770SOL    HW237773   3.299   3.698  12.026  0.3640 -1.3940 -1.1881
 8771SOL     OW37774   2.109   0.157  12.685  0.4425  0.2936  0.3621
 8771SOL    HW137775   2.122   0.118  12.772  1.1734 -0.8516 -0.2574
 8771SOL    HW237776   2.180   0.112  12.639  0.3988  2.2408 -1.5958
 8772SOL     OW37777   2.689   1.087   0.275  0.1983 -0.5373  0.3029
 8772SOL    HW137778   2.780   1.114   0.264  0.3655 -0.6258  1.5307
 8772SOL    HW237779   2.679   1.091   0.370 -0.3173 -3.9026  0.3631
 8773SOL     OW37780   4.284   4.694  12.750 -0.6480 -0.2321 -0.1892
 8773SOL    HW137781   4.355   4.667  12.810 -1.2976  1.6608  1.4291
 8773SOL    HW237782   4.330   4.707  12.667 -1.1450 -2.1925 -0.7790
 8774SOL     OW37783   1.324   2.711   7.213  0.1159  0.4253  0.0293
 8774SOL    HW137784   1.383   2.735   7.284  0.5271 -1.6021  0.3929
 8774SOL    HW237785   1.236   2.713   7.251  0.4131  0.8521  0.7013
 8775SOL     OW37786   4.485   3.320   2.363 -0.2611  0.0512  0.1505
 8775SOL    HW137787   4.544   3.364   2.302  0.0943  1.5310  1.5711
 8775SOL    HW237788   4.473   3.401   2.412 -0.0744  0.0086  0.2660
 8776SOL     OW37789   3.164   3.539   6.506 -0.1098 -0.2844  0.0636
 8776SOL    HW137790   3.160   3.628   6.473  2.8766  0.0892  0.6893
 8776SOL    HW237791   3.164   3.564   6.598 -0.3770 -1.4741  0.3964
 8777SOL     OW37792   2.881   0.015   3.945  0.0945  0.2607  0.0008
 8777SOL    HW137793   2.885   4.704   3.856 -1.1291  1.0127 -0.3613
 8777SOL    HW237794   2.974   0.032   3.960 -0.7530  2.4886  2.8269
 8778SOL     OW37795   0.871   4.636   9.826 -0.1770  0.4840 -0.1149
 8778SOL    HW137796   0.777   4.622   9.833  0.2720 -1.8623  1.2206
 8778SOL    HW237797   0.896   4.584   9.902  1.6085 -0.6414 -1.4741
 8779SOL     OW37798   2.854   2.568   5.652 -0.3588 -0.2891 -0.4875
 8779SOL    HW137799   2.921   2.518   5.605  0.1795 -0.8594  0.8991
 8779SOL    HW237800   2.904   2.587   5.732 -2.3428  1.0168  0.4370
 8780SOL     OW37801   1.887   0.003   8.341  0.4071  0.0095  0.0246
 8780SOL    HW137802   1.954   4.709   8.407 -0.3190 -0.0568  0.7439
 8780SOL    HW237803   1.941   0.021   8.264  1.3208  0.8576  0.8690
 8781SOL     OW37804   4.600   1.904   3.322 -0.0702 -0.5547  0.5903
 8781SOL    HW137805   4.636   1.817   3.339 -0.1672 -0.6087  0.5149
 8781SOL    HW237806   4.673   1.932   3.267 -2.6870  0.3640 -2.3867
 8782SOL     OW37807   4.088   0.635   5.164 -0.4888  0.0496  0.3466
 8782SOL    HW137808   4.035   0.555   5.175  0.1085 -0.5832 -1.3841
 8782SOL    HW237809   4.115   0.620   5.073  0.7348  2.4762  0.3178
 8783SOL     OW37810   2.270   0.298   7.427 -0.1721  0.1202  0.1507
 8783SOL    HW137811   2.227   0.337   7.350  0.1229 -0.1658 -0.1606
 8783SOL    HW237812   2.231   0.350   7.497 -0.2367  0.5862 -0.2309
 8784SOL     OW37813   3.257   2.017   7.829  0.3867 -0.1764 -0.1985
 8784SOL    HW137814   3.214   2.009   7.913 -2.1961 -2.0160 -1.7031
 8784SOL    HW237815   3.337   2.059   7.861  1.3448 -1.3148 -1.0910
 8785SOL     OW37816   0.905   1.831   8.240  0.2331  0.0627 -0.4482
 8785SOL    HW137817   0.997   1.813   8.222  0.4912  1.3882 -0.4204
 8785SOL    HW237818   0.901   1.804   8.332  1.7401 -1.1443 -0.7363
 8786SOL     OW37819   3.624   2.402  11.468 -0.0821  0.2764  0.0716
 8786SOL    HW137820   3.699   2.350  11.499 -2.2078 -1.9791  1.5158
 8786SOL    HW237821   3.659   2.427  11.383  1.5101 -0.8391  0.3964
 8787SOL     OW37822   4.643   4.578   8.062  0.1216 -0.3326  0.2203
 8787SOL    HW137823   0.001   4.530   8.074 -0.2123 -1.1526 -0.7175
 8787SOL    HW237824   4.671   4.669   8.058 -1.9934  0.3327  0.7635
 8788SOL     OW37825   3.226   0.098   6.850 -0.5029  0.0068 -0.3042
 8788SOL    HW137826   3.174   0.163   6.897 -0.2231 -0.3803  0.5404
 8788SOL    HW237827   3.313   0.138   6.852 -0.1733 -0.7235 -0.0602
 8789SOL     OW37828   3.466   2.270   7.244  0.8398 -0.6431  0.4576
 8789SOL    HW137829   3.468   2.366   7.239  0.2433 -0.6688 -0.2200
 8789SOL    HW237830   3.390   2.243   7.297 -0.6046  1.7407 -0.3783
 8790SOL     OW37831   1.160   0.685  10.377 -0.4130  0.5997  0.1188
 8790SOL    HW137832   1.081   0.736  10.395 -0.3139  0.3064  1.3770
 8790SOL    HW237833   1.199   0.739  10.308  0.0132 -1.5177 -1.3068
 8791SOL     OW37834   0.845   1.787   6.262  0.5179  0.0412  0.0531
 8791SOL    HW137835   0.885   1.831   6.337  0.9860 -0.3559  0.0367
 8791SOL    HW237836   0.875   1.845   6.192  1.6854 -1.0293 -0.3465
 8792SOL     OW37837   0.808   2.100  14.102 -0.5232  0.6770  0.4441
 8792SOL    HW137838   0.897   2.070  14.084 -1.8313 -1.1745 -2.8677
 8792SOL    HW237839   0.827   2.194  14.108 -1.8562  1.0508 -0.9909
 8793SOL     OW37840   3.318   0.638   5.323 -0.5317  0.0684  0.3904
 8793SOL    HW137841   3.326   0.590   5.240  3.7876  1.1416  0.1658
 8793SOL    HW237842   3.365   0.715   5.290  0.9474 -0.6536  0.8111
 8794SOL     OW37843   1.586   0.860   8.172 -0.2751  0.7188  0.4520
 8794SOL    HW137844   1.635   0.932   8.134 -0.3986  0.4482 -0.2364
 8794SOL    HW237845   1.636   0.780   8.151 -0.1253 -0.0127  3.6092
 8795SOL     OW37846   1.862   2.870   1.542 -0.3221 -0.1590  0.9569
 8795SOL    HW137847   1.845   2.831   1.628  0.1113 -0.3424  0.9619
 8795SOL    HW237848   1.866   2.790   1.490 -1.6693 -0.5214  1.3931
 8796SOL     OW37849   2.939   1.732   7.412 -0.2586 -0.4491 -0.3465
 8796SOL    HW137850   3.011   1.728   7.475 -1.5427 -3.2201  0.9071
 8796SOL    HW237851   2.994   1.699   7.341 -0.7391 -2.8690  0.4115
 8797SOL     OW37852   2.908   4.703  16.503  0.2647 -0.0913 -0.5526
 8797SOL    HW137853   2.857   4.641  16.451 -0.6574  0.0562  0.1596
 8797SOL    HW237854   2.918   0.046  16.437 -2.8947 -0.3714 -1.3363
 8798SOL     OW37855   0.836   1.035   6.394  0.4862 -0.2181  0.0924
 8798SOL    HW137856   0.804   1.113   6.439 -1.5420 -0.6692 -0.5478
 8798SOL    HW237857   0.765   1.038   6.330  0.4394 -1.8301  0.0712
 8799SOL     OW37858   1.406   4.437   2.644  0.6714 -0.1993  0.3249
 8799SOL    HW137859   1.344   4.428   2.572 -0.1963 -0.1380  1.0536
 8799SOL    HW237860   1.490   4.464   2.609 -0.2660  0.2351 -1.5598
 8800SOL     OW37861   0.859   4.533   2.946 -0.3368  0.0371  0.6262
 8800SOL    HW137862   0.842   4.606   3.006  0.0144  0.3865  0.3019
 8800SOL    HW237863   0.797   4.559   2.878  1.2108  1.1923 -0.3723
 8801SOL     OW37864   3.750   2.022   1.350  0.6742 -0.5484  0.1597
 8801SOL    HW137865   3.666   2.038   1.394  0.3606 -1.3488 -0.1548
 8801SOL    HW237866   3.790   1.961   1.411 -0.0174 -0.7784  0.3847
 8802SOL     OW37867   3.984   1.619   7.004  0.4075  0.3733 -0.4959
 8802SOL    HW137868   3.960   1.711   6.988 -0.9050 -0.1479 -1.5090
 8802SOL    HW237869   4.001   1.596   6.913  3.8822  2.2632 -0.3256
 8803SOL     OW37870   0.299   2.238   3.165  0.4957  0.5499 -0.1107
 8803SOL    HW137871   0.285   2.254   3.258  0.9169 -0.4144  0.1232
 8803SOL    HW237872   0.344   2.319   3.140 -1.1700  1.3967 -0.3125
 8804SOL     OW37873   4.402   1.526  17.567 -0.5328 -0.1147  0.8149
 8804SOL    HW137874   4.492   1.508  17.541 -0.7185  2.2057 -1.4415
 8804SOL    HW237875   4.424   1.612  17.603 -1.0536  0.1128  0.5877
 8805SOL     OW37876   3.081   2.587   7.313 -0.2275 -0.3354  0.6234
 8805SOL    HW137877   3.015   2.583   7.382  0.1578  0.1354  1.0207
 8805SOL    HW237878   3.072   2.502   7.270 -2.5412 -0.1203  0.7087
 8806SOL     OW37879   0.468   4.151   8.832  0.1782 -0.3554 -0.4669
 8806SOL    HW137880   0.427   4.109   8.756  0.2923 -0.3997 -0.5042
 8806SOL    HW237881   0.542   4.194   8.789  1.0025  1.4521  2.7630
 8807SOL     OW37882   1.278   1.242   8.631 -0.1675  0.4642  0.2483
 8807SOL    HW137883   1.320   1.158   8.617 -1.5637 -0.6155  2.6340
 8807SOL    HW237884   1.195   1.220   8.672  0.4807  0.1872  1.3895
 8808SOL     OW37885   1.544   3.907   0.928  0.0350  0.1422  0.2663
 8808SOL    HW137886   1.582   3.955   1.002  1.5296  2.4218 -1.9683
 8808SOL    HW237887   1.612   3.910   0.861 -2.1724  1.6163 -1.8928
 8809SOL     OW37888   4.096   2.060   6.103 -0.2707 -0.2611 -0.1925
 8809SOL    HW137889   4.046   1.981   6.126 -1.1322 -0.3852 -2.5064
 8809SOL    HW237890   4.179   2.034   6.143  1.1153  2.3483 -1.4071
 8810SOL     OW37891   1.136   4.473   7.163  0.5203  0.1798  0.5188
 8810SOL    HW137892   1.063   4.433   7.208  0.6511  0.3858  0.9156
 8810SOL    HW237893   1.091   4.509   7.086 -0.1468 -0.0382  0.8122
 8811SOL     OW37894   0.168   2.478   5.687  0.1974  0.0850  0.2431
 8811SOL    HW137895   0.252   2.480   5.733 -0.4221  0.5351  1.3711
 8811SOL    HW237896   0.146   2.571   5.691 -0.2213  0.0448 -0.9848
 8812SOL     OW37897   4.547   1.984   7.418 -0.2677 -0.0521 -0.2647
 8812SOL    HW137898   4.501   2.028   7.489 -0.5144 -0.1387 -0.3712
 8812SOL    HW237899   4.589   2.053   7.366 -0.7915  1.1026  0.8436
 8813SOL     OW37900   1.613   4.309  10.301  0.8165 -0.5367  0.4068
 8813SOL    HW137901   1.702   4.274  10.314 -0.5707 -3.8360  1.0218
 8813SOL    HW237902   1.607   4.328  10.208 -0.9610  2.4881  1.1240
 8814SOL     OW37903   1.262   0.065   5.291 -0.2742  0.5025  0.2759
 8814SOL    HW137904   1.239   0.150   5.254 -0.1457  0.2139 -0.4804
 8814SOL    HW237905   1.213   0.004   5.235 -0.4238 -0.2789  1.2658
 8815SOL     OW37906   0.588   0.150   7.994  0.7741 -0.3732 -0.0853
 8815SOL    HW137907   0.517   0.166   7.933  0.2133 -0.5999  0.5002
 8815SOL    HW237908   0.566   0.058   7.985 -1.8671  0.0975  1.4744
 8816SOL     OW37909   4.700   0.080   6.837  0.7052 -0.0694  0.0169
 8816SOL    HW137910   0.032   0.127   6.775  2.8266 -3.0789 -0.2800
 8816SOL    HW237911   0.002   4.720   6.801  3.5075  0.5365  0.7168
 8817SOL     OW37912   2.742   2.462   3.299  0.3908 -0.4268  0.2216
 8817SOL    HW137913   2.697   2.546   3.311  1.4086 -0.4055  3.8398
 8817SOL    HW237914   2.682   2.418   3.239 -1.3558  2.4968 -0.1873
 8818SOL     OW37915   2.354   2.266   2.721 -0.1882  0.0684  0.4708
 8818SOL    HW137916   2.429   2.229   2.674 -0.9383  1.3568 -1.7251
 8818SOL    HW237917   2.324   2.311   2.642  1.9146  1.4700  0.4749
 8819SOL     OW37918   0.874   0.131   0.940  0.0519 -0.1478 -0.3707
 8819SOL    HW137919   0.887   0.038   0.957  0.2250 -0.1387 -0.4497
 8819SOL    HW237920   0.859   0.160   1.030 -0.8690  0.8624 -0.8451
 8820SOL     OW37921   1.285   2.449   9.137 -0.0852 -0.1653 -0.0777
 8820SOL    HW137922   1.270   2.543   9.150  1.9281  0.0434  0.7469
 8820SOL    HW237923   1.262   2.419   9.224  1.8729 -1.7989 -0.1147
 8821SOL     OW37924   0.392   0.760   8.290  0.2987  0.1889 -0.0875
 8821SOL    HW137925   0.311   0.811   8.282 -1.1781 -1.8048  2.0640
 8821SOL    HW237926   0.432   0.812   8.360 -1.2503  1.6768 -0.2985
 8822SOL     OW37927   3.303   1.551   4.750  0.0351  0.0330  0.1177
 8822SOL    HW137928   3.325   1.631   4.797  3.7659 -0.1094 -1.3783
 8822SOL    HW237929   3.386   1.526   4.709 -1.5591 -1.4624 -2.1766
 8823SOL     OW37930   1.441   2.785  15.176 -0.8278 -0.0368 -0.6830
 8823SOL    HW137931   1.425   2.858  15.116 -1.1420 -0.4902 -1.1586
 8823SOL    HW237932   1.386   2.721  15.131 -0.3943 -0.6786 -0.3099
 8824SOL     OW37933   1.566   0.056   2.614  0.0128  0.8357 -0.5903
 8824SOL    HW137934   1.649   0.103   2.623 -0.6368  2.0795 -1.0903
 8824SOL    HW237935   1.578   4.705   2.672 -2.4678  2.1566  1.6698
 8825SOL     OW37936   4.640   2.472   2.317 -0.0056  0.7327  0.3914
 8825SOL    HW137937   4.547   2.454   2.326  0.0363  1.1046  1.5618
 8825SOL    HW237938   4.675   2.386   2.339  0.5884  1.1402  1.0331
 8826SOL     OW37939   2.300   2.307  17.154 -0.8065 -0.2391  0.2146
 8826SOL    HW137940   2.316   2.375  17.089  0.2790  0.6360  1.4025
 8826SOL    HW237941   2.204   2.310  17.158 -0.8754 -0.1918 -1.5800
 8827SOL     OW37942   2.191   2.604   6.608 -0.2317  0.2229 -0.4107
 8827SOL    HW137943   2.123   2.642   6.552  0.2004 -1.3283 -1.9895
 8827SOL    HW237944   2.165   2.512   6.607  1.7386 -0.3605  0.9139
 8828SOL     OW37945   0.642   4.384   9.719  0.3094  0.1060 -0.1382
 8828SOL    HW137946   0.607   4.335   9.794 -0.8124  0.9667 -0.1005
 8828SOL    HW237947   0.624   4.473   9.748  1.7759  1.1858 -2.5982
 8829SOL     OW37948   3.518   1.585  13.385 -0.3912  0.1217  1.0244
 8829SOL    HW137949   3.473   1.512  13.343 -0.1895  1.3015 -1.2258
 8829SOL    HW237950   3.470   1.656  13.342  1.2008  0.6531  0.1181
 8830SOL     OW37951   3.981   0.214   4.646 -0.0745 -0.1318 -0.6459
 8830SOL    HW137952   4.019   0.138   4.602 -0.4075 -0.8944  0.3824
 8830SOL    HW237953   3.942   0.256   4.570  0.6255  3.4024  0.9771
 8831SOL     OW37954   1.797   0.939   8.707 -0.0438  0.3052 -0.8720
 8831SOL    HW137955   1.745   1.015   8.734 -0.6851 -0.7351  0.7882
 8831SOL    HW237956   1.803   0.962   8.614  1.1937  1.0195 -0.6180
 8832SOL     OW37957   1.576   2.107   8.321  0.4042  0.1426 -0.3325
 8832SOL    HW137958   1.513   2.037   8.304  1.8788 -1.2937  0.1296
 8832SOL    HW237959   1.646   2.067   8.269 -0.6908 -1.1299 -0.8040
 8833SOL     OW37960   1.811   3.724   7.396 -0.4312  0.1544 -0.3582
 8833SOL    HW137961   1.831   3.654   7.335 -0.2011 -0.6359  0.6297
 8833SOL    HW237962   1.777   3.678   7.473  1.7082 -2.8234 -1.2247
 8834SOL     OW37963   1.218   3.511   0.173  0.0224 -0.0110  0.1098
 8834SOL    HW137964   1.277   3.490   0.246  1.1310  1.4832 -0.3439
 8834SOL    HW237965   1.161   3.574   0.217  0.8724  1.7046 -1.2299
 8835SOL     OW37966   4.234   0.902  11.736 -0.4500 -0.5148 -0.0707
 8835SOL    HW137967   4.167   0.951  11.689  1.2488  0.6667 -1.2686
 8835SOL    HW237968   4.230   0.815  11.696  1.0771 -0.4778 -0.3115
 8836SOL     OW37969   2.586   0.653   2.975  0.4840 -0.5483 -0.1370
 8836SOL    HW137970   2.675   0.624   2.995  1.0870  2.5603  1.6213
 8836SOL    HW237971   2.566   0.594   2.902  0.7276 -0.2253 -0.4685
 8837SOL     OW37972   4.490   1.973   4.150 -0.1252 -0.5669  0.1723
 8837SOL    HW137973   4.455   2.010   4.231  1.1083  1.3214 -0.1532
 8837SOL    HW237974   4.573   2.021   4.141  0.7874 -2.6164 -2.4157
 8838SOL     OW37975   4.659   0.182   0.121  0.2862 -0.3391 -0.2317
 8838SOL    HW137976   4.574   0.227   0.122 -0.4168 -1.6329 -1.1658
 8838SOL    HW237977   4.699   0.210   0.038  2.6450  0.5765  1.2420
 8839SOL     OW37978   4.289   1.576  10.135  0.2763 -0.1280  0.3297
 8839SOL    HW137979   4.340   1.550  10.211 -0.3943 -1.4183  0.3442
 8839SOL    HW237980   4.209   1.617  10.168  0.1729  0.4321 -0.6205
 8840SOL     OW37981   3.495   0.551   8.992  0.6348  0.4880 -0.1195
 8840SOL    HW137982   3.440   0.498   8.934  0.4702  3.1717 -2.4221
 8840SOL    HW237983   3.531   0.481   9.046  0.8054  0.9342  0.3401
 8841SOL     OW37984   4.109   2.458   6.079 -0.5273 -0.1086 -0.5959
 8841SOL    HW137985   4.098   2.380   6.025 -1.6282 -0.3887  0.0291
 8841SOL    HW237986   4.036   2.458   6.141 -0.9401 -1.9415 -1.0680
 8842SOL     OW37987   0.714   3.108   9.777  0.0804 -0.0609 -0.6152
 8842SOL    HW137988   0.625   3.140   9.763  0.4978  0.4388 -2.1165
 8842SOL    HW237989   0.764   3.160   9.716 -1.6275  3.0638  0.6604
 8843SOL     OW37990   1.778   2.005   9.321 -0.4264  0.2717  0.7268
 8843SOL    HW137991   1.825   2.055   9.387 -1.6394  1.3714  0.7702
 8843SOL    HW237992   1.707   1.970   9.375 -3.6522  1.9360 -2.4228
 8844SOL     OW37993   0.071   2.791   4.252  0.0278  0.6790  0.1828
 8844SOL    HW137994   0.015   2.860   4.286 -0.3633 -0.7884  2.5064
 8844SOL    HW237995   0.119   2.839   4.184  0.1518  0.4209  0.0848
 8845SOL     OW37996   4.650   2.640   5.011 -0.3882 -0.2208 -0.4171
 8845SOL    HW137997   4.623   2.713   5.066  1.5962  0.2128 -0.0165
 8845SOL    HW237998   4.640   2.673   4.922 -1.6727 -1.8684 -0.8969
 8846SOL     OW37999   3.137   4.087   6.128 -0.3911  0.2421  0.2515
 8846SOL    HW138000   3.097   4.048   6.206  0.9645 -1.2241  0.2053
 8846SOL    HW238001   3.071   4.059   6.064  0.1055  0.4511 -0.3511
 8847SOL     OW38002   3.957   3.214   2.744  0.6227 -0.4719  0.0630
 8847SOL    HW138003   3.897   3.237   2.816  0.2467  1.6346 -0.9038
 8847SOL    HW238004   3.976   3.122   2.761  1.3787 -0.0007  1.8251
 8848SOL     OW38005   4.158   4.106  11.863 -0.1020 -0.2978  0.2456
 8848SOL    HW138006   4.219   4.109  11.790  0.4701  2.3844  0.8322
 8848SOL    HW238007   4.187   4.021  11.896  0.1227  0.1223  1.1314
 8849SOL     OW38008   0.816   0.891  14.662  0.0265 -0.8209 -0.3174
 8849SOL    HW138009   0.744   0.832  14.641 -0.2154 -0.0040 -1.7954
 8849SOL    HW238010   0.774   0.974  14.683 -0.6657 -1.0611 -0.7771
 8850SOL     OW38011   3.178   4.637  14.166 -0.2735  0.2522  0.3767
 8850SOL    HW138012   3.215   4.557  14.204  0.4543  0.8942  1.0079
 8850SOL    HW238013   3.182   4.703  14.236  0.7431 -1.2867  1.7696
 8851SOL     OW38014   1.940   1.293   8.514 -0.9396  0.1963 -0.1824
 8851SOL    HW138015   1.996   1.344   8.573 -0.4452 -2.7438  1.9615
 8851SOL    HW238016   1.889   1.352   8.460 -1.0610 -0.6711 -1.0216
 8852SOL     OW38017   2.040   3.938  14.187  0.1195 -0.4205 -0.4663
 8852SOL    HW138018   1.981   3.863  14.177  0.6394 -0.7836 -0.8006
 8852SOL    HW238019   2.120   3.894  14.216  1.2230  1.9926  0.0725
 8853SOL     OW38020   4.345   2.413   5.784  0.2426 -0.4572 -0.4919
 8853SOL    HW138021   4.429   2.381   5.751  0.0941 -2.6336  1.2306
 8853SOL    HW238022   4.310   2.335   5.827  0.0253 -0.4528 -0.6630
 8854SOL     OW38023   4.082   1.289  16.379  0.7627  0.2713  0.0701
 8854SOL    HW138024   4.120   1.239  16.452  1.0628 -0.4087 -0.5465
 8854SOL    HW238025   4.037   1.352  16.435  1.2478 -1.0400  1.9582
 8855SOL     OW38026   4.238   3.892   9.897 -0.0392  0.1712  0.4678
 8855SOL    HW138027   4.281   3.898   9.811  0.3103  1.3452  0.7226
 8855SOL    HW238028   4.304   3.857   9.957  0.3966  0.8573  0.3890
 8856SOL     OW38029   0.689   0.827   9.496  0.0339  0.0171  1.0384
 8856SOL    HW138030   0.779   0.845   9.470 -0.4782  2.6265  1.0952
 8856SOL    HW238031   0.667   0.754   9.438 -1.4252  1.1062  0.2190
 8857SOL     OW38032   4.164   2.802   9.297 -0.5796 -0.0486 -0.5274
 8857SOL    HW138033   4.116   2.786   9.378  1.6420 -0.3274  0.7466
 8857SOL    HW238034   4.255   2.784   9.323 -0.6768  1.0233  0.5542
 8858SOL     OW38035   0.915   3.975   0.862 -0.1833 -0.3704 -0.2457
 8858SOL    HW138036   0.833   4.022   0.879 -0.6618 -2.6761  3.9142
 8858SOL    HW238037   0.897   3.937   0.776  0.4694 -2.2932  0.4526
 8859SOL     OW38038   4.290   1.779   1.744 -0.2907 -0.5860  0.0672
 8859SOL    HW138039   4.336   1.740   1.818 -1.1852  1.2941  1.6029
 8859SOL    HW238040   4.266   1.703   1.690  2.7329 -0.8555 -0.8589
 8860SOL     OW38041   0.321   3.294   7.347 -0.1814  0.5903 -0.2391
 8860SOL    HW138042   0.254   3.235   7.382  1.2819 -0.1091  1.3721
 8860SOL    HW238043   0.370   3.248   7.279  0.6780  0.7227  0.2903
 8861SOL     OW38044   0.205   3.312   2.173  0.2157 -0.5857  0.1945
 8861SOL    HW138045   0.159   3.284   2.252  0.8835  1.2758  1.2485
 8861SOL    HW238046   0.136   3.369   2.140 -0.2541 -1.8565 -0.9988
 8862SOL     OW38047   3.437   2.590  14.005 -0.1540  0.0499  0.4205
 8862SOL    HW138048   3.406   2.572  14.094 -2.9858  0.7515 -0.4576
 8862SOL    HW238049   3.428   2.684  13.993  1.1393  0.1266 -0.0093
 8863SOL     OW38050   2.154   4.515   6.129  0.4997  0.0627 -0.0756
 8863SOL    HW138051   2.090   4.498   6.199 -0.0413  1.6174 -0.1958
 8863SOL    HW238052   2.132   4.442   6.071 -1.0236  0.1268  0.4296
 8864SOL     OW38053   3.315   1.247   8.262 -1.1532  0.1800  0.4580
 8864SOL    HW138054   3.297   1.336   8.290 -0.0768  0.8116 -0.8707
 8864SOL    HW238055   3.318   1.201   8.347 -0.0766 -0.7049 -0.0534
 8865SOL     OW38056   2.802   2.230  15.041  0.1738 -0.0828  0.3873
 8865SOL    HW138057   2.842   2.317  15.042 -0.5466  0.2490 -0.0206
 8865SOL    HW238058   2.716   2.244  15.081  1.1000  3.5758  1.1127
 8866SOL     OW38059   1.412   1.617   8.074 -0.1116 -0.5788 -0.7901
 8866SOL    HW138060   1.367   1.538   8.103  0.3837 -0.2315  0.9210
 8866SOL    HW238061   1.359   1.622   7.995 -0.6540  0.3613 -0.3657
 8867SOL     OW38062   2.942   3.788  11.551 -0.1886  0.5106 -0.1515
 8867SOL    HW138063   2.879   3.717  11.565 -1.0563  1.0361 -1.4095
 8867SOL    HW238064   2.966   3.817  11.639  0.7810  1.0403 -0.5961
 8868SOL     OW38065   2.289   1.790  13.498  0.1127 -0.7007 -0.1690
 8868SOL    HW138066   2.207   1.759  13.538 -0.8506  1.5860 -0.3944
 8868SOL    HW238067   2.245   1.812  13.416 -0.9566  0.3052  0.6810
 8869SOL     OW38068   4.197   2.897   3.610 -0.1197 -0.1936  0.3258
 8869SOL    HW138069   4.105   2.922   3.613  0.0025  0.2396  0.4863
 8869SOL    HW238070   4.224   2.940   3.529 -2.4984 -0.1644 -0.4411
 8870SOL     OW38071   2.678   1.651  11.407  0.1307  0.1771 -0.2838
 8870SOL    HW138072   2.696   1.608  11.491 -0.1343 -0.4630 -0.5567
 8870SOL    HW238073   2.729   1.589  11.354 -3.6426 -3.4622  0.3262
 8871SOL     OW38074   3.351   2.482   7.986  0.4554 -0.8964 -0.0153
 8871SOL    HW138075   3.270   2.443   8.019  0.8450 -2.3922 -0.8251
 8871SOL    HW238076   3.395   2.402   7.958  1.6435 -0.0465 -0.5739
 8872SOL     OW38077   2.425   4.412   8.516 -0.1867  0.1398  0.2504
 8872SOL    HW138078   2.400   4.498   8.480 -2.1929 -0.2394  0.7023
 8872SOL    HW238079   2.362   4.400   8.587  3.2231 -3.4875  2.6238
 8873SOL     OW38080   2.178   0.688  12.045 -0.0071  0.0504 -0.1312
 8873SOL    HW138081   2.240   0.618  12.023 -0.1159 -0.3936  0.9954
 8873SOL    HW238082   2.219   0.710  12.129  2.3552 -0.2146 -1.2144
 8874SOL     OW38083   4.718   1.569  10.883 -0.0173  0.0481  1.0154
 8874SOL    HW138084   0.057   1.600  10.948  1.0371 -0.6757  0.3313
 8874SOL    HW238085   4.680   1.646  10.842  1.2704  0.1314 -0.0467
 8875SOL     OW38086   1.379   3.426   6.473  0.2004 -0.1430 -0.0344
 8875SOL    HW138087   1.306   3.407   6.532 -0.0813 -3.4381 -1.4682
 8875SOL    HW238088   1.379   3.357   6.407  2.2439 -0.7481  0.5828
 8876SOL     OW38089   1.656   1.450   7.152  0.0185  0.1513 -0.1730
 8876SOL    HW138090   1.674   1.363   7.188  0.0923  0.6192  0.9156
 8876SOL    HW238091   1.730   1.467   7.094 -0.0028 -0.0683 -0.2654
 8877SOL     OW38092   1.055   0.307  10.884  0.2855 -0.3991 -0.1256
 8877SOL    HW138093   1.111   0.347  10.818  0.4635  0.0771  0.3124
 8877SOL    HW238094   1.109   0.328  10.960  0.9533 -1.6041 -0.2716
 8878SOL     OW38095   1.999   1.545   9.062 -0.0656 -0.1519 -0.1595
 8878SOL    HW138096   1.940   1.486   9.110  0.5171 -0.7641 -0.1977
 8878SOL    HW238097   1.980   1.503   8.978 -2.2222  0.9589 -0.2017
 8879SOL     OW38098   0.916   2.318   8.310  0.2378  0.4155  0.8834
 8879SOL    HW138099   1.007   2.290   8.313  0.4984  1.1194 -0.5137
 8879SOL    HW238100   0.875   2.301   8.395  1.8302 -1.6288  1.2332
 8880SOL     OW38101   0.820   1.818   0.470 -0.3248 -0.2765 -0.7873
 8880SOL    HW138102   0.805   1.913   0.469 -1.3888 -0.4798 -3.8736
 8880SOL    HW238103   0.905   1.810   0.428 -0.0095 -0.1375 -0.1743
 8881SOL     OW38104   1.207   3.124   2.217 -0.4976 -0.0422  0.3946
 8881SOL    HW138105   1.224   3.218   2.210 -2.4589  0.2363 -0.4766
 8881SOL    HW238106   1.260   3.088   2.146 -2.4125 -1.8407 -0.1210
 8882SOL     OW38107   3.161   2.093  14.943 -0.1230  0.3078  0.3240
 8882SOL    HW138108   3.152   2.113  14.850 -0.0351 -1.8372 -0.1609
 8882SOL    HW238109   3.256   2.096  14.958  0.0211 -0.5293 -0.3870
 8883SOL     OW38110   0.095   4.550   6.713  0.1132 -0.0342  0.0458
 8883SOL    HW138111   0.068   4.463   6.682  1.2829 -0.0035 -1.0900
 8883SOL    HW238112   0.095   4.597   6.629 -0.0504 -1.4273 -0.7364
 8884SOL     OW38113   3.361   1.891   0.798  0.6245  0.0147  0.7083
 8884SOL    HW138114   3.456   1.876   0.794  0.4970  0.3211 -3.3560
 8884SOL    HW238115   3.336   1.906   0.707 -1.2773  0.3865  1.2914
 8885SOL     OW38116   0.636   0.653  16.456  0.2723 -0.6834 -0.2623
 8885SOL    HW138117   0.621   0.660  16.551  0.0350  0.6479 -0.3840
 8885SOL    HW238118   0.695   0.579  16.453 -1.9592 -2.4696  0.1322
 8886SOL     OW38119   3.562   0.425   3.454 -0.1507 -0.2361  0.2301
 8886SOL    HW138120   3.594   0.335   3.455  0.5981  0.0015 -1.7169
 8886SOL    HW238121   3.507   0.427   3.376  0.1826  3.8148  0.0966
 8887SOL     OW38122   4.366   4.014  16.572 -0.1121  0.3054  0.1197
 8887SOL    HW138123   4.404   3.958  16.504 -1.3107 -1.1599  0.6611
 8887SOL    HW238124   4.431   4.000  16.641 -0.5840  0.8400  0.6659
 8888SOL     OW38125   4.087   4.427   5.708 -0.8089 -0.2531  0.2018
 8888SOL    HW138126   4.001   4.435   5.667 -0.3620 -1.0307 -0.8717
 8888SOL    HW238127   4.142   4.393   5.637 -1.3491  0.1528 -0.4080
 8889SOL     OW38128   3.817   3.627   7.603 -0.0092 -0.2929  0.3459
 8889SOL    HW138129   3.883   3.630   7.672 -1.6520  2.2482  1.7922
 8889SOL    HW238130   3.743   3.582   7.643 -2.2650  1.0619 -2.3568
 8890SOL     OW38131   4.227   3.219   3.197 -0.3873 -0.2987 -0.5362
 8890SOL    HW138132   4.145   3.186   3.160 -2.3436  3.6475  0.2639
 8890SOL    HW238133   4.200   3.309   3.216  0.9234 -0.0925  0.3690
 8891SOL     OW38134   2.453   2.155   7.274 -0.0494  0.0316  0.5505
 8891SOL    HW138135   2.517   2.211   7.319 -1.7057  0.7363  2.0482
 8891SOL    HW238136   2.423   2.203   7.197  2.7790  0.9482  0.0326
 8892SOL     OW38137   3.381   0.480   5.695 -0.0217  0.7201  0.1000
 8892SOL    HW138138   3.356   0.399   5.740 -1.5950 -0.1978 -2.3938
 8892SOL    HW238139   3.476   0.465   5.696 -0.1198  0.0247 -0.4575
 8893SOL     OW38140   1.458   2.270  11.840 -0.0151 -0.0637  0.5371
 8893SOL    HW138141   1.435   2.182  11.871  0.1935 -0.4472 -0.4133
 8893SOL    HW238142   1.411   2.266  11.757  1.0828  1.4967 -0.1473
 8894SOL     OW38143   1.149   0.463  17.488  0.1691 -0.3275  0.3059
 8894SOL    HW138144   1.113   0.455  17.399 -0.5129 -0.3573  0.5855
 8894SOL    HW238145   1.076   0.507  17.531  0.7588 -1.0156  2.0336
 8895SOL     OW38146   2.217   0.124   7.135  0.3871 -0.1166  0.3911
 8895SOL    HW138147   2.285   0.144   7.071 -1.2661 -0.8209 -1.6203
 8895SOL    HW238148   2.209   0.206   7.184  1.0416  0.1986 -0.0296
 8896SOL     OW38149   0.364   1.444  13.101 -0.2750 -0.3167  0.2580
 8896SOL    HW138150   0.380   1.513  13.166  2.1332 -2.4488  1.8944
 8896SOL    HW238151   0.440   1.389  13.119  0.4670  0.1279 -1.5152
 8897SOL     OW38152   4.077   3.488   9.822 -0.2721  0.2678 -0.0714
 8897SOL    HW138153   4.033   3.412   9.782 -1.0750 -0.1546  1.6003
 8897SOL    HW238154   4.014   3.539   9.874 -0.4806 -0.7309  0.6523
 8898SOL     OW38155   2.534   1.370   3.812  0.1644 -0.7002  0.0040
 8898SOL    HW138156   2.567   1.334   3.729  0.1694  0.7973 -0.6413
 8898SOL    HW238157   2.460   1.313   3.832 -0.4423 -0.4296 -1.4629
 8899SOL     OW38158   4.182   1.814   3.861  0.0290  0.1794 -0.2442
 8899SOL    HW138159   4.257   1.758   3.838  0.1305 -0.1559  0.8786
 8899SOL    HW238160   4.156   1.863   3.783 -0.1291 -0.8683 -0.8490
 8900SOL     OW38161   3.444   0.583   9.385  0.0516  0.3980 -0.2498
 8900SOL    HW138162   3.444   0.551   9.475  0.6057 -0.1658 -0.4415
 8900SOL    HW238163   3.493   0.510   9.347  0.1567  0.7568 -0.7975
 8901SOL     OW38164   0.330   1.271   1.697  0.3580 -0.1576  0.0610
 8901SOL    HW138165   0.252   1.230   1.734  0.1650 -0.8658 -1.1123
 8901SOL    HW238166   0.298   1.305   1.614  0.3652  0.7751  0.4433
 8902SOL     OW38167   0.426   2.102   6.971 -0.5439 -0.0050 -0.1591
 8902SOL    HW138168   0.420   2.053   7.053 -1.3593 -0.0176 -0.2282
 8902SOL    HW238169   0.477   2.178   6.999 -0.7741  0.3421 -0.6851
 8903SOL     OW38170   1.899   0.070   4.531 -0.0876  0.0424  0.5539
 8903SOL    HW138171   1.833   0.004   4.508  0.5550  0.1274 -1.4698
 8903SOL    HW238172   1.890   0.127   4.456 -0.8447  0.3252  0.8649
 8904SOL     OW38173   0.416   3.667   5.388 -0.8665  0.6641 -0.4480
 8904SOL    HW138174   0.452   3.578   5.394 -1.8660  0.4541  2.2705
 8904SOL    HW238175   0.335   3.663   5.438  0.0181 -0.8839  0.8439
 8905SOL     OW38176   3.515   2.976   5.178  0.6265 -0.2438 -0.2918
 8905SOL    HW138177   3.542   3.005   5.265  1.7193  1.1508 -1.0877
 8905SOL    HW238178   3.480   2.894   5.213 -1.4919  0.1182 -1.5863
 8906SOL     OW38179   3.323   2.771   2.472  0.0598 -0.2775 -0.3140
 8906SOL    HW138180   3.274   2.761   2.391  2.2512 -0.2772 -1.6293
 8906SOL    HW238181   3.361   2.684   2.484  0.3042 -0.0709  0.4060
 8907SOL     OW38182   3.265   4.599  12.175  0.1419  0.0919  0.0610
 8907SOL    HW138183   3.280   4.629  12.265 -2.0567 -2.3539  1.2335
 8907SOL    HW238184   3.309   4.664  12.120 -1.0864  0.7732 -0.1116
 8908SOL     OW38185   1.482   3.457   5.867  0.3018  0.1521  0.0834
 8908SOL    HW138186   1.414   3.524   5.873 -0.2092 -0.2818 -1.0574
 8908SOL    HW238187   1.431   3.378   5.883  0.1525  0.6255  2.0507
 8909SOL     OW38188   4.132   2.839   4.388 -0.3043 -0.4969 -0.4689
 8909SOL    HW138189   4.098   2.918   4.344  2.3792 -0.0293 -1.6972
 8909SOL    HW238190   4.210   2.873   4.431 -1.1483 -0.0252  0.6934
 8910SOL     OW38191   2.144   2.809  12.111  0.0812 -0.4636 -0.5862
 8910SOL    HW138192   2.128   2.898  12.143  1.5808 -0.6676  0.7896
 8910SOL    HW238193   2.228   2.788  12.153 -0.4486  0.6115  1.0213
 8911SOL     OW38194   1.260   1.852   3.526 -0.2293 -0.1972 -0.1128
 8911SOL    HW138195   1.213   1.788   3.579 -0.2409  1.7028  2.1836
 8911SOL    HW238196   1.208   1.930   3.549 -0.0594 -0.2253  0.3783
 8912SOL     OW38197   1.952   0.181  15.766 -0.1168 -0.5085 -0.5623
 8912SOL    HW138198   1.968   0.105  15.710  0.1102 -0.6557 -0.2990
 8912SOL    HW238199   2.001   0.249  15.721 -1.3459  0.6049 -0.2089
 8913SOL     OW38200   2.074   3.853   5.603 -0.4878  0.2095 -0.5689
 8913SOL    HW138201   2.099   3.806   5.524 -0.3312  0.8332 -0.8930
 8913SOL    HW238202   1.998   3.798   5.625 -0.8959  0.1267 -2.1985
 8914SOL     OW38203   1.046   1.127   4.974  0.0012  0.6178  0.0217
 8914SOL    HW138204   1.055   1.032   4.979 -0.0244  0.8438  3.8394
 8914SOL    HW238205   0.983   1.130   4.902  2.7989  2.7884 -2.3635
 8915SOL     OW38206   3.684   1.770  10.790  0.0880  0.2280 -0.2983
 8915SOL    HW138207   3.768   1.724  10.786  0.2258  0.6153 -1.7968
 8915SOL    HW238208   3.701   1.843  10.850 -2.7553  0.4018  0.3034
 8916SOL     OW38209   1.080   1.835   0.350  0.1580  0.5734 -0.0758
 8916SOL    HW138210   1.115   1.757   0.394 -2.5244 -0.7410 -0.2386
 8916SOL    HW238211   1.156   1.887   0.326 -0.3169  1.5015  0.4440
 8917SOL     OW38212   4.718   4.293   6.624  0.5633 -0.1743  0.5385
 8917SOL    HW138213   4.653   4.285   6.555 -0.1077 -0.3423  1.1893
 8917SOL    HW238214   0.005   4.203   6.652  3.2543  0.2430  0.8016
 8918SOL     OW38215   3.800   1.382  12.026 -0.6676  0.3555 -0.7424
 8918SOL    HW138216   3.868   1.388  12.094 -0.2248 -1.5663 -1.0343
 8918SOL    HW238217   3.784   1.291  12.005 -2.6137  0.1654  1.5204
 8919SOL     OW38218   0.536   4.487   8.246 -0.3382 -0.4454 -0.1357
 8919SOL    HW138219   0.541   4.449   8.334  0.9339  1.7207  0.7214
 8919SOL    HW238220   0.507   4.576   8.265 -0.6639 -0.8404  1.2499
 8920SOL     OW38221   3.595   3.400  12.772  0.6802  0.4978 -0.4441
 8920SOL    HW138222   3.635   3.387  12.685  0.6043  0.4007 -0.4642
 8920SOL    HW238223   3.676   3.408  12.822 -0.0389 -1.2177  0.9823
 8921SOL     OW38224   1.674   0.177   6.500  0.1342 -0.0794  0.5892
 8921SOL    HW138225   1.712   0.189   6.586  2.9776 -1.2995 -0.5070
 8921SOL    HW238226   1.752   0.165   6.446 -0.6664 -1.9716 -0.1472
 8922SOL     OW38227   2.275   0.239  11.338  0.4041  0.2709  0.0293
 8922SOL    HW138228   2.256   0.322  11.382 -0.5667 -0.7829  1.5683
 8922SOL    HW238229   2.336   0.278  11.275  3.6927 -0.9599  2.5015
 8923SOL     OW38230   1.379   2.394   0.257  0.0109 -0.1959 -1.1707
 8923SOL    HW138231   1.322   2.414   0.183 -1.8773  0.8214  0.5512
 8923SOL    HW238232   1.315   2.370   0.324 -0.4224 -0.7749 -1.8024
 8924SOL     OW38233   1.194   2.606   5.484 -0.2828 -0.6919 -0.5711
 8924SOL    HW138234   1.268   2.557   5.519 -1.0839 -1.5279 -0.0471
 8924SOL    HW238235   1.230   2.658   5.412  0.1497  2.8243  2.1715
 8925SOL     OW38236   1.772   3.509  15.457  0.0972  0.3872 -0.1482
 8925SOL    HW138237   1.801   3.557  15.379 -1.3656 -0.4436 -1.1951
 8925SOL    HW238238   1.849   3.456  15.477  0.2117  0.5144 -0.2469
 8926SOL     OW38239   4.071   0.638  10.316  0.0521  0.0852  0.0788
 8926SOL    HW138240   3.985   0.673  10.341 -0.1515  1.5389 -2.6118
 8926SOL    HW238241   4.106   0.712  10.266  1.2475 -0.5982 -0.0850
 8927SOL     OW38242   3.793   2.886   4.571 -0.1346 -0.4387  0.0734
 8927SOL    HW138243   3.800   2.980   4.553 -1.9104 -0.1736  0.8171
 8927SOL    HW238244   3.738   2.860   4.497  1.0667  0.0601 -1.0068
 8928SOL     OW38245   3.878   1.995   4.590  0.1863  0.0504  0.4893
 8928SOL    HW138246   3.875   2.018   4.497 -0.4166 -3.6716 -0.4039
 8928SOL    HW238247   3.836   1.910   4.583  0.1684 -0.0598  2.0491
 8929SOL     OW38248   1.924   3.669   5.985 -0.3961 -0.1658  0.3557
 8929SOL    HW138249   1.937   3.762   6.004 -1.7933  0.4690 -1.7868
 8929SOL    HW238250   1.959   3.638   6.068 -2.5549  2.1480  2.1336
 8930SOL     OW38251   4.277   3.493   9.397  0.5246  0.1310 -0.6383
 8930SOL    HW138252   4.236   3.411   9.372  2.1567 -0.8012 -0.1996
 8930SOL    HW238253   4.289   3.464   9.488 -1.9211  1.3436  0.1077
 8931SOL     OW38254   3.031   2.350   7.188  0.4858 -0.2469  0.4325
 8931SOL    HW138255   2.938   2.359   7.166  1.0755  3.9002 -0.1927
 8931SOL    HW238256   3.031   2.259   7.220 -0.2993 -0.6583 -0.7287
 8932SOL     OW38257   2.607   4.323  14.969 -0.6271  0.1451 -0.4234
 8932SOL    HW138258   2.609   4.418  14.959  0.1872  0.2038  0.3802
 8932SOL    HW238259   2.690   4.315  14.922 -0.4211 -0.4203  0.0267
 8933SOL     OW38260   4.109   3.729  16.569  0.6469  0.4060 -0.0263
 8933SOL    HW138261   4.189   3.744  16.620  2.0013  0.7596 -2.2122
 8933SOL    HW238262   4.091   3.816  16.532 -1.0580  1.1711  2.5866
 8934SOL     OW38263   2.097   0.859   0.228  0.3744  0.5342 -0.4749
 8934SOL    HW138264   2.011   0.837   0.264 -0.4773  0.6695 -2.3765
 8934SOL    HW238265   2.078   0.823   0.141 -1.3273  0.5137 -0.0959
 8935SOL     OW38266   0.340   2.079   8.398 -0.2932 -0.1808  0.0715
 8935SOL    HW138267   0.434   2.096   8.393 -0.1892 -0.5054  1.0387
 8935SOL    HW238268   0.311   2.137   8.469 -1.4190 -1.6415  0.8025
 8936SOL     OW38269   2.956   2.371  10.210  0.3895  0.4831 -0.4053
 8936SOL    HW138270   2.985   2.283  10.184 -1.2874  0.2585 -1.4870
 8936SOL    HW238271   2.862   2.357  10.214  0.5221  0.0294  1.1609
 8937SOL     OW38272   4.287   4.099   4.107 -0.6851 -0.0932 -0.3424
 8937SOL    HW138273   4.232   4.130   4.179  0.6074 -1.3620  1.1868
 8937SOL    HW238274   4.349   4.045   4.156  1.8443  2.4327 -0.7517
 8938SOL     OW38275   1.421   2.999   4.438  0.0890 -0.0417  0.6573
 8938SOL    HW138276   1.459   3.079   4.402  0.7723 -0.9962 -0.7675
 8938SOL    HW238277   1.467   2.935   4.382 -0.1453 -0.8993  1.4429
 8939SOL     OW38278   0.501   2.666   2.313 -0.5435 -0.2434 -0.5005
 8939SOL    HW138279   0.543   2.583   2.337 -0.6033 -0.1688 -0.1351
 8939SOL    HW238280   0.573   2.728   2.308  0.3948 -1.3755 -1.1214
 8940SOL     OW38281   4.258   3.969   2.494  0.1780  0.3484 -0.1969
 8940SOL    HW138282   4.245   3.908   2.421  2.5965 -0.6978  0.2404
 8940SOL    HW238283   4.334   4.018   2.463  0.1237  1.9378  2.1803
 8941SOL     OW38284   2.885   4.000  13.612 -0.1591 -0.0278 -0.0588
 8941SOL    HW138285   2.908   3.909  13.590 -0.9221 -0.2979  0.2871
 8941SOL    HW238286   2.881   4.047  13.528 -2.0087 -1.6339 -0.8687
 8942SOL     OW38287   3.082   2.713   8.839 -0.4097  0.4540 -0.4236
 8942SOL    HW138288   3.045   2.625   8.840 -1.8308  1.0396 -0.3062
 8942SOL    HW238289   3.036   2.736   8.758 -1.3470  0.0260 -0.0120
 8943SOL     OW38290   0.229   3.799   8.694 -0.1601 -0.6931  0.1688
 8943SOL    HW138291   0.182   3.730   8.646 -1.0033 -0.2889  0.4057
 8943SOL    HW238292   0.239   3.762   8.781 -1.4645 -2.4054 -0.3884
 8944SOL     OW38293   0.414   1.248  14.837  0.1114  0.7157 -0.6138
 8944SOL    HW138294   0.465   1.310  14.785  0.5911 -0.4199 -1.5016
 8944SOL    HW238295   0.411   1.175  14.775 -2.0026 -0.2027  0.5928
 8945SOL     OW38296   3.285   1.806   8.555 -0.4977  1.0687  0.0911
 8945SOL    HW138297   3.365   1.764   8.587 -1.1477  0.0782  0.4100
 8945SOL    HW238298   3.294   1.797   8.460  1.9096 -1.6331  0.5985
 8946SOL     OW38299   1.680   1.222   4.160 -0.0094 -0.6098 -0.1704
 8946SOL    HW138300   1.649   1.298   4.111  2.2561 -1.1683 -2.4542
 8946SOL    HW238301   1.622   1.220   4.236  2.2841 -0.6123  1.5768
 8947SOL     OW38302   4.115   3.555   3.922 -0.3941 -0.0334  0.4149
 8947SOL    HW138303   4.047   3.524   3.862  1.6486 -1.6603 -1.0546
 8947SOL    HW238304   4.151   3.623   3.864  1.4461 -0.1018  1.4566
 8948SOL     OW38305   4.093   1.696   1.939  0.0528 -0.1114  0.9163
 8948SOL    HW138306   4.147   1.721   1.864 -0.0690  1.0074  1.2009
 8948SOL    HW238307   4.014   1.739   1.906 -0.8041  1.0861  4.6410
 8949SOL     OW38308   2.427   2.142   1.580  0.4220  0.6598  0.4278
 8949SOL    HW138309   2.368   2.096   1.521 -2.6007  0.2128  3.8018
 8949SOL    HW238310   2.451   2.215   1.524  0.2565  1.4126  1.3211
 8950SOL     OW38311   3.844   3.191  15.251 -0.3090  0.0585  0.0043
 8950SOL    HW138312   3.920   3.164  15.199  0.9759  0.5197  1.6154
 8950SOL    HW238313   3.786   3.114  15.249  0.6361 -0.8175  4.7935
 8951SOL     OW38314   3.991   0.489   9.288 -0.0164 -0.2981  0.3775
 8951SOL    HW138315   3.971   0.400   9.259  1.2240 -0.7347  0.8467
 8951SOL    HW238316   3.991   0.534   9.204  0.0083 -1.9545 -0.5089
 8952SOL     OW38317   1.412   2.888   2.272 -0.1448  0.5551 -0.2258
 8952SOL    HW138318   1.469   2.823   2.313 -1.0464 -0.7150 -1.0260
 8952SOL    HW238319   1.377   2.925   2.353  0.7067 -0.1547  0.4623
 8953SOL     OW38320   2.991   1.864  15.028  0.4951 -0.2440  0.3550
 8953SOL    HW138321   3.064   1.917  14.997  0.8832 -0.0152  1.6402
 8953SOL    HW238322   2.981   1.782  14.980  0.5445 -0.5430  0.8509
 8954SOL     OW38323   2.373   4.390  17.606 -0.5044  0.3694 -0.3515
 8954SOL    HW138324   2.397   4.351  17.690  0.2265  3.3629  0.8006
 8954SOL    HW238325   2.394   4.482  17.621  1.2832 -0.2407  0.9108
 8955SOL     OW38326   1.718   1.645   0.332 -0.2777  0.0986 -0.4692
 8955SOL    HW138327   1.728   1.569   0.275 -0.3606  0.4403 -0.9354
 8955SOL    HW238328   1.806   1.683   0.332 -0.7971  1.2826 -1.1315
 8956SOL     OW38329   0.565   1.463   8.585  0.8180  0.2079  0.2740
 8956SOL    HW138330   0.598   1.482   8.673 -1.5901 -1.7242  1.6148
 8956SOL    HW238331   0.622   1.391   8.559  1.7122  1.3300 -0.8484
 8957SOL     OW38332   3.808   4.560   5.888 -0.4960 -0.3498 -0.0035
 8957SOL    HW138333   3.758   4.495   5.838  1.2245 -0.7068 -1.2632
 8957SOL    HW238334   3.743   4.605   5.942 -0.9753  0.8274 -1.5776
 8958SOL     OW38335   0.551   0.356   8.557  0.2303 -0.2421  0.0808
 8958SOL    HW138336   0.642   0.334   8.539  0.4655  0.4738  0.4154
 8958SOL    HW238337   0.549   0.357   8.652  1.0753  0.5881  0.0847
 8959SOL     OW38338   2.460   1.123  15.108  0.4048 -0.5560  0.3634
 8959SOL    HW138339   2.447   1.028  15.116 -2.2874 -0.2991 -1.1906
 8959SOL    HW238340   2.438   1.129  15.015  0.0644  0.2031  0.4907
 8960SOL     OW38341   3.549   3.283   2.290  0.2642 -0.3432  0.0982
 8960SOL    HW138342   3.585   3.240   2.368 -1.3963  0.6681  1.4347
 8960SOL    HW238343   3.589   3.228   2.223  1.2683 -1.1224  1.3200
 8961SOL     OW38344   2.509   4.577  13.661  0.3277  0.0411  0.1205
 8961SOL    HW138345   2.533   4.667  13.684 -0.6568  0.3223  0.0658
 8961SOL    HW238346   2.555   4.543  13.737  3.3582 -1.3505 -2.3379
 8962SOL     OW38347   4.124   3.501   4.863  0.2504  0.0373  0.7561
 8962SOL    HW138348   4.193   3.551   4.907 -1.4614  0.3119  3.1693
 8962SOL    HW238349   4.064   3.466   4.929 -1.0946  0.8576 -0.0465
 8963SOL     OW38350   0.884   0.128  10.995 -0.0409  0.5071  0.3810
 8963SOL    HW138351   0.949   0.197  10.982 -1.1718  1.1826 -1.6092
 8963SOL    HW238352   0.930   0.065  11.051  0.1561  0.7663  0.5151
 8964SOL     OW38353   1.834   1.036   2.749  0.6831  0.1664 -0.4077
 8964SOL    HW138354   1.781   1.108   2.717  1.2209  1.6055  1.9315
 8964SOL    HW238355   1.906   1.078   2.797  0.5907 -0.2285  0.0774
 8965SOL     OW38356   0.824   4.353   9.525 -0.0006  0.4954 -0.3483
 8965SOL    HW138357   0.846   4.446   9.521 -2.0301  0.9196 -1.5475
 8965SOL    HW238358   0.748   4.357   9.582  0.0348  0.6206 -0.3115
 8966SOL     OW38359   2.770   2.900  16.043  0.3574 -0.4201  0.4636
 8966SOL    HW138360   2.828   2.888  16.119  2.5682  2.3807 -0.7732
 8966SOL    HW238361   2.824   2.861  15.974 -0.2251 -0.1040 -0.1764
 8967SOL     OW38362   1.743   4.311  16.584  0.1731  0.2542 -0.1005
 8967SOL    HW138363   1.839   4.313  16.576  0.1726 -1.5446 -0.5889
 8967SOL    HW238364   1.734   4.261  16.664 -1.5234  1.9888  0.8016
 8968SOL     OW38365   1.693   1.782   7.952  0.7983  0.2847  0.3415
 8968SOL    HW138366   1.617   1.811   7.902  0.5862  2.5665  1.9926
 8968SOL    HW238367   1.755   1.760   7.882 -0.9649 -1.8103 -0.5548
 8969SOL     OW38368   3.338   2.063  15.885  0.0704 -0.3584 -0.6944
 8969SOL    HW138369   3.261   2.117  15.904 -0.6343 -1.5336 -0.1902
 8969SOL    HW238370   3.311   1.972  15.897  1.9404 -0.9138 -0.6565
 8970SOL     OW38371   3.975   1.410   8.114 -0.1804 -1.2354  0.1060
 8970SOL    HW138372   4.045   1.350   8.138 -0.3975 -2.0624 -1.3493
 8970SOL    HW238373   3.985   1.483   8.175  1.7351  0.2095 -1.9196
 8971SOL     OW38374   3.799   1.723   4.275  0.3040 -0.5233  0.9743
 8971SOL    HW138375   3.840   1.636   4.283  0.3706 -0.5959 -0.1339
 8971SOL    HW238376   3.761   1.743   4.361  3.9669 -0.8433  2.6839
 8972SOL     OW38377   1.915   0.678  13.256  0.4386 -0.3436 -0.7821
 8972SOL    HW138378   1.825   0.689  13.289  0.8806 -0.1653  0.3508
 8972SOL    HW238379   1.910   0.599  13.203  0.4784  0.1909 -1.5715
 8973SOL     OW38380   3.678   2.963   9.511  0.0826  0.2141 -0.3050
 8973SOL    HW138381   3.635   2.904   9.572  1.2296 -0.5418 -0.2152
 8973SOL    HW238382   3.607   3.024   9.495 -0.4835 -1.0445 -2.6191
 8974SOL     OW38383   2.291   4.250  17.395  0.0738 -0.1278  0.2111
 8974SOL    HW138384   2.377   4.243  17.353 -0.4284 -0.5431 -0.7604
 8974SOL    HW238385   2.308   4.288  17.481 -0.7800  0.5657  0.0729
 8975SOL     OW38386   4.692   3.606   7.444 -0.6151 -0.2201  0.5365
 8975SOL    HW138387   4.720   3.556   7.368  0.4414  1.3869 -0.1255
 8975SOL    HW238388   0.032   3.677   7.438 -0.2299 -0.6046  0.1156
 8976SOL     OW38389   0.969   0.434  12.311 -0.2846  0.2829  0.3077
 8976SOL    HW138390   0.929   0.516  12.285 -0.8473  0.3880  1.5095
 8976SOL    HW238391   1.052   0.450  12.265 -0.0489 -1.0968  0.2283
 8977SOL     OW38392   2.089   1.491  12.604 -0.0112 -0.0130 -0.0759
 8977SOL    HW138393   2.068   1.558  12.669 -3.0257 -0.3237 -0.6829
 8977SOL    HW238394   2.085   1.551  12.529 -0.8664  1.2468  0.9702
 8978SOL     OW38395   3.701   1.265   1.106 -0.3531  0.6909  0.3750
 8978SOL    HW138396   3.741   1.178   1.106  2.3315  1.9300 -0.0397
 8978SOL    HW238397   3.608   1.245   1.100  0.0414 -1.1723  0.5133
 8979SOL     OW38398   1.031   2.937   4.149 -0.2082 -0.0940  0.4944
 8979SOL    HW138399   1.103   2.958   4.090 -1.9081  1.7583 -0.9392
 8979SOL    HW238400   1.078   2.919   4.230 -0.2783  2.1239  1.0367
 8980SOL     OW38401   0.472   2.113   7.490 -0.0929 -0.0061  0.0911
 8980SOL    HW138402   0.565   2.094   7.488 -0.3718 -1.5047  1.7518
 8980SOL    HW238403   0.453   2.083   7.579 -3.3016 -2.1192 -1.2933
 8981SOL     OW38404   0.864   3.869  13.220  0.3648 -0.9011 -0.0309
 8981SOL    HW138405   0.957   3.862  13.199  0.4388 -0.6691  0.2180
 8981SOL    HW238406   0.868   3.935  13.290 -2.7955 -0.2403 -0.4622
 8982SOL     OW38407   0.922   3.760   5.207 -0.3461 -0.0896 -0.6965
 8982SOL    HW138408   0.894   3.669   5.217 -1.0189  0.0112 -1.6041
 8982SOL    HW238409   0.971   3.771   5.289 -3.4030 -0.8379  1.2085
 8983SOL     OW38410   3.443   4.394   7.177  0.5845 -0.2480 -0.8779
 8983SOL    HW138411   3.490   4.366   7.098 -0.3677 -1.6799 -0.9331
 8983SOL    HW238412   3.423   4.484   7.152 -0.8978  0.1374  1.7114
 8984SOL     OW38413   3.639   1.085   4.985  0.4754  0.2361 -0.2337
 8984SOL    HW138414   3.727   1.072   5.021 -0.1931  0.4422  1.4720
 8984SOL    HW238415   3.586   1.120   5.056 -1.6035 -0.1807 -1.6095
 8985SOL     OW38416   4.639   4.411  10.297  0.2629 -0.3524 -0.2173
 8985SOL    HW138417   4.695   4.379  10.226  0.0279 -0.1056 -0.5141
 8985SOL    HW238418   4.640   4.330  10.348  1.8367  0.1134  0.5025
 8986SOL     OW38419   3.331   2.927   4.802  0.2127  1.0989 -0.8415
 8986SOL    HW138420   3.425   2.910   4.801  0.0772  0.2604  0.0954
 8986SOL    HW238421   3.312   2.899   4.712 -0.2510  0.2181 -0.4739
 8987SOL     OW38422   1.565   2.016   1.078  0.1776  0.0169  0.6065
 8987SOL    HW138423   1.622   2.064   1.018  0.4471 -0.6320  0.3540
 8987SOL    HW238424   1.499   2.083   1.100 -0.8023 -0.8567  0.3170
 8988SOL     OW38425   1.882   4.673   5.472 -0.3805 -0.2855 -0.7629
 8988SOL    HW138426   1.969   4.675   5.512  0.5822  0.7799 -2.8964
 8988SOL    HW238427   1.900   4.627   5.390  0.9514  0.2695 -0.7849
 8989SOL     OW38428   2.853   2.217   6.873  0.3188  0.0568 -0.1941
 8989SOL    HW138429   2.843   2.126   6.902 -1.0500 -0.6406 -2.7968
 8989SOL    HW238430   2.944   2.237   6.894  0.5431 -1.5734  0.3907
 8990SOL     OW38431   3.861   0.561   7.257  0.7418  0.2551 -0.5082
 8990SOL    HW138432   3.945   0.547   7.301 -0.7127  1.1631  2.6313
 8990SOL    HW238433   3.846   0.652   7.285  0.2016 -0.3093  1.0520
 8991SOL     OW38434   4.485   1.967   8.472 -0.1443 -0.1336  0.4833
 8991SOL    HW138435   4.442   2.005   8.548  1.0137 -1.1558  1.6570
 8991SOL    HW238436   4.502   2.053   8.435  0.6029  0.0255  1.1894
 8992SOL     OW38437   4.462   1.418  10.387  0.2510  0.3937  0.8630
 8992SOL    HW138438   4.535   1.383  10.336 -1.1247 -1.3103  0.0684
 8992SOL    HW238439   4.441   1.347  10.448 -0.3596 -2.1835 -2.3859
 8993SOL     OW38440   1.274   2.555  12.524  0.2110 -0.2042  0.0431
 8993SOL    HW138441   1.256   2.574  12.616 -1.0123 -1.3489  0.0463
 8993SOL    HW238442   1.192   2.519  12.490  0.2787 -1.9986  1.7845
 8994SOL     OW38443   0.189   3.144   0.103 -0.0105 -0.2516  0.7867
 8994SOL    HW138444   0.249   3.206   0.144 -1.2913  1.7786 -0.3771
 8994SOL    HW238445   0.147   3.099   0.177  0.4597 -0.9349  0.6383
 8995SOL     OW38446   0.822   2.301  12.672  0.0683 -0.1464  0.3197
 8995SOL    HW138447   0.846   2.345  12.753 -1.4267  1.9121 -0.3673
 8995SOL    HW238448   0.795   2.381  12.627 -2.0592 -0.1305  1.6485
 8996SOL     OW38449   0.380   1.616   6.315  0.2026 -0.1036 -0.3798
 8996SOL    HW138450   0.302   1.628   6.261 -0.0857  0.9580  0.2792
 8996SOL    HW238451   0.341   1.580   6.395  1.4166  1.9392  1.1202
 8997SOL     OW38452   2.091   0.907   2.692 -0.4752  0.1183  0.0434
 8997SOL    HW138453   2.028   0.969   2.655  0.0755  0.5787 -0.1190
 8997SOL    HW238454   2.061   0.830   2.644  0.0217 -0.7143  1.0743
 8998SOL     OW38455   2.422   2.205   5.067  0.0903 -0.2799  0.5899
 8998SOL    HW138456   2.491   2.195   5.002 -1.4392  0.4652 -1.1801
 8998SOL    HW238457   2.348   2.149   5.041  1.7171 -1.6446 -1.1062
 8999SOL     OW38458   3.614   2.798  11.216  0.2158 -0.1472 -0.3163
 8999SOL    HW138459   3.569   2.724  11.175 -1.0505  0.7763 -0.6050
 8999SOL    HW238460   3.693   2.752  11.245 -1.6820 -3.4261 -0.3020
 9000SOL     OW38461   0.907   4.206  17.040  0.8491 -0.0740  0.3266
 9000SOL    HW138462   0.846   4.246  17.103 -0.2144  0.6238 -1.1371
 9000SOL    HW238463   0.990   4.230  17.080  0.8577 -0.0912  0.3192
 9001SOL     OW38464   0.645   1.550   9.156  0.6663 -0.6437  0.1367
 9001SOL    HW138465   0.562   1.518   9.194  0.5841  1.1967  1.5308
 9001SOL    HW238466   0.685   1.592   9.232  0.4782  1.4282 -0.9070
 9002SOL     OW38467   1.184   3.774  17.399 -0.5095 -0.0193 -0.5221
 9002SOL    HW138468   1.134   3.709  17.349 -0.0426  0.1559 -1.2150
 9002SOL    HW238469   1.205   3.842  17.334 -1.7167 -0.1215 -1.0365
 9003SOL     OW38470   1.970   1.151  17.503 -0.2512 -0.2761  0.2080
 9003SOL    HW138471   2.037   1.213  17.531  1.1642 -1.7210  0.0482
 9003SOL    HW238472   1.998   1.133  17.414 -0.9418  1.2535 -0.3080
 9004SOL     OW38473   3.427   3.998  12.070  0.2079  0.7020 -0.5209
 9004SOL    HW138474   3.502   4.047  12.106 -2.2216  1.6135  3.2600
 9004SOL    HW238475   3.465   3.921  12.027  0.1145 -0.6767  1.9070
 9005SOL     OW38476   0.913   0.692  12.779  0.1542 -0.0955  0.2965
 9005SOL    HW138477   0.969   0.695  12.702 -0.6613 -0.3240 -0.3069
 9005SOL    HW238478   0.957   0.752  12.839 -1.0682 -1.2494  2.3647
 9006SOL     OW38479   2.448   1.743   6.680 -0.1470  0.0979  0.1146
 9006SOL    HW138480   2.536   1.763   6.713  0.8772 -0.7734 -2.1055
 9006SOL    HW238481   2.424   1.667   6.734 -1.6923 -0.7870 -1.8357
 9007SOL     OW38482   4.238   0.905   6.006  0.3840  0.3289  0.4459
 9007SOL    HW138483   4.278   0.830   5.962  1.7040 -0.4035  2.8869
 9007SOL    HW238484   4.290   0.916   6.086  0.4463 -1.2847  0.6263
 9008SOL     OW38485   3.485   1.677   3.143 -0.2298  0.6909  0.4373
 9008SOL    HW138486   3.394   1.692   3.168  0.6262  0.0029  3.8717
 9008SOL    HW238487   3.533   1.707   3.220 -0.5192  0.1728  0.8168
 9009SOL     OW38488   2.912   4.341   5.284  1.1351 -0.4609 -0.5673
 9009SOL    HW138489   2.880   4.311   5.369  1.9325  1.4202  0.4076
 9009SOL    HW238490   2.987   4.280   5.282  1.0215 -0.5781 -1.1467
 9010SOL     OW38491   0.492   1.465   0.897  0.3962 -0.0676  0.1297
 9010SOL    HW138492   0.431   1.465   0.823  0.3233 -1.2295  0.1837
 9010SOL    HW238493   0.560   1.402   0.872  1.5905  0.6673  1.5815
 9011SOL     OW38494   4.703   1.620  10.311 -0.4714 -0.1036  0.3133
 9011SOL    HW138495   4.678   1.711  10.294  2.7641  0.3366 -2.0030
 9011SOL    HW238496   4.618   1.580  10.331  0.1554 -1.1145  0.9861
 9012SOL     OW38497   4.051   4.355  11.869 -0.2692  0.5205  0.3594
 9012SOL    HW138498   4.104   4.276  11.861 -1.0450  0.0056  0.3759
 9012SOL    HW238499   3.980   4.310  11.914 -0.0951  0.3040  0.4181
 9013SOL     OW38500   0.762   3.385   1.488  0.1290 -0.3437  0.7251
 9013SOL    HW138501   0.735   3.304   1.532 -2.2769 -0.2963 -0.6887
 9013SOL    HW238502   0.794   3.343   1.408 -2.4098 -2.2926  0.7488
 9014SOL     OW38503   2.294   1.055  13.201 -0.3427 -0.1991  0.0901
 9014SOL    HW138504   2.300   1.106  13.282  1.3796  0.4790 -0.4779
 9014SOL    HW238505   2.221   0.994  13.213 -0.2567 -0.0843  1.1703
 9015SOL     OW38506   4.054   3.446   2.849  0.6698 -0.4458  0.6166
 9015SOL    HW138507   4.045   3.447   2.944 -2.5005  1.0924  0.2864
 9015SOL    HW238508   4.011   3.364   2.822 -2.5585  1.8635 -1.2807
 9016SOL     OW38509   3.681   0.996   3.049  0.0627 -0.4768  0.6114
 9016SOL    HW138510   3.587   1.008   3.063 -0.0267 -0.3610 -0.0934
 9016SOL    HW238511   3.687   0.973   2.956 -2.2825  3.1634 -0.3941
 9017SOL     OW38512   0.838   2.620   8.502  0.6702  0.3599  0.3024
 9017SOL    HW138513   0.852   2.690   8.565 -1.4687 -0.5204  1.7721
 9017SOL    HW238514   0.794   2.550   8.551  2.7318 -1.5455 -0.5850
 9018SOL     OW38515   1.885   0.070   3.523 -0.0211  0.2299 -0.0858
 9018SOL    HW138516   1.921   4.706   3.508  0.1887 -0.3579  3.8879
 9018SOL    HW238517   1.939   0.119   3.461  1.1852  1.7310  2.1802
 9019SOL     OW38518   2.596   2.672  14.011  0.6630 -0.4956  0.1517
 9019SOL    HW138519   2.613   2.639  13.923 -0.8362  0.5371 -0.5200
 9019SOL    HW238520   2.639   2.600  14.057 -0.8252 -1.1089  0.5542
 9020SOL     OW38521   2.866   0.347  11.002  0.5891  0.2466  0.0884
 9020SOL    HW138522   2.779   0.342  11.041 -0.0096 -1.1624 -1.4104
 9020SOL    HW238523   2.915   0.396  11.068  2.6165 -2.3466  0.5343
 9021SOL     OW38524   1.538   0.852   5.544 -0.0596 -0.3368  0.5432
 9021SOL    HW138525   1.534   0.875   5.637 -0.4508 -0.4009  0.5428
 9021SOL    HW238526   1.579   0.766   5.552 -3.4500 -2.0388 -0.1515
 9022SOL     OW38527   0.926   4.175  16.757 -0.1785  0.4680  0.1456
 9022SOL    HW138528   0.899   4.153  16.846  1.7560 -2.4506  0.0065
 9022SOL    HW238529   0.912   4.269  16.765  1.7312  0.5472  2.6998
 9023SOL     OW38530   3.447   2.004  16.968 -0.0894 -0.2750  0.2603
 9023SOL    HW138531   3.361   1.971  16.942 -0.9743  1.1710  1.3185
 9023SOL    HW238532   3.413   2.076  17.022 -0.5312 -1.6280  1.7781
 9024SOL     OW38533   4.586   1.364   1.319  0.0360  0.0431 -0.3296
 9024SOL    HW138534   4.550   1.450   1.337 -0.5671 -0.1549 -0.5860
 9024SOL    HW238535   4.678   1.386   1.307 -0.5556  2.6791 -0.1104
 9025SOL     OW38536   2.395   3.767  14.874  0.0638  0.6439  0.1652
 9025SOL    HW138537   2.338   3.732  14.805 -0.6472 -0.0981  1.1359
 9025SOL    HW238538   2.322   3.761  14.934 -1.7828 -0.3837 -2.1905
 9026SOL     OW38539   4.600   2.356  16.674 -0.0911 -0.4097 -0.0594
 9026SOL    HW138540   4.508   2.330  16.681 -0.4438  0.5604 -0.9941
 9026SOL    HW238541   4.629   2.268  16.651 -0.3179 -0.0381 -1.7604
 9027SOL     OW38542   2.770   2.535   4.774  0.2360 -0.0339 -0.4915
 9027SOL    HW138543   2.837   2.506   4.712  1.9220  1.1279  0.7932
 9027SOL    HW238544   2.820   2.601   4.821 -1.7055 -0.3102  1.9233
 9028SOL     OW38545   4.548   0.566   9.552 -0.2051 -0.4450  0.1908
 9028SOL    HW138546   4.551   0.478   9.515 -0.3726  0.3909 -1.7772
 9028SOL    HW238547   4.452   0.571   9.554 -0.2255 -0.5871 -0.4827
 9029SOL     OW38548   3.347   4.342   6.384 -0.3592  0.1961 -0.2013
 9029SOL    HW138549   3.422   4.283   6.387 -1.5203 -1.1837  1.5780
 9029SOL    HW238550   3.296   4.325   6.464 -1.3773 -1.7668 -1.2830
 9030SOL     OW38551   4.712   0.155   4.940  0.2928  0.0158 -0.4573
 9030SOL    HW138552   4.691   0.208   5.017  1.6147 -2.1997  1.4538
 9030SOL    HW238553   0.069   0.115   4.971 -0.5860 -1.0496  0.4990
 9031SOL     OW38554   4.419   4.539  14.780 -0.1403 -0.6859 -0.9988
 9031SOL    HW138555   4.492   4.588  14.742  0.4294 -0.9177 -0.2151
 9031SOL    HW238556   4.346   4.578  14.732 -1.0426 -1.2025 -0.0394
 9032SOL     OW38557   0.474   0.630   0.139 -0.3148  0.1775  0.0421
 9032SOL    HW138558   0.470   0.555   0.080  3.1284 -1.1069  1.4644
 9032SOL    HW238559   0.564   0.632   0.170  0.5673 -1.4077 -2.4127
 9033SOL     OW38560   0.330   2.355   7.765  0.4081 -0.0957 -0.2868
 9033SOL    HW138561   0.336   2.447   7.789 -0.0475 -0.4510  1.2157
 9033SOL    HW238562   0.419   2.327   7.789  0.5296  0.6775  0.1584
 9034SOL     OW38563   4.186   0.041  11.564  0.1696  0.1184 -0.1948
 9034SOL    HW138564   4.102   4.724  11.582  0.6857 -1.2745 -0.9630
 9034SOL    HW238565   4.250   4.697  11.585 -1.3248 -0.6523  1.8263
 9035SOL     OW38566   0.305   0.755   3.333  0.4162 -0.5481 -0.4166
 9035SOL    HW138567   0.268   0.728   3.250  1.0098 -0.3880 -0.7381
 9035SOL    HW238568   0.399   0.770   3.317  0.5407 -1.4657 -0.5408
 9036SOL     OW38569   3.683   4.515   6.240  0.1237  0.4254  0.1714
 9036SOL    HW138570   3.660   4.602   6.209  0.9186 -0.0917 -1.8820
 9036SOL    HW238571   3.700   4.531   6.333 -1.4186 -1.0831  0.7153
 9037SOL     OW38572   1.933   4.622   0.628  0.1039  0.2632 -0.6674
 9037SOL    HW138573   1.951   4.715   0.639 -0.1031  0.1420  0.7284
 9037SOL    HW238574   1.861   4.606   0.689 -0.0083  1.1327 -0.5735
 9038SOL     OW38575   1.305   3.012   4.703  0.3930 -0.1686  0.2440
 9038SOL    HW138576   1.229   2.954   4.696  0.8357 -0.6845 -0.4154
 9038SOL    HW238577   1.340   3.016   4.614  0.3406 -0.4588  0.2088
 9039SOL     OW38578   2.034   1.298  13.443  0.5262 -0.1309 -0.1431
 9039SOL    HW138579   2.000   1.253  13.366 -2.1579  0.3626  0.7297
 9039SOL    HW238580   1.974   1.373  13.448  1.0162  0.2376  0.1782
 9040SOL     OW38581   0.716   2.392   8.130  0.4563 -0.1318 -0.1820
 9040SOL    HW138582   0.790   2.386   8.191 -0.0265 -0.0983  0.4008
 9040SOL    HW238583   0.697   2.485   8.142  0.2760 -0.2372  0.3303
 9041SOL     OW38584   1.873   2.133  17.332 -0.0754 -0.2728 -0.6348
 9041SOL    HW138585   1.811   2.085  17.387  0.0045 -2.8502 -2.8069
 9041SOL    HW238586   1.932   2.173  17.396 -2.9720  3.3008 -0.2042
 9042SOL     OW38587   3.571   1.257   9.869  0.1033  0.4588 -0.4179
 9042SOL    HW138588   3.555   1.171   9.830  0.5853  1.5688 -3.0366
 9042SOL    HW238589   3.479   1.284   9.874 -0.2138 -0.8207  0.5785
 9043SOL     OW38590   4.020   1.576   6.749  0.5172 -0.0842  0.0163
 9043SOL    HW138591   4.113   1.597   6.736  0.4249 -0.2566 -0.9310
 9043SOL    HW238592   4.022   1.480   6.744  2.0594 -0.0671  0.4087
 9044SOL     OW38593   0.365   1.578   3.818 -0.6024 -0.2561  0.4138
 9044SOL    HW138594   0.323   1.521   3.753  0.3462 -0.2281 -0.2228
 9044SOL    HW238595   0.325   1.664   3.808  2.2103  0.8514 -1.1239
 9045SOL     OW38596   2.603   3.122   1.565  0.0589  0.2091 -0.0851
 9045SOL    HW138597   2.646   3.066   1.629 -1.0081 -0.8879 -0.3394
 9045SOL    HW238598   2.559   3.188   1.618  0.6656  0.2361  0.3909
 9046SOL     OW38599   0.542   3.873   4.291  0.5821  0.2298 -0.1107
 9046SOL    HW138600   0.471   3.835   4.343  0.4063  0.3518 -0.2653
 9046SOL    HW238601   0.516   3.861   4.200 -1.9765 -0.2908  0.6880
 9047SOL     OW38602   4.538   4.354  10.964 -0.6538  0.0588  0.0846
 9047SOL    HW138603   4.488   4.284  11.007  0.6995 -1.4125 -0.7389
 9047SOL    HW238604   4.525   4.335  10.871  0.7665 -0.5182 -0.0009
 9048SOL     OW38605   1.121   2.091   3.649 -0.3129 -0.0549 -0.0991
 9048SOL    HW138606   1.140   2.185   3.651  1.6801 -0.4611  0.5277
 9048SOL    HW238607   1.030   2.099   3.676  0.0475  2.9494  0.1854
 9049SOL     OW38608   3.651   2.206  13.146  0.4118 -0.4244  0.0381
 9049SOL    HW138609   3.663   2.299  13.126  0.8941 -0.2151  1.2733
 9049SOL    HW238610   3.680   2.202  13.237 -0.3246 -0.4638  0.2702
 9050SOL     OW38611   2.932   0.611   6.441  0.5241 -0.4934 -0.0621
 9050SOL    HW138612   2.877   0.678   6.400  0.1170 -2.1488 -2.2166
 9050SOL    HW238613   3.008   0.657   6.477  1.1988 -3.3820  2.1400
 9051SOL     OW38614   3.893   4.063  11.875 -0.0969 -0.1102 -0.0998
 9051SOL    HW138615   3.870   4.073  11.967 -3.0125  0.6094 -0.9147
 9051SOL    HW238616   3.988   4.078  11.878 -0.2832  0.8136  0.9441
 9052SOL     OW38617   2.197   2.053   8.068  0.3260  0.7980  0.4886
 9052SOL    HW138618   2.113   2.074   8.109 -0.0526  1.4800 -0.6491
 9052SOL    HW238619   2.240   2.135   8.091  0.3807  1.9014 -3.5773
 9053SOL     OW38620   3.301   4.089   9.047 -0.0200  0.0222  0.0316
 9053SOL    HW138621   3.350   4.151   9.101 -0.2244 -0.8770  1.2485
 9053SOL    HW238622   3.270   4.153   8.983 -0.8466  0.3803  0.7929
 9054SOL     OW38623   1.673   0.683  13.680 -0.4041 -0.3284  0.1184
 9054SOL    HW138624   1.625   0.747  13.628 -0.8763  0.5347  1.5941
 9054SOL    HW238625   1.663   0.703  13.773  0.0084 -0.7533  0.2539
 9055SOL     OW38626   3.936   2.788  11.973 -0.3553  0.2191 -0.3583
 9055SOL    HW138627   3.903   2.864  11.925  1.4075  1.1015 -0.2013
 9055SOL    HW238628   3.856   2.762  12.017 -0.8396  2.2449 -0.0299
 9056SOL     OW38629   2.747   1.450   1.339  0.1095  0.1866  0.1118
 9056SOL    HW138630   2.661   1.479   1.310  0.1365  0.4411  0.2916
 9056SOL    HW238631   2.791   1.534   1.353 -0.3969  0.6124 -0.8569
 9057SOL     OW38632   1.327   3.276   7.680  0.3791  0.1460 -0.1071
 9057SOL    HW138633   1.281   3.289   7.596 -0.6564 -2.0457  0.1298
 9057SOL    HW238634   1.357   3.185   7.673  1.3075  0.3441  1.2988
 9058SOL     OW38635   0.055   3.012   7.977  0.0800 -0.1414  0.3987
 9058SOL    HW138636   4.694   3.056   7.975  0.0137 -0.2160  1.6940
 9058SOL    HW238637   0.108   3.082   8.014  0.4934  0.5406 -1.4904
 9059SOL     OW38638   0.408   4.195   6.836 -0.3829  0.1386  0.0560
 9059SOL    HW138639   0.424   4.256   6.763 -1.0458 -1.9606 -1.8188
 9059SOL    HW238640   0.484   4.137   6.826  0.7061  1.2673  1.7617
 9060SOL     OW38641   1.967   0.888  12.685  0.1074 -0.3702 -0.6514
 9060SOL    HW138642   2.019   0.851  12.614  0.0398 -0.0689 -0.8570
 9060SOL    HW238643   1.899   0.824  12.708  1.2890 -0.6659  2.0132
 9061SOL     OW38644   2.709   0.355   4.161  0.1662 -0.0642 -0.5754
 9061SOL    HW138645   2.669   0.280   4.116 -0.2490  0.5666 -1.2521
 9061SOL    HW238646   2.709   0.427   4.098  1.6158  1.4569  1.1583
 9062SOL     OW38647   3.249   1.607   7.266 -0.4352 -0.5300  0.8287
 9062SOL    HW138648   3.262   1.557   7.185 -0.3036 -1.1757  1.2510
 9062SOL    HW238649   3.277   1.696   7.242  0.4622 -1.1222 -0.3588
 9063SOL     OW38650   3.315   4.383   2.228 -0.3016  0.1561 -0.2958
 9063SOL    HW138651   3.310   4.340   2.313  0.6697 -0.1653 -0.4093
 9063SOL    HW238652   3.308   4.470   2.266 -0.6682  1.0583 -2.4488
 9064SOL     OW38653   0.751   2.922   7.334  0.2243 -0.2089 -0.7669
 9064SOL    HW138654   0.672   2.900   7.383 -0.8347  2.2220 -1.3394
 9064SOL    HW238655   0.805   2.967   7.399 -1.2497 -2.2238  1.8150
 9065SOL     OW38656   2.449   3.908   5.601 -0.2092 -0.1918  0.2248
 9065SOL    HW138657   2.416   3.819   5.590 -2.0034  0.4860  0.1760
 9065SOL    HW238658   2.477   3.905   5.693  0.8983  0.7919 -0.0768
 9066SOL     OW38659   4.557   2.240   7.087 -0.2374 -0.2800 -0.2767
 9066SOL    HW138660   4.606   2.165   7.123 -0.1040  0.5588  1.3011
 9066SOL    HW238661   4.632   2.298   7.077  2.1013 -3.3304 -0.6191
 9067SOL     OW38662   0.304   0.304   8.933  0.4175 -0.4015 -0.1907
 9067SOL    HW138663   0.221   0.291   8.979  1.7680 -0.5881  2.1942
 9067SOL    HW238664   0.272   0.337   8.849  2.7812 -0.9848 -1.3203
 9068SOL     OW38665   2.160   3.887  15.264 -0.5651 -0.8902  0.5050
 9068SOL    HW138666   2.150   3.837  15.183  1.6202  0.8523 -0.8566
 9068SOL    HW238667   2.251   3.860  15.278  0.2933  0.8478 -1.6296
 9069SOL     OW38668   3.095   2.011   7.310  0.2192  0.1074 -0.4040
 9069SOL    HW138669   3.021   2.011   7.371 -2.1031 -2.6872 -3.2621
 9069SOL    HW238670   3.154   2.080   7.341 -0.5380  0.7379 -0.3640
 9070SOL     OW38671   3.439   1.800  13.256 -0.4855 -0.4941  0.1960
 9070SOL    HW138672   3.479   1.862  13.195 -1.3756  0.3628  0.4833
 9070SOL    HW238673   3.355   1.843  13.273  0.0853 -0.5205  3.1207
 9071SOL     OW38674   1.053   4.665  16.312 -0.2476 -0.0889  0.0420
 9071SOL    HW138675   0.968   4.705  16.333  0.8433  2.4268 -0.3393
 9071SOL    HW238676   1.073   4.648  16.404 -1.2050 -0.0340  0.2590
 9072SOL     OW38677   4.289   1.964   2.260  0.2608 -0.1305  0.1398
 9072SOL    HW138678   4.280   1.880   2.214  0.6390 -0.7338  1.1710
 9072SOL    HW238679   4.372   2.006   2.240  0.6770 -1.7604 -1.5923
 9073SOL     OW38680   0.061   1.527  13.086  0.2914 -0.0143  0.8319
 9073SOL    HW138681   0.128   1.459  13.083  0.3000  0.0115  0.4110
 9073SOL    HW238682   0.058   1.533  13.181  0.3076  3.3873  0.6267
 9074SOL     OW38683   2.672   3.733   5.269  0.3274 -0.3202 -0.4655
 9074SOL    HW138684   2.634   3.658   5.315  0.3354 -1.2370 -1.9793
 9074SOL    HW238685   2.756   3.702   5.235  0.3415  1.2304 -1.8484
 9075SOL     OW38686   2.116   0.228   2.712  0.6179 -0.7873  0.1041
 9075SOL    HW138687   2.206   0.211   2.684  0.9638  0.4519  0.4239
 9075SOL    HW238688   2.130   0.304   2.769 -1.3268 -2.3115  2.5858
 9076SOL     OW38689   3.421   2.484   3.313 -0.3422 -0.3208  0.5499
 9076SOL    HW138690   3.463   2.427   3.248  0.3185  2.1327 -1.1894
 9076SOL    HW238691   3.364   2.524   3.248  0.0419 -0.2770  0.2427
 9077SOL     OW38692   1.985   2.673   7.445  1.2067 -0.1927 -0.1528
 9077SOL    HW138693   1.987   2.635   7.357 -3.7813 -0.2970 -0.2015
 9077SOL    HW238694   1.939   2.608   7.498 -1.2699  1.8021  0.1673
 9078SOL     OW38695   0.646   0.623   5.588 -0.4557 -0.1948  0.1395
 9078SOL    HW138696   0.733   0.625   5.547  0.3649 -1.9554  1.7906
 9078SOL    HW238697   0.669   0.631   5.680 -0.7548 -2.1059  0.3657
 9079SOL     OW38698   2.869   1.099   5.067 -0.2539 -0.2925  0.6253
 9079SOL    HW138699   2.873   1.168   5.133  1.3682 -0.7950  1.0652
 9079SOL    HW238700   2.838   1.027   5.122  0.0573 -2.0494 -1.5078
 9080SOL     OW38701   0.246   0.824   1.865  0.5210 -0.1772  0.0172
 9080SOL    HW138702   0.215   0.913   1.847  2.1600  0.5731  0.8800
 9080SOL    HW238703   0.275   0.798   1.778 -1.0904 -0.5828 -0.3824
 9081SOL     OW38704   1.478   0.314   5.050 -0.0812  0.0554 -0.4503
 9081SOL    HW138705   1.565   0.276   5.042  0.0318  0.0532  0.7617
 9081SOL    HW238706   1.424   0.248   5.006  0.6329 -0.4769 -0.5220
 9082SOL     OW38707   2.323   0.373   4.359  0.1811 -0.1361  0.7691
 9082SOL    HW138708   2.316   0.334   4.272 -0.4800  0.8325  0.3918
 9082SOL    HW238709   2.400   0.429   4.347 -0.9028  1.1479 -0.1836
 9083SOL     OW38710   2.366   4.490  14.394 -0.4657 -0.0114  0.1873
 9083SOL    HW138711   2.410   4.522  14.315  2.0324 -0.3287  1.4615
 9083SOL    HW238712   2.365   4.395  14.380  2.5909 -0.3572  2.2944
 9084SOL     OW38713   1.777   3.364  11.026  0.2678  0.4648 -0.1907
 9084SOL    HW138714   1.848   3.411  11.069  0.2683  0.0319  0.2885
 9084SOL    HW238715   1.781   3.283  11.076  1.0086  0.2092 -0.6573
 9085SOL     OW38716   3.107   0.302  10.884 -0.0170  0.6026  0.2516
 9085SOL    HW138717   3.023   0.312  10.930 -0.1235  1.7653 -0.2061
 9085SOL    HW238718   3.086   0.345  10.801 -1.8766 -0.0331  0.3878
 9086SOL     OW38719   2.926   2.856   7.662 -0.0788 -0.5594 -0.3126
 9086SOL    HW138720   2.855   2.893   7.610 -0.9774 -1.9443 -0.0815
 9086SOL    HW238721   2.928   2.908   7.742  1.7722  1.3453 -1.6258
 9087SOL     OW38722   1.431   2.040   5.245 -0.1834 -0.6128 -0.1476
 9087SOL    HW138723   1.512   1.993   5.226 -0.7873 -0.8158 -2.1452
 9087SOL    HW238724   1.375   1.967   5.273 -1.8251  0.1200 -1.5412
 9088SOL     OW38725   0.163   4.377  10.464 -0.1142  0.4717 -0.2194
 9088SOL    HW138726   0.168   4.302  10.524 -2.3577  0.9171  0.5224
 9088SOL    HW238727   0.113   4.334  10.395 -0.6284  0.8318 -0.0642
 9089SOL     OW38728   3.235   1.737   4.217  0.1995 -0.3541  0.4950
 9089SOL    HW138729   3.309   1.783   4.257  1.2462 -1.8949  0.3476
 9089SOL    HW238730   3.164   1.757   4.278  0.4318 -2.7049  1.5484
 9090SOL     OW38731   4.701   4.181   0.633 -0.4527 -0.0220 -1.1166
 9090SOL    HW138732   0.016   4.094   0.636  1.6348  1.0207  1.8279
 9090SOL    HW238733   4.608   4.160   0.640 -0.2845 -0.6133 -0.6501
 9091SOL     OW38734   2.977   1.383   8.478  0.4531 -0.6071 -0.8727
 9091SOL    HW138735   3.026   1.465   8.465 -2.0291  0.9590 -0.2611
 9091SOL    HW238736   2.941   1.357   8.393 -1.0552 -1.5021  0.0476
 9092SOL     OW38737   3.108   0.580   1.927 -0.4435  0.6182 -0.0875
 9092SOL    HW138738   3.082   0.535   2.008 -1.0984  2.3079  0.6292
 9092SOL    HW238739   3.161   0.655   1.954  1.7029 -0.6025 -0.9148
 9093SOL     OW38740   4.551   3.940  10.532  0.4332 -0.1247 -0.3164
 9093SOL    HW138741   4.537   3.874  10.464 -0.4265 -0.4913  0.2102
 9093SOL    HW238742   4.479   3.926  10.593  0.7832 -2.1314 -0.3640
 9094SOL     OW38743   2.275   3.445   2.996  0.7533 -0.4867 -0.6488
 9094SOL    HW138744   2.332   3.398   3.057 -0.7354 -1.5594 -0.0907
 9094SOL    HW238745   2.198   3.470   3.048  1.5879 -1.4667  1.0545
 9095SOL     OW38746   0.623   2.873  14.332 -0.4784  0.5410 -0.1972
 9095SOL    HW138747   0.571   2.942  14.372 -1.9313 -0.9482  0.4627
 9095SOL    HW238748   0.595   2.789  14.367  0.6476  0.7035  1.1029
 9096SOL     OW38749   0.841   2.836  11.651 -0.7272 -0.6614 -0.0392
 9096SOL    HW138750   0.849   2.774  11.578 -2.1898  0.8921 -1.5289
 9096SOL    HW238751   0.747   2.849  11.653 -0.9576 -1.8897 -2.4284
 9097SOL     OW38752   1.141   3.029  17.451 -0.4358 -0.1881  0.6645
 9097SOL    HW138753   1.167   3.077  17.372 -0.2468  0.9941  1.4560
 9097SOL    HW238754   1.227   2.989  17.464 -0.6156 -1.2361 -1.4123
 9098SOL     OW38755   1.327   2.698   4.779 -0.6011 -0.1006  0.2071
 9098SOL    HW138756   1.333   2.725   4.870  0.0752  1.4314 -0.2890
 9098SOL    HW238757   1.236   2.668   4.769 -0.7980  0.6546 -0.3169
 9099SOL     OW38758   3.059   1.303   2.809  0.4664  1.1851  0.0679
 9099SOL    HW138759   3.141   1.351   2.796  0.6241  0.4319 -1.8393
 9099SOL    HW238760   3.003   1.334   2.738 -0.0939 -0.1071 -0.0488
 9100SOL     OW38761   2.447   1.634  17.689 -0.2836  0.5337  0.1585
 9100SOL    HW138762   2.402   1.635  17.605  1.6754  0.9499 -0.8985
 9100SOL    HW238763   2.403   1.553   0.016  1.4897 -0.5505 -0.1701
 9101SOL     OW38764   1.844   3.526  10.746  0.0906 -0.8205  0.3875
 9101SOL    HW138765   1.904   3.466  10.791 -0.5199 -2.3692 -0.8552
 9101SOL    HW238766   1.863   3.508  10.654  2.7837 -0.2958  0.8421
 9102SOL     OW38767   3.779   2.535   6.829 -0.1035 -0.1322  0.0116
 9102SOL    HW138768   3.788   2.624   6.795  0.9699  0.4065  1.6801
 9102SOL    HW238769   3.805   2.552   6.920 -0.3748  0.5404 -0.0356
 9103SOL     OW38770   1.316   0.263   9.556  0.2015 -0.0085  0.0654
 9103SOL    HW138771   1.354   0.272   9.644 -0.3588  0.7438  0.2347
 9103SOL    HW238772   1.279   0.350   9.542 -0.1614 -0.2065 -0.1979
 9104SOL     OW38773   4.393   1.765   2.545  0.4238  0.4530 -0.2461
 9104SOL    HW138774   4.301   1.785   2.531  0.7367  2.9918  1.3542
 9104SOL    HW238775   4.403   1.831   2.614 -3.2878  0.3280  0.3882
 9105SOL     OW38776   0.827   4.458   7.952 -0.1882 -0.6550 -1.0085
 9105SOL    HW138777   0.890   4.436   7.883  0.8307  1.4220 -0.7659
 9105SOL    HW238778   0.782   4.534   7.915 -2.1510 -0.2333  2.2314
 9106SOL     OW38779   4.374   0.356  10.738 -0.1140 -0.3294  0.1046
 9106SOL    HW138780   4.406   0.279  10.785  2.3401  1.5017  1.4393
 9106SOL    HW238781   4.279   0.355  10.741 -0.0521 -0.1219  2.6748
 9107SOL     OW38782   0.624   4.598   5.064 -0.2534  0.0565  0.0028
 9107SOL    HW138783   0.660   4.518   5.102 -0.0247  0.0563 -0.2059
 9107SOL    HW238784   0.702   4.628   5.016  0.3521 -0.0250  0.9358
 9108SOL     OW38785   4.710   4.620  15.336  0.2434  0.1076 -0.1030
 9108SOL    HW138786   0.022   4.597  15.422 -0.4204 -0.6028 -0.0065
 9108SOL    HW238787   4.713   4.540  15.283  0.3956  0.1702 -0.1903
 9109SOL     OW38788   4.162   3.168   8.657  0.0390 -0.5915  0.1625
 9109SOL    HW138789   4.108   3.155   8.735 -2.7429 -1.8152 -1.9459
 9109SOL    HW238790   4.237   3.116   8.687 -1.3021 -3.0518 -0.7517
 9110SOL     OW38791   1.212   0.098   4.299  0.5261  0.0532 -0.2750
 9110SOL    HW138792   1.131   0.135   4.335  0.6757  0.0151  0.0999
 9110SOL    HW238793   1.186   0.009   4.273  0.7267 -1.1921  3.7941
 9111SOL     OW38794   2.701   3.921   4.839 -0.2514  0.6835  0.2990
 9111SOL    HW138795   2.694   3.831   4.871  2.1222  0.1619 -0.6732
 9111SOL    HW238796   2.619   3.960   4.871 -1.2637 -0.7801 -0.5152
 9112SOL     OW38797   3.251   4.103   4.063  0.3520  0.0863 -0.0604
 9112SOL    HW138798   3.297   4.108   4.147 -2.7872 -0.8457  1.7355
 9112SOL    HW238799   3.232   4.194   4.038  0.2158  0.1472  0.2603
 9113SOL     OW38800   4.178   0.984   8.128  0.2521  0.1144  0.4658
 9113SOL    HW138801   4.127   0.966   8.207  2.9391 -1.0060  1.9232
 9113SOL    HW238802   4.178   1.080   8.127  0.5883  0.1100  0.3271
 9114SOL     OW38803   1.921   2.897   4.585 -0.1851 -0.3345  0.3748
 9114SOL    HW138804   1.869   2.845   4.525  1.2344 -1.4529  0.1077
 9114SOL    HW238805   1.875   2.867   4.664  0.0086  0.0145  0.6218
 9115SOL     OW38806   3.698   1.427   6.410  0.4869 -0.4115  0.1682
 9115SOL    HW138807   3.706   1.406   6.503 -0.8529  0.4085  0.4677
 9115SOL    HW238808   3.699   1.523   6.416 -2.0506 -0.3999  0.3324
 9116SOL     OW38809   1.054   3.251   2.635  0.2237  0.2023 -0.0118
 9116SOL    HW138810   0.983   3.210   2.585  1.2185 -0.4715 -0.8579
 9116SOL    HW238811   1.000   3.327   2.656 -0.6936 -0.9216  1.7773
 9117SOL     OW38812   3.781   2.279   4.709 -0.0022  0.1260 -0.3823
 9117SOL    HW138813   3.858   2.242   4.665 -1.6428 -0.2443 -2.9180
 9117SOL    HW238814   3.811   2.370   4.718  0.2104 -0.1264  1.6020
 9118SOL     OW38815   2.544   3.395  17.136 -0.8066  0.1306 -0.3125
 9118SOL    HW138816   2.553   3.318  17.079 -0.2855  2.4617 -3.4296
 9118SOL    HW238817   2.493   3.356  17.207  0.6168 -1.5343 -0.2186
 9119SOL     OW38818   3.689   1.782   1.073  0.3882  0.3671  0.6005
 9119SOL    HW138819   3.712   1.740   1.157  1.3452 -2.2282 -0.9655
 9119SOL    HW238820   3.628   1.851   1.099  1.8832  1.9912 -0.2265
 9120SOL     OW38821   4.609   0.795   3.264  0.0447  0.0775  0.4898
 9120SOL    HW138822   4.529   0.749   3.290  0.7792 -2.9854 -2.6667
 9120SOL    HW238823   4.620   0.770   3.173  1.3969 -0.9828  0.9403
 9121SOL     OW38824   1.588   4.436   4.780  0.5476  0.6223  0.4979
 9121SOL    HW138825   1.660   4.373   4.774  1.0303  1.0450  1.6869
 9121SOL    HW238826   1.508   4.384   4.776  0.5488  0.7167 -0.5309
 9122SOL     OW38827   3.996   2.946   5.766  0.1974 -0.0101 -0.0419
 9122SOL    HW138828   4.051   2.982   5.697 -0.5870 -1.0206 -1.1953
 9122SOL    HW238829   4.058   2.943   5.838  0.5782 -2.1225 -0.4645
 9123SOL     OW38830   2.229   0.930   7.076 -0.0179 -0.2812  0.0051
 9123SOL    HW138831   2.150   0.903   7.029  0.0671 -1.1795  0.3850
 9123SOL    HW238832   2.297   0.914   7.011  0.7473 -0.1656  0.7808
 9124SOL     OW38833   4.244   4.358   1.842 -0.7748 -0.3719  0.1368
 9124SOL    HW138834   4.237   4.453   1.833  0.1636 -0.0636  2.6733
 9124SOL    HW238835   4.163   4.324   1.805 -0.6745 -0.0852 -0.3544
 9125SOL     OW38836   2.973   1.987  17.351 -0.4212  0.8799  0.3071
 9125SOL    HW138837   3.017   2.043  17.414 -1.8684  3.7398 -1.2522
 9125SOL    HW238838   2.956   1.916  17.414  0.7781 -1.5943 -2.1256
 9126SOL     OW38839   1.893   3.610   9.545 -0.1565  0.2862 -0.8178
 9126SOL    HW138840   1.893   3.633   9.638 -1.0510  1.1431 -1.0327
 9126SOL    HW238841   1.864   3.692   9.504 -0.4598  0.7660  0.3597
 9127SOL     OW38842   4.422   0.814   9.712  0.6537  0.0042 -0.0330
 9127SOL    HW138843   4.462   0.812   9.798 -0.0866 -0.3433  0.3068
 9127SOL    HW238844   4.330   0.823   9.736  0.5695  1.6348 -0.9478
 9128SOL     OW38845   3.046   0.417  10.339 -0.0269 -0.1389  0.1515
 9128SOL    HW138846   2.988   0.489  10.315  1.0600  1.2520  1.6966
 9128SOL    HW238847   3.118   0.424  10.276  0.0851  1.4526  0.4521
 9129SOL     OW38848   0.484   3.798   5.113  0.6038 -0.8085 -0.0843
 9129SOL    HW138849   0.450   3.751   5.037  0.1309 -0.1958 -0.2501
 9129SOL    HW238850   0.486   3.749   5.195 -2.4975  2.2393  1.7957
 9130SOL     OW38851   1.976   1.201   9.365  0.0134  0.1455  0.2424
 9130SOL    HW138852   2.034   1.226   9.293  0.4468 -0.5623  0.3344
 9130SOL    HW238853   2.030   1.231   9.438 -1.7950  1.6249  0.9464
 9131SOL     OW38854   0.228   2.238  12.993 -0.7290  0.3907  0.1471
 9131SOL    HW138855   0.186   2.319  12.966 -2.4404 -0.4762  0.2003
 9131SOL    HW238856   0.255   2.193  12.913 -1.4600  0.1532  0.0385
 9132SOL     OW38857   3.835   2.098  12.982  0.2617 -0.1513 -0.2832
 9132SOL    HW138858   3.752   2.116  13.025  0.3244  1.9335 -1.0233
 9132SOL    HW238859   3.898   2.148  13.034 -1.8853  0.0279  2.1427
 9133SOL     OW38860   1.995   2.384   5.385 -0.0604  0.0375  0.1098
 9133SOL    HW138861   1.994   2.448   5.314 -0.1755  0.4996  0.5278
 9133SOL    HW238862   2.087   2.401   5.407 -0.4808  1.2416  0.9285
 9134SOL     OW38863   2.971   1.596   7.060  0.3745 -0.0274  0.0295
 9134SOL    HW138864   3.047   1.569   7.008 -0.5441 -0.1950 -1.2252
 9134SOL    HW238865   2.971   1.688   7.032  0.8514  0.0563  0.2994
 9135SOL     OW38866   2.305   0.663   6.127 -0.1555 -0.2008  0.0593
 9135SOL    HW138867   2.352   0.614   6.060 -0.1564 -0.3143  0.1424
 9135SOL    HW238868   2.322   0.748   6.087  0.8702  0.1143  1.1678
 9136SOL     OW38869   0.142   2.999   8.233 -0.0932  0.3555 -0.6990
 9136SOL    HW138870   0.171   2.909   8.247 -1.4519 -0.3060 -2.1245
 9136SOL    HW238871   0.116   3.021   8.323  0.1653 -1.5621 -0.1602
 9137SOL     OW38872   3.883   4.349  11.113 -0.0677 -0.4840  0.3316
 9137SOL    HW138873   3.933   4.288  11.059  2.3831  1.8895 -0.0647
 9137SOL    HW238874   3.791   4.336  11.089 -0.1166 -2.8265  1.7482
 9138SOL     OW38875   3.845   1.742   2.348 -0.9156  0.2075 -0.4662
 9138SOL    HW138876   3.813   1.729   2.259  1.0256  0.0211 -1.1514
 9138SOL    HW238877   3.802   1.669   2.392 -0.1648  0.1558  0.1761
 9139SOL     OW38878   1.199   2.991   5.806 -0.4565  0.7897  0.1454
 9139SOL    HW138879   1.254   2.926   5.849 -0.2432 -0.8398 -2.6179
 9139SOL    HW238880   1.138   2.927   5.769  0.8253  0.3093 -1.1274
 9140SOL     OW38881   3.973   1.729   7.491  0.3366  0.0854 -0.0950
 9140SOL    HW138882   4.059   1.747   7.452  1.3912 -0.9254  1.8114
 9140SOL    HW238883   3.986   1.646   7.536  0.5363  1.2021  1.8990
 9141SOL     OW38884   4.123   3.910  14.955 -0.5851  0.0444 -0.8661
 9141SOL    HW138885   4.175   3.976  14.909  1.0298  0.0842  1.0217
 9141SOL    HW238886   4.056   3.892  14.889 -0.7770 -0.3076 -0.5767
 9142SOL     OW38887   4.653   2.785   6.922 -0.0235 -0.9305  0.3968
 9142SOL    HW138888   4.723   2.781   6.856  0.5472  0.0072  0.9562
 9142SOL    HW238889   4.602   2.861   6.895  0.0780 -0.4316  1.6207
 9143SOL     OW38890   1.745   1.181   5.575 -0.7590 -0.4374 -0.1984
 9143SOL    HW138891   1.782   1.115   5.633  0.6104  0.3425 -0.1659
 9143SOL    HW238892   1.827   1.212   5.535 -1.1750 -1.6563 -2.0218
 9144SOL     OW38893   3.094   1.088   5.583 -0.0631  0.7739 -0.1216
 9144SOL    HW138894   3.002   1.102   5.606 -0.3754 -0.8242 -0.4479
 9144SOL    HW238895   3.115   1.179   5.561 -0.1894  0.2833 -2.2287
 9145SOL     OW38896   4.451   1.278   6.030  0.2763  0.0406  1.1071
 9145SOL    HW138897   4.403   1.315   6.104 -0.1251  1.5447  0.0983
 9145SOL    HW238898   4.523   1.342   6.027  1.1092 -0.9753 -0.4434
 9146SOL     OW38899   4.600   3.000   8.553 -0.9401  0.1759 -0.1452
 9146SOL    HW138900   4.581   2.976   8.462 -0.9291  0.7237 -0.2940
 9146SOL    HW238901   4.690   3.030   8.537 -1.1900  0.0698 -1.7579
 9147SOL     OW38902   0.290   2.222  11.717 -0.0407  0.4260  0.9797
 9147SOL    HW138903   0.219   2.175  11.673  0.1670  2.8304 -1.9232
 9147SOL    HW238904   0.355   2.152  11.713 -0.5803  0.1567 -3.3548
 9148SOL     OW38905   2.374   1.538  12.787 -0.2883 -0.0155 -0.0627
 9148SOL    HW138906   2.384   1.551  12.882 -1.9427  0.6399  0.0140
 9148SOL    HW238907   2.404   1.625  12.762 -1.6799  0.3631 -0.3896
 9149SOL     OW38908   2.002   4.566   3.155  0.0013  0.0110  0.4280
 9149SOL    HW138909   2.071   4.500   3.167 -0.3235 -0.6248 -1.1781
 9149SOL    HW238910   1.926   4.512   3.177  0.1174 -0.4250 -0.2259
 9150SOL     OW38911   4.577   0.045   2.656 -0.6920  0.9755  0.0449
 9150SOL    HW138912   4.547   0.123   2.610 -1.8050  1.3648  1.4177
 9150SOL    HW238913   4.519   4.701   2.623 -1.3010  0.0226  3.0165
 9151SOL     OW38914   3.170   2.859   6.107  0.4020  0.3191 -0.0394
 9151SOL    HW138915   3.163   2.954   6.118 -0.0587  0.1297  1.2875
 9151SOL    HW238916   3.233   2.829   6.172 -1.8385  0.7196  2.3559
 9152SOL     OW38917   0.884   0.829   3.549  0.4749 -0.0046  0.0143
 9152SOL    HW138918   0.823   0.837   3.476 -1.5527 -0.3304  1.6493
 9152SOL    HW238919   0.829   0.859   3.622 -1.3107 -3.1216 -0.0509
 9153SOL     OW38920   1.379   3.623   8.452  0.9755 -0.0905  0.6550
 9153SOL    HW138921   1.294   3.630   8.410  2.2667  3.2585 -1.4294
 9153SOL    HW238922   1.408   3.714   8.447 -0.2517  0.2308 -0.4002
 9154SOL     OW38923   2.112   4.633   8.526 -0.2560  0.1252  0.1490
 9154SOL    HW138924   2.134   4.605   8.437 -0.4141 -0.5778  0.3357
 9154SOL    HW238925   2.084   4.548   8.560 -0.4629  0.1782  0.1083
 9155SOL     OW38926   0.501   4.435   4.229 -0.1434 -0.3534 -0.8594
 9155SOL    HW138927   0.543   4.457   4.312  0.4240 -0.9580 -0.9823
 9155SOL    HW238928   0.567   4.440   4.160  0.8004  0.2666  0.0833
 9156SOL     OW38929   3.323   0.205   2.637 -0.2699 -0.5369 -0.0561
 9156SOL    HW138930   3.230   0.202   2.660 -0.6438  0.2625 -1.4967
 9156SOL    HW238931   3.320   0.152   2.558 -3.1093 -0.1804 -0.1789
 9157SOL     OW38932   2.566   4.046  12.480  0.0382 -0.1440 -0.4526
 9157SOL    HW138933   2.662   4.035  12.478 -0.0806 -1.2345 -0.1011
 9157SOL    HW238934   2.553   4.100  12.557 -0.5308 -1.1884  0.1737
 9158SOL     OW38935   1.942   1.587   5.554 -0.7608 -0.4157  0.1767
 9158SOL    HW138936   1.938   1.648   5.480 -5.3242 -1.1496 -0.1601
 9158SOL    HW238937   1.983   1.626   5.631 -1.7344  0.4912  0.2354
 9159SOL     OW38938   4.345   0.763   3.272  0.2962 -0.2955  0.3170
 9159SOL    HW138939   4.334   0.836   3.211 -0.8256 -1.8272 -1.3179
 9159SOL    HW238940   4.276   0.703   3.244  0.2274  1.0501 -2.4387
 9160SOL     OW38941   0.633   1.089  13.904  0.3644  0.0021  0.3260
 9160SOL    HW138942   0.669   1.002  13.924  0.0781 -0.2585 -0.3031
 9160SOL    HW238943   0.700   1.142  13.947  0.5382  0.4755 -0.5212
 9161SOL     OW38944   3.915   2.510   4.189 -0.1636 -0.0447 -0.6994
 9161SOL    HW138945   3.899   2.438   4.128  1.4683 -2.0766  1.2862
 9161SOL    HW238946   3.919   2.461   4.271 -1.1716  1.1755  0.0750
 9162SOL     OW38947   1.518   3.094   3.821  0.1849 -0.4025  0.5931
 9162SOL    HW138948   1.528   3.093   3.916  1.2730  0.6831  0.4966
 9162SOL    HW238949   1.445   3.156   3.815 -1.3397 -2.0759  1.8547
 9163SOL     OW38950   1.691   0.640   5.631 -0.0088 -0.0469  0.2623
 9163SOL    HW138951   1.726   0.638   5.720  2.1713 -0.6768 -0.5962
 9163SOL    HW238952   1.773   0.674   5.595 -0.9454  1.7513 -0.1800
 9164SOL     OW38953   1.636   0.817   5.950  0.6347 -0.4712  0.4291
 9164SOL    HW138954   1.640   0.722   5.940  1.2826 -0.3296 -0.6165
 9164SOL    HW238955   1.575   0.828   6.023 -0.6392 -3.4660 -0.1698
 9165SOL     OW38956   2.672   2.111   4.288  0.1558  1.0056  0.0935
 9165SOL    HW138957   2.701   2.126   4.198  1.5139 -0.2281  0.2982
 9165SOL    HW238958   2.669   2.015   4.298  0.1120  0.9768 -0.1951
 9166SOL     OW38959   1.390   1.608   6.911  0.0132 -0.3020  0.5550
 9166SOL    HW138960   1.383   1.686   6.855 -0.2054 -0.1651  0.7743
 9166SOL    HW238961   1.478   1.581   6.884 -0.1271 -0.0361 -0.1663
 9167SOL     OW38962   3.338   3.296   2.740 -0.4726 -0.3983  0.0175
 9167SOL    HW138963   3.319   3.236   2.667 -0.6009  0.7527 -0.8983
 9167SOL    HW238964   3.391   3.236   2.792  0.7623 -0.4040 -1.2509
 9168SOL     OW38965   2.822   4.360   4.198 -0.4598 -0.0268  0.5405
 9168SOL    HW138966   2.804   4.443   4.242  2.2176  0.8095  0.0815
 9168SOL    HW238967   2.767   4.343   4.122  1.1150  0.0759 -0.6278
 9169SOL     OW38968   1.139   2.539  12.036 -0.1460 -0.4358 -0.7520
 9169SOL    HW138969   1.109   2.585  12.115  2.3094  0.2324 -0.2056
 9169SOL    HW238970   1.203   2.599  11.999  0.4346  0.5170  1.8032
 9170SOL     OW38971   3.107   4.540   7.675 -0.1872  0.6614 -0.2615
 9170SOL    HW138972   3.086   4.475   7.742 -0.9715 -0.3149 -1.4517
 9170SOL    HW238973   3.202   4.552   7.684  0.1894 -0.9979 -1.9013
 9171SOL     OW38974   1.186   4.360   8.410 -0.3314  0.2530 -0.4695
 9171SOL    HW138975   1.146   4.330   8.328 -2.3651 -3.9952  2.1316
 9171SOL    HW238976   1.104   4.377   8.457  0.3329 -0.9303  1.0947
 9172SOL     OW38977   2.665   2.352   5.602  0.0337  0.1365  0.5643
 9172SOL    HW138978   2.727   2.423   5.617 -2.4053  2.0107  1.6962
 9172SOL    HW238979   2.655   2.336   5.508  0.0378 -0.0873  0.6009
 9173SOL     OW38980   3.131   3.999   4.456 -0.0909  0.0650  0.2534
 9173SOL    HW138981   3.054   4.054   4.440 -0.4799 -0.1010  1.5650
 9173SOL    HW238982   3.171   4.042   4.531 -0.8538 -0.6129  1.0485
 9174SOL     OW38983   2.721   2.355   1.444  0.2150 -0.0314 -0.0652
 9174SOL    HW138984   2.753   2.381   1.358 -1.3774  2.5337  0.1030
 9174SOL    HW238985   2.627   2.347   1.428  0.9745 -5.4273 -1.5551
 9175SOL     OW38986   0.367   0.246  16.210  0.1228 -0.1654 -0.2633
 9175SOL    HW138987   0.322   0.317  16.256  0.6724  0.6846 -1.0496
 9175SOL    HW238988   0.324   0.256  16.126 -4.1088  1.6921  2.0986
 9176SOL     OW38989   3.531   4.167   7.920 -0.1141  0.0433  0.3235
 9176SOL    HW138990   3.595   4.226   7.882 -2.1880  2.2205  0.2168
 9176SOL    HW238991   3.554   4.084   7.877 -0.0211 -0.3924  1.2030
 9177SOL     OW38992   3.344   1.264   5.398 -0.4416  0.0421  0.4049
 9177SOL    HW138993   3.417   1.226   5.350 -0.1608 -1.3522  1.9457
 9177SOL    HW238994   3.269   1.233   5.347  0.3808 -1.2872  0.0133
 9178SOL     OW38995   3.386   0.054  11.450 -0.1449  0.4507 -0.8278
 9178SOL    HW138996   3.368   0.138  11.492 -1.1643 -0.0960 -0.1785
 9178SOL    HW238997   3.461   0.017  11.497 -1.4864 -2.6250 -1.0919
 9179SOL     OW38998   2.158   0.106   7.913 -0.4188  0.6155  0.0481
 9179SOL    HW138999   2.206   0.174   7.961  0.2044 -0.0252  0.3273
 9179SOL    HW239000   2.226   0.076   7.852 -0.9400  1.6535 -1.0539
 9180SOL     OW39001   2.784   1.280  15.325 -0.0414 -0.0788  0.0381
 9180SOL    HW139002   2.866   1.249  15.363  0.6661  0.6268 -0.9162
 9180SOL    HW239003   2.719   1.238  15.382  1.9496 -1.6523  1.1440
 9181SOL     OW39004   1.336   0.544   9.486 -0.3550  0.5688  0.0033
 9181SOL    HW139005   1.338   0.634   9.453  0.6790 -0.0315 -1.6106
 9181SOL    HW239006   1.419   0.546   9.533 -1.1738  0.0139  1.4671
 9182SOL     OW39007   2.303   1.032   5.694  0.3563 -0.3459 -0.4487
 9182SOL    HW139008   2.260   0.964   5.642 -1.3446  1.2534 -1.1340
 9182SOL    HW239009   2.391   1.027   5.658  0.7791 -1.3142  0.7165
 9183SOL     OW39010   3.079   3.814   7.421  0.4920 -0.3888 -0.3263
 9183SOL    HW139011   3.094   3.731   7.376  0.6890 -0.4215 -0.1985
 9183SOL    HW239012   2.987   3.814   7.446  0.2221 -3.4538 -1.2585
 9184SOL     OW39013   4.669   4.607  10.969  0.5785  0.2578 -0.3430
 9184SOL    HW139014   4.685   4.582  10.878 -2.0219 -3.3158  0.1716
 9184SOL    HW239015   4.587   4.557  10.979  0.1403  1.3456  1.5122
 9185SOL     OW39016   3.300   3.958   7.274 -0.1235  0.4254 -0.9288
 9185SOL    HW139017   3.277   4.037   7.323 -0.3466 -0.2791  0.1039
 9185SOL    HW239018   3.215   3.920   7.249  0.1755 -0.6406 -0.3332
 9186SOL     OW39019   0.949   0.212   4.406  0.0645  0.6808 -0.0949
 9186SOL    HW139020   1.007   0.276   4.448 -1.7169  0.1474  3.1442
 9186SOL    HW239021   0.907   0.275   4.349 -0.8406  0.5767  0.4629
 9187SOL     OW39022   1.470   4.589  16.012  0.2882  0.1691  0.0965
 9187SOL    HW139023   1.450   4.497  16.029  0.8811  0.3066  1.5968
 9187SOL    HW239024   1.563   4.574  15.995  1.2036  2.7068  2.8588
 9188SOL     OW39025   2.824   0.639  12.518  0.2539  0.1851  0.3879
 9188SOL    HW139026   2.878   0.715  12.539 -0.4423  1.2314 -1.6842
 9188SOL    HW239027   2.784   0.614  12.602 -1.5484  0.4070 -0.4103
 9189SOL     OW39028   2.538   3.564   4.073 -0.4211 -0.1389  0.2371
 9189SOL    HW139029   2.460   3.558   4.128  0.6109  2.2966  1.9678
 9189SOL    HW239030   2.603   3.562   4.144 -0.5036  0.1755  0.3205
 9190SOL     OW39031   4.005   0.420   7.875 -0.3734 -0.0004  0.1103
 9190SOL    HW139032   3.919   0.388   7.905  0.4729 -1.0147  1.4566
 9190SOL    HW239033   3.978   0.467   7.797 -3.9311  1.5737  2.2716
 9191SOL     OW39034   1.751   2.735   0.771 -0.2975 -0.0373  0.2445
 9191SOL    HW139035   1.797   2.664   0.728 -1.2456 -0.8553  0.5805
 9191SOL    HW239036   1.725   2.701   0.856 -1.5974  1.4095  0.4397
 9192SOL     OW39037   4.204   4.508  15.362  0.2910  0.6050  0.1093
 9192SOL    HW139038   4.182   4.433  15.416 -0.1814  0.5898 -0.1044
 9192SOL    HW239039   4.298   4.492  15.351  0.5476  1.9733  0.3102
 9193SOL     OW39040   2.401   1.689   4.422  0.0153  0.3203  0.2248
 9193SOL    HW139041   2.418   1.736   4.340  0.3903  1.2464  0.8430
 9193SOL    HW239042   2.484   1.670   4.466 -0.6816  0.2250  1.5092
 9194SOL     OW39043   3.764   0.467   8.983 -0.3386  0.0146 -0.2689
 9194SOL    HW139044   3.677   0.489   8.950 -0.9660  0.4809  1.6812
 9194SOL    HW239045   3.790   0.539   9.040  1.6897 -0.3979 -0.6825
 9195SOL     OW39046   3.497   0.792   9.555 -0.0176  0.0704 -0.5880
 9195SOL    HW139047   3.409   0.794   9.592 -0.2612 -1.1326 -1.0857
 9195SOL    HW239048   3.495   0.729   9.483 -1.2576  0.6291 -1.0313
 9196SOL     OW39049   0.273   2.760   2.851 -0.1237 -0.1117  0.7701
 9196SOL    HW139050   0.352   2.803   2.818 -0.3489 -0.7935 -0.6984
 9196SOL    HW239051   0.223   2.750   2.769  0.4506 -4.2416  0.9362
 9197SOL     OW39052   3.831   1.318   5.725 -0.3675 -0.3152 -0.2577
 9197SOL    HW139053   3.742   1.281   5.723 -0.2098 -0.5307 -2.5850
 9197SOL    HW239054   3.852   1.317   5.819  0.1710  1.2765 -0.3711
 9198SOL     OW39055   4.601   0.316   4.424 -0.4767  0.0458  0.1599
 9198SOL    HW139056   4.610   0.407   4.395 -0.4357  0.2944  0.9370
 9198SOL    HW239057   4.693   0.297   4.442 -0.7113 -0.7738  0.4863
 9199SOL     OW39058   2.073   1.671   7.976 -0.4917 -0.3535  0.9420
 9199SOL    HW139059   2.010   1.717   8.031 -0.8617  0.0777  0.1605
 9199SOL    HW239060   2.120   1.744   7.936 -0.9300 -1.0479 -0.8520
 9200SOL     OW39061   2.034   4.079   6.494  0.5980  0.2204  0.5172
 9200SOL    HW139062   1.976   4.123   6.556 -0.8435 -0.9874  0.0291
 9200SOL    HW239063   1.990   4.111   6.415  0.6426 -1.7520 -0.3002
 9201SOL     OW39064   4.142   4.595   1.990 -0.2034  0.0471  0.1214
 9201SOL    HW139065   4.070   4.649   2.022  2.1387  1.6575  2.6306
 9201SOL    HW239066   4.093   4.512   1.993 -0.9314  0.4993  0.5584
 9202SOL     OW39067   4.272   2.072  15.174  0.4042  1.1161  0.0418
 9202SOL    HW139068   4.334   2.135  15.138  1.5372  0.3701  0.6814
 9202SOL    HW239069   4.291   2.065  15.268  1.1858  0.1125 -0.1919
 9203SOL     OW39070   1.722   4.550   7.022  0.0336  0.1165 -0.2135
 9203SOL    HW139071   1.686   4.635   7.046  0.5500 -0.4222  2.4363
 9203SOL    HW239072   1.640   4.509   6.994  0.0883 -0.7814  0.9352
 9204SOL     OW39073   4.552   2.240  13.698  0.6327 -0.0511  0.5755
 9204SOL    HW139074   4.618   2.171  13.696 -0.3525 -0.9672 -0.3789
 9204SOL    HW239075   4.473   2.186  13.695  0.2406  0.5114  0.7966
 9205SOL     OW39076   4.620   4.014   7.438  0.3450  0.1036  0.2543
 9205SOL    HW139077   4.577   3.965   7.508 -1.2701  1.3351  0.1038
 9205SOL    HW239078   4.683   3.945   7.415 -0.1381 -0.2508 -0.0183
 9206SOL     OW39079   1.811   2.360   9.239 -0.1273 -0.1668 -0.5824
 9206SOL    HW139080   1.724   2.374   9.201  0.7218  0.9593 -2.0746
 9206SOL    HW239081   1.793   2.317   9.323  4.1149  0.7792  0.8125
 9207SOL     OW39082   4.710   3.775   1.252  0.1768 -0.9801 -0.0767
 9207SOL    HW139083   0.040   3.703   1.222 -1.4271 -2.7749  1.3232
 9207SOL    HW239084   0.051   3.819   1.307 -2.6865  1.9338  0.9923
 9208SOL     OW39085   1.741   1.038  17.375 -0.0355 -0.6123 -0.4764
 9208SOL    HW139086   1.743   1.122  17.420  0.1268 -1.3627  0.9452
 9208SOL    HW239087   1.830   1.004  17.386  0.4371  1.8959  3.3310
 9209SOL     OW39088   3.528   3.411  14.265 -0.1892 -0.3422 -0.0311
 9209SOL    HW139089   3.578   3.368  14.334 -0.8712 -0.0262  0.6567
 9209SOL    HW239090   3.578   3.492  14.252  1.0124 -1.2313 -1.0256
 9210SOL     OW39091   1.552   3.219  14.813  0.2670 -0.0445  0.0947
 9210SOL    HW139092   1.459   3.215  14.837  0.5746 -0.3878  1.2153
 9210SOL    HW239093   1.559   3.272  14.733 -1.5112  0.2404  0.1271
 9211SOL     OW39094   3.646   3.607   3.097 -0.2915  0.2425  0.2047
 9211SOL    HW139095   3.641   3.677   3.163  0.8001 -0.9317  1.5413
 9211SOL    HW239096   3.581   3.641   3.036  0.8118  1.4787 -0.2797
 9212SOL     OW39097   0.425   1.202   6.621 -0.1089  0.0765  0.5806
 9212SOL    HW139098   0.352   1.170   6.673 -1.0215 -0.9306 -1.3256
 9212SOL    HW239099   0.395   1.216   6.531  0.7090  0.1358  0.3163
 9213SOL     OW39100   3.149   0.116   3.852  0.6970  0.8268 -0.2524
 9213SOL    HW139101   3.161   0.210   3.841  2.0124  0.6232 -0.5601
 9213SOL    HW239102   3.148   0.080   3.763  0.5161  0.3175 -0.0467
 9214SOL     OW39103   2.459   1.219   0.206 -0.0070 -0.3735  0.3677
 9214SOL    HW139104   2.529   1.157   0.227 -0.1914 -0.0152  2.0284
 9214SOL    HW239105   2.400   1.155   0.167 -0.0272 -1.1324  1.6583
 9215SOL     OW39106   4.323   3.312   5.445 -0.3341 -0.1972  0.2944
 9215SOL    HW139107   4.254   3.317   5.511 -0.4853 -1.8115  0.2762
 9215SOL    HW239108   4.405   3.302   5.492 -0.9648 -0.3249  1.3609
 9216SOL     OW39109   4.347   3.931   8.789  0.5322 -0.2845 -0.2160
 9216SOL    HW139110   4.360   3.838   8.807  2.7487 -0.0453 -0.5511
 9216SOL    HW239111   4.283   3.957   8.855  0.8392  0.3644 -0.1779
 9217SOL     OW39112   1.063   0.213   9.331 -0.3909  0.0552  1.3072
 9217SOL    HW139113   1.096   0.220   9.420  1.4311  2.7576  0.4145
 9217SOL    HW239114   0.969   0.211   9.350 -0.3269 -2.2699  1.3716
 9218SOL     OW39115   0.506   0.929   1.090 -0.3886  0.1320  0.7854
 9218SOL    HW139116   0.551   0.904   1.171 -0.9279  0.2398  1.1220
 9218SOL    HW239117   0.568   0.897   1.025  0.8562 -0.0964  2.0889
 9219SOL     OW39118   2.023   1.213   2.558 -0.3996  0.3664  0.3927
 9219SOL    HW139119   1.955   1.280   2.551  1.9207  2.7102  0.4688
 9219SOL    HW239120   2.095   1.262   2.597 -0.0668  1.1428 -1.2050
 9220SOL     OW39121   3.058   0.112   3.415  0.0420  0.3587  0.2296
 9220SOL    HW139122   3.110   0.079   3.342  2.4702  0.6389  1.8378
 9220SOL    HW239123   3.115   0.088   3.488 -1.9293  0.0345  1.6627
 9221SOL     OW39124   3.874   3.601   0.698  0.1187  0.6719  0.0209
 9221SOL    HW139125   3.855   3.507   0.698  0.8348  0.5463  2.1933
 9221SOL    HW239126   3.899   3.610   0.790  1.4520 -0.6205 -0.2004
 9222SOL     OW39127   1.512   3.945   6.799 -0.2357 -0.3001  0.3245
 9222SOL    HW139128   1.545   3.881   6.737  1.3338 -0.8111  1.6944
 9222SOL    HW239129   1.418   3.924   6.801 -0.3366  0.3294  2.3696
 9223SOL     OW39130   2.279   0.284   6.109  0.0512 -0.4172  0.1613
 9223SOL    HW139131   2.286   0.195   6.142  2.7991 -0.3731 -0.3354
 9223SOL    HW239132   2.297   0.279   6.015  0.7409 -0.5248  0.2982
 9224SOL     OW39133   0.824   0.606  14.848  0.6086  0.0074  0.1857
 9224SOL    HW139134   0.780   0.635  14.768 -0.9183  1.9347  1.7093
 9224SOL    HW239135   0.887   0.678  14.856 -0.4548  0.7695  1.8547
 9225SOL     OW39136   1.942   0.347   3.313  0.3839  0.0514 -0.1572
 9225SOL    HW139137   2.006   0.275   3.309  0.6998  0.2906  0.5827
 9225SOL    HW239138   1.897   0.332   3.230  0.4487 -0.1929 -0.1480
 9226SOL     OW39139   3.313   0.412   8.787  0.6148  0.4348  0.3347
 9226SOL    HW139140   3.269   0.436   8.706 -0.4919 -0.8567  0.5522
 9226SOL    HW239141   3.258   0.456   8.852 -1.0061  0.3266 -0.9798
 9227SOL     OW39142   0.544   0.770   1.745  0.1417 -0.4382  0.0977
 9227SOL    HW139143   0.596   0.795   1.669  0.9353  0.5246  0.9562
 9227SOL    HW239144   0.544   0.674   1.735  1.0989 -0.5219  0.8357
 9228SOL     OW39145   3.164   4.033  11.551  0.2055  0.5696  0.6094
 9228SOL    HW139146   3.200   4.019  11.463 -1.7214 -2.1872  0.2273
 9228SOL    HW239147   3.081   4.077  11.532 -0.0350 -0.1697 -0.0609
 9229SOL     OW39148   2.407   2.435   0.414  0.0429 -0.3112 -0.7211
 9229SOL    HW139149   2.444   2.398   0.334  2.5572  0.0439  0.2557
 9229SOL    HW239150   2.444   2.369   0.472  0.3490 -0.0917 -0.6614
 9230SOL     OW39151   2.692   4.107   0.332  0.0245  0.2346  0.4392
 9230SOL    HW139152   2.650   4.171   0.390 -1.5495 -1.5190  1.2294
 9230SOL    HW239153   2.638   4.028   0.341 -0.4126  0.4575 -0.2127
 9231SOL     OW39154   4.502   1.955   1.519 -0.1247 -0.0543  0.0057
 9231SOL    HW139155   4.511   2.006   1.438  0.1262 -0.6460 -0.3332
 9231SOL    HW239156   4.495   2.025   1.585 -0.6858 -2.3747  2.4312
 9232SOL     OW39157   4.043   2.788  16.444  0.2407 -0.0131  0.1017
 9232SOL    HW139158   3.997   2.720  16.395  1.1204 -0.3696 -0.2393
 9232SOL    HW239159   4.032   2.867  16.391 -2.7739 -0.2946  0.3108
 9233SOL     OW39160   2.683   4.247   3.357  0.5775  0.4287  0.2044
 9233SOL    HW139161   2.604   4.300   3.351  0.5937  0.1616 -2.5381
 9233SOL    HW239162   2.673   4.187   3.282 -3.2469  1.4400 -0.0679
 9234SOL     OW39163   4.085   3.022   0.886 -0.0518 -0.7297  0.0851
 9234SOL    HW139164   4.098   3.111   0.855  1.4034 -0.9586  0.0677
 9234SOL    HW239165   4.118   3.037   0.974  1.2355 -2.2533 -0.1379
 9235SOL     OW39166   1.904   3.147   6.242 -0.3353  0.1278 -0.4493
 9235SOL    HW139167   1.867   3.120   6.158 -0.9049  2.9439 -1.1005
 9235SOL    HW239168   1.851   3.089   6.297  1.4745 -1.1482 -0.0664
 9236SOL     OW39169   3.508   0.561  16.458  0.1282  0.5151 -0.2304
 9236SOL    HW139170   3.501   0.648  16.495 -0.9059  1.4395 -2.5857
 9236SOL    HW239171   3.421   0.520  16.455  1.1263 -1.8032  2.0126
 9237SOL     OW39172   0.080   0.114  11.641  0.4774 -0.1021  0.5891
 9237SOL    HW139173   0.073   0.150  11.730  1.3416  2.6724 -0.4477
 9237SOL    HW239174   0.131   0.186  11.603  2.5350 -0.8593  1.9142
 9238SOL     OW39175   3.585   1.296   1.593 -0.1885 -0.1006  0.7410
 9238SOL    HW139176   3.548   1.297   1.682 -0.8332  0.1567  0.4689
 9238SOL    HW239177   3.677   1.307   1.618 -0.1201  0.8790  0.0743
 9239SOL     OW39178   0.342   0.115   4.687  0.7296  0.1648 -0.2149
 9239SOL    HW139179   0.302   0.031   4.664 -0.8569  0.5330  1.1458
 9239SOL    HW239180   0.305   0.125   4.775  1.6403 -1.4350  0.3598
 9240SOL     OW39181   0.390   4.301   7.093 -0.2116  0.3437 -0.2463
 9240SOL    HW139182   0.405   4.263   7.007  0.1467 -0.5019  0.1887
 9240SOL    HW239183   0.443   4.239   7.143  1.2238  1.1702 -0.7443
 9241SOL     OW39184   4.180   3.674   8.087 -0.0906  0.9870  0.4705
 9241SOL    HW139185   4.187   3.664   7.992 -2.0479 -0.5515  0.5041
 9241SOL    HW239186   4.230   3.597   8.115 -0.7702  0.6229  0.6800
 9242SOL     OW39187   3.808   3.917  13.134  0.4550 -0.2073 -0.0539
 9242SOL    HW139188   3.904   3.916  13.137  0.4165 -0.2564  1.2359
 9242SOL    HW239189   3.798   3.917  13.039 -0.2335 -2.1616  0.0210
 9243SOL     OW39190   4.246   2.037   6.564  0.0821 -0.3263  0.3071
 9243SOL    HW139191   4.285   1.952   6.586  2.9795  0.9660  0.1010
 9243SOL    HW239192   4.210   2.060   6.650  2.4807  0.8410  1.0040
 9244SOL     OW39193   2.727   0.483   9.710  0.6561 -0.0972  0.1899
 9244SOL    HW139194   2.745   0.568   9.670 -1.9610 -0.5973 -2.0736
 9244SOL    HW239195   2.637   0.482   9.743  0.2107 -2.1841 -1.0337
 9245SOL     OW39196   0.932   1.698   3.934 -0.1022 -0.5601  0.1536
 9245SOL    HW139197   0.934   1.614   3.888 -2.1226  0.2168 -1.3907
 9245SOL    HW239198   0.942   1.671   4.025 -1.0278 -1.1594  0.0796
 9246SOL     OW39199   2.646   2.734   2.294 -0.5566 -0.6008  0.0858
 9246SOL    HW139200   2.732   2.721   2.334  1.1884  3.2565 -2.3692
 9246SOL    HW239201   2.630   2.821   2.329 -0.8324 -0.0867 -1.3160
 9247SOL     OW39202   4.184   1.272   2.728  0.0675  0.2770 -0.6250
 9247SOL    HW139203   4.212   1.360   2.703  0.7649  0.0561 -0.6298
 9247SOL    HW239204   4.158   1.284   2.819 -0.6198 -0.0422 -0.7802
 9248SOL     OW39205   0.617   1.035   8.041  0.4319  0.7849 -0.0780
 9248SOL    HW139206   0.563   1.062   8.116  2.1378 -0.2366  1.5109
 9248SOL    HW239207   0.550   0.975   8.008 -0.2912  0.1705  2.4358
 9249SOL     OW39208   4.545   3.162  15.336 -0.1809  0.5265 -0.4072
 9249SOL    HW139209   4.480   3.202  15.394 -0.4184 -0.7644  0.2070
 9249SOL    HW239210   4.610   3.137  15.401 -1.3915 -1.1676  0.1415
 9250SOL     OW39211   0.958   1.943   4.519  0.1108 -0.3631  0.1474
 9250SOL    HW139212   1.039   1.993   4.507  0.4955 -1.4099 -1.5800
 9250SOL    HW239213   0.912   1.995   4.585  0.7872  2.9408 -2.0238
 9251SOL     OW39214   3.037   0.515   4.566 -0.5289  0.0792  0.6010
 9251SOL    HW139215   3.067   0.542   4.480  0.3619  0.3977  1.0184
 9251SOL    HW239216   3.088   0.576   4.620  0.8620  0.1713 -0.8297
 9252SOL     OW39217   3.678   3.943   1.672  0.5286  0.1613 -0.4599
 9252SOL    HW139218   3.754   3.997   1.693  0.6546 -0.3942  0.5002
 9252SOL    HW239219   3.680   3.896   1.755  2.1945  0.1222 -0.5360
 9253SOL     OW39220   1.012   0.582  14.472  0.1169  0.3767 -0.1654
 9253SOL    HW139221   0.932   0.563  14.423 -0.2326 -0.7393  0.8420
 9253SOL    HW239222   1.064   0.577  14.391  0.5081  2.5488 -0.0511
 9254SOL     OW39223   3.613   0.088   4.605  0.7037  0.0675  0.3220
 9254SOL    HW139224   3.691   0.117   4.557  1.3496 -2.3489 -0.0876
 9254SOL    HW239225   3.564   0.164   4.572  0.4978 -0.7260 -1.2195
 9255SOL     OW39226   0.059   2.195   2.347  0.8877  0.3601  0.2148
 9255SOL    HW139227   0.092   2.139   2.277  0.8214  1.4345 -0.6676
 9255SOL    HW239228   0.135   2.240   2.386  1.2377  0.4106 -0.5317
 9256SOL     OW39229   1.772   4.236   8.486  0.0316  0.1022 -0.3736
 9256SOL    HW139230   1.724   4.158   8.461  0.4361 -0.0208 -0.7723
 9256SOL    HW239231   1.838   4.232   8.418 -0.4780 -2.6201 -0.6925
 9257SOL     OW39232   0.137   3.757   8.229 -0.2117 -0.6647  0.1985
 9257SOL    HW139233   0.056   3.804   8.249  1.0367  1.5193  0.1025
 9257SOL    HW239234   0.101   3.682   8.182 -0.6022 -1.3458  1.5868
 9258SOL     OW39235   0.140   4.406   6.102  0.4672 -0.3178  0.3113
 9258SOL    HW139236   0.136   4.439   6.012  0.3324 -0.9440  0.0882
 9258SOL    HW239237   0.199   4.467   6.146 -1.0075  1.6325 -0.4252
 9259SOL     OW39238   3.152   1.645   9.012  0.2563  0.6015  0.2747
 9259SOL    HW139239   3.075   1.591   8.995  0.5641 -0.2104  1.4737
 9259SOL    HW239240   3.102   1.716   9.054 -1.0344  0.2487 -0.6897
 9260SOL     OW39241   4.222   3.669  16.120 -0.0676  0.2223 -0.0649
 9260SOL    HW139242   4.307   3.714  16.126  0.3837 -0.7345  0.8047
 9260SOL    HW239243   4.231   3.647  16.027 -1.5383 -3.2987  0.6196
 9261SOL     OW39244   4.080   0.400  16.970  0.2961  0.2374 -0.0149
 9261SOL    HW139245   4.007   0.381  16.911  0.9652 -0.2719 -0.6616
 9261SOL    HW239246   4.105   0.310  16.990  1.2468  0.3292 -0.8062
 9262SOL     OW39247   3.699   3.151   6.011  0.2122 -0.2751 -0.2495
 9262SOL    HW139248   3.736   3.097   6.081  1.3903  1.6928  0.6527
 9262SOL    HW239249   3.629   3.190   6.062  0.9893  1.1162 -0.2432
 9263SOL     OW39250   1.283   0.625   2.882 -0.7743  0.3208 -0.1088
 9263SOL    HW139251   1.345   0.697   2.894 -1.8721  1.4195 -0.9882
 9263SOL    HW239252   1.237   0.670   2.811 -0.1845 -1.4690 -1.6443
 9264SOL     OW39253   2.376   3.565   3.259  0.0092  1.1945  0.2587
 9264SOL    HW139254   2.448   3.624   3.235  2.1884 -1.8605 -0.7774
 9264SOL    HW239255   2.294   3.614   3.250 -1.3061 -0.8173  1.3814
 9265SOL     OW39256   4.454   3.678   5.641 -0.1634 -0.2885  0.5357
 9265SOL    HW139257   4.406   3.635   5.712  1.3550  0.7241  2.1435
 9265SOL    HW239258   4.517   3.614   5.607  2.2799  1.8446  1.0342
 9266SOL     OW39259   2.215   0.789  12.506  0.7028 -0.1335 -0.0417
 9266SOL    HW139260   2.302   0.760  12.531  0.5418 -0.6750 -0.1158
 9266SOL    HW239261   2.227   0.842  12.427 -1.4192  0.8676  0.2947
 9267SOL     OW39262   4.144   2.334   1.597 -0.3782 -0.3290  0.4551
 9267SOL    HW139263   4.084   2.408   1.605 -3.3255 -2.6050 -0.4948
 9267SOL    HW239264   4.089   2.272   1.549  1.2772 -1.2189 -0.3301
 9268SOL     OW39265   0.004   2.495   5.208 -0.3036  0.2173  0.2242
 9268SOL    HW139266   4.651   2.439   5.202  0.2116 -0.4162 -0.5127
 9268SOL    HW239267   0.003   2.556   5.135 -1.7801  0.7350  0.6720
 9269SOL     OW39268   1.019   4.366   8.112 -0.4798 -0.2732  0.2116
 9269SOL    HW139269   1.080   4.427   8.071 -0.7726  0.1163  0.3495
 9269SOL    HW239270   0.939   4.391   8.066  0.4218 -1.0759 -1.7989
 9270SOL     OW39271   1.400   3.809  17.073 -0.2546  0.2818  0.7460
 9270SOL    HW139272   1.313   3.827  17.110 -0.0558 -1.6875  2.2051
 9270SOL    HW239273   1.381   3.734  17.016  0.9131 -0.5512  1.4527
 9271SOL     OW39274   4.395   3.889   4.916  0.0425  0.7707  0.2627
 9271SOL    HW139275   4.341   3.938   4.979 -0.2470  0.1689  0.4832
 9271SOL    HW239276   4.400   3.801   4.954 -3.1386  0.6583  0.4965
 9272SOL     OW39277   3.101   0.375   4.134 -0.3273  1.0735 -0.5335
 9272SOL    HW139278   3.087   0.405   4.044  1.9346  0.7799 -0.9963
 9272SOL    HW239279   3.071   0.456   4.175 -2.1161 -0.1795  0.6247
 9273SOL     OW39280   2.083   3.735   9.095  0.4057  0.0604  0.0239
 9273SOL    HW139281   2.120   3.657   9.055  0.2464 -0.1111  0.2136
 9273SOL    HW239282   2.012   3.700   9.148  0.3254  0.9795  0.5244
 9274SOL     OW39283   2.893   1.599   5.217 -0.0329  0.1377  0.0645
 9274SOL    HW139284   2.798   1.604   5.207 -0.2311  1.2637  2.6501
 9274SOL    HW239285   2.912   1.665   5.284  0.1587 -0.1145  0.2565
 9275SOL     OW39286   0.059   4.513   2.116  0.1941 -0.0479  0.2881
 9275SOL    HW139287   0.147   4.495   2.148  0.3901  2.8350  1.3413
 9275SOL    HW239288   0.028   4.423   2.101 -1.0617  0.6710 -1.4690
 9276SOL     OW39289   1.436   2.052   6.535  0.3396 -0.1287  0.2405
 9276SOL    HW139290   1.447   2.047   6.440  0.3239 -1.9511  0.3324
 9276SOL    HW239291   1.527   2.059   6.563  0.8489  1.8321 -1.8840
 9277SOL     OW39292   3.436   2.952  11.330 -0.4787  0.6823 -0.4129
 9277SOL    HW139293   3.372   2.881  11.337 -2.0005  2.0129 -0.6898
 9277SOL    HW239294   3.508   2.914  11.281 -0.8093 -0.8423  0.2965
 9278SOL     OW39295   1.193   0.110   1.659  0.3252 -0.5517 -0.2421
 9278SOL    HW139296   1.147   0.081   1.737 -1.0214 -1.4561 -1.3614
 9278SOL    HW239297   1.249   0.036   1.634 -0.3038 -0.0962 -3.0716
 9279SOL     OW39298   4.067   4.094   4.793 -0.0577 -0.4781  0.3288
 9279SOL    HW139299   4.030   4.174   4.831 -0.1207 -1.0745  1.5342
 9279SOL    HW239300   4.114   4.130   4.718 -0.1609 -1.5931 -0.2674
 9280SOL     OW39301   0.347   0.795   2.868 -0.1362 -0.6477 -0.0542
 9280SOL    HW139302   0.306   0.773   2.952 -0.0611 -0.0359  0.1442
 9280SOL    HW239303   0.280   0.770   2.805 -0.4725  3.3059 -1.2531
 9281SOL     OW39304   1.489   3.347   8.548 -0.2483 -0.2058  0.7589
 9281SOL    HW139305   1.471   3.440   8.533  0.7471 -0.4940 -2.2743
 9281SOL    HW239306   1.401   3.310   8.551 -1.1268  1.9434  1.7650
 9282SOL     OW39307   4.553   0.762   2.733  0.2101 -0.1380  0.0405
 9282SOL    HW139308   4.525   0.847   2.768  0.7460  0.8122 -1.8125
 9282SOL    HW239309   4.528   0.774   2.641 -1.4986  3.4211  0.9613
 9283SOL     OW39310   3.453   1.634   4.398  0.0700  0.4319 -0.3961
 9283SOL    HW139311   3.468   1.672   4.311  2.4100 -1.5396 -0.8499
 9283SOL    HW239312   3.370   1.590   4.379  0.2267 -0.0303 -0.0048
 9284SOL     OW39313   3.895   2.878   0.729  0.5271  0.6505 -0.1695
 9284SOL    HW139314   3.948   2.937   0.782  1.8983 -1.0804  0.4050
 9284SOL    HW239315   3.962   2.862   0.662 -0.0757 -3.6947  0.2488
 9285SOL     OW39316   4.538   3.937   9.420  0.0237  0.1715 -0.2015
 9285SOL    HW139317   4.556   3.963   9.330 -2.9541 -1.2885 -1.2300
 9285SOL    HW239318   4.548   3.842   9.416 -2.1074  0.0034 -1.8313
 9286SOL     OW39319   4.066   3.067   6.603  0.3680 -0.2431  0.0557
 9286SOL    HW139320   4.139   3.059   6.664  0.5712 -1.9566 -0.4090
 9286SOL    HW239321   4.044   3.160   6.600  1.9184  0.0843 -0.9153
 9287SOL     OW39322   1.022   1.808  16.511  0.1708  0.3155 -0.3057
 9287SOL    HW139323   1.039   1.803  16.417 -0.3082 -0.1359 -0.3661
 9287SOL    HW239324   1.097   1.759  16.544  0.4433  1.6516  1.0613
 9288SOL     OW39325   0.789   3.418   9.361  0.1714 -0.4350  0.7203
 9288SOL    HW139326   0.858   3.393   9.421  1.7714 -0.7352 -1.2546
 9288SOL    HW239327   0.721   3.362   9.398  1.0581 -2.1504 -0.2544
 9289SOL     OW39328   1.504   1.546   4.170  0.4040 -0.6172  0.1842
 9289SOL    HW139329   1.495   1.641   4.175  1.0654 -0.5973  0.9977
 9289SOL    HW239330   1.558   1.530   4.247  1.6156 -1.7508 -0.9117
 9290SOL     OW39331   1.643   4.190   4.524  0.5624  0.1269  0.0275
 9290SOL    HW139332   1.569   4.138   4.557 -0.0564  1.2720  0.4896
 9290SOL    HW239333   1.715   4.172   4.584  0.8834 -1.3082 -0.8052
 9291SOL     OW39334   1.625   1.663   9.566  0.4695 -0.6412 -0.1882
 9291SOL    HW139335   1.555   1.707   9.518  0.4473  0.1592  0.5733
 9291SOL    HW239336   1.706   1.707   9.538 -1.2093  1.4418 -1.7478
 9292SOL     OW39337   4.583   0.193   2.381  0.2843  0.8483 -0.6840
 9292SOL    HW139338   4.612   0.128   2.318  1.5139  0.9937 -0.2641
 9292SOL    HW239339   4.639   0.262   2.346  1.3292 -0.4796 -1.6426
 9293SOL     OW39340   2.941   0.199   1.853 -0.3853  0.4597 -0.3842
 9293SOL    HW139341   2.970   0.130   1.912  1.5524  1.7374  0.1665
 9293SOL    HW239342   3.007   0.179   1.787  0.3666 -0.8025  0.7659
 9294SOL     OW39343   0.741   2.211   2.156  0.2471  0.1971 -0.5482
 9294SOL    HW139344   0.682   2.139   2.134 -1.6375  1.3214  0.8356
 9294SOL    HW239345   0.829   2.178   2.138  0.6659  2.7016 -3.1397
 9295SOL     OW39346   0.314   1.860   1.664  0.5063  0.3326 -0.1884
 9295SOL    HW139347   0.263   1.828   1.589  1.4379  0.2225 -0.7738
 9295SOL    HW239348   0.248   1.849   1.732 -0.1274 -0.0993 -0.8695
 9296SOL     OW39349   0.303   2.502   6.321  0.3194  0.1106  0.6860
 9296SOL    HW139350   0.219   2.460   6.342 -0.0226  0.9846  1.0912
 9296SOL    HW239351   0.361   2.428   6.340 -0.9234 -1.3317 -1.1136
 9297SOL     OW39352   1.031   2.902  10.799  0.4066 -0.2940 -0.4240
 9297SOL    HW139353   1.028   2.902  10.703  0.9840 -0.1218 -0.4448
 9297SOL    HW239354   0.998   2.815  10.821  3.4783 -1.1454  0.8014
 9298SOL     OW39355   4.028   3.756  10.610 -0.5165  0.2856 -0.0989
 9298SOL    HW139356   4.062   3.774  10.522 -2.2409  0.8745 -0.6376
 9298SOL    HW239357   3.956   3.696  10.591 -1.4219  0.9447  1.2453
 9299SOL     OW39358   3.726   2.132   3.522  0.5215  0.2135  0.0360
 9299SOL    HW139359   3.781   2.209   3.535  0.6310  0.3078 -1.0191
 9299SOL    HW239360   3.676   2.136   3.604 -0.8083  3.5167 -0.9555
 9300SOL     OW39361   3.974   2.261   3.650  0.8910 -0.3276  0.2665
 9300SOL    HW139362   3.899   2.303   3.692  0.8791 -1.7427  1.6406
 9300SOL    HW239363   4.049   2.321   3.647  1.0040 -0.5222 -0.9755
 9301SOL     OW39364   2.611   4.379   2.975 -0.4818 -1.1177  0.1556
 9301SOL    HW139365   2.527   4.410   2.943 -1.6574 -1.3193  2.9951
 9301SOL    HW239366   2.664   4.376   2.896 -0.1755  0.8615  0.2757
 9302SOL     OW39367   3.982   1.974  13.733  0.0912  0.8502 -1.2465
 9302SOL    HW139368   4.040   1.969  13.657 -0.1118 -2.1996 -1.2290
 9302SOL    HW239369   3.928   1.895  13.725  0.7772 -0.2266  4.8269
 9303SOL     OW39370   3.374   1.806  15.954  0.1819  0.2947 -0.7835
 9303SOL    HW139371   3.444   1.790  16.018  0.5699  0.1160 -1.2483
 9303SOL    HW239372   3.372   1.717  15.917 -0.7486  1.5189 -3.6429
 9304SOL     OW39373   2.577   1.124   1.006  0.1871 -0.1655 -0.7902
 9304SOL    HW139374   2.663   1.082   1.003 -0.7949 -2.0656 -1.8565
 9304SOL    HW239375   2.529   1.066   0.947  1.0881 -0.4636 -1.2289
 9305SOL     OW39376   0.715   3.107   3.191  0.2346 -0.8193  0.1847
 9305SOL    HW139377   0.809   3.121   3.201  0.7834 -1.9583 -3.4129
 9305SOL    HW239378   0.700   3.077   3.102  0.3560  0.6147 -0.3190
 9306SOL     OW39379   1.171   4.705   3.447 -0.5679  0.5355  0.5270
 9306SOL    HW139380   1.250   4.652   3.458 -0.9864 -0.6121 -1.9438
 9306SOL    HW239381   1.203   0.071   3.454 -0.0680  0.3621  0.4620
 9307SOL     OW39382   1.078   1.616  15.604 -0.3066 -0.1457  0.1308
 9307SOL    HW139383   1.037   1.581  15.525 -1.4638 -1.4035  1.2834
 9307SOL    HW239384   1.122   1.537  15.638  0.0257 -0.2187 -0.4758
 9308SOL     OW39385   4.551   3.252   5.572  0.1891 -0.5865 -0.0551
 9308SOL    HW139386   4.553   3.207   5.656 -0.4043  1.2174  0.9386
 9308SOL    HW239387   4.626   3.217   5.524 -1.0973 -1.6648 -1.3038
 9309SOL     OW39388   0.023   1.112  10.860  0.3637  0.2101 -0.1920
 9309SOL    HW139389   0.105   1.085  10.817  0.6118 -0.8858  0.9658
 9309SOL    HW239390   4.667   1.097  10.811 -0.8773 -4.3325  3.3156
 9310SOL     OW39391   3.528   4.407   3.068  0.0225 -0.2875  0.0764
 9310SOL    HW139392   3.469   4.469   3.025  0.1829  0.8689  1.5042
 9310SOL    HW239393   3.527   4.448   3.155  1.8757 -0.6032  0.2512
 9311SOL     OW39394   3.801   1.420   3.739  0.2781 -0.0122  0.5234
 9311SOL    HW139395   3.858   1.450   3.810 -2.5200  1.2913  2.2033
 9311SOL    HW239396   3.870   1.402   3.675  0.2458  4.7589 -0.8140
 9312SOL     OW39397   4.527   2.128   4.901 -0.3666  0.4017 -0.5176
 9312SOL    HW139398   4.443   2.128   4.947 -0.9357  1.5228 -1.5327
 9312SOL    HW239399   4.581   2.079   4.963 -0.4117  0.1917 -0.6443
 9313SOL     OW39400   1.330   2.539   8.853  0.1088  0.0748 -0.3396
 9313SOL    HW139401   1.300   2.504   8.937 -0.1130 -0.8023 -0.7884
 9313SOL    HW239402   1.387   2.471   8.819 -0.5116 -0.4712 -0.2926
 9314SOL     OW39403   4.576   1.346  16.015  0.0062  0.7331  0.0289
 9314SOL    HW139404   4.602   1.358  15.924 -0.2716  1.7126  0.0769
 9314SOL    HW239405   4.565   1.251  16.025 -1.1875  0.8461 -0.2043
 9315SOL     OW39406   2.545   0.878   9.602 -0.2798 -0.5419  0.2066
 9315SOL    HW139407   2.638   0.864   9.589 -0.0323  2.7024 -1.4925
 9315SOL    HW239408   2.551   0.972   9.613  1.8708 -0.4567 -1.8794
 9316SOL     OW39409   4.640   2.795   3.710 -0.4245  0.4802 -0.6968
 9316SOL    HW139410   4.636   2.699   3.704  0.1231  0.3411  1.1977
 9316SOL    HW239411   4.639   2.811   3.616  1.6555  0.4736 -0.7091
 9317SOL     OW39412   1.876   3.575   2.665 -0.3435 -0.0498  0.0355
 9317SOL    HW139413   1.963   3.563   2.627 -0.6036  1.2276 -0.9897
 9317SOL    HW239414   1.866   3.502   2.726  0.5049 -0.1544  0.0401
 9318SOL     OW39415   0.257   1.698  10.089 -0.2080  0.2046  0.4158
 9318SOL    HW139416   0.191   1.687  10.021  0.0616  0.0157  0.1846
 9318SOL    HW239417   0.287   1.610  10.110 -0.0301 -0.1174 -1.1918
 9319SOL     OW39418   3.226   0.676   7.690 -0.0580  0.5524 -0.1112
 9319SOL    HW139419   3.229   0.606   7.625 -3.8299  0.4614 -0.1870
 9319SOL    HW239420   3.135   0.702   7.678 -0.7592 -1.2831  1.2292
 9320SOL     OW39421   4.189   0.844  10.191 -0.4694 -0.4334  0.1396
 9320SOL    HW139422   4.170   0.879  10.104  1.9729 -0.0614 -0.2321
 9320SOL    HW239423   4.241   0.767  10.167 -1.3343 -0.6704 -0.9831
 9321SOL     OW39424   1.119   2.097   3.952 -0.1315  0.4748  0.5127
 9321SOL    HW139425   1.118   2.069   3.860  0.8251  0.6574  0.4468
 9321SOL    HW239426   1.032   2.107   3.990 -0.0214 -0.0075  0.8896
 9322SOL     OW39427   4.119   1.402   7.179  0.2692  0.5740  0.3392
 9322SOL    HW139428   4.049   1.461   7.150 -0.2497  0.3752  1.1846
 9322SOL    HW239429   4.196   1.426   7.128  1.3643 -1.4542  1.0598
 9323SOL     OW39430   3.641   4.128   7.036  0.3708 -0.5522 -0.1463
 9323SOL    HW139431   3.645   4.155   7.128  0.2126  0.1580 -0.3513
 9323SOL    HW239432   3.657   4.208   6.987  0.3301  0.3326  1.3009
 9324SOL     OW39433   4.052   1.308   6.680 -0.8587 -0.1635  0.4644
 9324SOL    HW139434   3.996   1.242   6.639 -0.8036 -0.6798  1.2062
 9324SOL    HW239435   4.069   1.261   6.762 -0.1322 -0.3938  0.1779
 9325SOL     OW39436   1.437   0.114  10.760  0.1059 -0.2645 -0.0308
 9325SOL    HW139437   1.533   0.115  10.766  0.2438 -1.6935 -2.1213
 9325SOL    HW239438   1.420   0.208  10.749 -1.2858 -0.3455  1.4130
 9326SOL     OW39439   4.490   2.255   3.833 -0.1117 -0.3274 -0.2052
 9326SOL    HW139440   4.448   2.272   3.749  0.3751  0.2290 -0.3394
 9326SOL    HW239441   4.444   2.177   3.863  0.9757  0.0342  2.3676
 9327SOL     OW39442   4.089   4.542   2.972 -0.1472  0.2140 -0.2671
 9327SOL    HW139443   4.127   4.464   2.931  0.9794  0.1227  0.9742
 9327SOL    HW239444   4.171   4.584   2.997 -0.1876  0.7672 -1.0714
 9328SOL     OW39445   2.959   0.464  11.634 -0.0998 -0.0180  0.1919
 9328SOL    HW139446   2.870   0.482  11.602 -1.5942 -2.6164  2.9337
 9328SOL    HW239447   2.954   0.487  11.727 -0.4303  3.3029 -0.6421
 9329SOL     OW39448   0.579   1.438   7.739  0.0456  0.1817 -0.0143
 9329SOL    HW139449   0.512   1.432   7.807 -0.5211  1.2941 -0.4630
 9329SOL    HW239450   0.552   1.525   7.708  0.5406 -0.5417 -2.4625
 9330SOL     OW39451   3.111   2.220   4.272  0.0743 -0.2750 -0.2050
 9330SOL    HW139452   3.085   2.137   4.312  0.6038 -0.2351  0.2352
 9330SOL    HW239453   3.025   2.256   4.256  0.5244  0.5222 -0.8077
 9331SOL     OW39454   0.387   4.294   2.658  0.0996 -0.6532  0.2525
 9331SOL    HW139455   0.452   4.307   2.727 -0.8402  1.6213  0.6934
 9331SOL    HW239456   0.393   4.199   2.642  0.1962 -0.8192  1.3105
 9332SOL     OW39457   0.179   1.538   2.772 -0.4231 -0.3584  0.2427
 9332SOL    HW139458   0.249   1.502   2.719  0.7954  1.6503  0.4840
 9332SOL    HW239459   0.127   1.459   2.786 -0.2586 -0.5918 -0.4625
 9333SOL     OW39460   1.955   1.647   3.107  0.1743  0.0831  0.1446
 9333SOL    HW139461   2.010   1.696   3.045 -1.4266  1.1583 -0.4385
 9333SOL    HW239462   1.871   1.692   3.099 -0.4069 -0.6756  2.0680
 9334SOL     OW39463   4.354   0.168   8.924  0.1609 -0.2508  0.1451
 9334SOL    HW139464   4.358   0.206   9.012 -3.0462  0.0315  0.1691
 9334SOL    HW239465   4.329   0.076   8.933  1.9827 -0.6389  1.2953
 9335SOL     OW39466   4.467   4.025  13.338 -0.8276 -0.7954  0.1947
 9335SOL    HW139467   4.488   3.973  13.260  2.4404 -2.2373  2.0691
 9335SOL    HW239468   4.541   4.000  13.392 -1.9453  0.0250  2.0867
 9336SOL     OW39469   1.129   1.905   9.364  0.2693 -0.3629 -0.1926
 9336SOL    HW139470   1.075   1.970   9.320 -2.3345 -2.4426 -0.1014
 9336SOL    HW239471   1.183   1.961   9.420 -0.2792  2.2328 -2.2413
 9337SOL     OW39472   0.318   3.675  13.742  0.0720  0.4428 -0.0606
 9337SOL    HW139473   0.384   3.607  13.758  0.0085  0.8907  2.0983
 9337SOL    HW239474   0.272   3.691  13.824 -0.9708 -2.6069 -0.0671
 9338SOL     OW39475   4.348   1.911   5.253 -0.3550  0.4949  0.0877
 9338SOL    HW139476   4.358   1.838   5.314 -0.5074  1.7979  1.6515
 9338SOL    HW239477   4.256   1.907   5.227  0.3714 -1.6564 -2.1702
 9339SOL     OW39478   2.244   2.424   5.443  0.3332  0.1595 -0.5562
 9339SOL    HW139479   2.294   2.408   5.523  2.2247 -0.6242 -1.9014
 9339SOL    HW239480   2.255   2.519   5.437  1.3965  0.0935  0.4042
 9340SOL     OW39481   2.026   2.722   8.137  0.2718 -0.1476 -0.7363
 9340SOL    HW139482   1.997   2.762   8.054 -1.1660 -1.1764 -0.7385
 9340SOL    HW239483   2.056   2.799   8.185  2.2089 -0.6810 -1.1019
 9341SOL     OW39484   1.554   0.979   4.063 -0.0951  0.1903  0.8217
 9341SOL    HW139485   1.620   0.924   4.021 -0.6871 -0.4936  0.7857
 9341SOL    HW239486   1.607   1.055   4.087 -0.2338  0.3323  0.6738
 9342SOL     OW39487   3.176   4.468   7.244 -0.0147  0.2337  0.0658
 9342SOL    HW139488   3.211   4.507   7.163  2.6150 -1.1903  0.5189
 9342SOL    HW239489   3.252   4.428   7.286  0.0409  1.0806  0.7803
 9343SOL     OW39490   1.398   2.251  11.086 -0.0951 -0.5605 -0.1240
 9343SOL    HW139491   1.310   2.282  11.065  0.6833  1.3500 -0.5692
 9343SOL    HW239492   1.393   2.247  11.182  1.4791 -2.7111 -0.1268
 9344SOL     OW39493   3.863   2.604  10.608  0.0594  0.2947  0.2464
 9344SOL    HW139494   3.878   2.520  10.565 -0.7178  0.5480 -0.5229
 9344SOL    HW239495   3.954   2.635  10.608 -0.1475  0.9093 -0.9716
 9345SOL     OW39496   1.050   4.424   9.703 -0.4143 -0.0975 -1.0100
 9345SOL    HW139497   0.992   4.358   9.666  0.8919 -2.1758  0.6656
 9345SOL    HW239498   1.013   4.421   9.791  0.7684  0.9227 -0.4680
 9346SOL     OW39499   0.536   2.468   4.371  0.1035  0.0486 -0.0867
 9346SOL    HW139500   0.595   2.397   4.397 -0.7941 -0.0728  1.6390
 9346SOL    HW239501   0.498   2.506   4.450 -0.2099  2.6513 -1.4888
 9347SOL     OW39502   4.595   4.531   0.802 -0.1012  0.1973  0.2459
 9347SOL    HW139503   4.665   4.565   0.858  0.7675 -1.6439  0.2726
 9347SOL    HW239504   4.585   4.602   0.739  1.2500  0.5099  0.3708
 9348SOL     OW39505   1.694   0.064   8.914 -0.1971 -0.1777 -0.5197
 9348SOL    HW139506   1.687   0.072   8.819  0.3479 -1.1217 -0.6377
 9348SOL    HW239507   1.767   0.122   8.935 -0.3015 -0.3297  0.2662
 9349SOL     OW39508   1.809   1.226   0.012 -0.6806  0.0583  0.2979
 9349SOL    HW139509   1.851   1.233  17.626 -1.1325  1.7727  0.2244
 9349SOL    HW239510   1.722   1.194  17.689 -0.7488  0.4737 -0.0258
 9350SOL     OW39511   0.672   1.972  13.865 -0.1191 -0.4330  0.0890
 9350SOL    HW139512   0.675   2.048  13.923 -0.2997  0.6711 -1.3432
 9350SOL    HW239513   0.758   1.935  13.886 -0.3055 -1.0282 -0.1875
 9351SOL     OW39514   4.590   4.472   4.203 -0.1197 -0.1738  0.1814
 9351SOL    HW139515   4.649   4.499   4.132 -0.0131  1.8708  1.0342
 9351SOL    HW239516   4.544   4.406   4.152  1.3739 -1.9620  1.1300
 9352SOL     OW39517   4.402   2.300   8.001 -0.0504 -0.1317  0.1691
 9352SOL    HW139518   4.480   2.257   7.966  0.6367  0.2066  1.2748
 9352SOL    HW239519   4.366   2.337   7.921  0.5544  1.3764  0.5808
 9353SOL     OW39520   2.083   1.614   7.448  0.0711 -0.0112  0.0071
 9353SOL    HW139521   2.096   1.519   7.445  1.1905  0.1432 -0.0246
 9353SOL    HW239522   2.037   1.627   7.365 -1.5003  0.8260  1.0116
 9354SOL     OW39523   4.041   2.374   8.218  0.4359 -0.6326 -0.6485
 9354SOL    HW139524   3.946   2.375   8.205  0.0017  0.5936  2.5887
 9354SOL    HW239525   4.051   2.460   8.260 -0.7608 -1.3940  1.1933
 9355SOL     OW39526   1.744   4.250   5.337  0.4330  1.2403  0.0433
 9355SOL    HW139527   1.811   4.246   5.270 -0.3453 -0.0593 -0.6493
 9355SOL    HW239528   1.787   4.189   5.397  0.5045 -0.0138 -1.3101
 9356SOL     OW39529   4.074   0.620  13.991 -0.1145  0.3536  0.2993
 9356SOL    HW139530   4.047   0.578  14.072 -2.0459 -0.0395 -0.5581
 9356SOL    HW239531   4.140   0.555  13.965 -1.5317 -1.0887  0.3152
 9357SOL     OW39532   4.435   1.665   5.546 -0.3968  0.2970 -0.0589
 9357SOL    HW139533   4.407   1.626   5.463 -0.2060 -0.5401  0.2779
 9357SOL    HW239534   4.346   1.685   5.576 -0.2975 -1.0125  1.0876
 9358SOL     OW39535   0.785   2.371   6.316  0.0493 -0.6694  0.3582
 9358SOL    HW139536   0.765   2.394   6.407 -3.0749  0.9990 -0.7564
 9358SOL    HW239537   0.720   2.412   6.259 -0.2341 -1.2911  0.2385
 9359SOL     OW39538   2.563   3.502   5.402 -0.5892 -0.0033 -0.1794
 9359SOL    HW139539   2.476   3.478   5.435 -0.1427  2.4937  2.7495
 9359SOL    HW239540   2.586   3.433   5.339 -1.4751 -0.1579 -0.3318
 9360SOL     OW39541   3.569   4.246   3.278  0.6872  0.6466 -0.2186
 9360SOL    HW139542   3.575   4.217   3.187  1.7939  1.4776 -0.3981
 9360SOL    HW239543   3.643   4.305   3.269  1.1490 -0.4984 -3.9160
 9361SOL     OW39544   3.761   1.497  16.919  0.5536 -0.4195 -0.2706
 9361SOL    HW139545   3.751   1.589  16.897 -0.1114  0.1191  2.2800
 9361SOL    HW239546   3.789   1.455  16.837  2.9099 -0.1684  0.4416
 9362SOL     OW39547   3.322   3.185  11.245  0.4570  0.0047 -0.1638
 9362SOL    HW139548   3.367   3.103  11.265  0.0888  0.0235  0.7613
 9362SOL    HW239549   3.274   3.141  11.176  1.8518 -1.5309 -0.1381
 9363SOL     OW39550   1.987   3.588  16.632  0.5632  0.2670 -0.8151
 9363SOL    HW139551   2.077   3.620  16.628  0.6039  0.2184 -0.2706
 9363SOL    HW239552   2.005   3.506  16.586 -0.8790 -0.0581 -0.7958
 9364SOL     OW39553   4.634   3.435  10.919 -0.4244 -0.6156  0.0855
 9364SOL    HW139554   4.693   3.493  10.968 -1.1424  0.7397 -0.6431
 9364SOL    HW239555   4.592   3.374  10.979 -0.7081  1.2179  1.7504
 9365SOL     OW39556   2.235   1.263   1.353  0.0590  0.8216 -0.2858
 9365SOL    HW139557   2.188   1.278   1.271 -0.7947 -0.1894  0.0124
 9365SOL    HW239558   2.295   1.192   1.330 -0.1828  0.7779 -0.7907
 9366SOL     OW39559   3.289   1.110   7.402  0.9217  0.1729 -0.0633
 9366SOL    HW139560   3.214   1.169   7.408  0.1954 -0.6443 -1.0961
 9366SOL    HW239561   3.267   1.034   7.456  2.1521  0.4914  0.8837
 9367SOL     OW39562   3.040   0.845   6.004  0.6239  0.5222  0.4761
 9367SOL    HW139563   3.048   0.803   6.090 -0.5816 -1.1115 -0.2037
 9367SOL    HW239564   2.991   0.926   6.021  0.1484  0.5425 -0.9425
 9368SOL     OW39565   2.126   4.082   5.302 -0.5804 -0.1940  0.0335
 9368SOL    HW139566   2.094   4.171   5.286 -1.5934 -0.8669 -1.7135
 9368SOL    HW239567   2.047   4.032   5.282 -0.4063 -0.6215  0.4367
 9369SOL     OW39568   3.169   4.188   5.644 -0.2334 -0.2320  0.2339
 9369SOL    HW139569   3.128   4.234   5.717 -0.3759  0.9869 -0.6086
 9369SOL    HW239570   3.258   4.221   5.638 -0.0213 -0.5107  2.0841
 9370SOL     OW39571   1.708   1.278   2.699  0.3685  0.6921  0.1370
 9370SOL    HW139572   1.614   1.290   2.714  0.3111 -1.8342  1.8214
 9370SOL    HW239573   1.726   1.328   2.620 -3.5548 -0.5976 -1.5868
 9371SOL     OW39574   0.919   3.065   1.617  0.1701 -0.2597 -0.4394
 9371SOL    HW139575   0.835   3.105   1.594 -0.4745 -0.9304  0.7643
 9371SOL    HW239576   0.884   2.987   1.659 -0.3196 -0.6741 -1.6062
 9372SOL     OW39577   4.623   1.318  17.507  0.0813 -0.6993  0.3056
 9372SOL    HW139578   4.622   1.262  17.429  0.0708 -0.4993  0.1623
 9372SOL    HW239579   4.716   1.330  17.528 -0.3266  0.0640  1.6658
 9373SOL     OW39580   1.098   3.696   4.425 -0.6818  0.0725 -0.5540
 9373SOL    HW139581   1.153   3.692   4.503  0.9360 -0.3879 -1.7029
 9373SOL    HW239582   1.023   3.741   4.465 -1.1244 -1.7370  0.6326
 9374SOL     OW39583   1.470   4.541   1.114  0.4317 -0.1389 -0.2633
 9374SOL    HW139584   1.377   4.519   1.124  0.8947 -2.2043 -0.5921
 9374SOL    HW239585   1.489   4.487   1.038  1.8024  1.0587 -0.7635
 9375SOL     OW39586   2.475   0.525   7.260 -0.4311 -0.2365  0.6376
 9375SOL    HW139587   2.425   0.565   7.331 -0.3150 -0.8768  1.0787
 9375SOL    HW239588   2.430   0.561   7.183  0.9945  1.1983  0.4749
 9376SOL     OW39589   3.159   2.629   3.949 -0.1281  0.3269 -0.6887
 9376SOL    HW139590   3.168   2.611   3.855 -1.2847 -0.2668 -0.6946
 9376SOL    HW239591   3.143   2.541   3.983 -0.2204 -0.3633 -2.5265
 9377SOL     OW39592   2.603   1.628   6.482 -0.0185 -0.3381 -0.4610
 9377SOL    HW139593   2.593   1.685   6.406  2.0712  0.1203 -0.3973
 9377SOL    HW239594   2.525   1.657   6.529 -1.1331 -0.2734 -2.3625
 9378SOL     OW39595   3.787   2.650   1.922 -0.6361 -0.1282  0.2347
 9378SOL    HW139596   3.824   2.650   2.010  0.9371 -0.8897 -0.4207
 9378SOL    HW239597   3.853   2.695   1.871  1.4136 -0.7810  2.3189
 9379SOL     OW39598   4.500   2.186   2.311  0.3995 -0.1672  0.3944
 9379SOL    HW139599   4.592   2.190   2.339  0.7245  0.2885 -0.7361
 9379SOL    HW239600   4.510   2.206   2.218 -0.3850  0.1305  0.3724
 9380SOL     OW39601   1.984   4.708   8.095 -0.1150  0.2896  0.0869
 9380SOL    HW139602   2.030   0.051   8.045  0.7062  0.4539  1.0588
 9380SOL    HW239603   2.044   4.635   8.084  0.4635  0.5638  1.4952
 9381SOL     OW39604   3.173   4.112   3.360 -0.3238 -0.1567  0.4544
 9381SOL    HW139605   3.239   4.046   3.339 -0.1149 -0.0056  0.6303
 9381SOL    HW239606   3.220   4.196   3.359  1.3344 -1.0608  1.6864
 9382SOL     OW39607   0.670   4.251   5.434  0.4350 -0.4609  0.2559
 9382SOL    HW139608   0.588   4.209   5.409  0.5410  0.2268 -1.2889
 9382SOL    HW239609   0.704   4.198   5.505  0.4665  0.3507  0.8463
 9383SOL     OW39610   4.056   1.039   6.163  0.2589 -0.3774 -0.6137
 9383SOL    HW139611   4.090   1.030   6.073 -2.1229  0.3158 -1.5787
 9383SOL    HW239612   4.111   0.967   6.194 -0.8976 -1.5365 -1.2331
 9384SOL     OW39613   2.174   4.396   9.141  0.3494 -0.5172 -0.2803
 9384SOL    HW139614   2.218   4.387   9.225 -1.7135 -1.0305  0.7554
 9384SOL    HW239615   2.244   4.454   9.111  1.2874 -1.1636  0.6777
 9385SOL     OW39616   4.024   3.165   6.163  0.3465  0.0785 -0.1966
 9385SOL    HW139617   4.015   3.086   6.110  0.3873 -1.0049  1.3929
 9385SOL    HW239618   3.951   3.158   6.224  0.9835  1.2313  0.7055
 9386SOL     OW39619   0.109   3.839   9.741  0.4049 -0.2923 -0.4097
 9386SOL    HW139620   0.203   3.852   9.723  0.8915 -0.4481  2.0602
 9386SOL    HW239621   0.093   3.769   9.677 -0.4630 -0.7699  0.3369
 9387SOL     OW39622   2.533   3.812   6.835 -0.1437 -0.4009 -0.4610
 9387SOL    HW139623   2.451   3.786   6.877  0.2405  0.1907  0.6455
 9387SOL    HW239624   2.505   3.829   6.745 -0.2428  1.2092 -0.1300
 9388SOL     OW39625   4.249   1.364   4.576 -0.6039  0.2720 -0.4365
 9388SOL    HW139626   4.192   1.436   4.605  0.4543  0.0180  2.3341
 9388SOL    HW239627   4.336   1.398   4.599  0.1623 -1.5995 -0.6006
 9389SOL     OW39628   1.386   1.783   6.690 -0.0251 -0.5398  0.1141
 9389SOL    HW139629   1.337   1.851   6.643  2.2542  0.4718 -0.7711
 9389SOL    HW239630   1.466   1.762   6.643  0.3767  1.8404 -0.2729
 9390SOL     OW39631   4.199   2.508   8.686  0.1333  0.1476 -0.5010
 9390SOL    HW139632   4.223   2.463   8.605  1.6453 -0.0443  0.0527
 9390SOL    HW239633   4.272   2.564   8.713 -0.2494  0.8860 -0.9892
 9391SOL     OW39634   2.401   4.109   1.536 -0.1151  0.2029 -0.2227
 9391SOL    HW139635   2.438   4.183   1.490  0.3238  0.7372  0.9783
 9391SOL    HW239636   2.459   4.110   1.613  0.2379 -2.5315 -0.4343
 9392SOL     OW39637   0.050   4.587  16.379 -0.0900  0.1106  0.2447
 9392SOL    HW139638   0.125   4.646  16.383 -0.3369  0.4794 -0.3807
 9392SOL    HW239639   0.049   4.562  16.286 -0.3136  0.4614  0.1508
 9393SOL     OW39640   3.086   4.131   0.370 -0.5957 -0.1273 -0.1559
 9393SOL    HW139641   3.035   4.067   0.418  1.7144 -1.8633 -0.0083
 9393SOL    HW239642   3.019   4.155   0.307  0.5968 -1.6818 -1.9996
 9394SOL     OW39643   1.841   2.071   3.338  0.0619 -0.4437 -0.3758
 9394SOL    HW139644   1.753   2.057   3.372  1.1797 -1.6141  2.0690
 9394SOL    HW239645   1.852   2.026   3.255 -0.5001  0.9510 -1.2016
 9395SOL     OW39646   0.013   0.840   5.799 -1.1087 -0.2564 -0.3404
 9395SOL    HW139647   0.010   0.868   5.707  0.1923 -0.3421 -0.4049
 9395SOL    HW239648   0.093   0.788   5.792 -0.1756  1.1787 -0.1593
 9396SOL     OW39649   3.649   2.436  14.000 -0.2834 -0.1526 -0.1024
 9396SOL    HW139650   3.624   2.355  13.955 -0.8034  0.1689 -0.3859
 9396SOL    HW239651   3.571   2.491  14.000  0.0637  0.3289  0.2696
 9397SOL     OW39652   0.157   2.199   8.597 -0.3396 -0.2563 -0.1695
 9397SOL    HW139653   0.112   2.149   8.665 -0.2058  1.2986  1.0543
 9397SOL    HW239654   0.102   2.277   8.594  0.1746  0.1416  0.9894
 9398SOL     OW39655   3.890   2.006   5.017 -0.2193  0.3937 -0.3744
 9398SOL    HW139656   3.813   1.986   4.963 -0.2409  0.7817 -0.4827
 9398SOL    HW239657   3.950   2.033   4.948 -2.2182 -1.4412 -2.8825
 9399SOL     OW39658   4.325   1.715  16.349 -0.0832 -0.4169 -0.2334
 9399SOL    HW139659   4.299   1.691  16.438  0.9880  2.3175  0.7882
 9399SOL    HW239660   4.381   1.791  16.361  0.7618 -1.5931  3.1648
 9400SOL     OW39661   3.406   4.112   9.408  0.3830 -0.6520  0.1169
 9400SOL    HW139662   3.396   4.129   9.501 -0.6305  0.5141 -0.1993
 9400SOL    HW239663   3.318   4.145   9.389  1.3075 -0.0685 -3.3084
 9401SOL     OW39664   4.439   3.566   7.527  0.8595 -0.0395  0.3985
 9401SOL    HW139665   4.531   3.571   7.505  0.5643 -2.7216 -1.4143
 9401SOL    HW239666   4.425   3.657   7.554  2.6720 -0.3820  2.5158
 9402SOL     OW39667   0.746   4.414   5.204  0.3291  0.2290 -0.0027
 9402SOL    HW139668   0.744   4.338   5.145 -0.2686  1.2310 -1.2695
 9402SOL    HW239669   0.722   4.387   5.292 -2.3696  1.1467 -0.4629
 9403SOL     OW39670   3.937   0.374   4.853  0.0659  0.0412 -0.6951
 9403SOL    HW139671   3.890   0.322   4.918 -0.5821  0.1986 -1.0274
 9403SOL    HW239672   3.933   0.316   4.777 -0.2998 -1.3371  0.3771
 9404SOL     OW39673   2.338   0.527   7.005 -0.0039  0.0279  0.5848
 9404SOL    HW139674   2.323   0.447   6.955 -0.1609  1.3386 -1.4619
 9404SOL    HW239675   2.377   0.583   6.938  0.4198 -0.7401  0.1925
 9405SOL     OW39676   3.233   3.066  16.036 -0.1379 -0.3231 -0.5533
 9405SOL    HW139677   3.139   3.078  16.053  0.0466 -1.7164  1.5482
 9405SOL    HW239678   3.276   3.103  16.113 -1.4859 -0.6263  0.3558
 9406SOL     OW39679   1.993   3.132   4.047  0.7264 -0.0880 -0.1025
 9406SOL    HW139680   2.047   3.159   3.973  0.3736 -1.2880 -0.8138
 9406SOL    HW239681   1.955   3.049   4.018  1.4202 -0.8531  1.1850
 9407SOL     OW39682   2.540   3.041   6.780 -0.1816 -0.1939  0.0726
 9407SOL    HW139683   2.456   3.017   6.819  0.7076 -1.0252  1.4423
 9407SOL    HW239684   2.589   2.962   6.801  1.0422  0.6747  0.4623
 9408SOL     OW39685   1.827   2.325   5.594 -0.7317  0.5710 -0.3062
 9408SOL    HW139686   1.856   2.241   5.629  0.1727  0.2726 -1.7399
 9408SOL    HW239687   1.843   2.302   5.502 -1.9796 -0.7591 -0.1755
 9409SOL     OW39688   2.539   0.467   2.775 -0.4687 -0.9420 -0.0370
 9409SOL    HW139689   2.466   0.470   2.714  0.8597 -0.3934 -1.6084
 9409SOL    HW239690   2.588   0.398   2.728  1.2901  0.9350 -0.9597
 9410SOL     OW39691   4.615   0.431   3.067 -0.0704  0.3028 -0.5591
 9410SOL    HW139692   4.611   0.335   3.075 -3.0218  0.5318  0.5916
 9410SOL    HW239693   4.652   0.457   3.151  0.5883  1.3896 -1.1922
 9411SOL     OW39694   1.477   1.944   3.697  0.4940  0.8858  0.2731
 9411SOL    HW139695   1.408   1.885   3.665  1.1522 -0.2382  0.9495
 9411SOL    HW239696   1.543   1.890   3.740 -0.9731 -0.6250  0.6446
 9412SOL     OW39697   3.493   0.948  14.607 -0.4152 -0.3214  0.0376
 9412SOL    HW139698   3.548   0.925  14.682 -1.6213  0.3874  1.1381
 9412SOL    HW239699   3.423   0.884  14.621 -1.2050  0.8745  1.4944
 9413SOL     OW39700   3.900   2.245  13.950  0.3075 -0.4429  0.0359
 9413SOL    HW139701   3.896   2.283  13.862  0.7462  0.2124  0.3018
 9413SOL    HW239702   3.822   2.190  13.945  0.0219  0.0847 -1.4075
 9414SOL     OW39703   2.296   4.151   6.216 -0.4942  0.0112 -0.3112
 9414SOL    HW139704   2.331   4.133   6.129  0.8487  0.0868  0.2112
 9414SOL    HW239705   2.256   4.066   6.235  0.0626 -0.0489  0.5878
 9415SOL     OW39706   3.455   3.619   5.630  0.1653 -0.2764  0.4247
 9415SOL    HW139707   3.519   3.586   5.692  0.1579 -2.6760 -0.8633
 9415SOL    HW239708   3.516   3.664   5.572  0.1407 -1.7073 -0.7336
 9416SOL     OW39709   2.374   3.392  13.972 -0.2345 -0.2615  0.1756
 9416SOL    HW139710   2.437   3.428  13.909 -1.2249 -3.6211 -2.6869
 9416SOL    HW239711   2.425   3.313  13.991 -2.9318 -2.3066 -1.1223
 9417SOL     OW39712   2.561   2.945  17.446  0.2840  0.1758 -0.0539
 9417SOL    HW139713   2.501   2.875  17.475  0.1780 -0.0252 -0.7552
 9417SOL    HW239714   2.501   2.982  17.381 -1.1256  0.6434  1.5067
 9418SOL     OW39715   0.623   0.129   6.114 -0.3930  0.3776 -0.2541
 9418SOL    HW139716   0.705   0.149   6.069 -0.9703 -0.9934 -1.9534
 9418SOL    HW239717   0.648   0.149   6.204  1.1645 -1.8863 -0.1688
 9419SOL     OW39718   2.666   2.518   7.540 -0.5137 -0.2487 -0.0102
 9419SOL    HW139719   2.606   2.578   7.495  0.7824  0.6870 -0.4830
 9419SOL    HW239720   2.617   2.484   7.615 -1.1967  0.4801 -0.1161
 9420SOL     OW39721   2.705   1.219   4.666 -0.1547  0.2027  0.1340
 9420SOL    HW139722   2.708   1.275   4.589  1.5335  0.4845  0.4040
 9420SOL    HW239723   2.614   1.189   4.664  0.5481 -1.6681 -2.7631
 9421SOL     OW39724   0.259   1.733  10.360 -0.3021  0.4385  0.6654
 9421SOL    HW139725   0.249   1.727  10.264  1.8689 -1.6401  0.5641
 9421SOL    HW239726   0.277   1.827  10.368 -1.7008  0.6915  0.7811
 9422SOL     OW39727   0.124   1.296   3.441  0.1197 -0.5675 -0.0981
 9422SOL    HW139728   0.033   1.287   3.411  0.2714  0.7046 -0.8993
 9422SOL    HW239729   0.153   1.210   3.411  2.9681  0.0453  0.9565
 9423SOL     OW39730   2.161   4.138   3.839 -0.4835 -0.6812 -0.2927
 9423SOL    HW139731   2.093   4.071   3.850 -1.7054  0.1321 -2.8183
 9423SOL    HW239732   2.203   4.133   3.925  1.1457  1.2674 -0.9959
 9424SOL     OW39733   0.747   0.020   7.700  0.0268  0.4798  0.0293
 9424SOL    HW139734   0.699   0.101   7.684  0.7304  0.5811 -1.6262
 9424SOL    HW239735   0.765   4.710   7.612 -0.0893 -1.9226  0.9309
 9425SOL     OW39736   2.661   0.268   2.610 -0.0727  0.6730 -0.0372
 9425SOL    HW139737   2.621   0.182   2.624  1.0607 -0.4839 -3.9174
 9425SOL    HW239738   2.733   0.238   2.554 -0.3153 -0.9587  0.5381
 9426SOL     OW39739   0.892   3.751   1.157 -0.0616  0.6163 -0.6467
 9426SOL    HW139740   0.961   3.694   1.123  0.1175  0.4944 -0.0725
 9426SOL    HW239741   0.883   3.708   1.242 -0.0875 -0.5688 -1.2424
 9427SOL     OW39742   3.391   1.779   6.165 -0.0902  0.4377  0.4976
 9427SOL    HW139743   3.340   1.749   6.240 -0.4792 -0.5901 -0.1729
 9427SOL    HW239744   3.321   1.824   6.118  0.1190 -0.6788 -0.8869
 9428SOL     OW39745   3.610   3.755   0.916  0.3601 -0.3283 -0.4178
 9428SOL    HW139746   3.531   3.737   0.865 -0.0734  0.1710  0.0741
 9428SOL    HW239747   3.642   3.666   0.930 -0.4304 -0.8949 -2.1967
 9429SOL     OW39748   1.394   4.030   2.315  0.1329 -0.0355 -0.1061
 9429SOL    HW139749   1.368   4.075   2.396 -1.2320  0.8181 -1.0007
 9429SOL    HW239750   1.342   3.950   2.309  2.0898 -1.0230 -3.8957
 9430SOL     OW39751   3.941   0.403  15.830  0.6610  0.3092  0.0969
 9430SOL    HW139752   3.991   0.344  15.774 -1.1803 -1.3855  0.2536
 9430SOL    HW239753   3.993   0.483  15.834 -0.3716  0.9988 -0.3281
 9431SOL     OW39754   4.083   1.327  11.384 -0.3472  0.2209  0.7897
 9431SOL    HW139755   3.996   1.339  11.346 -0.0715 -2.0404 -0.6021
 9431SOL    HW239756   4.068   1.336  11.478 -2.8610  2.8161  0.1550
 9432SOL     OW39757   2.381   1.574   5.704  0.7401 -0.4234  0.0818
 9432SOL    HW139758   2.476   1.584   5.693  0.9413 -2.4948  0.0268
 9432SOL    HW239759   2.355   1.659   5.668 -0.4556  0.2710  2.5276
 9433SOL     OW39760   4.078   4.383  12.198 -0.1795  0.2592  0.3876
 9433SOL    HW139761   4.062   4.474  12.171 -2.2157  0.0776  0.9378
 9433SOL    HW239762   4.128   4.394  12.279 -1.8811 -0.4695  1.5470
 9434SOL     OW39763   2.352   3.262   8.072 -0.1935 -0.1802 -0.4386
 9434SOL    HW139764   2.369   3.338   8.128  0.2549 -1.5465  1.2469
 9434SOL    HW239765   2.403   3.292   7.996 -0.8290 -0.3254 -0.9240
 9435SOL     OW39766   0.793   4.660   4.029 -0.0071 -0.1787  0.2243
 9435SOL    HW139767   0.757   4.648   3.941 -0.1066 -1.1678  0.3930
 9435SOL    HW239768   0.855   0.007   4.019 -2.3659  1.6509 -1.2164
 9436SOL     OW39769   2.162   4.193   3.377  0.2133  0.0486 -1.0764
 9436SOL    HW139770   2.202   4.216   3.461  1.0903  1.7427 -1.9651
 9436SOL    HW239771   2.067   4.194   3.391  0.4755 -0.5389  0.8003
 9437SOL     OW39772   2.731   0.369   3.847 -0.0946 -0.6156  0.0992
 9437SOL    HW139773   2.659   0.389   3.787  0.9671  2.2817 -0.2451
 9437SOL    HW239774   2.699   0.297   3.900 -1.1458 -0.6077 -0.5288
 9438SOL     OW39775   1.439   3.370  15.722  0.4847 -0.2093  0.0315
 9438SOL    HW139776   1.455   3.365  15.817  2.3997 -0.1390 -0.2879
 9438SOL    HW239777   1.346   3.347  15.715  0.7942 -0.4705 -3.0945
 9439SOL     OW39778   1.748   2.567   8.760  0.4234  0.3782  0.1168
 9439SOL    HW139779   1.722   2.655   8.789  1.0640  0.7006 -0.2833
 9439SOL    HW239780   1.826   2.584   8.707  0.8718 -1.4871  0.2039
 9440SOL     OW39781   2.424   1.277   2.412 -0.2270  0.3256  0.5765
 9440SOL    HW139782   2.382   1.206   2.461  0.4576 -1.4167 -1.3820
 9440SOL    HW239783   2.513   1.240   2.408 -0.6397 -0.5249 -0.6803
 9441SOL     OW39784   0.603   3.145   2.591 -0.2236  0.0103  0.0583
 9441SOL    HW139785   0.528   3.152   2.532 -0.5737  0.3356  0.5380
 9441SOL    HW239786   0.583   3.215   2.654 -1.6305  0.6292 -1.0806
 9442SOL     OW39787   2.629   3.234   7.508  0.2023  0.1539  0.5144
 9442SOL    HW139788   2.534   3.225   7.512  0.1983 -0.3134 -0.6925
 9442SOL    HW239789   2.643   3.146   7.545 -0.6033 -0.4547 -0.6109
 9443SOL     OW39790   0.746   3.405   3.520 -0.3173  0.1007  0.2653
 9443SOL    HW139791   0.811   3.378   3.455  0.6403  0.0765  1.2390
 9443SOL    HW239792   0.695   3.326   3.505 -2.2263  1.3368  0.2296
 9444SOL     OW39793   2.688   1.651   8.206 -0.2101  0.3011 -0.6735
 9444SOL    HW139794   2.645   1.596   8.141 -0.7139  0.9162 -0.8568
 9444SOL    HW239795   2.646   1.624   8.288  2.1444 -0.1571  0.3912
 9445SOL     OW39796   1.295   1.957   0.275 -0.2574 -0.7685  0.1263
 9445SOL    HW139797   1.377   1.915   0.250 -1.7714 -2.6009 -1.7810
 9445SOL    HW239798   1.276   1.991   0.188 -1.3821  1.1200  1.1087
 9446SOL     OW39799   0.068   1.247   5.893  0.2929 -0.0469 -0.5001
 9446SOL    HW139800   0.008   1.318   5.917 -0.0433 -0.7567  0.7627
 9446SOL    HW239801   0.127   1.295   5.836  1.5073 -0.1244  0.6926
 9447SOL     OW39802   0.691   1.095  15.530 -0.5953 -0.2656  0.1438
 9447SOL    HW139803   0.634   1.091  15.453 -1.0526 -1.1558  0.5213
 9447SOL    HW239804   0.667   1.178  15.570 -3.0171  0.1544 -2.1174
 9448SOL     OW39805   3.860   2.694   1.532  0.1405  0.4388 -0.7086
 9448SOL    HW139806   3.865   2.766   1.595 -2.7169  0.4904 -0.5490
 9448SOL    HW239807   3.917   2.630   1.576 -0.7514  0.0170 -0.1636
 9449SOL     OW39808   3.511   3.727   6.163 -0.3388 -0.6782 -0.8443
 9449SOL    HW139809   3.524   3.786   6.237 -0.1347  1.9107 -2.9211
 9449SOL    HW239810   3.450   3.773   6.105  0.1196  2.4827  1.1763
 9450SOL     OW39811   3.678   3.793   3.780  0.1137 -0.6794 -0.2676
 9450SOL    HW139812   3.590   3.825   3.760  0.0542  0.2641  1.4913
 9450SOL    HW239813   3.715   3.768   3.696 -2.3274  0.9223 -1.8104
 9451SOL     OW39814   3.637   1.080   1.915  0.3707  0.1592 -0.8173
 9451SOL    HW139815   3.593   1.000   1.945 -2.1357  1.7637 -0.1479
 9451SOL    HW239816   3.694   1.048   1.846  1.1036  0.3333 -0.2878
 9452SOL     OW39817   4.008   0.757   7.624 -0.7106 -0.1809 -0.1859
 9452SOL    HW139818   3.949   0.683   7.639 -0.5252 -0.1908  0.4558
 9452SOL    HW239819   4.012   0.794   7.712 -1.6218  0.5249 -0.4425
 9453SOL     OW39820   1.337   4.318  15.708 -0.1007 -0.6962 -0.0564
 9453SOL    HW139821   1.287   4.356  15.781 -2.5914  1.4361 -2.8516
 9453SOL    HW239822   1.414   4.283  15.752 -0.5315 -0.6302  0.7591
 9454SOL     OW39823   4.704   0.174   3.129  0.2966  0.2373 -0.0605
 9454SOL    HW139824   0.052   0.135   3.081 -0.1739 -1.5928  0.7429
 9454SOL    HW239825   0.018   0.233   3.195 -1.3269  1.2646 -0.0448
 9455SOL     OW39826   3.232   0.364   1.753 -0.3737  0.2872  0.7570
 9455SOL    HW139827   3.161   0.304   1.777 -1.7323  1.7622  0.4459
 9455SOL    HW239828   3.207   0.445   1.796  0.7186  0.7500  0.5154
 9456SOL     OW39829   2.845   2.319   8.102  0.2805 -0.1357 -0.1416
 9456SOL    HW139830   2.839   2.225   8.087 -0.6090  0.0276 -0.8068
 9456SOL    HW239831   2.780   2.332   8.172  0.1775  1.9639 -0.6171
 9457SOL     OW39832   4.422   4.646   2.042 -0.1098  0.5781  0.0497
 9457SOL    HW139833   4.327   4.660   2.037 -0.1214  0.1507 -0.9329
 9457SOL    HW239834   4.458   4.699   1.971  2.7706 -1.5405 -0.0680
 9458SOL     OW39835   1.220   2.340   9.400 -0.0461  0.0938  0.1208
 9458SOL    HW139836   1.193   2.369   9.487  0.2112 -0.7752  0.4937
 9458SOL    HW239837   1.236   2.247   9.416  0.4610  0.1176 -0.2749
 9459SOL     OW39838   0.310   1.438   5.102 -0.6896 -0.2332  0.1519
 9459SOL    HW139839   0.322   1.395   5.017  1.2225 -0.3153  0.4660
 9459SOL    HW239840   0.389   1.491   5.112  0.3770 -1.6700 -0.6381
 9460SOL     OW39841   2.214   3.553   7.979  0.7111  0.3117 -0.6036
 9460SOL    HW139842   2.205   3.646   7.957 -1.2801  0.1461 -0.5649
 9460SOL    HW239843   2.307   3.538   7.994  0.1972 -1.1726  1.0435
 9461SOL     OW39844   2.392   3.710  12.510 -0.0239  0.8258  0.1913
 9461SOL    HW139845   2.365   3.774  12.445  0.1182 -0.0698 -0.7516
 9461SOL    HW239846   2.398   3.771  12.584 -1.5117  1.0695  0.1040
 9462SOL     OW39847   1.122   4.358   4.428 -0.1246 -0.3987  0.3141
 9462SOL    HW139848   1.206   4.324   4.396 -1.9540 -2.5348 -2.2179
 9462SOL    HW239849   1.149   4.411   4.504 -0.3289 -0.2482  0.2816
 9463SOL     OW39850   0.223   1.890   8.604 -0.1187  0.0538 -0.3554
 9463SOL    HW139851   0.259   1.897   8.515 -2.7841 -0.4352 -1.4573
 9463SOL    HW239852   0.200   1.981   8.621 -2.4316 -0.6305  0.1048
 9464SOL     OW39853   3.604   0.087   5.837  0.0172 -0.5397 -0.1920
 9464SOL    HW139854   3.538   0.096   5.907  0.2198  0.7206 -0.1680
 9464SOL    HW239855   3.662   0.161   5.853 -0.7568 -0.4671  2.3943
 9465SOL     OW39856   3.996   3.061   0.336  0.1080  0.1352 -0.3214
 9465SOL    HW139857   4.053   3.063   0.259 -1.4242 -0.4953 -1.4689
 9465SOL    HW239858   3.914   3.054   0.287  0.4797 -1.3293 -0.7430
 9466SOL     OW39859   2.151   3.399   4.227 -0.5098 -0.2433  0.2778
 9466SOL    HW139860   2.055   3.402   4.225 -0.5315 -1.9625 -1.4481
 9466SOL    HW239861   2.176   3.479   4.181 -2.1003  0.7459  1.1492
 9467SOL     OW39862   4.635   1.757   8.500 -0.6254 -0.5508  0.1510
 9467SOL    HW139863   4.587   1.839   8.489 -3.5709 -2.2029  0.3318
 9467SOL    HW239864   4.681   1.760   8.416 -0.7615  1.3653  0.1590
 9468SOL     OW39865   3.732   1.198  17.371  0.1260 -0.0526 -0.3090
 9468SOL    HW139866   3.723   1.253  17.293 -1.1358 -1.9556 -1.5189
 9468SOL    HW239867   3.787   1.254  17.425 -0.4145 -1.0989  1.3160
 9469SOL     OW39868   1.495   4.409  10.852 -0.1743  0.9313 -0.2286
 9469SOL    HW139869   1.446   4.333  10.821  0.7755  0.4893 -0.6394
 9469SOL    HW239870   1.431   4.481  10.852 -1.3263 -0.1220  2.9038
 9470SOL     OW39871   0.435   1.165  10.766 -0.0746 -0.0905 -0.9989
 9470SOL    HW139872   0.401   1.166  10.677 -1.2709 -2.5655 -0.5703
 9470SOL    HW239873   0.389   1.086  10.793  0.5983 -0.3378 -0.5644
 9471SOL     OW39874   1.132   4.114   7.842  0.2894 -0.1779  0.3662
 9471SOL    HW139875   1.078   4.105   7.920  0.0989  0.1524  0.2711
 9471SOL    HW239876   1.092   4.040   7.796 -1.6321  0.8616  0.3820
 9472SOL     OW39877   1.640   2.841   6.501  0.3982  0.0057 -0.6367
 9472SOL    HW139878   1.682   2.757   6.517  0.1716  0.1762  0.8384
 9472SOL    HW239879   1.651   2.857   6.408  1.2343  2.3949 -0.1285
 9473SOL     OW39880   2.163   1.295   3.629 -0.0337 -0.3655 -0.0543
 9473SOL    HW139881   2.224   1.339   3.569 -0.4813  0.8069  0.3422
 9473SOL    HW239882   2.111   1.240   3.570 -2.9966  1.4045  0.8883
 9474SOL     OW39883   1.382   1.819   5.795  0.4691  0.1010 -0.2648
 9474SOL    HW139884   1.407   1.834   5.704  1.5767 -1.4177 -0.2120
 9474SOL    HW239885   1.417   1.731   5.811 -0.4170 -0.3895 -1.0454
 9475SOL     OW39886   3.041   2.858   6.603  0.1786 -0.3458 -0.5721
 9475SOL    HW139887   2.991   2.901   6.672  1.4367 -0.2895  0.2967
 9475SOL    HW239888   3.127   2.899   6.616 -0.2790  0.5384 -0.3472
 9476SOL     OW39889   1.430   3.768  17.502  0.0076  0.1043 -0.6152
 9476SOL    HW139890   1.339   3.739  17.492  0.3530 -0.0304 -3.3134
 9476SOL    HW239891   1.443   3.786  17.595  0.6287 -1.0454 -0.4847
 9477SOL     OW39892   0.307   0.057   7.449 -0.6250  0.0172 -0.4783
 9477SOL    HW139893   0.351   4.700   7.426 -1.0287 -0.3205 -0.0520
 9477SOL    HW239894   0.244   0.060   7.377 -0.1864  0.2859 -0.8561
 9478SOL     OW39895   1.414   0.104   3.700 -0.3204 -0.2149 -0.0557
 9478SOL    HW139896   1.476   0.081   3.631  0.2593 -2.0015  1.0491
 9478SOL    HW239897   1.442   0.195   3.696 -0.9666 -0.0083  0.2496
 9479SOL     OW39898   0.609   3.940  15.761  0.1952 -0.7531 -0.1870
 9479SOL    HW139899   0.593   3.848  15.781  0.5181 -0.8644 -0.4431
 9479SOL    HW239900   0.585   3.981  15.844  0.7359  1.1058 -0.9535
 9480SOL     OW39901   0.174   4.680   4.365  0.5869  0.0965  0.0765
 9480SOL    HW139902   0.170   4.640   4.452  1.5293 -2.1550 -0.9070
 9480SOL    HW239903   0.139   0.043   4.378 -2.2646 -1.4148  2.4895
 9481SOL     OW39904   4.350   1.909  15.999  0.1607 -0.1633  0.0463
 9481SOL    HW139905   4.266   1.939  15.964  0.0801 -0.9392 -0.4218
 9481SOL    HW239906   4.382   1.982  16.051 -1.2055 -0.4825  1.3407
 9482SOL     OW39907   4.524   3.487  15.697  0.2581  0.0818  0.3803
 9482SOL    HW139908   4.453   3.424  15.707 -0.4450  0.9926  1.1476
 9482SOL    HW239909   4.502   3.504  15.605  0.0723  3.9223  1.1057
 9483SOL     OW39910   4.005   4.118  13.681 -0.1490  0.2124  0.2839
 9483SOL    HW139911   4.023   4.034  13.724  0.5229  0.0259 -0.3600
 9483SOL    HW239912   3.917   4.096  13.649 -0.1778 -3.6366  2.9317
 9484SOL     OW39913   3.637   0.008   8.615  0.2719  0.1213 -0.3344
 9484SOL    HW139914   3.628   0.063   8.693 -1.1389  2.0022 -1.8408
 9484SOL    HW239915   3.711   0.049   8.569  0.7114  2.4496  2.4268
 9485SOL     OW39916   1.475   1.557   5.814 -0.2734  0.5370  0.1984
 9485SOL    HW139917   1.565   1.526   5.820 -1.3367 -1.9828  2.8134
 9485SOL    HW239918   1.429   1.481   5.779 -0.1358 -0.0956  1.4015
 9486SOL     OW39919   4.670   4.442  16.979  0.1023 -0.4308  0.3654
 9486SOL    HW139920   4.689   4.520  16.927  0.7984 -1.0198 -0.2766
 9486SOL    HW239921   4.616   4.489  17.042  0.3390  0.6633 -0.2518
 9487SOL     OW39922   4.251   3.400   8.780  0.0728 -0.5416 -0.5032
 9487SOL    HW139923   4.234   3.343   8.855  1.0945 -0.6112 -0.3260
 9487SOL    HW239924   4.201   3.352   8.714 -0.4738  1.0267 -1.2260
 9488SOL     OW39925   1.103   4.581   4.020 -0.7405 -0.3908  0.2552
 9488SOL    HW139926   1.090   4.635   3.942  0.5110 -0.6590 -0.1421
 9488SOL    HW239927   1.078   4.495   3.986  2.5924 -1.9126  1.6006
 9489SOL     OW39928   2.309   0.601   7.460 -0.5064 -0.2972  0.3442
 9489SOL    HW139929   2.340   0.651   7.534  1.5507  2.1093 -2.1596
 9489SOL    HW239930   2.232   0.557   7.497 -0.4680 -0.6192  0.0403
 9490SOL     OW39931   2.500   0.737   8.769  0.3028 -0.3247  0.3911
 9490SOL    HW139932   2.557   0.734   8.846  2.0286  0.3348 -0.8539
 9490SOL    HW239933   2.428   0.683   8.802  0.8436 -0.5825  1.1319
 9491SOL     OW39934   3.794   2.619   3.546 -0.0913 -0.4462 -0.1166
 9491SOL    HW139935   3.835   2.658   3.622  1.7722 -1.2398 -0.7090
 9491SOL    HW239936   3.708   2.616   3.588  0.6091  0.1225  1.3241
 9492SOL     OW39937   0.630   2.162   6.139  0.0071 -0.5700 -0.1021
 9492SOL    HW139938   0.626   2.253   6.110  2.3656  0.0022  1.3342
 9492SOL    HW239939   0.588   2.177   6.224 -0.7183 -0.0840 -0.5465
 9493SOL     OW39940   0.167   4.517   3.412 -0.8127  0.2951 -0.0113
 9493SOL    HW139941   0.170   4.422   3.419  0.0294  0.3362  0.1505
 9493SOL    HW239942   0.256   4.533   3.443 -1.9867  3.3032  1.7529
 9494SOL     OW39943   2.984   4.007   7.006 -0.0347 -0.2759 -0.2023
 9494SOL    HW139944   2.938   3.939   7.055 -1.8312  1.1868  0.1651
 9494SOL    HW239945   3.000   4.061   7.084 -1.4820 -0.2737  0.0835
 9495SOL     OW39946   3.465   3.789   8.524 -0.0743 -0.4737  0.1957
 9495SOL    HW139947   3.523   3.807   8.597 -1.1824 -1.4479  1.3066
 9495SOL    HW239948   3.538   3.755   8.472 -1.4096 -0.9761 -1.3672
 9496SOL     OW39949   3.487   1.834  11.586 -0.1456  0.1452 -0.4146
 9496SOL    HW139950   3.445   1.842  11.500  0.9502  0.2452 -0.9307
 9496SOL    HW239951   3.514   1.925  11.584 -0.6188  0.3294  2.4500
 9497SOL     OW39952   3.851   0.462  15.478 -0.2559 -0.0465  0.1606
 9497SOL    HW139953   3.857   0.415  15.562 -0.7394 -1.2050 -0.4546
 9497SOL    HW239954   3.822   0.551  15.495  2.9404  1.0597 -0.2463
 9498SOL     OW39955   0.509   3.443   6.719 -0.2005  0.4411 -0.2525
 9498SOL    HW139956   0.549   3.522   6.684  1.5426 -0.7929 -1.0412
 9498SOL    HW239957   0.577   3.376   6.716  0.3746  1.0698 -1.2405
 9499SOL     OW39958   3.253   1.403   6.712  0.1887  0.4690 -0.4789
 9499SOL    HW139959   3.250   1.331   6.650  2.3329  2.8011 -3.2945
 9499SOL    HW239960   3.348   1.403   6.725  0.1723 -2.0184 -0.4421
 9500SOL     OW39961   0.147   2.338   9.798 -0.4920 -0.2935  0.0897
 9500SOL    HW139962   0.181   2.356   9.886 -1.0720  0.6871  0.1060
 9500SOL    HW239963   0.194   2.400   9.742 -2.3941  0.7015 -0.4042
 9501SOL     OW39964   2.025   0.850   4.034 -0.6322  0.1876  0.0077
 9501SOL    HW139965   2.020   0.903   3.955  2.7210 -1.5243 -1.3829
 9501SOL    HW239966   1.941   0.805   4.024 -1.2729  1.2149  0.7213
 9502SOL     OW39967   3.056   2.703  13.062  0.3123 -0.1453  0.3598
 9502SOL    HW139968   3.150   2.717  13.079 -0.2063  1.2871  2.0116
 9502SOL    HW239969   3.043   2.779  13.004  4.1562  0.4134  0.1802
 9503SOL     OW39970   1.500   2.494   4.735  0.1624  0.7066  0.1792
 9503SOL    HW139971   1.435   2.555   4.769  0.6339  1.0591  0.4403
 9503SOL    HW239972   1.497   2.537   4.649 -0.4032 -1.0232 -0.6845
 9504SOL     OW39973   1.635   0.666   8.961 -0.3009  0.4676  0.5200
 9504SOL    HW139974   1.716   0.716   8.968  1.0122 -1.7959  1.4654
 9504SOL    HW239975   1.644   0.613   8.882  2.5773  1.4159  0.2376
 9505SOL     OW39976   0.284   0.510  12.487 -0.4193  0.4453 -0.0044
 9505SOL    HW139977   0.312   0.554  12.568 -1.3692 -2.5499  1.9133
 9505SOL    HW239978   0.367   0.476  12.454 -0.3435 -3.5301  4.2014
 9506SOL     OW39979   2.973   0.916   7.189 -0.2778  0.5234  0.7233
 9506SOL    HW139980   3.016   0.976   7.129 -0.7830  1.6565  1.4996
 9506SOL    HW239981   2.948   0.976   7.259 -1.7054  2.2734 -1.3026
 9507SOL     OW39982   3.657   2.065   4.333 -0.0255 -0.8023  0.3410
 9507SOL    HW139983   3.666   2.135   4.268  1.5667 -2.4615 -1.2076
 9507SOL    HW239984   3.741   2.025   4.311  0.0044  0.1625 -1.2797
 9508SOL     OW39985   3.680   4.190  16.975 -0.0296 -0.5287 -0.9331
 9508SOL    HW139986   3.648   4.200  16.885 -0.7955  0.1204 -0.5863
 9508SOL    HW239987   3.606   4.198  17.035  1.2276  3.8926  0.0298
 9509SOL     OW39988   4.500   1.387  12.800  0.4656  0.9258  0.0352
 9509SOL    HW139989   4.535   1.391  12.712  0.0010  0.4619 -0.1690
 9509SOL    HW239990   4.407   1.379  12.780  0.7117 -2.5209  0.2797
 9510SOL     OW39991   0.139   4.111   8.026  0.0675 -0.0498  0.4816
 9510SOL    HW139992   0.082   4.064   8.087  0.1869  0.9897  1.3856
 9510SOL    HW239993   0.204   4.044   8.004  0.8482 -0.2444  3.4443
 9511SOL     OW39994   2.609   1.494   8.628  0.5330  0.1752  0.6586
 9511SOL    HW139995   2.667   1.428   8.591 -0.5618 -0.4393  0.0624
 9511SOL    HW239996   2.678   1.542   8.675  1.0181  0.8959 -0.7940
 9512SOL     OW39997   4.420   4.292   7.932  0.3965  0.0956  0.0245
 9512SOL    HW139998   4.421   4.244   7.849 -0.0096 -1.9400  1.2027
 9512SOL    HW239999   4.472   4.370   7.912 -3.3272  2.3781 -0.6828
 9513SOL     OW40000   3.085   1.236   7.154 -0.0450  0.3594  0.4370
 9513SOL    HW140001   3.093   1.310   7.095 -0.5725 -0.9677 -1.2917
 9513SOL    HW240002   3.020   1.190   7.102  0.7522  0.1818 -0.4037
 9514SOL     OW40003   1.050   1.764   3.133 -0.0651  0.1551 -0.1374
 9514SOL    HW140004   1.121   1.793   3.192  0.4863  1.0232 -1.2284
 9514SOL    HW240005   1.032   1.671   3.146  0.4389  0.1463  0.5491
 9515SOL     OW40006   0.585   4.098   3.902  0.4845 -0.1982 -0.0273
 9515SOL    HW140007   0.517   4.065   3.961 -2.5817  1.6383 -2.5196
 9515SOL    HW240008   0.595   4.023   3.844  0.4858 -0.6271  0.5285
 9516SOL     OW40009   0.324   1.281   2.983 -0.4404 -0.1720 -0.1993
 9516SOL    HW140010   0.358   1.192   2.980  1.7144  0.6457 -0.3715
 9516SOL    HW240011   0.294   1.293   2.893 -3.4713 -0.0473  0.8053
 9517SOL     OW40012   4.156   4.366  17.458 -0.0060 -0.2569  0.0330
 9517SOL    HW140013   4.101   4.429  17.506  0.6270  0.5531 -0.3031
 9517SOL    HW240014   4.090   4.300  17.438  0.1765 -0.7811  1.1585
 9518SOL     OW40015   1.926   0.708   6.448  0.4988  0.2135 -0.2006
 9518SOL    HW140016   1.837   0.741   6.442  0.3757 -0.2812 -0.9702
 9518SOL    HW240017   1.949   0.714   6.355 -2.0698 -1.0485 -0.9200
 9519SOL     OW40018   0.424   2.401  10.233  0.3527  0.2143  0.0458
 9519SOL    HW140019   0.414   2.393  10.327 -1.9681 -0.2959 -0.2519
 9519SOL    HW240020   0.426   2.316  10.188 -0.1775  0.0973  0.2431
 9520SOL     OW40021   1.420   0.190   4.463 -0.0583 -0.3049  0.2723
 9520SOL    HW140022   1.358   0.167   4.394 -0.4019  1.0764  0.1281
 9520SOL    HW240023   1.390   0.118   4.519 -1.0858  0.1527  0.3217
 9521SOL     OW40024   2.034   2.001   0.910 -0.2931 -0.5506  0.1382
 9521SOL    HW140025   1.939   1.994   0.904 -0.6346  3.3254  1.2641
 9521SOL    HW240026   2.053   2.088   0.944  0.6943 -1.1585  1.1619
 9522SOL     OW40027   2.638   0.136   3.951 -0.3283  0.3846 -0.4964
 9522SOL    HW140028   2.728   0.102   3.958 -0.2885  0.4920 -0.4828
 9522SOL    HW240029   2.599   0.081   3.884  2.6003 -1.0522 -1.0449
 9523SOL     OW40030   0.703   0.667   1.235  0.2911 -0.2467  0.0085
 9523SOL    HW140031   0.735   0.693   1.148  1.3820  0.9360  0.7694
 9523SOL    HW240032   0.693   0.751   1.281  0.5409  0.2851 -0.9026
 9524SOL     OW40033   0.041   2.970   6.619 -0.4599  0.6360  0.2053
 9524SOL    HW140034   0.094   3.024   6.677  0.6698 -0.0547 -0.1877
 9524SOL    HW240035   4.673   2.989   6.637 -0.8388  0.7985 -1.8935
 9525SOL     OW40036   1.089   1.127   6.257 -0.6502 -0.0304  0.1205
 9525SOL    HW140037   1.064   1.201   6.201  0.1462  0.3787  0.2995
 9525SOL    HW240038   1.030   1.141   6.331 -0.8351  0.1508 -0.0607
 9526SOL     OW40039   0.069   4.500   3.053 -0.2205 -0.2650  0.6693
 9526SOL    HW140040   0.135   4.446   3.008  0.4229 -0.0043  1.2902
 9526SOL    HW240041   4.717   4.497   2.997 -0.6909  1.4784  1.2249
 9527SOL     OW40042   1.950   4.422   7.062 -0.2497 -0.1727  0.2449
 9527SOL    HW140043   1.998   4.504   7.075 -2.5598  1.3562 -0.8868
 9527SOL    HW240044   1.860   4.456   7.056  1.1736  3.5745  0.1168
 9528SOL     OW40045   4.711   1.004  15.388  1.1642 -0.1781 -0.4304
 9528SOL    HW140046   0.005   0.979  15.479 -2.8805  0.9782  0.7281
 9528SOL    HW240047   0.061   0.964  15.344  1.8484  0.9814 -0.3220
 9529SOL     OW40048   2.141   2.946   8.298  0.1625 -0.5103  0.2442
 9529SOL    HW140049   2.107   2.959   8.386  0.4483  0.0335  0.2793
 9529SOL    HW240050   2.135   3.038   8.270 -0.9466 -1.0955 -1.4360
 9530SOL     OW40051   1.261   0.472   2.644  0.0624  0.6920  0.0488
 9530SOL    HW140052   1.314   0.449   2.721 -0.3111  1.8192  0.6401
 9530SOL    HW240053   1.298   0.556   2.617 -0.8539  1.3074  0.6871
 9531SOL     OW40054   1.806   4.149  16.791 -0.0688  0.1973 -0.8019
 9531SOL    HW140055   1.892   4.147  16.832 -0.9139  1.9602  1.1054
 9531SOL    HW240056   1.768   4.066  16.818 -0.2739  1.0643  1.5361
 9532SOL     OW40057   1.044   4.649   2.152 -0.2488 -0.2129 -0.2230
 9532SOL    HW140058   0.992   4.588   2.205 -1.2878  2.2622  1.6349
 9532SOL    HW240059   1.107   4.670   2.221  1.3931  1.0498 -2.1179
 9533SOL     OW40060   4.257   2.558  13.861  0.0372  0.2642  0.5607
 9533SOL    HW140061   4.284   2.616  13.932  0.9784 -0.2786  0.6369
 9533SOL    HW240062   4.171   2.528  13.890 -0.7043  0.5156 -1.3735
 9534SOL     OW40063   0.584   3.919  12.900  0.6877  0.1704 -0.4724
 9534SOL    HW140064   0.597   3.891  12.990 -0.1178 -3.5498 -1.5185
 9534SOL    HW240065   0.562   4.011  12.915 -0.7965 -0.4973  1.4181
 9535SOL     OW40066   1.767   2.647   6.614 -0.5836  0.4756  0.4817
 9535SOL    HW140067   1.854   2.684   6.602 -0.4262 -0.3283 -0.8098
 9535SOL    HW240068   1.757   2.642   6.709  0.1860 -0.9455  0.4851
 9536SOL     OW40069   2.732   2.395   8.814  0.1358  0.0481 -0.1110
 9536SOL    HW140070   2.719   2.443   8.732  1.0232 -0.2750 -0.4389
 9536SOL    HW240071   2.669   2.324   8.803  0.6283 -0.5234  0.7161
 9537SOL     OW40072   0.298   0.214   5.232 -0.0033 -0.0125 -0.6277
 9537SOL    HW140073   0.213   0.242   5.197  0.4166  2.5570  0.3943
 9537SOL    HW240074   0.357   0.260   5.172  2.1947 -1.3493  0.5183
 9538SOL     OW40075   3.271   0.023   7.428 -0.3564  0.0970 -0.5496
 9538SOL    HW140076   3.276   0.069   7.343 -0.6696 -1.7786 -1.5815
 9538SOL    HW240077   3.213   4.677   7.399 -1.6769  1.4368 -1.2307
 9539SOL     OW40078   3.592   3.410   8.594  0.3879  0.0342  0.6532
 9539SOL    HW140079   3.508   3.395   8.638  0.6938 -1.8467  0.5918
 9539SOL    HW240080   3.631   3.471   8.657  1.0413  0.5985 -0.2968
 9540SOL     OW40081   4.209   1.798   6.825 -0.2371  0.1393  0.3355
 9540SOL    HW140082   4.128   1.822   6.870 -1.9061 -0.9460 -2.1276
 9540SOL    HW240083   4.200   1.848   6.744 -0.4474 -1.1777 -0.4458
 9541SOL     OW40084   0.837   3.459   3.018  0.5022  0.1287  0.2423
 9541SOL    HW140085   0.776   3.437   2.947 -1.5390 -0.5396  2.2175
 9541SOL    HW240086   0.906   3.393   3.008  0.1548 -0.3930  1.3066
 9542SOL     OW40087   0.864   3.449   2.675 -0.2236 -0.2550 -0.0238
 9542SOL    HW140088   0.821   3.532   2.693  2.4605  0.7466  1.6982
 9542SOL    HW240089   0.791   3.386   2.676  0.4940 -1.1003 -0.4023
 9543SOL     OW40090   4.358   2.654   0.666 -0.0147 -0.4389 -0.1664
 9543SOL    HW140091   4.388   2.587   0.728  1.0518 -1.4954 -1.8320
 9543SOL    HW240092   4.277   2.680   0.711  0.2140  1.0921 -0.6536
 9544SOL     OW40093   4.006   3.134   9.364  0.3181 -0.4772 -0.5533
 9544SOL    HW140094   3.972   3.216   9.401  0.4636 -0.2057 -1.0224
 9544SOL    HW240095   4.008   3.080   9.443  1.1059 -0.0062 -0.2418
 9545SOL     OW40096   2.917   1.323   3.954  0.1593  0.1771 -0.1415
 9545SOL    HW140097   2.959   1.391   4.007 -1.1384  1.3414 -0.5825
 9545SOL    HW240098   2.976   1.326   3.879 -0.7638  0.5260 -0.8460
 9546SOL     OW40099   1.240   1.208   5.230  0.3728 -0.8804  0.1459
 9546SOL    HW140100   1.146   1.220   5.219  0.4042 -0.6444  0.1156
 9546SOL    HW240101   1.289   1.249   5.158  0.7444 -0.3656  0.6872
 9547SOL     OW40102   0.936   3.112  14.667 -0.1072  0.0417 -0.4001
 9547SOL    HW140103   1.019   3.157  14.680  0.5002 -0.7225 -1.6142
 9547SOL    HW240104   0.879   3.177  14.626  0.3987  1.5242  1.2323
 9548SOL     OW40105   2.182   0.623  11.050  0.2804  0.0432  0.1479
 9548SOL    HW140106   2.271   0.595  11.030 -0.4544 -2.2475  0.0198
 9548SOL    HW240107   2.147   0.626  10.960  0.3541 -0.6436  0.0933
 9549SOL     OW40108   4.120   2.188   4.390  0.0687  0.4000  0.6116
 9549SOL    HW140109   4.168   2.248   4.333  0.4445  1.8771  2.4813
 9549SOL    HW240110   4.190   2.148   4.442 -0.5637 -1.1790  0.2525
 9550SOL     OW40111   0.476   4.605   3.911  0.4436  0.4744 -0.2142
 9550SOL    HW140112   0.533   4.578   3.838 -0.3791  1.0728 -1.0730
 9550SOL    HW240113   0.466   4.699   3.896 -1.2560  0.2213 -0.6189
 9551SOL     OW40114   4.618   1.160   2.423 -0.2343 -0.3067  0.0666
 9551SOL    HW140115   4.708   1.135   2.403  0.0133  0.9016 -0.3318
 9551SOL    HW240116   4.578   1.156   2.337 -0.2568 -0.4342  0.0839
 9552SOL     OW40117   0.426   3.989   0.059  0.6518  0.2198  0.2629
 9552SOL    HW140118   0.396   4.035  17.680 -1.6429 -2.2818 -0.3236
 9552SOL    HW240119   0.344   3.968   0.104  1.5008 -1.2991  1.0751
 9553SOL     OW40120   4.111   3.980  16.499 -0.4253  0.0812 -0.2813
 9553SOL    HW140121   4.123   3.998  16.406  0.8112  0.2698 -0.0837
 9553SOL    HW240122   4.198   4.000  16.533 -0.9208  0.4883  0.7482
 9554SOL     OW40123   3.453   0.133   8.299 -0.2239 -0.0678  0.1935
 9554SOL    HW140124   3.388   0.155   8.366 -1.0828 -2.5099  0.1568
 9554SOL    HW240125   3.515   0.205   8.314 -1.3918  1.3589 -1.8265
 9555SOL     OW40126   1.494   3.424   3.398 -0.8073  0.3101  0.3212
 9555SOL    HW140127   1.569   3.438   3.456 -1.2091 -0.8119  1.1240
 9555SOL    HW240128   1.529   3.482   3.331 -2.3712 -1.2265 -1.8429
 9556SOL     OW40129   2.658   1.780  10.484  0.2216  0.5628  0.3630
 9556SOL    HW140130   2.663   1.689  10.516 -0.5754 -0.2448 -1.8457
 9556SOL    HW240131   2.618   1.824  10.559 -0.2433 -0.4512  0.7136
 9557SOL     OW40132   1.941   4.350   5.816 -0.6821 -0.3555  0.1352
 9557SOL    HW140133   1.891   4.420   5.858 -0.5171  0.5366 -1.1584
 9557SOL    HW240134   2.010   4.401   5.773 -0.5301  0.1256  0.9520
 9558SOL     OW40135   0.338   4.044   9.069 -0.1909  0.4707  0.0019
 9558SOL    HW140136   0.401   4.037   9.140 -0.9987 -0.7177  0.5984
 9558SOL    HW240137   0.393   4.073   8.996  0.4057 -2.1567 -0.6116
 9559SOL     OW40138   3.598   2.828   4.789 -0.3335 -0.5611 -0.8440
 9559SOL    HW140139   3.633   2.785   4.867  1.1703 -0.1971 -1.3171
 9559SOL    HW240140   3.679   2.860   4.748 -0.1727 -1.0251 -0.8868
 9560SOL     OW40141   0.117   1.956   3.194  0.2711 -0.5403  0.4647
 9560SOL    HW140142   0.136   1.995   3.109  0.7445 -2.8119 -0.4807
 9560SOL    HW240143   0.145   2.024   3.256 -1.8299  0.0356  0.7806
 9561SOL     OW40144   3.856   2.528   4.711  0.3979  0.7142 -0.5748
 9561SOL    HW140145   3.886   2.602   4.764 -1.5928  2.2387 -1.5476
 9561SOL    HW240146   3.902   2.551   4.630  0.8685  0.0491 -0.4897
 9562SOL     OW40147   3.970   0.815   1.921  0.3874 -0.1383 -0.0156
 9562SOL    HW140148   3.902   0.798   1.986 -0.0026  2.0985  0.1534
 9562SOL    HW240149   3.944   0.766   1.843 -0.2690 -0.7883  0.6190
 9563SOL     OW40150   4.022   3.202   0.578  0.1888  0.2200  0.2905
 9563SOL    HW140151   4.000   3.161   0.494  0.3401 -1.3924  1.0533
 9563SOL    HW240152   4.093   3.253   0.539  0.2510  0.5090  0.7798
 9564SOL     OW40153   1.068   3.195  16.301 -0.4563  0.3955 -0.2106
 9564SOL    HW140154   1.005   3.252  16.346 -1.4058 -0.6666 -0.1882
 9564SOL    HW240155   1.092   3.131  16.369  2.3563  1.0932 -0.5402
 9565SOL     OW40156   0.063   2.572   3.335  0.1686 -0.0296 -0.5134
 9565SOL    HW140157   0.144   2.616   3.313  0.9338 -1.5238 -0.6821
 9565SOL    HW240158   0.098   2.506   3.396  1.7254 -1.0694 -2.5491
 9566SOL     OW40159   4.597   1.075  15.970 -0.1478 -0.3940  0.5857
 9566SOL    HW140160   4.689   1.054  15.990  0.4703 -0.2216 -2.0186
 9566SOL    HW240161   4.567   0.992  15.932 -0.5338  0.7220 -1.5411
 9567SOL     OW40162   1.273   1.097   2.612  0.8447 -0.0963  0.1458
 9567SOL    HW140163   1.275   1.055   2.526  1.8497 -0.4872  0.3691
 9567SOL    HW240164   1.181   1.076   2.630  0.9429 -0.8418 -0.2144
 9568SOL     OW40165   1.862   2.049  12.690 -0.0392 -0.1341 -0.4004
 9568SOL    HW140166   1.772   2.019  12.702 -0.1801  1.1785  1.9190
 9568SOL    HW240167   1.853   2.136  12.728  1.1218  0.8219 -2.3052
   4.72444   4.72444  17.69933
